/*--------------------------------*- C++ -*----------------------------------*\
| =========                 |                                                 |
| \\      /  F ield         | OpenFOAM: The Open Source CFD Toolbox           |
|  \\    /   O peration     | Version:  2406                                  |
|   \\  /    A nd           | Website:  www.openfoam.com                      |
|    \\/     M anipulation  |                                                 |
\*---------------------------------------------------------------------------*/
FoamFile
{
    version     2.0;
    format      ascii;
    arch        "LSB;label=32;scalar=64";
    class       volVectorField;
    location    "23";
    object      U;
}
// * * * * * * * * * * * * * * * * * * * * * * * * * * * * * * * * * * * * * //

dimensions      [0 1 -1 0 0 0 0];

internalField   nonuniform List<vector> 
1800
(
(0.187008 -0.00125896 0)
(0.194792 -0.00100787 0)
(0.198676 -0.000877561 0)
(0.201635 -0.000951921 0)
(0.205402 -0.00121968 0)
(0.210598 -0.00182673 0)
(0.218205 -0.00311398 0)
(0.23059 -0.00609705 0)
(0.255385 -0.0165712 0)
(0.294226 -0.0635903 0)
(0.502931 -0.00370339 0)
(0.510127 -0.00551214 0)
(0.515181 -0.00559745 0)
(0.519595 -0.00643632 0)
(0.525891 -0.00833222 0)
(0.53466 -0.0117447 0)
(0.546793 -0.0178849 0)
(0.564129 -0.0292308 0)
(0.589769 -0.0515032 0)
(0.619183 -0.0996431 0)
(0.743272 -0.0034959 0)
(0.749034 -0.00719449 0)
(0.75308 -0.0093513 0)
(0.756465 -0.0119652 0)
(0.761852 -0.0158868 0)
(0.769533 -0.021912 0)
(0.779617 -0.0314573 0)
(0.792364 -0.0469326 0)
(0.807331 -0.0724519 0)
(0.819274 -0.114419 0)
(0.903666 -0.00312532 0)
(0.908442 -0.00782183 0)
(0.9111 -0.0115908 0)
(0.912382 -0.0157632 0)
(0.915032 -0.0212504 0)
(0.919114 -0.0289254 0)
(0.924095 -0.0400334 0)
(0.929282 -0.0563019 0)
(0.933128 -0.0798966 0)
(0.931626 -0.112669 0)
(0.983805 -0.0027153 0)
(0.987766 -0.00746124 0)
(0.988971 -0.0119067 0)
(0.987926 -0.0168201 0)
(0.987369 -0.0229099 0)
(0.987224 -0.030925 0)
(0.986622 -0.0417771 0)
(0.984528 -0.0564994 0)
(0.979337 -0.0760203 0)
(0.968311 -0.100509 0)
(0.983729 -0.00200724 0)
(0.987009 -0.0060293 0)
(0.986877 -0.0103435 0)
(0.983803 -0.015171 0)
(0.980463 -0.020921 0)
(0.976657 -0.0281546 0)
(0.971401 -0.0374604 0)
(0.963642 -0.0493704 0)
(0.952048 -0.0641782 0)
(0.934836 -0.0815408 0)
(0.903451 -0.000870832 0)
(0.906324 -0.00362845 0)
(0.905264 -0.00731426 0)
(0.900907 -0.0114513 0)
(0.895794 -0.0161565 0)
(0.889599 -0.0218295 0)
(0.881354 -0.0288169 0)
(0.87015 -0.037348 0)
(0.854993 -0.0474451 0)
(0.834773 -0.0587121 0)
(0.742966 0.000798288 0)
(0.746074 -0.000631493 0)
(0.744962 -0.00361503 0)
(0.740507 -0.00674193 0)
(0.735027 -0.00998929 0)
(0.728126 -0.0136879 0)
(0.718986 -0.0180429 0)
(0.706929 -0.0231384 0)
(0.691294 -0.0289275 0)
(0.671447 -0.0351357 0)
(0.502656 0.00246796 0)
(0.507358 0.00179008 0)
(0.507469 -0.000611578 0)
(0.504311 -0.00253893 0)
(0.500021 -0.00420803 0)
(0.49432 -0.00594633 0)
(0.486681 -0.0078719 0)
(0.47672 -0.0100204 0)
(0.464078 -0.0123685 0)
(0.448451 -0.0147991 0)
(0.186924 0.00109485 0)
(0.193554 0.000484138 0)
(0.194935 3.99065e-05 0)
(0.193998 -0.000228469 0)
(0.192261 -0.000450433 0)
(0.189732 -0.000660908 0)
(0.186249 -0.000885156 0)
(0.181704 -0.00111952 0)
(0.175998 -0.00135357 0)
(0.169061 -0.0015759 0)
(-0.000456514 0.000445194 0)
(-0.00273858 0.00080998 0)
(-0.0055213 0.000793755 0)
(-0.00769468 0.000547274 0)
(-0.00850137 0.000217365 0)
(-0.00773337 -0.000117522 0)
(-0.00548476 -0.000411575 0)
(-0.00199933 -0.000642762 0)
(0.00241564 -0.000804724 0)
(0.00744344 -0.000900623 0)
(0.0127903 -0.00093888 0)
(0.018203 -0.000930275 0)
(0.0234769 -0.00088604 0)
(0.0284568 -0.000816939 0)
(0.033034 -0.000732373 0)
(0.0371408 -0.000640221 0)
(0.0407439 -0.000546547 0)
(0.0438371 -0.000455884 0)
(0.0464353 -0.000371242 0)
(0.0485679 -0.000294528 0)
(0.0502745 -0.000226638 0)
(0.0516 -0.000167853 0)
(0.0525917 -0.000117895 0)
(0.0532968 -7.62384e-05 0)
(0.0537608 -4.21147e-05 0)
(0.054026 -1.47255e-05 0)
(0.0541309 6.79179e-06 0)
(0.0541098 2.32243e-05 0)
(0.0539929 3.53453e-05 0)
(0.0538062 4.38205e-05 0)
(0.0535715 4.92759e-05 0)
(0.0533073 5.22285e-05 0)
(0.0530285 5.31599e-05 0)
(0.0527471 5.24552e-05 0)
(0.0524725 5.04779e-05 0)
(-0.000917389 0.00278763 0)
(-0.00555491 0.00508937 0)
(-0.0104255 0.00472977 0)
(-0.0135048 0.00264256 0)
(-0.0134552 -0.000203529 0)
(-0.00995636 -0.00313358 0)
(-0.00325901 -0.00574132 0)
(0.00608544 -0.00782075 0)
(0.0174001 -0.00930027 0)
(0.0299947 -0.0101926 0)
(0.0432311 -0.010559 0)
(0.0565599 -0.0104849 0)
(0.0695351 -0.010064 0)
(0.0818155 -0.00938812 0)
(0.0931582 -0.0085409 0)
(0.103407 -0.00759443 0)
(0.112481 -0.00660805 0)
(0.120357 -0.00562825 0)
(0.127059 -0.0046897 0)
(0.132646 -0.00381653 0)
(0.137201 -0.0030241 0)
(0.14082 -0.00232059 0)
(0.143609 -0.00170863 0)
(0.145674 -0.00118668 0)
(0.147121 -0.000750298 0)
(0.148049 -0.000393078 0)
(0.14855 -0.000107488 0)
(0.148709 0.000114533 0)
(0.148599 0.000281136 0)
(0.148287 0.000400251 0)
(0.147828 0.000479345 0)
(0.147271 0.000525294 0)
(0.146655 0.000544306 0)
(0.146013 0.000541901 0)
(0.145372 0.000522895 0)
(-0.00112323 0.00616785 0)
(-0.00646621 0.0104102 0)
(-0.0110233 0.00871838 0)
(-0.0125015 0.00344397 0)
(-0.00955699 -0.00333278 0)
(-0.00206476 -0.0101598 0)
(0.00946973 -0.0161604 0)
(0.0242338 -0.0208954 0)
(0.0413135 -0.0242228 0)
(0.0598142 -0.0261857 0)
(0.0789304 -0.0269315 0)
(0.0979795 -0.0266589 0)
(0.116413 -0.0255829 0)
(0.133814 -0.0239123 0)
(0.149887 -0.0218376 0)
(0.164441 -0.0195235 0)
(0.177378 -0.0171065 0)
(0.18867 -0.0146949 0)
(0.198351 -0.0123708 0)
(0.206494 -0.0101929 0)
(0.213206 -0.00820005 0)
(0.218612 -0.00641449 0)
(0.222849 -0.00484552 0)
(0.22606 -0.00349244 0)
(0.228383 -0.00234719 0)
(0.229954 -0.00139668 0)
(0.230899 -0.000624573 0)
(0.231334 -1.27516e-05 0)
(0.231362 0.000457578 0)
(0.231077 0.000805063 0)
(0.23056 0.00104764 0)
(0.22988 0.00120207 0)
(0.229095 0.00128377 0)
(0.228254 0.00130658 0)
(0.227397 0.00128283 0)
(-0.00122317 0.00984192 0)
(-0.00603502 0.0152267 0)
(-0.00835738 0.0108462 0)
(-0.00606513 0.0010562 0)
(0.00168656 -0.0107017 0)
(0.0145126 -0.022144 0)
(0.0315121 -0.0319567 0)
(0.0516085 -0.0395259 0)
(0.073731 -0.0446975 0)
(0.0969072 -0.0475947 0)
(0.120305 -0.048491 0)
(0.143244 -0.0477279 0)
(0.165195 -0.0456629 0)
(0.185765 -0.0426381 0)
(0.204685 -0.0389624 0)
(0.221788 -0.0349023 0)
(0.236998 -0.0306787 0)
(0.250306 -0.0264679 0)
(0.261762 -0.0224043 0)
(0.271455 -0.0185857 0)
(0.279506 -0.0150774 0)
(0.286055 -0.0119189 0)
(0.291254 -0.00912781 0)
(0.295259 -0.00670544 0)
(0.298225 -0.00464061 0)
(0.300302 -0.00291325 0)
(0.301631 -0.0014974 0)
(0.302345 -0.000363597 0)
(0.302562 0.000519278 0)
(0.302389 0.00118257 0)
(0.301921 0.00165679 0)
(0.301239 0.00197085 0)
(0.300414 0.00215155 0)
(0.299504 0.00222329 0)
(0.298558 0.00220792 0)
(-0.00129134 0.013142 0)
(-0.00442202 0.017877 0)
(-0.00244031 0.00893023 0)
(0.00595963 -0.0066583 0)
(0.0205213 -0.0239697 0)
(0.0400406 -0.0400399 0)
(0.0631299 -0.0533166 0)
(0.0884842 -0.0631821 0)
(0.11498 -0.0695934 0)
(0.141695 -0.0728311 0)
(0.167903 -0.0733365 0)
(0.193048 -0.0716118 0)
(0.216722 -0.0681599 0)
(0.238642 -0.0634505 0)
(0.258633 -0.0579015 0)
(0.276603 -0.05187 0)
(0.292534 -0.0456511 0)
(0.30646 -0.0394795 0)
(0.31846 -0.033535 0)
(0.328642 -0.0279482 0)
(0.33714 -0.0228078 0)
(0.344099 -0.0181672 0)
(0.349672 -0.0140517 0)
(0.354017 -0.0104639 0)
(0.357288 -0.00738951 0)
(0.359633 -0.00480199 0)
(0.361196 -0.00266618 0)
(0.362106 -0.000941695 0)
(0.362485 0.000414628 0)
(0.362441 0.00144668 0)
(0.362072 0.00219763 0)
(0.361462 0.00270876 0)
(0.360685 0.00301872 0)
(0.359802 0.003163 0)
(0.358866 0.00317361 0)
(-0.0012397 0.0155151 0)
(-0.0010085 0.0165656 0)
(0.00808734 0.00052996 0)
(0.0254332 -0.0220074 0)
(0.0489054 -0.0448504 0)
(0.0762729 -0.0647968 0)
(0.105727 -0.0804381 0)
(0.135898 -0.0914145 0)
(0.165786 -0.0979499 0)
(0.194682 -0.100561 0)
(0.222101 -0.0998852 0)
(0.247717 -0.0965847 0)
(0.271328 -0.0912918 0)
(0.292828 -0.0845802 0)
(0.312182 -0.076951 0)
(0.329411 -0.0688275 0)
(0.344577 -0.0605563 0)
(0.357775 -0.0524114 0)
(0.36912 -0.0446018 0)
(0.378744 -0.0372786 0)
(0.386789 -0.0305442 0)
(0.3934 -0.0244598 0)
(0.398724 -0.0190535 0)
(0.402907 -0.0143269 0)
(0.40609 -0.0102619 0)
(0.408409 -0.00682509 0)
(0.409992 -0.00397301 0)
(0.410958 -0.00165542 0)
(0.411417 0.0001816 0)
(0.411468 0.00159318 0)
(0.411201 0.00263391 0)
(0.410694 0.00335637 0)
(0.410017 0.00381015 0)
(0.409228 0.00404114 0)
(0.408377 0.00409104 0)
(-0.000750788 0.0163413 0)
(0.00624127 0.00865261 0)
(0.0267444 -0.0175967 0)
(0.0564697 -0.0475959 0)
(0.0906655 -0.0748689 0)
(0.126264 -0.0968943 0)
(0.161453 -0.11296 0)
(0.195158 -0.123254 0)
(0.226776 -0.128393 0)
(0.255998 -0.129164 0)
(0.282702 -0.126388 0)
(0.306875 -0.120855 0)
(0.328574 -0.113286 0)
(0.347899 -0.104317 0)
(0.364979 -0.0944954 0)
(0.379958 -0.0842751 0)
(0.392988 -0.0740243 0)
(0.404225 -0.0640312 0)
(0.413822 -0.0545129 0)
(0.421929 -0.0456248 0)
(0.428692 -0.0374701 0)
(0.434249 -0.0301085 0)
(0.438732 -0.0235647 0)
(0.442267 -0.0178357 0)
(0.444973 -0.0128972 0)
(0.446961 -0.00870896 0)
(0.448334 -0.00521966 0)
(0.449191 -0.00237065 0)
(0.449619 -9.91483e-05 0)
(0.449701 0.00165919 0)
(0.449508 0.00296823 0)
(0.449106 0.00388978 0)
(0.448554 0.00448251 0)
(0.447899 0.00480101 0)
(0.447185 0.00489521 0)
(0.00105339 0.0133485 0)
(0.0224661 -0.0112054 0)
(0.060868 -0.0502086 0)
(0.106267 -0.0860576 0)
(0.151483 -0.114688 0)
(0.193835 -0.135619 0)
(0.232441 -0.149347 0)
(0.267064 -0.156742 0)
(0.297778 -0.158797 0)
(0.324819 -0.156498 0)
(0.348491 -0.150774 0)
(0.369114 -0.142468 0)
(0.387004 -0.132326 0)
(0.402457 -0.120994 0)
(0.415752 -0.109017 0)
(0.42714 -0.0968436 0)
(0.436851 -0.0848297 0)
(0.445085 -0.0732512 0)
(0.452023 -0.0623119 0)
(0.457823 -0.0521542 0)
(0.462622 -0.0428689 0)
(0.466544 -0.0345049 0)
(0.469697 -0.0270767 0)
(0.472178 -0.0205724 0)
(0.474074 -0.0149597 0)
(0.475465 -0.0101908 0)
(0.476425 -0.00620748 0)
(0.477019 -0.00294429 0)
(0.477308 -0.000331744 0)
(0.477349 0.00170115 0)
(0.477193 0.00322484 0)
(0.476883 0.00430771 0)
(0.476462 0.00501489 0)
(0.475965 0.0054073 0)
(0.475423 0.00554096 0)
(0.012886 -0.00938797 0)
(0.0624911 -0.0570002 0)
(0.12513 -0.103946 0)
(0.185706 -0.138587 0)
(0.237949 -0.162556 0)
(0.282139 -0.177944 0)
(0.319425 -0.186217 0)
(0.350756 -0.188589 0)
(0.376951 -0.186147 0)
(0.398752 -0.179883 0)
(0.416822 -0.170693 0)
(0.431742 -0.159377 0)
(0.444017 -0.146637 0)
(0.454084 -0.133073 0)
(0.462322 -0.119185 0)
(0.469048 -0.10538 0)
(0.474534 -0.0919748 0)
(0.479 -0.0792092 0)
(0.482631 -0.0672553 0)
(0.485571 -0.0562281 0)
(0.487941 -0.0461954 0)
(0.489834 -0.0371868 0)
(0.491325 -0.0292017 0)
(0.492476 -0.0222162 0)
(0.493337 -0.0161883 0)
(0.493951 -0.0110629 0)
(0.494352 -0.00677597 0)
(0.494574 -0.00325706 0)
(0.494646 -0.000432527 0)
(0.494593 0.00177242 0)
(0.494441 0.00343184 0)
(0.494211 0.00461763 0)
(0.493923 0.00539845 0)
(0.493597 0.00583877 0)
(0.493248 0.00599807 0)
(0.0914569 -0.0797595 0)
(0.171551 -0.141659 0)
(0.245612 -0.176718 0)
(0.30684 -0.198108 0)
(0.35398 -0.210835 0)
(0.390698 -0.217081 0)
(0.419637 -0.217931 0)
(0.442347 -0.21422 0)
(0.459947 -0.206765 0)
(0.473368 -0.196362 0)
(0.483403 -0.183767 0)
(0.49073 -0.169668 0)
(0.495924 -0.154674 0)
(0.499469 -0.139304 0)
(0.501767 -0.123986 0)
(0.50315 -0.10906 0)
(0.503881 -0.0947855 0)
(0.504167 -0.0813513 0)
(0.504166 -0.0688857 0)
(0.503992 -0.0574671 0)
(0.503728 -0.0471334 0)
(0.503426 -0.0378909 0)
(0.503122 -0.0297211 0)
(0.502834 -0.0225864 0)
(0.502571 -0.0164356 0)
(0.502334 -0.0112072 0)
(0.502121 -0.00683276 0)
(0.501928 -0.00323944 0)
(0.501751 -0.000352067 0)
(0.501584 0.00190498 0)
(0.501425 0.00360625 0)
(0.501271 0.00482406 0)
(0.501121 0.00562755 0)
(0.500976 0.00608175 0)
(0.500834 0.00624689 0)
(0.3854 -0.179305 0)
(0.407551 -0.216076 0)
(0.436128 -0.232719 0)
(0.466917 -0.241534 0)
(0.491947 -0.244707 0)
(0.510827 -0.243204 0)
(0.524566 -0.237697 0)
(0.533914 -0.228788 0)
(0.539557 -0.217109 0)
(0.542185 -0.203316 0)
(0.54246 -0.18805 0)
(0.540979 -0.171899 0)
(0.538256 -0.155377 0)
(0.534727 -0.138917 0)
(0.530749 -0.122868 0)
(0.526601 -0.107495 0)
(0.5225 -0.092993 0)
(0.518601 -0.0794948 0)
(0.515008 -0.0670806 0)
(0.511786 -0.0557897 0)
(0.508964 -0.045629 0)
(0.506547 -0.0365809 0)
(0.504521 -0.0286092 0)
(0.50286 -0.0216645 0)
(0.501529 -0.0156877 0)
(0.500489 -0.0106129 0)
(0.4997 -0.00637002 0)
(0.499123 -0.00288631 0)
(0.49872 -8.80147e-05 0)
(0.498459 0.00209833 0)
(0.498309 0.00374475 0)
(0.498244 0.00492099 0)
(0.498243 0.00569369 0)
(0.498288 0.00612565 0)
(0.498364 0.00627512 0)
(0.63844 -0.179575 0)
(0.631062 -0.224742 0)
(0.626049 -0.245365 0)
(0.626044 -0.253784 0)
(0.625965 -0.254575 0)
(0.624029 -0.24987 0)
(0.62006 -0.241068 0)
(0.614126 -0.229174 0)
(0.606449 -0.214997 0)
(0.597401 -0.199247 0)
(0.587418 -0.182554 0)
(0.576928 -0.165461 0)
(0.566316 -0.14842 0)
(0.555905 -0.131793 0)
(0.54595 -0.115857 0)
(0.536643 -0.100809 0)
(0.528115 -0.0867824 0)
(0.520443 -0.0738567 0)
(0.513662 -0.062068 0)
(0.507768 -0.0514199 0)
(0.502734 -0.0418917 0)
(0.498508 -0.0334458 0)
(0.495027 -0.0260319 0)
(0.49222 -0.019592 0)
(0.490011 -0.0140623 0)
(0.488323 -0.00937608 0)
(0.487082 -0.00546436 0)
(0.486217 -0.00225758 0)
(0.485664 0.000313722 0)
(0.485363 0.00231799 0)
(0.485261 0.00382199 0)
(0.485313 0.00489015 0)
(0.485478 0.00558403 0)
(0.485723 0.00596165 0)
(0.48602 0.0060769 0)
(0.816677 -0.169407 0)
(0.796806 -0.209114 0)
(0.77342 -0.231187 0)
(0.751991 -0.241088 0)
(0.731652 -0.242382 0)
(0.711527 -0.237372 0)
(0.691413 -0.227842 0)
(0.671271 -0.215153 0)
(0.651175 -0.200352 0)
(0.631324 -0.184267 0)
(0.611982 -0.167569 0)
(0.593421 -0.150792 0)
(0.575881 -0.134348 0)
(0.559551 -0.118545 0)
(0.544569 -0.1036 0)
(0.531013 -0.0896535 0)
(0.518914 -0.0767873 0)
(0.508262 -0.0650361 0)
(0.49901 -0.0544005 0)
(0.491089 -0.0448566 0)
(0.484406 -0.0363635 0)
(0.478861 -0.0288699 0)
(0.474343 -0.0223173 0)
(0.470741 -0.0166441 0)
(0.467943 -0.0117865 0)
(0.465841 -0.00768017 0)
(0.464334 -0.00426092 0)
(0.463326 -0.00146529 0)
(0.46273 0.000769212 0)
(0.462467 0.00250347 0)
(0.462467 0.00379665 0)
(0.462668 0.00470563 0)
(0.463016 0.00528475 0)
(0.463466 0.00558513 0)
(0.463979 0.00565442 0)
(0.918286 -0.151115 0)
(0.892057 -0.182455 0)
(0.859676 -0.202331 0)
(0.826 -0.212177 0)
(0.792404 -0.214033 0)
(0.759304 -0.209712 0)
(0.727056 -0.200877 0)
(0.695923 -0.188943 0)
(0.66611 -0.175037 0)
(0.637818 -0.160044 0)
(0.611242 -0.144646 0)
(0.586551 -0.129354 0)
(0.563865 -0.114545 0)
(0.543255 -0.100474 0)
(0.524738 -0.0873101 0)
(0.508285 -0.0751462 0)
(0.493829 -0.064024 0)
(0.481275 -0.0539459 0)
(0.470503 -0.0448881 0)
(0.461379 -0.0368093 0)
(0.45376 -0.0296579 0)
(0.4475 -0.0233767 0)
(0.442453 -0.0179061 0)
(0.438476 -0.0131861 0)
(0.435432 -0.00915768 0)
(0.43319 -0.00576283 0)
(0.431631 -0.00294527 0)
(0.430642 -0.000650136 0)
(0.430122 0.00117569 0)
(0.42998 0.00258374 0)
(0.430133 0.00362369 0)
(0.430509 0.00434335 0)
(0.431048 0.00478813 0)
(0.431695 0.00500094 0)
(0.432405 0.00502164 0)
(0.947992 -0.127401 0)
(0.917777 -0.150383 0)
(0.881036 -0.165999 0)
(0.841276 -0.174128 0)
(0.800502 -0.175757 0)
(0.759908 -0.172124 0)
(0.720366 -0.164543 0)
(0.682493 -0.154242 0)
(0.646708 -0.142256 0)
(0.613295 -0.129403 0)
(0.582445 -0.116304 0)
(0.554266 -0.103415 0)
(0.528793 -0.0910489 0)
(0.505997 -0.0794115 0)
(0.485798 -0.068622 0)
(0.468079 -0.0587374 0)
(0.452691 -0.0497699 0)
(0.43947 -0.041702 0)
(0.42824 -0.0344969 0)
(0.41882 -0.0281068 0)
(0.411031 -0.0224784 0)
(0.404697 -0.0175567 0)
(0.39965 -0.0132872 0)
(0.395728 -0.00961705 0)
(0.392781 -0.00649576 0)
(0.390669 -0.003875 0)
(0.389261 -0.00170874 0)
(0.388441 4.72572e-05 0)
(0.388099 0.00143534 0)
(0.38814 0.00249641 0)
(0.388478 0.00326969 0)
(0.389038 0.00379284 0)
(0.389755 0.00410164 0)
(0.390572 0.00422986 0)
(0.391442 0.00420891 0)
(0.910174 -0.099712 0)
(0.877795 -0.115377 0)
(0.83956 -0.126272 0)
(0.797908 -0.131926 0)
(0.754782 -0.132793 0)
(0.711637 -0.129682 0)
(0.669599 -0.123548 0)
(0.629489 -0.115334 0)
(0.591865 -0.105862 0)
(0.55707 -0.0957932 0)
(0.525293 -0.0856221 0)
(0.496596 -0.075703 0)
(0.470951 -0.0662719 0)
(0.448255 -0.0574737 0)
(0.42836 -0.0493841 0)
(0.411085 -0.0420306 0)
(0.39623 -0.035407 0)
(0.383588 -0.0294868 0)
(0.372951 -0.0242305 0)
(0.364114 -0.0195936 0)
(0.356883 -0.0155285 0)
(0.35107 -0.0119892 0)
(0.346503 -0.00893108 0)
(0.343017 -0.00631247 0)
(0.340462 -0.00409401 0)
(0.3387 -0.00223932 0)
(0.337603 -0.000713702 0)
(0.337057 0.000515249 0)
(0.336956 0.00147885 0)
(0.337207 0.00220673 0)
(0.337729 0.00272766 0)
(0.338447 0.00306879 0)
(0.339301 0.00325633 0)
(0.340235 0.00331465 0)
(0.341206 0.00326676 0)
(0.80856 -0.0700433 0)
(0.776359 -0.0796761 0)
(0.73939 -0.0862928 0)
(0.699422 -0.0895128 0)
(0.658127 -0.0895753 0)
(0.61691 -0.0870038 0)
(0.576899 -0.08244 0)
(0.538928 -0.0765295 0)
(0.503557 -0.0698399 0)
(0.471116 -0.0628244 0)
(0.441754 -0.0558196 0)
(0.415488 -0.0490589 0)
(0.392236 -0.0426924 0)
(0.371852 -0.0368054 0)
(0.35415 -0.0314369 0)
(0.338918 -0.0265933 0)
(0.325938 -0.0222606 0)
(0.314993 -0.0184117 0)
(0.305871 -0.0150137 0)
(0.298371 -0.0120309 0)
(0.292305 -0.00942806 0)
(0.287496 -0.00717132 0)
(0.283783 -0.00522938 0)
(0.281017 -0.00357312 0)
(0.27906 -0.00217615 0)
(0.277787 -0.00101382 0)
(0.277086 -6.35434e-05 0)
(0.276854 0.000696182 0)
(0.276997 0.00128546 0)
(0.277434 0.00172381 0)
(0.278092 0.00202957 0)
(0.278906 0.00222063 0)
(0.279821 0.00231369 0)
(0.280791 0.00232482 0)
(0.281776 0.00226872 0)
(0.646983 -0.0411545 0)
(0.618102 -0.0461156 0)
(0.58573 -0.0493625 0)
(0.551195 -0.0507048 0)
(0.515839 -0.0502962 0)
(0.480834 -0.0484539 0)
(0.44712 -0.0455551 0)
(0.415385 -0.041971 0)
(0.386074 -0.0380224 0)
(0.359427 -0.03396 0)
(0.335526 -0.0299647 0)
(0.314337 -0.0261574 0)
(0.295747 -0.0226116 0)
(0.279595 -0.0193649 0)
(0.265691 -0.0164301 0)
(0.253832 -0.013803 0)
(0.243819 -0.0114695 0)
(0.235455 -0.00940953 0)
(0.228555 -0.0076011 0)
(0.222949 -0.00602164 0)
(0.218476 -0.00464975 0)
(0.214991 -0.00346541 0)
(0.212363 -0.00245059 0)
(0.210469 -0.00158887 0)
(0.209199 -0.000865588 0)
(0.208455 -0.000267268 0)
(0.208145 0.000218322 0)
(0.208189 0.000602746 0)
(0.208512 0.0008968 0)
(0.209049 0.0011109 0)
(0.209744 0.0012549 0)
(0.210546 0.00133834 0)
(0.211412 0.00137023 0)
(0.212305 0.00135919 0)
(0.213194 0.00131314 0)
(0.429732 -0.0170643 0)
(0.408195 -0.0188324 0)
(0.384538 -0.0198669 0)
(0.359695 -0.020124 0)
(0.3346 -0.019697 0)
(0.310058 -0.018737 0)
(0.286694 -0.0174066 0)
(0.264943 -0.015857 0)
(0.245067 -0.0142124 0)
(0.227181 -0.0125657 0)
(0.211298 -0.0109803 0)
(0.197353 -0.0094957 0)
(0.185233 -0.00813337 0)
(0.1748 -0.00690198 0)
(0.165902 -0.00580112 0)
(0.158384 -0.00482535 0)
(0.152098 -0.00396581 0)
(0.146903 -0.00321281 0)
(0.142669 -0.00255595 0)
(0.139277 -0.00198578 0)
(0.136618 -0.00149317 0)
(0.134594 -0.00107036 0)
(0.133116 -0.00071005 0)
(0.132106 -0.000406237 0)
(0.131489 -0.000153158 0)
(0.131201 5.39444e-05 0)
(0.131182 0.000219834 0)
(0.13138 0.000348569 0)
(0.131747 0.000444371 0)
(0.132241 0.000510918 0)
(0.132824 0.000552102 0)
(0.133464 0.00057133 0)
(0.134133 0.00057219 0)
(0.134808 0.000557762 0)
(0.135469 0.000531228 0)
(0.160903 -0.00176338 0)
(0.151694 -0.00188137 0)
(0.141767 -0.00191062 0)
(0.131532 -0.00185849 0)
(0.121377 -0.00174564 0)
(0.111618 -0.00159379 0)
(0.10248 -0.00142195 0)
(0.0941064 -0.00124534 0)
(0.0865674 -0.00107459 0)
(0.0798786 -0.000916014 0)
(0.0740171 -0.000772684 0)
(0.0689357 -0.000645596 0)
(0.0645733 -0.000534504 0)
(0.0608628 -0.00043843 0)
(0.0577359 -0.000356007 0)
(0.055127 -0.000285693 0)
(0.0529745 -0.000225935 0)
(0.051222 -0.000175265 0)
(0.0498186 -0.000132368 0)
(0.0487186 -9.60904e-05 0)
(0.0478811 -6.54581e-05 0)
(0.0472695 -3.96477e-05 0)
(0.046851 -1.7989e-05 0)
(0.0465961 7.57122e-08 0)
(0.0464783 1.49906e-05 0)
(0.0464736 2.71303e-05 0)
(0.0465604 3.67917e-05 0)
(0.0467192 4.42367e-05 0)
(0.0469326 4.96811e-05 0)
(0.0471851 5.33334e-05 0)
(0.0474632 5.53762e-05 0)
(0.0477551 5.59988e-05 0)
(0.0480508 5.53737e-05 0)
(0.0483418 5.36839e-05 0)
(0.0486215 5.10968e-05 0)
(0.0522119 4.75074e-05 0)
(0.0519704 4.38144e-05 0)
(0.0517518 3.95936e-05 0)
(0.0515582 3.50411e-05 0)
(0.051391 3.02812e-05 0)
(0.0512506 2.54479e-05 0)
(0.051137 2.06043e-05 0)
(0.0510496 1.58304e-05 0)
(0.0509878 1.11348e-05 0)
(0.0509509 6.54895e-06 0)
(0.144751 0.000491443 0)
(0.144166 0.000451042 0)
(0.143628 0.000404603 0)
(0.143145 0.000354461 0)
(0.142723 0.000302462 0)
(0.142364 0.000249963 0)
(0.142068 0.000197928 0)
(0.141837 0.000146918 0)
(0.141669 9.7186e-05 0)
(0.141563 4.86547e-05 0)
(0.226555 0.00122321 0)
(0.225751 0.00113696 0)
(0.225005 0.00103175 0)
(0.224329 0.000913973 0)
(0.223732 0.000788653 0)
(0.22322 0.000659686 0)
(0.222794 0.00052985 0)
(0.222457 0.000400973 0)
(0.222209 0.00027396 0)
(0.222047 0.00014895 0)
(0.297613 0.00212464 0)
(0.296701 0.00199005 0)
(0.295846 0.00181822 0)
(0.295063 0.00162081 0)
(0.294366 0.0014072 0)
(0.293762 0.00118466 0)
(0.293257 0.000958537 0)
(0.292851 0.000732381 0)
(0.292547 0.000508153 0)
(0.292344 0.000286333 0)
(0.357919 0.00307894 0)
(0.356993 0.00290372 0)
(0.356116 0.00266907 0)
(0.355308 0.0023926 0)
(0.354581 0.00208864 0)
(0.353947 0.00176842 0)
(0.353411 0.00144026 0)
(0.352977 0.00110988 0)
(0.352647 0.000780566 0)
(0.352421 0.000453407 0)
(0.407505 0.00399708 0)
(0.406644 0.00379192 0)
(0.405822 0.00350364 0)
(0.405058 0.00315587 0)
(0.404367 0.00276793 0)
(0.40376 0.0023551 0)
(0.403242 0.00192889 0)
(0.402819 0.0014973 0)
(0.402493 0.00106512 0)
(0.402266 0.000634231 0)
(0.446447 0.00480999 0)
(0.445714 0.00458493 0)
(0.445009 0.00425429 0)
(0.44435 0.00384708 0)
(0.443751 0.00338718 0)
(0.44322 0.00289363 0)
(0.442766 0.00238089 0)
(0.442392 0.00185919 0)
(0.4421 0.00133481 0)
(0.441893 0.000810447 0)
(0.474861 0.00546647 0)
(0.474301 0.00522871 0)
(0.473761 0.00486675 0)
(0.473255 0.00441381 0)
(0.472792 0.00389746 0)
(0.472381 0.00333977 0)
(0.472027 0.00275765 0)
(0.471734 0.00216319 0)
(0.471504 0.00156397 0)
(0.471339 0.000963446 0)
(0.49289 0.00593034 0)
(0.492536 0.0056837 0)
(0.492195 0.00530019 0)
(0.491875 0.00481578 0)
(0.491583 0.00426041 0)
(0.491323 0.0036582 0)
(0.491098 0.00302773 0)
(0.490911 0.00238239 0)
(0.490764 0.00173068 0)
(0.490657 0.00107663 0)
(0.500698 0.00617779 0)
(0.500569 0.00592352 0)
(0.500448 0.00552711 0)
(0.500336 0.00502551 0)
(0.500235 0.00444957 0)
(0.500145 0.00382428 0)
(0.500068 0.00316892 0)
(0.500003 0.00249748 0)
(0.499952 0.00181889 0)
(0.499914 0.00113748 0)
(0.498459 0.00619531 0)
(0.498563 0.00593395 0)
(0.49867 0.00553304 0)
(0.498774 0.00502871 0)
(0.498871 0.00445126 0)
(0.498959 0.00382523 0)
(0.499034 0.00316966 0)
(0.499098 0.00249832 0)
(0.499147 0.00182008 0)
(0.499182 0.0011392 0)
(0.486345 0.00597911 0)
(0.48668 0.00571262 0)
(0.48701 0.00531653 0)
(0.487324 0.00482456 0)
(0.487613 0.004265 0)
(0.487871 0.0036608 0)
(0.488095 0.00302977 0)
(0.48828 0.00238478 0)
(0.488426 0.00173407 0)
(0.488531 0.00108155 0)
(0.464523 0.00553618 0)
(0.465072 0.00526971 0)
(0.465607 0.00488966 0)
(0.46611 0.00442597 0)
(0.466572 0.00390372 0)
(0.466982 0.00334334 0)
(0.467335 0.00276055 0)
(0.467628 0.00216673 0)
(0.467856 0.00156908 0)
(0.46802 0.000970914 0)
(0.433142 0.00488686 0)
(0.433875 0.00462952 0)
(0.43458 0.00427879 0)
(0.43524 0.00385977 0)
(0.43584 0.00339359 0)
(0.43637 0.00289729 0)
(0.436825 0.00238408 0)
(0.437199 0.00186332 0)
(0.43749 0.00134094 0)
(0.437696 0.000819432 0)
(0.392327 0.00406765 0)
(0.393196 0.00383206 0)
(0.394024 0.00352513 0)
(0.394791 0.00316664 0)
(0.395483 0.0027732 0)
(0.396092 0.00235818 0)
(0.39661 0.00193186 0)
(0.397033 0.00150147 0)
(0.397359 0.00107147 0)
(0.397587 0.000643585 0)
(0.342175 0.00313349 0)
(0.343114 0.00293392 0)
(0.343998 0.00268458 0)
(0.344811 0.00240003 0)
(0.34554 0.00209209 0)
(0.346175 0.00177059 0)
(0.346712 0.00144268 0)
(0.347147 0.00111366 0)
(0.347478 0.000786345 0)
(0.347705 0.000461987 0)
(0.282744 0.00215915 0)
(0.283669 0.00200825 0)
(0.284533 0.00182699 0)
(0.285319 0.00162453 0)
(0.286018 0.00140876 0)
(0.286622 0.0011857 0)
(0.287129 0.00096016 0)
(0.287535 0.000735149 0)
(0.28784 0.000512624 0)
(0.288044 0.00029291 0)
(0.214056 0.0012395 0)
(0.214869 0.00114481 0)
(0.215621 0.00103496 0)
(0.216299 0.000914887 0)
(0.216897 0.000788768 0)
(0.21741 0.000659826 0)
(0.217836 0.000530542 0)
(0.218173 0.000402485 0)
(0.218423 0.000276569 0)
(0.218587 0.000152885 0)
(0.136101 0.000495201 0)
(0.136691 0.00045232 0)
(0.137231 0.000404599 0)
(0.137714 0.000354036 0)
(0.138137 0.00030197 0)
(0.138496 0.000249732 0)
(0.138791 0.000197986 0)
(0.139023 0.000147433 0)
(0.139192 9.81263e-05 0)
(0.1393 5.02129e-05 0)
(0.0488844 4.77864e-05 0)
(0.0491267 4.39071e-05 0)
(0.0493453 3.96134e-05 0)
(0.0495386 3.50342e-05 0)
(0.0497055 3.02919e-05 0)
(0.0498457 2.54792e-05 0)
(0.0499593 2.06779e-05 0)
(0.0500469 1.59383e-05 0)
(0.0501092 1.1298e-05 0)
(0.0501468 6.76372e-06 0)
(0.0509382 2.03235e-06 0)
(0.0509495 -2.42768e-06 0)
(0.0509847 -6.91702e-06 0)
(0.0510443 -1.14902e-05 0)
(0.0511293 -1.62785e-05 0)
(0.0512415 -2.13814e-05 0)
(0.0513836 -2.6981e-05 0)
(0.0515591 -3.32316e-05 0)
(0.0517727 -4.03819e-05 0)
(0.0520305 -4.8663e-05 0)
(0.0523402 -5.84206e-05 0)
(0.0527116 -7.00031e-05 0)
(0.0531565 -8.39074e-05 0)
(0.0536897 -0.00010067 0)
(0.0543294 -0.000121031 0)
(0.0550981 -0.000145831 0)
(0.0560233 -0.000176202 0)
(0.0571389 -0.000213475 0)
(0.0584865 -0.0002594 0)
(0.0601173 -0.000316063 0)
(0.062094 -0.00038613 0)
(0.0644928 -0.000472736 0)
(0.0674064 -0.000579683 0)
(0.0709452 -0.000711174 0)
(0.0752394 -0.000871732 0)
(0.0804377 -0.00106539 0)
(0.0867034 -0.00129479 0)
(0.094204 -0.00155907 0)
(0.103091 -0.00185127 0)
(0.113469 -0.00215433 0)
(0.125343 -0.00243746 0)
(0.138561 -0.00265372 0)
(0.152742 -0.00274311 0)
(0.167235 -0.00264521 0)
(0.181145 -0.00232439 0)
(0.141519 1.00268e-06 0)
(0.141536 -4.63692e-05 0)
(0.141614 -9.42681e-05 0)
(0.141755 -0.000143755 0)
(0.141962 -0.000196098 0)
(0.142239 -0.000252835 0)
(0.142593 -0.000315754 0)
(0.143034 -0.000386984 0)
(0.143572 -0.000469008 0)
(0.144223 -0.000564787 0)
(0.145006 -0.000677823 0)
(0.145947 -0.000812339 0)
(0.147073 -0.000973401 0)
(0.148422 -0.00116718 0)
(0.150039 -0.00140119 0)
(0.151979 -0.0016846 0)
(0.154309 -0.00202866 0)
(0.15711 -0.00244712 0)
(0.160482 -0.00295675 0)
(0.164547 -0.00357784 0)
(0.16945 -0.00433466 0)
(0.175369 -0.00525571 0)
(0.182514 -0.00637346 0)
(0.191134 -0.00772319 0)
(0.201517 -0.00934025 0)
(0.213987 -0.0112548 0)
(0.228897 -0.0134824 0)
(0.246602 -0.0160099 0)
(0.267426 -0.0187741 0)
(0.291592 -0.0216356 0)
(0.319128 -0.0243506 0)
(0.34974 -0.026554 0)
(0.382671 -0.0277764 0)
(0.416593 -0.0275268 0)
(0.449617 -0.0254668 0)
(0.221973 2.53128e-05 0)
(0.221985 -9.82185e-05 0)
(0.222085 -0.000223583 0)
(0.222275 -0.000353297 0)
(0.222558 -0.000490537 0)
(0.222943 -0.000639095 0)
(0.223438 -0.00080352 0)
(0.224055 -0.000989139 0)
(0.224812 -0.00120228 0)
(0.22573 -0.00145039 0)
(0.226836 -0.00174235 0)
(0.228162 -0.00208873 0)
(0.229752 -0.00250226 0)
(0.231654 -0.00299824 0)
(0.23393 -0.00359525 0)
(0.236657 -0.00431579 0)
(0.239924 -0.00518718 0)
(0.243842 -0.00624253 0)
(0.248545 -0.00752181 0)
(0.254193 -0.00907286 0)
(0.260981 -0.0109523 0)
(0.269139 -0.0132259 0)
(0.278942 -0.0159676 0)
(0.29071 -0.019257 0)
(0.304815 -0.0231733 0)
(0.321674 -0.0277834 0)
(0.341743 -0.0331227 0)
(0.365494 -0.0391637 0)
(0.393369 -0.0457716 0)
(0.42571 -0.0526453 0)
(0.462642 -0.0592519 0)
(0.503904 -0.0647777 0)
(0.548641 -0.0681447 0)
(0.595187 -0.0681689 0)
(0.640998 -0.0639517 0)
(0.292242 6.60843e-05 0)
(0.292242 -0.000154676 0)
(0.292344 -0.00037917 0)
(0.292552 -0.000611757 0)
(0.292871 -0.0008579 0)
(0.293307 -0.00112425 0)
(0.293873 -0.00141874 0)
(0.294582 -0.00175072 0)
(0.295454 -0.00213126 0)
(0.296512 -0.0025734 0)
(0.297788 -0.00309261 0)
(0.29932 -0.00370733 0)
(0.301153 -0.00443955 0)
(0.303344 -0.00531573 0)
(0.305964 -0.00636768 0)
(0.309094 -0.00763383 0)
(0.312835 -0.00916047 0)
(0.317311 -0.0110034 0)
(0.322666 -0.0132296 0)
(0.329075 -0.0159188 0)
(0.336749 -0.0191646 0)
(0.345936 -0.0230755 0)
(0.356931 -0.0277735 0)
(0.370081 -0.0333903 0)
(0.385787 -0.0400581 0)
(0.40451 -0.047893 0)
(0.426765 -0.0569652 0)
(0.453106 -0.0672522 0)
(0.484096 -0.0785669 0)
(0.520241 -0.0904588 0)
(0.561864 -0.102091 0)
(0.608903 -0.112125 0)
(0.660598 -0.118687 0)
(0.715091 -0.119574 0)
(0.769148 -0.112932 0)
(0.352299 0.000127482 0)
(0.352284 -0.00019998 0)
(0.352375 -0.000533496 0)
(0.352577 -0.000879259 0)
(0.352894 -0.00124514 0)
(0.353334 -0.00164076 0)
(0.353909 -0.00207761 0)
(0.354632 -0.0025693 0)
(0.355524 -0.00313187 0)
(0.356608 -0.00378424 0)
(0.357916 -0.00454878 0)
(0.359484 -0.00545204 0)
(0.36136 -0.00652565 0)
(0.363599 -0.0078074 0)
(0.36627 -0.00934262 0)
(0.369455 -0.0111857 0)
(0.373253 -0.0134021 0)
(0.377781 -0.0160701 0)
(0.383182 -0.0192833 0)
(0.389624 -0.023153 0)
(0.397308 -0.0278097 0)
(0.406474 -0.033405 0)
(0.417407 -0.0401102 0)
(0.430442 -0.0481128 0)
(0.445978 -0.0576067 0)
(0.464483 -0.0687727 0)
(0.4865 -0.0817428 0)
(0.512655 -0.0965406 0)
(0.543638 -0.112984 0)
(0.580165 -0.130537 0)
(0.622861 -0.148108 0)
(0.672024 -0.163799 0)
(0.72717 -0.174734 0)
(0.786323 -0.177197 0)
(0.8453 -0.167676 0)
(0.402137 0.00020379 0)
(0.402109 -0.000229514 0)
(0.402182 -0.000671323 0)
(0.40236 -0.00112952 0)
(0.402648 -0.00161423 0)
(0.403053 -0.00213785 0)
(0.403585 -0.00271527 0)
(0.404257 -0.00336411 0)
(0.405087 -0.00410513 0)
(0.406098 -0.00496277 0)
(0.407316 -0.00596589 0)
(0.408777 -0.00714859 0)
(0.410521 -0.00855137 0)
(0.4126 -0.0102225 0)
(0.415074 -0.0122195 0)
(0.418017 -0.0146114 0)
(0.421514 -0.0174805 0)
(0.42567 -0.0209255 0)
(0.430609 -0.0250638 0)
(0.436477 -0.0300351 0)
(0.44345 -0.0360036 0)