/*--------------------------------*- C++ -*----------------------------------*\
| =========                 |                                                 |
| \\      /  F ield         | OpenFOAM: The Open Source CFD Toolbox           |
|  \\    /   O peration     | Version:  2406                                  |
|   \\  /    A nd           | Website:  www.openfoam.com                      |
|    \\/     M anipulation  |                                                 |
\*---------------------------------------------------------------------------*/
FoamFile
{
    version     2.0;
    format      ascii;
    arch        "LSB;label=32;scalar=64";
    class       volScalarField;
    location    "85";
    object      p;
}
// * * * * * * * * * * * * * * * * * * * * * * * * * * * * * * * * * * * * * //

dimensions      [0 2 -2 0 0 0 0];

internalField   nonuniform List<scalar> 
1916
(
3.88595
3.8859
3.88532
3.88438
3.88328
3.88208
3.8808
3.87947
3.87811
3.87673
3.87532
3.87391
3.87248
3.87104
3.8696
3.86816
3.8667
3.86525
3.86379
3.86234
3.86088
3.85943
3.85798
3.85654
3.85511
3.85369
3.85229
3.85091
3.84958
3.84828
3.84705
3.8459
3.84485
3.84394
3.8432
3.84268
3.84243
3.84252
3.843
3.84393
3.84536
3.84727
3.84963
3.85231
3.85509
3.85763
3.85912
3.8872
3.88632
3.88536
3.88437
3.88326
3.88204
3.88076
3.87944
3.87808
3.8767
3.8753
3.87389
3.87247
3.87103
3.86959
3.86815
3.8667
3.86524
3.86379
3.86233
3.86088
3.85942
3.85797
3.85653
3.8551
3.85368
3.85228
3.85091
3.84957
3.84828
3.84705
3.8459
3.84485
3.84395
3.84322
3.84273
3.84252
3.84267
3.84325
3.84433
3.84596
3.84815
3.85084
3.85386
3.85699
3.85991
3.86165
3.88798
3.88657
3.88532
3.8843
3.88321
3.882
3.88071
3.8794
3.87805
3.87667
3.87528
3.87387
3.87245
3.87101
3.86958
3.86813
3.86668
3.86523
3.86377
3.86231
3.86086
3.8594
3.85795
3.8565
3.85505
3.85362
3.8522
3.85081
3.84944
3.8481
3.84682
3.8456
3.84447
3.84345
3.84259
3.84194
3.84155
3.84151
3.84191
3.84285
3.84442
3.84672
3.84973
3.85336
3.8573
3.8612
3.86317
3.8885
3.88686
3.88538
3.88428
3.88318
3.88196
3.88066
3.87934
3.878
3.87663
3.87524
3.87383
3.87242
3.87099
3.86955
3.8681
3.86665
3.8652
3.86374
3.86228
3.86081
3.85934
3.85787
3.85641
3.85494
3.85347
3.852
3.85054
3.84909
3.84764
3.84621
3.8448
3.84343
3.84209
3.84083
3.83966
3.83863
3.83782
3.83731
3.83724
3.83778
3.83913
3.8415
3.84502
3.8494
3.85409
3.85507
3.88891
3.88716
3.88551
3.88431
3.88318
3.88193
3.88062
3.87929
3.87795
3.87658
3.87519
3.87379
3.87238
3.87095
3.86951
3.86807
3.86661
3.86516
3.86369
3.86222
3.86074
3.85925
3.85776
3.85626
3.85475
3.85322
3.85168
3.85011
3.84852
3.84689
3.84522
3.84349
3.84169
3.8398
3.8378
3.83568
3.83343
3.83104
3.82853
3.82599
3.82355
3.82145
3.82002
3.81974
3.82033
3.82147
3.81425
3.88922
3.88741
3.88566
3.88437
3.8832
3.88192
3.88059
3.87925
3.8779
3.87653
3.87515
3.87375
3.87233
3.8709
3.86947
3.86802
3.86656
3.8651
3.86363
3.86214
3.86065
3.85914
3.85761
3.85607
3.8545
3.8529
3.85126
3.84955
3.84778
3.84591
3.84392
3.84175
3.83938
3.83672
3.83369
3.8302
3.8261
3.82125
3.81546
3.80854
3.80026
3.79047
3.77889
3.76551
3.74808
3.72489
3.66436
3.88946
3.88762
3.88579
3.88444
3.88322
3.88193
3.88058
3.87922
3.87786
3.87649
3.8751
3.8737
3.87229
3.87086
3.86942
3.86797
3.86651
3.86504
3.86356
3.86206
3.86055
3.85901
3.85745
3.85586
3.85423
3.85254
3.85079
3.84894
3.84696
3.84482
3.84246
3.83981
3.83677
3.83321
3.82897
3.82381
3.81743
3.80942
3.79921
3.78605
3.76883
3.74606
3.71502
3.67283
3.60753
3.51991
3.21548
3.88964
3.88778
3.8859
3.8845
3.88325
3.88194
3.88057
3.8792
3.87783
3.87646
3.87507
3.87366
3.87225
3.87082
3.86938
3.86793
3.86646
3.86499
3.86349
3.86198
3.86045
3.85889
3.8573
3.85566
3.85397
3.85221
3.85034
3.84835
3.84618
3.84378
3.84107
3.83794
3.83425
3.82982
3.82436
3.81751
3.80875
3.79736
3.78228
3.76194
3.73385
3.69409
3.63467
3.54226
3.36582
3.02119
1.85261
3.88975
3.88788
3.88598
3.88455
3.88328
3.88194
3.88056
3.87918
3.87781
3.87643
3.87504
3.87363
3.87222
3.87079
3.86935
3.86789
3.86642
3.86494
3.86344
3.86192
3.86037
3.85879
3.85717
3.8555
3.85376
3.85194
3.84999
3.84788
3.84556
3.84295
3.83996
3.83646
3.83226
3.82711
3.82066
3.81241
3.80167
3.78741
3.7681
3.74138
3.70345
3.648
3.56295
3.42698
3.18756
2.76914
2.00698
3.8898
3.88792
3.88601
3.88457
3.88329
3.88195
3.88056
3.87917
3.8778
3.87642
3.87502
3.87362
3.8722
3.87077
3.86932
3.86786
3.86639
3.86491
3.86341
3.86188
3.86032
3.85873
3.85709
3.8554
3.85364
3.85178
3.84978
3.84761
3.8452
3.84248
3.83934
3.83562
3.83113
3.82558
3.81857
3.80953
3.79765
3.78173
3.75996
3.72953
3.68595
3.6219
3.52494
3.37466
3.13798
2.76609
2.22686
3.8898
3.88792
3.88601
3.88457
3.88328
3.88194
3.88055
3.87917
3.87779
3.87641
3.87501
3.87361
3.87219
3.87076
3.86931
3.86786
3.86638
3.8649
3.86339
3.86187
3.86031
3.85871
3.85708
3.85539
3.85362
3.85175
3.84976
3.84758
3.84517
3.84245
3.8393
3.83558
3.83108
3.82552
3.8185
3.80944
3.79755
3.7816
3.75978
3.72929
3.6856
3.62136
3.52404
3.37311
3.13527
2.7612
2.21918
3.88973
3.88786
3.88596
3.88453
3.88326
3.88193
3.88055
3.87917
3.87779
3.87641
3.87502
3.87361
3.8722
3.87077
3.86932
3.86786
3.86639
3.86491
3.86341
3.86188
3.86033
3.85874
3.85712
3.85544
3.8537
3.85187
3.84991
3.84779
3.84546
3.84284
3.83984
3.83632
3.8321
3.82693
3.82045
3.81216
3.80137
3.78703
3.76761
3.74071
3.7025
3.64655
3.56059
3.42283
3.17954
2.75265
1.97389
3.88961
3.88775
3.88588
3.88448
3.88323
3.88191
3.88054
3.87917
3.8778
3.87643
3.87504
3.87363
3.87221
3.87078
3.86934
3.86788
3.86641
3.86493
3.86344
3.86192
3.86038
3.85881
3.85721
3.85557
3.85387
3.85209
3.85022
3.84821
3.84602
3.8436
3.84087
3.83772
3.83401
3.82954
3.82403
3.81713
3.80829
3.7968
3.78157
3.761
3.73256
3.69223
3.6318
3.53758
3.35669
3.00182
1.78919
3.88943
3.88759
3.88576
3.88441
3.88319
3.8819
3.88054
3.87918
3.87782
3.87645
3.87506
3.87366
3.87224
3.87081
3.86937
3.86791
3.86645
3.86497
3.86348
3.86198
3.86045
3.85891
3.85734
3.85574
3.85409
3.85239
3.85062
3.84875
3.84676
3.84459
3.84221
3.83952
3.83645
3.83285
3.82856
3.82333
3.81687
3.80874
3.79838
3.78501
3.76749
3.74426
3.71252
3.66928
3.60206
3.51207
3.19683
3.88919
3.88738
3.88562
3.88433
3.88316
3.88188
3.88055
3.87921
3.87786
3.87649
3.8751
3.87369
3.87227
3.87084
3.8694
3.86795
3.86649
3.86501
3.86353
3.86204
3.86053
3.85901
3.85748
3.85592
3.85434
3.85272
3.85106
3.84934
3.84754
3.84564
3.84362
3.84142
3.83901
3.8363
3.83322
3.82966
3.82548
3.82053
3.81462
3.80753
3.79904
3.78897
3.77701
3.76314
3.74501
3.72089
3.65803
3.88887
3.88711
3.88547
3.88427
3.88314
3.88189
3.88057
3.87924
3.8779
3.87653
3.87514
3.87373
3.87231
3.87088
3.86944
3.86798
3.86653
3.86506
3.86358
3.8621
3.86061
3.85912
3.85761
3.85609
3.85456
3.85302
3.85146
3.84987
3.84825
3.84659
3.84489
3.84312
3.84128
3.83935
3.8373
3.83512
3.83279
3.83032
3.82773
3.82508
3.82251
3.82027
3.81868
3.81824
3.81868
3.81969
3.81215
3.88846
3.88681
3.88533
3.88424
3.88314
3.88191
3.88061
3.87929
3.87795
3.87657
3.87518
3.87377
3.87235
3.87091
3.86947
3.86802
3.86656
3.8651
3.86363
3.86215
3.86068
3.85919
3.85771
3.85623
3.85474
3.85325
3.85176
3.85028
3.8488
3.84732
3.84586
3.84442
3.843
3.84162
3.84031
3.83909
3.83801
3.83713
3.83656
3.83642
3.83689
3.83819
3.84051
3.84402
3.84841
3.85314
3.85408
3.88794
3.88652
3.88527
3.88425
3.88316
3.88195
3.88066
3.87934
3.87799
3.87661
3.87522
3.8738
3.87237
3.87094
3.86949
3.86804
3.86658
3.86512
3.86365
3.86219
3.86072
3.85925
3.85778
3.85631
3.85485
3.8534
3.85196
3.85054
3.84914
3.84777
3.84646
3.8452
3.84403
3.84298
3.84208
3.84138
3.84094
3.84085
3.8412
3.8421
3.84364
3.84591
3.84893
3.85257
3.85655
3.86049
3.86248
3.88715
3.88628
3.88532
3.88432
3.88321
3.88199
3.88071
3.87938
3.87803
3.87664
3.87524
3.87382
3.87239
3.87095
3.86951
3.86805
3.8666
3.86513
3.86367
3.8622
3.86074
3.85927
3.85781
3.85635
3.8549
3.85346
3.85204
3.85064
3.84927
3.84795
3.84669
3.8455
3.84442
3.84348
3.84271
3.84217
3.84192
3.84203
3.84257
3.84362
3.84523
3.8474
3.85008
3.85313
3.85627
3.85923
3.86098
3.8859
3.88586
3.88527
3.88433
3.88323
3.88203
3.88075
3.87942
3.87805
3.87667
3.87526
3.87384
3.87241
3.87097
3.86952
3.86806
3.86661
3.86514
3.86368
3.86221
3.86074
3.85928
3.85781
3.85635
3.8549
3.85346
3.85204
3.85064
3.84928
3.84796
3.84669
3.84551
3.84443
3.84347
3.8427
3.84213
3.84185
3.84189
3.84233
3.84323
3.84463
3.84653
3.84888
3.85157
3.85436
3.85692
3.85842
-0.666867
-0.611964
-0.146596
-0.0566242
-0.126018
-0.152586
0.78049
0.248207
0.164179
0.0746132
-0.0489863
-0.116407
1.38026
0.599714
0.225458
0.0774316
-0.0375016
-0.126546
1.36493
0.57461
0.191868
0.0331141
-0.0985835
-0.20799
0.711512
0.155039
0.0575127
-0.0550773
-0.221134
-0.344896
-0.850343
-0.81909
-0.333672
-0.256059
-0.37992
-0.479223
-0.0576166
-0.0580409
-0.0582696
-0.0581662
-0.0578067
-0.0572176
-0.056401
-0.0553592
-0.0540984
-0.0526285
-0.0509624
-0.0491165
-0.0471105
-0.0449688
-0.0427202
-0.0403975
-0.0380363
-0.0356734
-0.0333453
-0.0310855
-0.0289231
-0.0268813
-0.0249775
-0.0232229
-0.0216225
-0.0201764
-0.0188797
-0.0177243
-0.0166986
-0.015789
-0.0149798
-0.0142534
-0.013591
-0.0129726
-0.0123774
-0.0117833
-0.0111672
-0.0105053
-0.0097765
-0.00896304
-0.00804807
-0.00701087
-0.00583666
-0.00453893
-0.00316609
-0.00178207
-0.000594956
-0.0569713
-0.0574211
-0.057654
-0.0575776
-0.0572809
-0.0567664
-0.0560231
-0.0550497
-0.0538524
-0.0524421
-0.0508321
-0.049039
-0.047082
-0.0449845
-0.0427743
-0.0404832
-0.0381456
-0.0357983
-0.0334778
-0.031218
-0.0290485
-0.0269933
-0.0250705
-0.0232924
-0.0216644
-0.020188
-0.0188593
-0.0176712
-0.0166125
-0.015671
-0.0148323
-0.0140793
-0.0133936
-0.0127574
-0.0121498
-0.0115512
-0.0109392
-0.0102873
-0.00957097
-0.00877773
-0.00789629
-0.00688664
-0.00570505
-0.00441059
-0.00310283
-0.00169457
-0.000203139
-0.0571548
-0.0575693
-0.0577643
-0.0576714
-0.0573891
-0.0568951
-0.0561703
-0.0552135
-0.0540325
-0.052639
-0.0510464
-0.0492701
-0.0473272
-0.0452386
-0.0430291
-0.0407291
-0.0383722
-0.0359956
-0.033638
-0.0313347
-0.0291175
-0.0270121
-0.0250384
-0.02321
-0.0215348
-0.0200149
-0.0186476
-0.0174259
-0.016339
-0.0153755
-0.0145229
-0.0137649
-0.0130837
-0.0124603
-0.0118751
-0.0113116
-0.0107448
-0.0101416
-0.0094728
-0.0087335
-0.00791817
-0.00694932
-0.00574966
-0.00444028
-0.00317806
-0.0017623
-9.03749e-05
-0.0594783
-0.0595702
-0.0594856
-0.0591905
-0.058745
-0.058102
-0.0572437
-0.0561725
-0.0548977
-0.0534299
-0.0517792
-0.0499553
-0.0479695
-0.045835
-0.0435708
-0.0412038
-0.0387664
-0.0362969
-0.0338368
-0.0314254
-0.0290987
-0.0268863
-0.0248112
-0.0228917
-0.0211376
-0.0195521
-0.0181335
-0.016875
-0.015767
-0.0147996
-0.0139595
-0.0132319
-0.0125987
-0.0120368
-0.0115277
-0.0110562
-0.0105977
-0.010109
-0.00954752
-0.00890727
-0.00818363
-0.00728374
-0.00611404
-0.00479458
-0.00347942
-0.00201059
-0.000124024
-0.0656463
-0.0642571
-0.0630623
-0.062118
-0.0612159
-0.0602021
-0.0590367
-0.0577181
-0.0562485
-0.0546289
-0.0528599
-0.0509398
-0.0488697
-0.0466524
-0.044298
-0.0418256
-0.0392643
-0.0366533
-0.0340377
-0.031464
-0.0289744
-0.0266056
-0.0243846
-0.0223357
-0.0204706
-0.018797
-0.0173148
-0.0160192
-0.0149013
-0.0139515
-0.0131564
-0.0124981
-0.0119552
-0.0115053
-0.0111306
-0.0108117
-0.0105234
-0.0102137
-0.00982493
-0.00933508
-0.00873223
-0.00793467
-0.00685704
-0.00554897
-0.00407893
-0.0023642
-0.000285463
-0.0800785
-0.0715835
-0.0669325
-0.0648651
-0.0634009
-0.0619787
-0.0605157
-0.0589784
-0.0573434
-0.0555977
-0.0537313
-0.0517347
-0.0495997
-0.0473226
-0.044903
-0.0423443
-0.0396648
-0.0369072
-0.0341274
-0.0313799
-0.0287139
-0.0261697
-0.0237805
-0.0215759
-0.0195796
-0.0178069
-0.0162623
-0.0149392
-0.0138278
-0.0129154
-0.0121886
-0.0116275
-0.011212
-0.0109211
-0.0107285
-0.0106112
-0.0105391
-0.0104607
-0.0103056
-0.0100258
-0.00958833
-0.00892285
-0.00794703
-0.00663803
-0.00495404
-0.00290453
-0.000535998
-0.106995
-0.0767395
-0.0657292
-0.0640861
-0.0628836
-0.061418
-0.0600676
-0.0586948
-0.0571762
-0.0555074
-0.0536968
-0.051739
-0.0496286
-0.0473621
-0.0449341
-0.0423416
-0.0396047
-0.0367721
-0.0339019
-0.0310486
-0.0282628
-0.0255851
-0.0230551
-0.0207143
-0.0186044
-0.0167478
-0.0151499
-0.0138056
-0.0127077
-0.011844
-0.0112017
-0.0107617
-0.0105025
-0.0103949
-0.010405
-0.0105052
-0.0106636
-0.0108302
-0.0109313
-0.0108942
-0.0106538
-0.0101325
-0.00924279
-0.0079184
-0.00607085
-0.00366637
-0.000879862
-0.116665
-0.0791849
-0.0684717
-0.0681834
-0.0667774
-0.064388
-0.0623856
-0.0606024
-0.0586958
-0.0566356
-0.0544664
-0.052192
-0.0498037
-0.047297
-0.0446691
-0.0419241
-0.0390818
-0.0361799
-0.0332692
-0.0304016
-0.0276108
-0.0249117
-0.0223292
-0.0199249
-0.0177517
-0.0158367
-0.0142013
-0.0128536
-0.0117833
-0.010975
-0.010417
-0.0100908
-0.00996916
-0.0100216
-0.0102193
-0.0105254
-0.0108974
-0.0112778
-0.011599
-0.0117751
-0.0117202
-0.0113405
-0.0105458
-0.00923862
-0.00728
-0.00456337
-0.00133987
-0.109918
-0.0789814
-0.0655153
-0.064187
-0.0634989
-0.0617164
-0.0601765
-0.0589489
-0.0575542
-0.0558414
-0.0538846
-0.0517465
-0.0494434
-0.046979
-0.0443573
-0.0415866
-0.0386902
-0.0357152
-0.0327235
-0.029769
-0.0268942
-0.0241393
-0.0215399
-0.0191467
-0.0170064
-0.0151512
-0.0135901
-0.0123033
-0.011275
-0.010519
-0.0100279
-0.00978117
-0.00975004
-0.00991358
-0.0102366
-0.010671
-0.0111661
-0.0116668
-0.0121075
-0.0124052
-0.0124618
-0.012177
-0.0114418
-0.0101324
-0.00810593
-0.00524848
-0.00166522
-0.15963
-0.15524
-0.146557
-0.142763
-0.138277
-0.130448
-0.121092
-0.111761
-0.102587
-0.0934467
-0.0845004
-0.0759846
-0.068036
-0.0607019
-0.053989
-0.0478883
-0.04239
-0.037488
-0.0331626
-0.0293656
-0.0260274
-0.0230745
-0.0204499
-0.0181299
-0.0161048
-0.0143648
-0.0129043
-0.0117163
-0.0107963
-0.0101418
-0.0097366
-0.00957037
-0.00961536
-0.00984564
-0.0102271
-0.0107185
-0.0112688
-0.0118226
-0.0123135
-0.0126587
-0.0127599
-0.012512
-0.0117957
-0.0104812
-0.00843714
-0.00566338
-0.00163934
-0.258428
-0.260792
-0.252116
-0.248244
-0.24358
-0.233905
-0.22117
-0.207449
-0.192874
-0.177197
-0.160685
-0.143845
-0.127098
-0.110748
-0.0950558
-0.0802727
-0.0666568
-0.0544562
-0.0438719
-0.0350148
-0.0278756
-0.0223267
-0.0181583
-0.0151178
-0.012942
-0.0113966
-0.0103027
-0.00953541
-0.00901321
-0.00869304
-0.0085537
-0.00858663
-0.00877804
-0.00911557
-0.00957942
-0.0101348
-0.0107335
-0.0113195
-0.0118301
-0.0121901
-0.0123093
-0.0120811
-0.0113848
-0.0101191
-0.00812603
-0.00563074
-0.00119343
-0.388044
-0.368953
-0.351946
-0.348982
-0.344912
-0.335047
-0.322772
-0.309756
-0.29523
-0.278493
-0.259629
-0.239008
-0.216942
-0.193692
-0.169558
-0.144935
-0.120362
-0.0965369
-0.0742801
-0.0544083
-0.0375748
-0.0241398
-0.0141204
-0.00722274
-0.00293805
-0.00066655
0.000182094
0.000121127
-0.000453842
-0.00128005
-0.00220721
-0.00316676
-0.00413612
-0.00510872
-0.00608154
-0.00704158
-0.00796419
-0.00881455
-0.00954843
-0.0101085
-0.0104108
-0.0103522
-0.00982276
-0.00878028
-0.00702555
-0.00514937
-0.00032859
-0.506861
-0.454795
-0.431924
-0.432702
-0.430326
-0.421754
-0.411752
-0.401354
-0.389289
-0.374744
-0.357599
-0.337854
-0.315417
-0.290148
-0.261924
-0.230731
-0.196827
-0.160934
-0.12433
-0.0887336
-0.0559974
-0.0277451
-0.00508083
0.0115677
0.0224433
0.0283182
0.0302741
0.0294717
0.0269582
0.0235533
0.0198215
0.0161055
0.0125859
0.00934599
0.00641223
0.00378051
0.00143402
-0.000637969
-0.00243724
-0.0039531
-0.00511405
-0.00581589
-0.00599097
-0.00568429
-0.00469229
-0.00393487
0.000635502
-0.519019
-0.462224
-0.440427
-0.439439
-0.438772
-0.436107
-0.433352
-0.430187
-0.42549
-0.418607
-0.409199
-0.396925
-0.381337
-0.361836
-0.337636
-0.307819
-0.271634
-0.228995
-0.180909
-0.12956
-0.0779879
-0.0295393
0.0127402
0.0466498
0.0711501
0.0863794
0.0934237
0.0939487
0.0898015
0.0826903
0.074005
0.0647664
0.0556537
0.0470684
0.0392164
0.0321672
0.0259078
0.0203903
0.0155619
0.011371
0.00781622
0.00494326
0.00275755
0.00113916
0.000215347
-0.000931197
0.00147269
-0.465072
-0.450752
-0.442981
-0.440251
-0.438851
-0.437636
-0.436624
-0.435382
-0.433319
-0.430029
-0.42512
-0.418195
-0.408782
-0.3961
-0.378862
-0.35515
-0.322736
-0.279918
-0.22642
-0.163871
-0.0956316
-0.0263153
0.0390003
0.0957588
0.140718
0.172323
0.190698
0.197322
0.194491
0.184766
0.170569
0.153946
0.13646
0.119194
0.10282
0.0877055
0.0739995
0.0617165
0.0508023
0.0411889
0.032769
0.0254434
0.0191318
0.0137057
0.00909726
0.00484985
0.00230296
-0.441338
-0.439347
-0.437966
-0.437261
-0.436942
-0.436597
-0.435936
-0.434736
-0.432753
-0.429824
-0.425808
-0.420485
-0.413624
-0.404681
-0.392321
-0.374129
-0.346722
-0.306741
-0.25227
-0.183731
-0.103853
-0.0175356
0.0688844
0.148878
0.216887
0.269108
0.303901
0.321738
0.32467
0.315637
0.297887
0.274504
0.248098
0.220671
0.193631
0.167883
0.143945
0.122055
0.10227
0.084559
0.0687889
0.0547625
0.0423046
0.0312908
0.0214016
0.0128198
0.00343624
-0.430515
-0.430792
-0.431211
-0.431626
-0.432011
-0.432188
-0.431987
-0.431191
-0.429549
-0.42686
-0.422922
-0.417542
-0.410668
-0.402243
-0.39136
-0.375559
-0.351155
-0.313682
-0.260026
-0.189134
-0.102589
-0.00504388
0.0967276
0.195118
0.282938
0.354416
0.406072
0.437035
0.448549
0.443335
0.425006
0.397392
0.363985
0.327661
0.290614
0.254383
0.219964
0.187927
0.158535
0.13185
0.107798
0.0862118
0.0668851
0.0496877
0.0340868
0.0207122
0.00486734
-0.426231
-0.426897
-0.42751
-0.427942
-0.428233
-0.428244
-0.427833
-0.426833
-0.425038
-0.42222
-0.418122
-0.412513
-0.405269
-0.396194
-0.384511
-0.368176
-0.343322
-0.304931
-0.250992
-0.179545
-0.0904359
0.012224
0.121908
0.230813
0.330991
0.415316
0.47899
0.520121
0.539117
0.538195
0.520953
0.491551
0.45399
0.411738
0.367572
0.323557
0.281104
0.24109
0.203982
0.169972
0.139062
0.111181
0.0861536
0.0638569
0.0436509
0.0263516
0.00608513
-0.425907
-0.426615
-0.427209
-0.427545
-0.427665
-0.427458
-0.42678
-0.425469
-0.423333
-0.420134
-0.415559
-0.409211
-0.400624
-0.389234
-0.374261
-0.354372
-0.327002
-0.288105
-0.233418
-0.160222
-0.0696367
0.0344597
0.1459
0.257643
0.362189
0.451681
0.520728
0.566716
0.589349
0.590597
0.574056
0.543936
0.504378
0.459085
0.411119
0.362821
0.31584
0.271224
0.22954
0.19111
0.156076
0.124415
0.0959755
0.0706344
0.0477954
0.0283448
0.00647923
-0.427041
-0.427748
-0.428401
-0.428789
-0.428931
-0.428742
-0.428093
-0.426825
-0.424746
-0.421604
-0.41704
-0.410542
-0.401383
-0.388568
-0.370785
-0.346347
-0.313136
-0.268779
-0.210996
-0.138037
-0.0491171
0.0536551
0.164413
0.275593
0.379012
0.467072
0.535619
0.582352
0.605475
0.606823
0.590158
0.55968
0.519506
0.473369
0.424382
0.374937
0.326739
0.280916
0.23809
0.19842
0.161948
0.128794
0.0989533
0.072322
0.0484768
0.0277365
0.00684045
)
;

boundaryField
{
    inlet
    {
        type            zeroGradient;
    }
    outlet
    {
        type            fixedValue;
        value           uniform 0;
    }
    upperWall
    {
        type            zeroGradient;
    }
    lowerWall
    {
        type            zeroGradient;
    }
    frontAndBack
    {
        type            empty;
    }
}


// ************************************************************************* //
