/*--------------------------------*- C++ -*----------------------------------*\
| =========                 |                                                 |
| \\      /  F ield         | OpenFOAM: The Open Source CFD Toolbox           |
|  \\    /   O peration     | Version:  2406                                  |
|   \\  /    A nd           | Website:  www.openfoam.com                      |
|    \\/     M anipulation  |                                                 |
\*---------------------------------------------------------------------------*/
FoamFile
{
    version     2.0;
    format      ascii;
    arch        "LSB;label=32;scalar=64";
    class       surfaceScalarField;
    location    "85";
    object      phi;
}
// * * * * * * * * * * * * * * * * * * * * * * * * * * * * * * * * * * * * * //

dimensions      [0 3 -1 0 0 0 0];

oriented        oriented;

internalField   nonuniform List<scalar> 
3698
(
0.00994996
-0.00019999
0.0101681
-0.000218163
0.0103283
-0.000160348
0.0104431
-0.000114801
0.0105277
-8.47244e-05
0.0105909
-6.32504e-05
0.0106384
-4.76028e-05
0.010675
-3.65757e-05
0.0107038
-2.88801e-05
0.010727
-2.33415e-05
0.0107461
-1.91822e-05
0.010762
-1.59532e-05
0.0107753
-1.33722e-05
0.0107865
-1.12371e-05
0.0107958
-9.39915e-06
0.0108035
-7.75022e-06
0.0108096
-6.20335e-06
0.0108142
-4.67723e-06
0.0108172
-3.08387e-06
0.0108184
-1.32514e-06
0.0108176
7.11742e-07
0.0108144
3.15278e-06
0.0108081
6.15679e-06
0.0107981
9.93463e-06
0.0107832
1.47642e-05
0.0107621
2.10052e-05
0.0107329
2.91252e-05
0.0106931
3.97263e-05
0.0106394
5.35828e-05
0.0105676
7.16791e-05
0.0104723
9.52546e-05
0.0103463
0.000125838
0.0101809
0.000165271
0.00996516
0.000215684
0.00968564
0.000279412
0.00932676
0.000358774
0.00887099
0.000455666
0.00830001
0.000570876
0.00759687
0.00070303
0.00674965
0.000847125
0.00575683
0.000992732
0.0046348
0.00112193
0.00342673
0.00120796
0.00221244
0.00121419
0.00111577
0.00109659
0.000335862
0.00077984
0.000335851
0.0276588
-0.000108802
0.0276445
-0.000204042
0.027686
-0.000202007
0.0277484
-0.000177282
0.027816
-0.000152441
0.0278813
-0.000128656
0.0279405
-0.000106968
0.0279926
-8.88028e-05
0.0280378
-7.42584e-05
0.028077
-6.26159e-05
0.0281108
-5.31475e-05
0.02814
-4.53368e-05
0.0281653
-3.87969e-05
0.0281871
-3.32012e-05
0.0282059
-2.8272e-05
0.0282217
-2.37804e-05
0.0282349
-1.95271e-05
0.0282454
-1.53167e-05
0.0282531
-1.09365e-05
0.0282577
-6.14425e-06
0.0282589
-6.56597e-07
0.028256
5.87019e-06
0.0282481
1.38685e-05
0.028234
2.38951e-05
0.0282119
3.66783e-05
0.0281795
5.31709e-05
0.0281339
7.46197e-05
0.0280708
0.000102651
0.0279848
0.000139379
0.0278687
0.000187542
0.0277131
0.000250655
0.0275056
0.000333192
0.0272299
0.000440754
0.0268652
0.000580217
0.0263846
0.000759779
0.0257544
0.000988793
0.0249326
0.00127721
0.023869
0.00163432
0.0225054
0.00206644
0.0207795
0.0025728
0.0186327
0.00313935
0.016025
0.00372941
0.0129592
0.00427347
0.00951577
0.00465746
0.00588083
0.00473135
0.00242088
0.00423971
0.00275672
0.0436991
-5.79166e-05
0.0436343
-0.000139349
0.0435964
-0.000164217
0.0435821
-0.00016314
0.0435847
-0.000155083
0.0435992
-0.000143261
0.043621
-0.000128891
0.0436463
-0.000114198
0.0436726
-0.000100642
0.0436984
-8.85608e-05
0.043723
-7.78468e-05
0.0437459
-6.83499e-05
0.0437669
-5.99092e-05
0.0437859
-5.23208e-05
0.0438029
-4.5355e-05
0.0438177
-3.87839e-05
0.0438305
-3.23814e-05
0.0438409
-2.59e-05
0.0438489
-1.90471e-05
0.0438541
-1.14692e-05
0.043856
-2.73482e-06
0.0438541
7.69186e-06
0.0438473
2.04937e-05
0.0438345
3.65578e-05
0.043814
5.70491e-05
0.0437835
8.35006e-05
0.04374
0.00011793
0.0436795
0.000162992
0.0435966
0.000222168
0.043484
0.000300018
0.043332
0.000402492
0.0431277
0.000537304
0.0428539
0.000714383
0.0424876
0.000946358
0.0419982
0.00124905
0.0413449
0.00164186
0.0404742
0.0021478
0.0393156
0.0027928
0.0377782
0.00360365
0.0357476
0.00460322
0.0330852
0.0058016
0.029635
0.00717948
0.0252429
0.00866538
0.0198049
0.0100953
0.0133278
0.0112084
0.00612718
0.0114402
0.0088839
0.0577268
-3.4712e-05
0.0576794
-9.20799e-05
0.0576361
-0.000121042
0.057603
-0.000130078
0.0575788
-0.000130942
0.0575628
-0.00012738
0.0575541
-0.000120258
0.0575509
-0.000111129
0.0575517
-0.000101511
0.0575552
-9.21297e-05
0.0575604
-8.31912e-05
0.0575667
-7.47606e-05
0.0575736
-6.68463e-05
0.0575805
-5.93752e-05
0.0575873
-5.22044e-05
0.0575935
-4.51553e-05
0.0575991
-3.80236e-05
0.0576036
-3.05604e-05
0.0576069
-2.24458e-05
0.0576086
-1.32692e-05
0.0576083
-2.51063e-06
0.0576053
1.04914e-05
0.0575991
2.65917e-05
0.0575886
4.69115e-05
0.0575726
7.29324e-05
0.0575494
0.000106617
0.0575166
0.000150565
0.0574713
0.000208217
0.0574092
0.000284126
0.0573248
0.000384311
0.0572104
0.000516723
0.0570557
0.000691842
0.0568465
0.000923432
0.0565633
0.00122949
0.0561788
0.00163341
0.0556552
0.00216529
0.0549395
0.00286336
0.053957
0.00377523
0.0526021
0.00495842
0.0507265
0.00647869
0.0481231
0.00840489
0.0445098
0.0107926
0.0395145
0.0136605
0.0326962
0.0169135
0.0235776
0.0203269
0.0119189
0.0230989
0.0208027
0.0697376
-2.23216e-05
0.0697076
-6.21854e-05
0.0696741
-8.75945e-05
0.0696433
-9.93851e-05
0.069616
-0.000103724
0.0695924
-0.000103886
0.0695729
-0.000100771
0.069557
-9.53732e-05
0.0695443
-8.88761e-05
0.0695341
-8.20315e-05
0.069526
-7.51508e-05
0.0695195
-6.83676e-05
0.0695144
-6.1745e-05
0.0695102
-5.52641e-05
0.0695067
-4.88254e-05
0.0695037
-4.22784e-05
0.069501
-3.5435e-05
0.0694984
-2.80528e-05
0.0694957
-1.98078e-05
0.0694926
-1.02705e-05
0.0694889
1.11527e-06
0.0694842
1.50664e-05
0.0694782
3.25167e-05
0.0694703
5.46978e-05
0.0694598
8.32451e-05
0.069446
0.000120336
0.0694276
0.000168869
0.069403
0.000232703
0.06937
0.00031698
0.0693257
0.000428554
0.0692657
0.000576577
0.0691841
0.000773272
0.0690725
0.00103498
0.0689183
0.00138353
0.0687035
0.00184814
0.0684008
0.00246782
0.0679694
0.00329463
0.0673467
0.00439781
0.0664361
0.005869
0.0650869
0.00782776
0.063063
0.0104286
0.059997
0.0138585
0.0553099
0.0183475
0.0481481
0.0240752
0.0371749
0.0313
0.0208436
0.03943
0.0416462
0.0797425
-1.48449e-05
0.0797227
-4.24685e-05
0.0796974
-6.23669e-05
0.0796714
-7.3497e-05
0.0796464
-7.87372e-05
0.0796228
-8.0372e-05
0.0796012
-7.92526e-05
0.0795818
-7.60569e-05
0.0795645
-7.16291e-05
0.079549
-6.6614e-05
0.0795351
-6.1342e-05
0.0795227
-5.59702e-05
0.0795114
-5.05771e-05
0.0795012
-4.51652e-05
0.079492
-3.96605e-05
0.0794836
-3.39341e-05
0.0794758
-2.78153e-05
0.0794688
-2.10785e-05
0.0794623
-1.34168e-05
0.0794564
-4.41806e-06
0.0794509
6.45751e-06
0.079446
1.99101e-05
0.0794415
3.68542e-05
0.0794376
5.8499e-05
0.0794343
8.64547e-05
0.0794317
0.000122872
0.0794298
0.000170625
0.0794289
0.000233559
0.0794289
0.000316825
0.07943
0.00042734
0.0794321
0.000574421
0.0794346
0.000770654
0.0794363
0.0010331
0.0794348
0.00138501
0.0794246
0.00185815
0.0793961
0.00249627
0.0793307
0.00335995
0.0791947
0.00453368
0.0789271
0.00613648
0.0784181
0.00833667
0.0774689
0.0113778
0.0757258
0.0156015
0.0725318
0.0215414
0.0667901
0.0298168
0.0562468
0.0418431
0.0373425
0.0583343
0.0789887
0.0877449
-9.77648e-06
0.0877307
-2.83353e-05
0.0877109
-4.26381e-05
0.0876889
-5.15338e-05
0.0876663
-5.62515e-05
0.087644
-5.81599e-05
0.0876227
-5.79243e-05
0.0876025
-5.60205e-05
0.0875839
-5.30152e-05
0.0875666
-4.93914e-05
0.0875506
-4.54356e-05
0.0875358
-4.12961e-05
0.0875222
-3.7048e-05
0.0875097
-3.27024e-05
0.0874982
-2.82064e-05
0.0874876
-2.34573e-05
0.087478
-1.83131e-05
0.0874694
-1.25829e-05
0.087462
-6.00444e-06
0.0874557
1.77698e-06
0.0874508
1.1229e-05
0.0874477
2.29607e-05
0.0874467
3.77687e-05
0.0874484
5.67074e-05
0.0874535
8.11827e-05
0.0874632
0.000113077
0.0874788
0.000154912
0.0875022
0.000210075
0.0875358
0.000283122
0.0875829
0.000380209
0.0876475
0.000509682
0.0877351
0.000682924
0.0878526
0.000915545
0.0880084
0.00122911
0.0882128
0.00165364
0.0884776
0.00223139
0.0888149
0.00302252
0.0892347
0.00411383
0.0897382
0.00563283
0.0903053
0.00776955
0.0908649
0.010818
0.0912354
0.015231
0.0909628
0.021814
0.0889697
0.0318097
0.0821166
0.0486962
0.0628114
0.0776393
0.1418
0.0937461
-5.92887e-06
0.093735
-1.72941e-05
0.0937187
-2.63757e-05
0.0936994
-3.23506e-05
0.0936788
-3.57021e-05
0.0936578
-3.71547e-05
0.0936369
-3.71398e-05
0.0936168
-3.59664e-05
0.0935977
-3.39806e-05
0.0935797
-3.14941e-05
0.0935629
-2.87098e-05
0.0935473
-2.57396e-05
0.0935328
-2.26402e-05
0.0935195
-1.94216e-05
0.0935072
-1.60482e-05
0.0934962
-1.24475e-05
0.0934863
-8.51639e-06
0.0934777
-4.11476e-06
0.0934707
9.50316e-07
0.0934654
6.94064e-06
0.0934624
1.42024e-05
0.0934621
2.31873e-05
0.0934653
3.44865e-05
0.093473
4.88823e-05
0.0934867
6.74185e-05
0.0935082
9.14933e-05
0.09354
0.000122985
0.0935856
0.000164419
0.0936494
0.000219206
0.0937375
0.000291971
0.0938581
0.000389019
0.0940219
0.000519003
0.0942435
0.00069389
0.0945421
0.000930382
0.0949436
0.00125204
0.0954824
0.00169252
0.0962042
0.00230062
0.0971696
0.00314831
0.0984587
0.00434363
0.100176
0.00605239
0.10246
0.00853397
0.105484
0.0122067
0.109551
0.017747
0.11509
0.0262706
0.124359
0.0394269
0.144414
0.0575843
0.0872074
0.199007
0.0977468
-2.70556e-06
0.0977373
-7.9189e-06
0.097723
-1.21311e-05
0.0977055
-1.49187e-05
0.0976862
-1.64461e-05
0.097666
-1.70177e-05
0.0976456
-1.68387e-05
0.0976257
-1.60601e-05
0.0976065
-1.48446e-05
0.0975882
-1.33413e-05
0.0975711
-1.1652e-05
0.0975551
-9.83391e-06
0.0975403
-7.91477e-06
0.0975268
-5.89759e-06
0.0975144
-3.76171e-06
0.0975033
-1.46659e-06
0.0974937
1.04542e-06
0.0974857
3.85238e-06
0.0974795
7.06059e-06
0.0974755
1.08133e-05
0.0974743
1.52992e-05
0.0974767
2.07639e-05
0.0974835
2.75283e-05
0.0974963
3.60157e-05
0.0975169
4.67896e-05
0.0975477
6.0604e-05
0.0975921
7.84709e-05
0.0976547
0.000101752
0.0977415
0.000132288
0.0978608
0.000172577
0.0980237
0.000226039
0.0982452
0.00029738
0.0985459
0.00039314
0.0989536
0.000522506
0.099507
0.000698529
0.100259
0.000940023
0.101285
0.00127453
0.102691
0.00174309
0.104626
0.00240775
0.107314
0.00336439
0.11109
0.00475818
0.116477
0.0068196
0.124389
0.00983502
0.136408
0.0142515
0.15568
0.0201546
0.186458
0.0268069
0.0395226
0.234143
0.099747
2.464e-07
0.0997383
7.15598e-07
0.099725
1.17558e-06
0.0997083
1.65335e-06
0.0996897
2.14102e-06
0.09967
2.64117e-06
0.0996499
3.15718e-06
0.0996301
3.69322e-06
0.0996109
4.25371e-06
0.0995927
4.84313e-06
0.0995755
5.46637e-06
0.0995594
6.12926e-06
0.0995446
6.83828e-06
0.0995311
7.60015e-06
0.0995188
8.42173e-06
0.099508
9.31068e-06
0.0994987
1.02757e-05
0.0994911
1.13267e-05
0.0994856
1.2474e-05
0.0994826
1.37289e-05
0.0994827
1.51037e-05
0.0994868
1.66125e-05
0.099496
1.82708e-05
0.0995118
2.00965e-05
0.0995364
2.21097e-05
0.0995726
2.43335e-05
0.0996242
2.67948e-05
0.0996963
2.95257e-05
0.0997959
3.25651e-05
0.0999325
3.59614e-05
0.100119
3.97762e-05
0.100372
4.40898e-05
0.100716
4.90104e-05
0.101184
5.46874e-05
0.101821
6.13334e-05
0.102691
6.92598e-05
0.103887
7.8935e-05
0.105539
9.10847e-05
0.10784
0.000106869
0.111076
0.000128193
0.115675
0.000158302
0.122292
0.000202856
0.131855
0.000271591
0.145724
0.000383313
0.165318
0.000560122
0.191251
0.00087428
0.00132442
0.229449
0.099747
3.19198e-06
0.0997384
9.33131e-06
0.099725
1.44514e-05
0.0997084
1.81819e-05
0.0996898
2.06714e-05
0.0996702
2.22295e-05
0.0996502
2.3068e-05
0.0996305
2.33464e-05
0.0996114
2.32359e-05
0.0995933
2.28944e-05
0.0995763
2.24333e-05
0.0995604
2.19213e-05
0.0995458
2.13992e-05
0.0995325
2.08833e-05
0.0995204
2.03662e-05
0.0995099
1.98225e-05
0.0995008
1.92117e-05
0.0994936
1.8475e-05
0.0994885
1.75267e-05
0.0994859
1.62459e-05
0.0994865
1.4468e-05
0.099491
1.19746e-05
0.0995007
8.47574e-06
0.0995171
3.5826e-06
0.0995424
-3.2289e-06
0.0995793
-1.2668e-05
0.0996317
-2.56945e-05
0.0997048
-4.36087e-05
0.0998054
-6.81764e-05
0.0999431
-0.000101806
0.100131
-0.000147798
0.100385
-0.000210712
0.100731
-0.000296889
0.101201
-0.000415242
0.101841
-0.000578441
0.102715
-0.000804749
0.103914
-0.00112089
0.105572
-0.00156668
0.107881
-0.00220222
0.111129
-0.00312031
0.115749
-0.00446096
0.122397
-0.00644608
0.132014
-0.00934538
0.145974
-0.0135763
0.165705
-0.0191715
0.191801
-0.025221
-0.037177
0.230302
0.0977468
6.39618e-06
0.0977374
1.8651e-05
0.0977232
2.86036e-05
0.0977058
3.54835e-05
0.0976867
3.97578e-05
0.0976667
4.21559e-05
0.0976466
4.31155e-05
0.0976269
4.29536e-05
0.097608
4.20247e-05
0.0975902
4.0649e-05
0.0975735
3.90387e-05
0.0975581
3.73168e-05
0.0975439
3.5552e-05
0.0975309
3.37669e-05
0.0975193
3.1939e-05
0.097509
3.00106e-05
0.0975002
2.78948e-05
0.0974932
2.54696e-05
0.0974881
2.25615e-05
0.0974853
1.89298e-05
0.0974854
1.42514e-05
0.0974892
8.10053e-06
0.0974977
-8.54648e-08
0.0975122
-1.10564e-05
0.0975347
-2.582e-05
0.0975677
-4.57336e-05
0.0976146
-7.2628e-05
0.0976798
-0.000108975
0.0977697
-0.000158121
0.0978924
-0.000224612
0.0980592
-0.000314659
0.0982852
-0.000436796
0.098591
-0.000602839
0.099005
-0.000829289
0.0995659
-0.00113944
0.100328
-0.00156659
0.101366
-0.00215905
0.102787
-0.00298806
0.104745
-0.00416074
0.107467
-0.00584156
0.111294
-0.0082881
0.116764
-0.0119168
0.12482
-0.0174011
0.1371
-0.0258564
0.156853
-0.0389241
0.188493
-0.0568611
-0.0863656
0.237681
0.0937462
1.02121e-05
0.0937351
2.96002e-05
0.093719
4.4714e-05
0.0936999
5.44521e-05
0.0936796
6.00276e-05
0.0936589
6.28135e-05
0.0936385
6.34813e-05
0.0936188
6.25141e-05
0.0936003
6.04864e-05
0.093583
5.78894e-05
0.0935669
5.50182e-05
0.0935522
5.20311e-05
0.0935386
4.90146e-05
0.0935263
4.59913e-05
0.0935153
4.29206e-05
0.0935055
3.97136e-05
0.0934971
3.62432e-05
0.0934901
3.23348e-05
0.0934849
2.77441e-05
0.0934816
2.21355e-05
0.0934807
1.50627e-05
0.0934828
5.93982e-06
0.0934886
-6.00415e-06
0.0934992
-2.17949e-05
0.0935161
-4.28072e-05
0.0935412
-7.0888e-05
0.093577
-0.000108521
0.093627
-0.000159048
0.0936958
-0.000226976
0.0937895
-0.000318403
0.0939163
-0.000441613
0.0940873
-0.00060791
0.0943172
-0.000832819
0.0946256
-0.0011378
0.0950389
-0.00155277
0.095592
-0.00211986
0.096332
-0.00289911
0.0973211
-0.00397728
0.0986423
-0.00548198
0.100404
-0.00760374
0.102754
-0.0106381
0.105879
-0.0150412
0.110107
-0.0216291
0.115912
-0.0316616
0.125694
-0.0487066
0.146852
-0.0780188
-0.143846
0.204332
0.087745
1.52367e-05
0.0877309
4.3607e-05
0.0877113
6.42334e-05
0.0876896
7.61196e-05
0.0876674
8.21278e-05
0.0876456
8.45464e-05
0.0876248
8.42324e-05
0.0876054
8.187e-05
0.0875875
7.83105e-05
0.0875711
7.42062e-05
0.0875561
6.98959e-05
0.0875425
6.5545e-05
0.0875302
6.12421e-05
0.0875192
5.69996e-05
0.0875092
5.27554e-05
0.0875005
4.83924e-05
0.0874929
4.37538e-05
0.0874865
3.86272e-05
0.0874815
3.27219e-05
0.0874779
2.56421e-05
0.087476
1.68672e-05
0.0874761
5.71638e-06
0.0874787
-8.7024e-06
0.0874844
-2.75754e-05
0.087494
-5.24863e-05
0.0875086
-8.55592e-05
0.0875296
-0.000129638
0.087559
-0.000188537
0.0875993
-0.000267372
0.0876538
-0.00037303
0.0877269
-0.000514793
0.0878241
-0.00070522
0.0879526
-0.000961357
0.0881211
-0.00130644
0.0883405
-0.00177229
0.0886233
-0.00240274
0.0889827
-0.0032586
0.0894301
-0.0044248
0.0899693
-0.00602125
0.0905833
-0.00821784
0.0912064
-0.0112613
0.0916635
-0.0154985
0.0915091
-0.0214749
0.0896707
-0.0298233
0.082973
-0.0420089
0.063709
-0.0587549
-0.0801369
0.0797426
2.2658e-05
0.0797229
6.31648e-05
0.0796979
8.91981e-05
0.0796723
0.000101636
0.0796477
0.000106629
0.0796248
0.000107457
0.0796039
0.000105024
0.0795854
0.00010033
0.079569
9.45636e-05
0.0795547
8.84849e-05
0.0795421
8.24116e-05
0.0795311
7.64851e-05
0.0795215
7.07757e-05
0.0795131
6.52743e-05
0.0795059
5.98907e-05
0.0794997
5.44857e-05
0.0794945
4.88811e-05
0.0794902
4.2847e-05
0.0794868
3.60709e-05
0.0794842
2.81391e-05
0.0794824
1.85091e-05
0.0794816
6.48149e-06
0.0794817
-8.86159e-06
0.0794827
-2.87318e-05
0.0794849
-5.47474e-05
0.0794883
-8.9064e-05
0.0794931
-0.000134562
0.0794996
-0.000195081
0.0795078
-0.000275746
0.0795181
-0.0003834
0.0795304
-0.000527194
0.0795444
-0.000719363
0.0795593
-0.000976283
0.0795726
-0.00131987
0.0795797
-0.00177948
0.0795712
-0.00239438
0.0795296
-0.00321706
0.0794221
-0.00431747
0.0791892
-0.00578843
0.0787227
-0.0077514
0.0778254
-0.010364
0.0761449
-0.0138181
0.0730215
-0.0183516
0.0673518
-0.0241537
0.0568462
-0.0315034
0.0379052
-0.039814
-0.0422317
0.0697377
3.4982e-05
0.0697079
9.28705e-05
0.0696747
0.000122334
0.0696443
0.000131888
0.0696176
0.000133272
0.0695948
0.000130235
0.0695761
0.000123648
0.0695612
0.00011507
0.0695497
0.000106022
0.0695409
9.72358e-05
0.0695343
8.89247e-05
0.0695295
8.11588e-05
0.0695263
7.39522e-05
0.0695242
6.72396e-05
0.0695231
6.08862e-05
0.0695228
5.47219e-05
0.069523
4.85504e-05
0.0695237
4.21312e-05
0.0695245
3.51547e-05
0.0695253
2.72212e-05
0.0695259
1.78222e-05
0.069526
6.30808e-06
0.0695252
-8.16355e-06
0.069523
-2.67011e-05
0.069519
-5.07735e-05
0.0695121
-8.23313e-05
0.0695014
-0.000123963
0.0694853
-0.000179102
0.0694618
-0.000252299
0.0694278
-0.000349581
0.0693795
-0.000478919
0.0693108
-0.000650833
0.0692136
-0.000879165
0.0690756
-0.00118204
0.0688791
-0.00158305
0.0685972
-0.0021126
0.0681895
-0.00280944
0.0675938
-0.00372192
0.0667139
-0.00490865
0.0653994
-0.00643705
0.0634136
-0.00837827
0.0603863
-0.010791
0.0557323
-0.0136977
0.0485847
-0.0170063
0.037576
-0.0204947
0.0211178
-0.0233558
-0.021114
0.0577268
5.81111e-05
0.0576797
0.000139925
0.0576368
0.000165156
0.0576042
0.00016445
0.0575806
0.00015676
0.0575654
0.000145306
0.0575577
0.000131308
0.0575557
0.000116996
0.0575578
0.000103833
0.0575628
9.21605e-05
0.0575697
8.18777e-05
0.0575779
7.28366e-05
0.0575869
6.48812e-05
0.0575963
5.7812e-05
0.0576056
5.14069e-05
0.0576148
4.54425e-05
0.0576236
3.96994e-05
0.0576317
3.39343e-05
0.0576389
2.78635e-05
0.0576448
2.11389e-05
0.0576492
1.33384e-05
0.0576515
3.93189e-06
0.057651
-7.75377e-06
0.0576467
-2.26004e-05
0.0576376
-4.17634e-05
0.0576219
-6.67724e-05
0.0575975
-9.96398e-05
0.0575613
-0.000143022
0.0575093
-0.000200408
0.057436
-0.000276376
0.0573338
-0.000376905
0.0571927
-0.000509768
0.0569984
-0.000684976
0.0567315
-0.000915294
0.0563651
-0.00121675
0.0558614
-0.00160903
0.0551674
-0.00211558
0.0542083
-0.00276294
0.0528782
-0.0035787
0.0510278
-0.00458679
0.048448
-0.00579855
0.0448528
-0.00719595
0.0398634
-0.00870838
0.0330282
-0.0101712
0.0238543
-0.0113209
0.0120841
-0.0115857
-0.00902991
0.0436992
0.000108916
0.0436346
0.000204385
0.0435971
0.000202563
0.0435834
0.000178054
0.0435866
0.00015342
0.043602
0.00012984
0.0436249
0.000108359
0.0436514
9.04033e-05
0.043679
7.60743e-05
0.0437064
6.46565e-05
0.0437328
5.54247e-05
0.0437576
4.78644e-05
0.0437808
4.15906e-05
0.0438022
3.62804e-05
0.0438219
3.16595e-05
0.0438397
2.75024e-05
0.0438557
2.36123e-05
0.0438697
1.9798e-05
0.0438816
1.585e-05
0.0438911
1.15307e-05
0.0438977
6.5592e-06
0.0439009
5.96621e-07
0.0438998
-6.78711e-06
0.0438933
-1.61447e-05
0.0438796
-2.82021e-05
0.0438566
-4.39093e-05
0.0438213
-6.45158e-05
0.0437698
-9.16511e-05
0.0436967
-0.000127443
0.0435948
-0.000174644
0.0434546
-0.000236805
0.0432631
-0.000318441
0.0430033
-0.000425227
0.042652
-0.000564142
0.0421786
-0.00074353
0.0415424
-0.000972949
0.0406892
-0.00126262
0.0395483
-0.00162219
0.0380279
-0.00205837
0.0360118
-0.00257086
0.0333591
-0.00314595
0.02991
-0.00374708
0.0255057
-0.00430429
0.0200363
-0.00470197
0.013503
-0.00478781
0.00621978
-0.0043025
-0.00281013
0.0276588
0.000200029
0.0276448
0.000218288
0.0276868
0.000160552
0.0277496
0.000115079
0.0278179
8.50695e-05
0.027884
6.36622e-05
0.0279442
4.80818e-05
0.0279973
3.71222e-05
0.0280438
2.94962e-05
0.0280843
2.4031e-05
0.0281197
1.99499e-05
0.0281507
1.68035e-05
0.0281778
1.43103e-05
0.0282017
1.22692e-05
0.0282228
1.05335e-05
0.0282412
8.99535e-06
0.0282571
7.56961e-06
0.0282706
6.17554e-06
0.0282816
4.72796e-06
0.0282899
3.13078e-06
0.028295
1.27251e-06
0.0282965
-9.7948e-07
0.0282934
-3.78308e-06
0.0282844
-7.34389e-06
0.028268
-1.19369e-05
0.0282419
-1.7924e-05
0.028203
-2.57739e-05
0.0281474
-3.60942e-05
0.0280695
-4.96651e-05
0.0279622
-6.74829e-05
0.027816
-9.08017e-05
0.0276186
-0.000121175
0.0273537
-0.000160476
0.0270003
-0.000210882
0.0265314
-0.00027479
0.0259129
-0.000354596
0.0251024
-0.00045229
0.0240489
-0.000568759
0.0226931
-0.000702722
0.0209713
-0.000849223
0.018823
-0.000997798
0.0162061
-0.00113033
0.0131212
-0.00121967
0.00964759
-0.00122852
0.00597188
-0.00111219
0.00246368
-0.000794352
-0.00034646
0.00995001
0.0101683
0.0103288
0.0104439
0.0105289
0.0105926
0.0106406
0.0106777
0.0107072
0.0107312
0.0107511
0.0107679
0.0107822
0.0107945
0.010805
0.0108139
0.0108215
0.0108276
0.0108323
0.0108354
0.0108367
0.0108357
0.0108319
0.0108245
0.0108125
0.0107946
0.0107688
0.0107327
0.010683
0.0106155
0.0105246
0.0104034
0.0102429
0.010032
0.0097572
0.00940257
0.00895025
0.00838146
0.00767871
0.00682946
0.00583163
0.00470126
0.00348156
0.00225302
0.00114082
0.00034646
0.145066
0.0539411
0.118499
0.0265671
0.102964
0.0155352
0.0933404
0.00962295
0.0871534
0.00618799
0.00412414
0.0830292
0.254183
0.0339002
0.259676
0.0210748
0.259531
0.0156801
0.256042
0.0131126
0.250807
0.0114223
0.0110691
0.243862
0.261151
0.00219857
0.278691
0.0035342
0.289301
0.00506968
0.295671
0.00674244
0.298399
0.00869547
0.0110953
0.298372
0.262113
-0.029612
0.279596
-0.0139492
0.290373
-0.00570744
0.29747
-0.000354879
0.301581
0.00458402
0.00915918
0.303517
0.25914
-0.0510712
0.267221
-0.0220308
0.271504
-0.00998989
0.273792
-0.00264277
0.275307
0.00306828
0.00828791
0.276178
0.153261
0.13123
0.12124
0.118597
0.121665
0.129953
-0.000296098
0.000296482
-0.000919754
0.000624615
-0.00163558
0.000716683
-0.00232372
0.000688884
-0.00295466
0.000631557
-0.00352484
0.000570717
-0.00403612
0.000511732
-0.00449083
0.000455095
-0.00489076
0.000400261
-0.00523706
0.000346561
-0.00553012
0.000293259
-0.00576975
0.000239774
-0.00595546
0.000185773
-0.0060869
0.000131438
-0.00616451
7.75153e-05
-0.00618992
2.5232e-05
-0.00616641
-2.3806e-05
-0.0060991
-6.77028e-05
-0.00599476
-0.000104859
-0.00586124
-0.000134147
-0.00570704
-0.000154944
-0.00554075
-0.000167091
-0.00537073
-0.000170847
-0.00520477
-0.000166777
-0.00504977
-0.000155782
-0.00491166
-0.00013881
-0.00479534
-0.000116955
-0.00470467
-9.12086e-05
-0.00464251
-6.25997e-05
-0.00461085
-3.19861e-05
-0.00461089
-1.91974e-07
-0.00464307
3.20561e-05
-0.00470704
6.39486e-05
-0.00480179
9.4801e-05
-0.0049256
0.000123892
-0.00507596
0.00015046
-0.00524928
0.000173384
-0.00544064
0.000191346
-0.00564459
0.000203792
-0.00585587
0.000211184
-0.0060686
0.000212668
-0.00627349
0.000205181
-0.00646068
0.000187854
-0.00662636
0.00016773
-0.00676871
0.000145073
-0.00685839
9.26426e-05
9.99321e-05
-0.00101972
0.0013172
-0.00267569
0.00228309
-0.0044121
0.00245516
-0.00602747
0.0023059
-0.00747342
0.00207886
-0.00874995
0.00184832
-0.00986904
0.00163172
-0.0108438
0.00143053
-0.0116853
0.00124233
-0.0124023
0.00106387
-0.0130008
0.000891982
-0.013485
0.00072405
-0.0138578
0.000558594
-0.0141222
0.000395662
-0.014282
0.000236905
-0.0143428
8.55013e-05
-0.0143128
-5.45885e-05
-0.0142029
-0.000178559
-0.0140268
-0.000282139
-0.0138
-0.000362359
-0.0135388
-0.000417751
-0.0132596
-0.000448019
-0.0129782
-0.00045403
-0.0127092
-0.000437456
-0.0124658
-0.000400729
-0.0122594
-0.000346706
-0.0120991
-0.00027847
-0.0119922
-0.000199146
-0.0119438
-0.000111755
-0.0119571
-1.92532e-05
-0.0120335
7.58495e-05
-0.0121726
0.000171094
-0.0123725
0.000263943
-0.0126295
0.000351955
-0.0129381
0.000432748
-0.0132913
0.000503793
-0.01368
0.000562188
-0.0140939
0.000605051
-0.0145212
0.000630794
-0.0149493
0.000639106
-0.0153652
0.000628992
-0.0157579
0.000598822
-0.0161194
0.000551288
-0.0164416
0.000494649
-0.0167199
0.000428938
-0.0169832
0.000360357
0.000397
-0.00177694
0.00309526
-0.00432095
0.00482919
-0.00677736
0.00491328
-0.00896322
0.00449311
-0.0108696
0.0039863
-0.012523
0.00350255
-0.0139546
0.00306389
-0.0151912
0.00266772
-0.016254
0.00230544
-0.0171581
0.00196825
-0.0179144
0.00164834
-0.0185301
0.00133987
-0.0190109
0.00103938
-0.0193619
0.000746396
-0.0195888
0.000463511
-0.0196997
0.000195872
-0.0197051
-4.96783e-05
-0.0196188
-0.000265617
-0.0194575
-0.000444218
-0.0192403
-0.000580599
-0.0189871
-0.00067207
-0.018718
-0.000718411
-0.0184523
-0.000721067
-0.0182078
-0.000683144
-0.0180008
-0.000608946
-0.0178448
-0.000503771
-0.0177508
-0.000373394
-0.017727
-0.000223731
-0.0177785
-6.08158e-05
-0.0179081
0.00010988
-0.0181159
0.000283352
-0.0183996
0.00045463
-0.0187544
0.000618784
-0.0191734
0.00077103
-0.0196473
0.000906637
-0.0201645
0.00102105
-0.020712
0.0011096
-0.0212754
0.00116819
-0.0218392
0.00119424
-0.0223873
0.00118701
-0.0229046
0.00114652
-0.0233797
0.00107444
-0.0238028
0.000976422
-0.0241665
0.000860666
-0.0244711
0.00073814
-0.0247269
0.000618911
0.000591025
-0.00246592
0.00556211
-0.00553789
0.00790321
-0.00819484
0.00757175
-0.0104332
0.00673263
-0.0123447
0.00589871
-0.0139962
0.00515484
-0.0154386
0.00450679
-0.0167084
0.00393794
-0.0178299
0.00342724
-0.0188182
0.00295662
-0.0196818
0.00251207
-0.0204253
0.00208331
-0.0210504
0.00166433
-0.0215578
0.00125359
-0.021949
0.000854263
-0.0222272
0.000473634
-0.0223997
0.000122353
-0.022477
-0.000188849
-0.0224729
-0.000448847
-0.022405
-0.000649227
-0.0222929
-0.000784889
-0.0221575
-0.000854659
-0.0220195
-0.000860027
-0.0218988
-0.000804806
-0.0218133
-0.000695349
-0.0217782
-0.000539642
-0.0218055
-0.000346799
-0.0219034
-0.000126359
-0.022077
0.000112207
-0.0223281
0.000360533
-0.0226556
0.000610423
-0.0230553
0.000854062
-0.0235206
0.00108388
-0.0240424
0.00129262
-0.0246094
0.00147336
-0.0252083
0.00161965
-0.0258247
0.00172562
-0.0264433
0.00178625
-0.027048
0.00179841
-0.0276225
0.00176106
-0.0281523
0.00167624
-0.0286263
0.00154888
-0.0290362
0.00138682
-0.0293746
0.00120174
-0.0296424
0.00100871
-0.029844
0.000821883
0.000691118
-0.00295999
0.00852299
-0.00572882
0.0106738
-0.00764381
0.00948818
-0.00917163
0.00826159
-0.0105265
0.00725449
-0.0117746
0.00640374
-0.0129543
0.00568705
-0.0140896
0.00507365
-0.0151892
0.00452723
-0.0162522
0.00401991
-0.0172723
0.0035324
-0.0182402
0.00305144
-0.0191446
0.00256892
-0.0199735
0.00208266
-0.0207155
0.00159626
-0.0213608
0.00111911
-0.0219046
0.000666234
-0.022348
0.000254883
-0.0226965
-0.000100168
-0.0229596
-0.00038606
-0.0231518
-0.000592703
-0.0232914
-0.000715321
-0.0233987
-0.000752982
-0.0234956
-0.000708406
-0.0236027
-0.000588662
-0.0237381
-0.000404743
-0.0239161
-0.0001693
-0.0241468
0.000103718
-0.0244364
0.000401278
-0.0247875
0.000710947
-0.0251988
0.00102109
-0.0256662
0.00132091
-0.0261834
0.00160043
-0.0267417
0.00185026
-0.0273306
0.00206165
-0.0279382
0.00222666
-0.0285517
0.00233844
-0.0291578
0.00239167
-0.0297427
0.00238264
-0.0302925
0.00231065
-0.0307954
0.00217876
-0.0312412
0.00199449
-0.0316218
0.00176816
-0.0319323
0.00151329
-0.0321719
0.00124903
-0.0323397
0.000990671
0.00074636
-0.00249592
0.01102
-0.00273717
0.0109168
-0.00227918
0.00903145
-0.00214384
0.00812732
-0.00239168
0.00750323
-0.00292956
0.00694242
-0.00371
0.00646815
-0.00469948
0.00606373
-0.00586023
0.00568855
-0.00715294
0.00531319
-0.00854002
0.00492017
-0.00998617
0.00449827
-0.0114576
0.00404118
-0.012922
0.00354782
-0.0143481
0.00302324
-0.0157046
0.00247638
-0.0169651
0.00192774
-0.018112
0.00140261
-0.0191333
0.000921833
-0.0200249
0.000506062
-0.0207904
0.000172973
-0.0214389
-6.67135e-05
-0.0219864
-0.000205658
-0.0224551
-0.000239864
-0.0228707
-0.000173316
-0.0232578
-1.80987e-05
-0.0236369
0.00020933
-0.0240245
0.000490731
-0.0244319
0.000807907
-0.0248652
0.00114347
-0.0253269
0.00148198
-0.0258164
0.00180947
-0.0263305
0.00211358
-0.0268643
0.00238304
-0.0274112
0.00260754
-0.0279635
0.00277799
-0.0285129
0.00288687
-0.0290506
0.00292852
-0.0295676
0.00289895
-0.0300547
0.00279706
-0.0305024
0.00262605
-0.0309021
0.00239376
-0.031246
0.00211107
-0.0315288
0.00179616
-0.0317482
0.00146975
-0.0318992
0.0011404
0.000786775
0.00831736
0.00270337
0.0143293
0.00490569
0.0175979
0.00576353
0.0193187
0.00640725
0.0199179
0.00690456
0.0196471
0.00721372
0.0187126
0.00740311
0.0172637
0.00751295
0.0154121
0.00754057
0.0132491
0.00747671
0.0108525
0.00731734
0.00828978
0.00706175
0.00561992
0.00671188
0.00289552
0.00627313
0.000164158
0.00575548
-0.00252686
0.00516827
-0.00512545
0.00452705
-0.0075806
0.00385827
-0.00985167
0.00319311
-0.0119089
0.00256321
-0.0137363
0.00199994
-0.0153274
0.00152399
-0.0166885
0.00115464
-0.0178399
0.000911055
-0.0188131
0.000798935
-0.0196424
0.000810363
-0.020362
0.000927853
-0.0210009
0.00112874
-0.021582
0.00138775
-0.0221216
0.00168186
-0.0226322
0.00199109
-0.0231216
0.0022973
-0.0235945
0.00258475
-0.024053
0.00283974
-0.0244978
0.00305044
-0.0249284
0.00320673
-0.0253437
0.00330055
-0.0257424
0.0033256
-0.0261222
0.0032776
-0.0264804
0.00315422
-0.0268125
0.00295748
-0.0271131
0.00269267
-0.0273737
0.0023714
-0.0275892
0.0020122
-0.0277604
0.00163878
-0.0278805
0.00125964
0.000827553
0.0817518
0.00398101
0.0812316
0.00542605
0.0802113
0.00678407
0.0785424
0.00807639
0.0761558
0.00929141
0.0730344
0.0103354
0.069266
0.0111716
0.0649693
0.0118098
0.0602525
0.0122576
0.0552144
0.012515
0.0499485
0.0125836
0.0445409
0.0124698
0.0390695
0.0121837
0.0336053
0.0117378
0.0282152
0.011146
0.02296
0.0104239
0.017896
0.00959119
0.01308
0.00867424
0.00856798
0.00770479
0.00441197
0.0067184
0.000660338
0.00575058
-0.00265119
0.0048341
-0.00551417
0.00401634
-0.00794644
0.00334153
-0.00998211
0.00283294
-0.0116683
0.0024944
-0.0130579
0.00231543
-0.0142024
0.00227092
-0.0151438
0.00232685
-0.0159178
0.00245342
-0.0165566
0.00262725
-0.0170855
0.00282339
-0.017524
0.00302035
-0.0178874
0.00320017
-0.0181879
0.00334792
-0.0184355
0.00345158
-0.0186395
0.0035018
-0.018808
0.00349181
-0.0189489
0.0034165
-0.019069
0.00327308
-0.0191745
0.00306128
-0.0192675
0.00278438
-0.0193457
0.00244823
-0.019404
0.00206902
-0.0194466
0.00168249
-0.0194933
0.00130728
0.000866861
0.235643
0.0122001
0.226877
0.0141919
0.217449
0.0162116
0.207448
0.0180773
0.196934
0.0198064
0.185931
0.0213379
0.174498
0.0226053
0.16272
0.023587
0.150701
0.0242773
0.138549
0.0246671
0.126383
0.02475
0.114324
0.0245289
0.102493