/*--------------------------------*- C++ -*----------------------------------*\
| =========                 |                                                 |
| \\      /  F ield         | OpenFOAM: The Open Source CFD Toolbox           |
|  \\    /   O peration     | Version:  2406                                  |
|   \\  /    A nd           | Website:  www.openfoam.com                      |
|    \\/     M anipulation  |                                                 |
\*---------------------------------------------------------------------------*/
FoamFile
{
    version     2.0;
    format      ascii;
    arch        "LSB;label=32;scalar=64";
    class       volScalarField;
    location    "41";
    object      p;
}
// * * * * * * * * * * * * * * * * * * * * * * * * * * * * * * * * * * * * * //

dimensions      [0 2 -2 0 0 0 0];

internalField   nonuniform List<scalar> 
1964
(
0.603092
0.60282
0.601992
0.600835
0.599517
0.598093
0.596594
0.595049
0.593472
0.591873
0.590257
0.588626
0.586984
0.585333
0.583674
0.582008
0.580336
0.578658
0.576972
0.57528
0.573581
0.571873
0.570154
0.568423
0.566675
0.564907
0.563111
0.56128
0.559402
0.55746
0.555434
0.553295
0.551002
0.5485
0.545713
0.542532
0.538806
0.534321
0.528767
0.521706
0.51251
0.500302
0.483887
0.461733
0.432089
0.393258
0.344488
0.604374
0.60325
0.602034
0.600815
0.59949
0.598057
0.596557
0.595018
0.593449
0.591853
0.590236
0.588607
0.586968
0.585322
0.583668
0.582004
0.580331
0.578651
0.576964
0.575271
0.573572
0.571866
0.570149
0.56842
0.566673
0.564905
0.56311
0.561279
0.5594
0.557459
0.555435
0.553299
0.551011
0.548517
0.545744
0.542585
0.538893
0.534456
0.52897
0.521991
0.512878
0.500706
0.484182
0.461576
0.430809
0.389698
0.337343
0.605162
0.603496
0.601988
0.600751
0.599449
0.598014
0.596508
0.594974
0.593418
0.591831
0.590216
0.588582
0.586944
0.585302
0.583656
0.582
0.580332
0.578653
0.576967
0.575274
0.573577
0.571875
0.570167
0.568448
0.566717
0.564967
0.563196
0.561394
0.559556
0.557667
0.555714
0.553674
0.551516
0.549196
0.546654
0.543802
0.540511
0.536585
0.531731
0.525494
0.517168
0.505689
0.489467
0.466272
0.433218
0.386603
0.324569
0.605671
0.603771
0.60204
0.600737
0.599428
0.597977
0.596453
0.594921
0.593383
0.591812
0.590197
0.588556
0.58691
0.585272
0.583638
0.581998
0.580343
0.578673
0.576989
0.575298
0.573605
0.571913
0.570222
0.568529
0.566833
0.565131
0.563419
0.561697
0.559961
0.558209
0.556436
0.554637
0.552799
0.550907
0.54893
0.546818
0.544483
0.541775
0.538425
0.533964
0.527588
0.51795
0.502904
0.479317
0.442935
0.388091
0.311849
0.606068
0.604064
0.602164
0.600771
0.59943
0.597952
0.596402
0.594866
0.593344
0.591791
0.590179
0.588526
0.586867
0.585229
0.583608
0.58199
0.580357
0.578703
0.577029
0.575344
0.573658
0.57198
0.570313
0.56866
0.567019
0.565391
0.563777
0.562181
0.560611
0.559078
0.557595
0.55618
0.554854
0.55364
0.552559
0.551624
0.550824
0.550092
0.549241
0.547853
0.545066
0.539223
0.52722
0.503981
0.460986
0.389113
0.281803
0.606379
0.604319
0.6023
0.60083
0.599453
0.597944
0.596366
0.59482
0.593312
0.591777
0.590169
0.588502
0.586827
0.585182
0.583573
0.581978
0.580373
0.578741
0.577084
0.57541
0.573735
0.572074
0.570437
0.568829
0.567257
0.565723
0.564234
0.562803
0.561449
0.560198
0.559088
0.558168
0.557501
0.557161
0.557242
0.557846
0.559079
0.56102
0.563664
0.566809
0.569793
0.571057
0.566921
0.55016
0.502714
0.400689
0.180671
0.606616
0.604524
0.602427
0.600901
0.599493
0.597953
0.596344
0.594784
0.593285
0.591768
0.590164
0.588486
0.586793
0.585139
0.583536
0.581963
0.580386
0.578781
0.577144
0.575485
0.573824
0.572182
0.570576
0.569018
0.567518
0.566085
0.564732
0.563481
0.562362
0.561422
0.560722
0.560346
0.560403
0.561029
0.562398
0.564725
0.568264
0.573299
0.580114
0.588911
0.59963
0.611596
0.622501
0.626896
0.606587
0.524028
0.168207
0.606788
0.604678
0.602531
0.600968
0.599536
0.597968
0.596329
0.594756
0.593264
0.591762
0.590165
0.588478
0.58677
0.585106
0.583506
0.581949
0.580396
0.578816
0.5772
0.575557
0.573911
0.572288
0.57071
0.569197
0.567764
0.566424
0.565198
0.564114
0.563217
0.562568
0.562254
0.562391
0.56313
0.56467
0.567266
0.571244
0.577017
0.585094
0.596086
0.610684
0.629597
0.653389
0.682033
0.714421
0.744949
0.763438
0.697669
0.6069
0.60478
0.602602
0.601017
0.59957
0.597982
0.596322
0.594737
0.59325
0.591759
0.590168
0.588476
0.586757
0.585084
0.583485
0.581939
0.580403
0.578842
0.577242
0.575613
0.57398
0.572371
0.570816
0.569338
0.567955
0.566687
0.565558
0.564604
0.563878
0.563456
0.563442
0.563977
0.565248
0.567501
0.571059
0.576338
0.583883
0.594391
0.608746
0.628051
0.653616
0.686901
0.729186
0.781
0.839664
0.897301
0.921137
0.606955
0.604832
0.602639
0.601042
0.599589
0.597991
0.596319
0.594729
0.593243
0.591758
0.59017
0.588476
0.586751
0.585074
0.583474
0.581933
0.580406
0.578855
0.577264
0.575643
0.574017
0.572417
0.570875
0.569415
0.56806
0.566831
0.565755
0.564871
0.564239
0.56394
0.56409
0.564842
0.566404
0.569048
0.573133
0.579128
0.58765
0.599499
0.615714
0.637612
0.666814
0.705185
0.754526
0.815805
0.88678
0.958683
1.00186
0.606955
0.604832
0.602639
0.601042
0.599589
0.597991
0.59632
0.594729
0.593243
0.591757
0.590169
0.588476
0.586752
0.585075
0.583476
0.581934
0.580406
0.578854
0.577263
0.575642
0.574016
0.572417
0.570875
0.569416
0.568061
0.566832
0.565756
0.564872
0.56424
0.563941
0.56409
0.564842
0.566405
0.569049
0.573134
0.579129
0.58765
0.5995
0.615716
0.637614
0.666816
0.705189
0.754525
0.81582
0.886781
0.958669
1.00186
0.6069
0.60478
0.602603
0.601017
0.599569
0.597982
0.596324
0.594739
0.59325
0.591756
0.590165
0.588475
0.586759
0.585087
0.583488
0.581941
0.580403
0.57884
0.57724
0.575611
0.573978
0.572371
0.570817
0.56934
0.567957
0.566689
0.56556
0.564606
0.56388
0.563457
0.563443
0.563978
0.565249
0.567503
0.57106
0.57634
0.583885
0.594393
0.608749
0.628054
0.653619
0.686904
0.729193
0.781005
0.839651
0.897316
0.921126
0.606788
0.604678
0.602532
0.600967
0.599534
0.597968
0.596332
0.594759
0.593264
0.591758
0.590161
0.588477
0.586773
0.585111
0.583511
0.581952
0.580397
0.578814
0.577197
0.575554
0.573909
0.572287
0.570711
0.5692
0.567767
0.566428
0.565201
0.564117
0.563219
0.56257
0.562256
0.562393
0.563132
0.564672
0.567268
0.571247
0.577021
0.585099
0.596091
0.61069
0.629602
0.653397
0.682042
0.714418
0.744946
0.76342
0.69766
0.606616
0.604524
0.602428
0.6009
0.599491
0.597953
0.596347
0.594787
0.593284
0.591763
0.59016
0.588485
0.586797
0.585145
0.583542
0.581966
0.580386
0.578779
0.57714
0.575482
0.573822
0.572182
0.570577
0.569021
0.567522
0.566089
0.564736
0.563484
0.562365
0.561424
0.560724
0.560349
0.560405
0.561032
0.562402
0.56473
0.568269
0.573305
0.580121
0.588919
0.599639
0.611606
0.622508
0.626906
0.606577
0.523966
0.168218
0.606379
0.604319
0.602301
0.600829
0.599451
0.597945
0.59637
0.594823
0.59331
0.591772
0.590165
0.588502
0.586831
0.585188
0.583578
0.58198
0.580372
0.578739
0.577081
0.575407
0.573734
0.572074
0.570439
0.568833
0.567261
0.565727
0.564238
0.562807
0.561452
0.560201
0.559091
0.558172
0.557504
0.557165
0.557247
0.557852
0.559085
0.561026
0.563672
0.566818
0.569804
0.571065
0.566935
0.55016
0.502713
0.400707
0.180627
0.606068
0.604064
0.602165
0.600771
0.599428
0.597952
0.596406
0.594868
0.593343
0.591787
0.590177
0.588527
0.586872
0.585234
0.583612
0.581991
0.580357
0.578701
0.577027
0.575343
0.573659
0.571981
0.570316
0.568662
0.567022
0.565394
0.56378
0.562185
0.560615
0.559082
0.557599
0.556184
0.554858
0.553644
0.552564
0.55163
0.550832
0.550101
0.549252
0.547866
0.545081
0.539243
0.527239
0.504019
0.46102
0.389115
0.281824
0.605671
0.603771
0.60204
0.600736
0.599426
0.597977
0.596456
0.594923
0.593382
0.591809
0.590196
0.588557
0.586914
0.585276
0.58364
0.581999
0.580343
0.578672
0.576988
0.575298
0.573606
0.571915
0.570224
0.568532
0.566836
0.565134
0.563423
0.561701
0.559965
0.558213
0.55644
0.554641
0.552804
0.550912
0.548936
0.546824
0.544491
0.541784
0.538436
0.533979
0.527604
0.517974
0.502935
0.479348
0.442972
0.38813
0.311808
0.605162
0.603495
0.601989
0.600751
0.599449
0.598015
0.596509
0.594975
0.593418
0.591831
0.590216
0.588584
0.586946
0.585304
0.583657
0.582001
0.580333
0.578654
0.576967
0.575275
0.573578
0.571876
0.570168
0.56845
0.566719
0.56497
0.563199
0.561398
0.559559
0.557671
0.555718
0.553678
0.55152
0.549201
0.54666
0.543809
0.540519
0.536595
0.531743
0.525508
0.517185
0.505706
0.48949
0.466297
0.433235
0.386602
0.324562
0.604374
0.603249
0.602034
0.600815
0.59949
0.598057
0.596558
0.595018
0.593449
0.591853
0.590237
0.588608
0.58697
0.585323
0.583668
0.582004
0.580332
0.578651
0.576965
0.575272
0.573573
0.571867
0.570151
0.568421
0.566676
0.564908
0.563113
0.561282
0.559404
0.557463
0.555439
0.553303
0.551015
0.548523
0.54575
0.542592
0.538902
0.534466
0.528982
0.522005
0.512893
0.500723
0.4842
0.461591
0.430821
0.389703
0.337335
0.603092
0.60282
0.601991
0.600835
0.599517
0.598093
0.596595
0.595049
0.593473
0.591874
0.590257
0.588627
0.586985
0.585334
0.583675
0.58201
0.580337
0.578658
0.576973
0.575281
0.573582
0.571874
0.570156
0.568425
0.566677
0.564909
0.563114
0.561283
0.559405
0.557464
0.555438
0.5533
0.551007
0.548506
0.545719
0.542539
0.538815
0.53433
0.528778
0.521718
0.512524
0.500317
0.483902
0.461747
0.432098
0.393263
0.344488
0.286651
0.223517
0.161497
0.105911
0.0583289
0.01849
0.274612
0.207216
0.14392
0.0893095
0.0436762
0.00659234
0.246161
0.165265
0.0991273
0.0487842
0.00857819
-0.023411
0.201121
0.0920733
0.0216458
-0.021136
-0.0521015
-0.0741886
0.106068
-0.0371461
-0.0997338
-0.126047
-0.140992
-0.145918
-0.166856
-0.272416
-0.259262
-0.240498
-0.224121
-0.205928
-0.549971
-0.462053
-0.334129
-0.286536
-0.255499
-0.223558
-0.549936
-0.462027
-0.334107
-0.286517
-0.255489
-0.223555
-0.166823
-0.272376
-0.259269
-0.240486
-0.224104
-0.205905
0.106032
-0.0372185
-0.0998127
-0.126127
-0.140989
-0.145895
0.20106
0.0919907
0.0215842
-0.0211688
-0.0521113
-0.0741809
0.246113
0.165222
0.0991042
0.0487681
0.00853424
-0.0234631
0.274596
0.207186
0.14388
0.0892476
0.0435941
0.00652182
0.286646
0.223497
0.161459
0.10586
0.058275
0.0184433
-0.0135993
-0.0380966
-0.055702
-0.0673885
-0.0741056
-0.076724
-0.0760714
-0.0729265
-0.0679841
-0.0618317
-0.0549469
-0.047703
-0.0403813
-0.0331852
-0.0262569
-0.0196927
-0.0135556
-0.00788489
-0.002703
0.00197976
0.00616209
0.00984959
0.0130531
0.0157877
0.0180719
0.0199273
0.021378
0.0224492
0.0231661
0.0235544
0.0236397
0.0234477
0.0230033
0.0223303
0.0214513
0.0203875
0.0191584
0.0177822
0.0162753
0.014653
0.0129288
0.0111154
0.00922379
0.00726425
0.00524545
0.00317778
0.00104816
-0.0222649
-0.0435099
-0.0582963
-0.0677961
-0.072906
-0.0743836
-0.0729855
-0.0694394
-0.0643765
-0.0583095
-0.0516446
-0.0446959
-0.0377002
-0.0308309
-0.0242131
-0.0179347
-0.012056
-0.00661606
-0.00163837
0.00286552
0.00689261
0.0104465
0.0135358
0.0161738
0.0183768
0.0201643
0.0215587
0.0225841
0.023264
0.0236226
0.0236845
0.0234745
0.0230167
0.0223344
0.0214492
0.0203817
0.019151
0.0177748
0.0162691
0.0146489
0.0129274
0.0111172
0.00922871
0.00727178
0.00525743
0.00318758
0.00102255
-0.0468188
-0.0624837
-0.072343
-0.077889
-0.0798071
-0.0786018
-0.0749498
-0.0695788
-0.0631048
-0.0560033
-0.0486354
-0.0412657
-0.034077
-0.02719
-0.020683
-0.0146051
-0.00898484
-0.00383607
0.000838048
0.00504115
0.00878123
0.012069
0.0149173
0.0173407
0.0193556
0.0209803
0.0222343
0.023138
0.0237137
0.0239843
0.0239727
0.0237019
0.0231947
0.0224725
0.0215558
0.0204636
0.0192138
0.0178231
0.0163068
0.0146788
0.012952
0.0111383
0.00924757
0.00728979
0.00527174
0.0032105
0.000957571
-0.0873008
-0.0937251
-0.0965116
-0.0968773
-0.0946085
-0.0896546
-0.0825562
-0.0740502
-0.0647886
-0.0553024
-0.0460058
-0.0371816
-0.0289886
-0.0214951
-0.0147143
-0.00862837
-0.0032025
0.00160731
0.00584795
0.00956514
0.0128003
0.0155894
0.017963
0.0199471
0.021564
0.0228343
0.0237772
0.0244116
0.0247565
0.0248312
0.024655
0.024247
0.0236257
0.0228094
0.0218158
0.0206617
0.0193627
0.0179334
0.0163871
0.0147365
0.0129927
0.0111665
0.00926664
0.00730506
0.00527884
0.00324147
0.000845897
-0.141956
-0.134267
-0.12765
-0.121604
-0.114103
-0.104519
-0.0932821
-0.0809897
-0.0682087
-0.0555196
-0.0434444
-0.0323477
-0.0224185
-0.0137131
-0.00620344
0.000188347
0.00556899
0.0100585
0.0137789
0.016844
0.0193546
0.0213941
0.0230296
0.0243124
0.0252816
0.0259668
0.0263908
0.026572
0.0265263
0.026268
0.0258107
0.0251677
0.0243519
0.0233762
0.0222532
0.0209949
0.0196127
0.0181176
0.0165198
0.0148291
0.0130545
0.0112051
0.00928812
0.00731677
0.00528105
0.00326927
0.00074897
-0.185
-0.164854
-0.152194
-0.142631
-0.131651
-0.118522
-0.103901
-0.0883035
-0.0722246
-0.0563346
-0.0413108
-0.0276495
-0.0156253
-0.005336
0.00324446
0.010226
0.0157725
0.0200768
0.0233395
0.0257521
0.0274858
0.0286848
0.0294642
0.0299125
0.0300944
0.0300559
0.0298287
0.0294343
0.0288874
0.0281984
0.0273754
0.0264252
0.025354
0.0241678
0.0228729
0.0214754
0.0199813
0.018397
0.0167286
0.0149822
0.0131639
0.0112802
0.00933666
0.00734518
0.00529629
0.00327761
0.000761301
-0.194422
-0.171779
-0.159488
-0.150617
-0.139575
-0.125727
-0.109884
-0.0926169
-0.0745316
-0.0564593
-0.0392383
-0.0235116
-0.0096807
0.00206391
0.0117002
0.0193334
0.0251558
0.0294102
0.0323591
0.0342586
0.0353421
0.0358088
0.0358207
0.0355031
0.0349481
0.0342207
0.0333645
0.0324068
0.0313639
0.0302446
0.029053
0.0277907
0.026458
0.0250548
0.0235813
0.022038
0.0204259
0.0187464
0.0170017
0.015194
0.0133265
0.0114026
0.00942605
0.0074029
0.00533581
0.00325518
0.000937165
-0.181587
-0.16691
-0.157998
-0.150685
-0.140721
-0.127527
-0.111663
-0.0938089
-0.0748001
-0.0556106
-0.0371667
-0.0202039
-0.00522601
0.00748744
0.0178595
0.0259744
0.0320309
0.0362968
0.0390698
0.0406463
0.0412998
0.041267
0.0407424
0.0398783
0.0387881
0.0375524
0.0362251
0.03484
0.0334162
0.0319626
0.0304815
0.0289717
0.0274296
0.025851
0.0242319
0.0225684
0.0208578
0.019098
0.0172878
0.0154267
0.013515
0.0115535
0.00954436
0.0074849
0.00539863
0.00321413
0.00123806
-0.163722
-0.159416
-0.154832
-0.148295
-0.138711
-0.125936
-0.110281
-0.0923959
-0.0732058
-0.0537219
-0.0348948
-0.0174991
-0.00209468
0.0109906
0.021648
0.0299463
0.0360807
0.0403258
0.0429915
0.0443901
0.0448116
0.0445096
0.0436937
0.0425296
0.0411419
0.0396195
0.038023
0.0363903
0.0347426
0.03309
0.0314346
0.0297737
0.0281023
0.0264141
0.0247028
0.0229623
0.0211878
0.019375
0.0175209
0.0156231
0.0136805
0.0116915
0.00965766
0.00756814
0.00546605
0.00317988
0.00154645
-0.153912
-0.153128
-0.150605
-0.144991
-0.135989
-0.123606
-0.108202
-0.0904905
-0.071429
-0.0520422
-0.0332552
-0.0158279
-0.000374235
0.0127531
0.0234366
0.0317389
0.0378534
0.0420547
0.0446553
0.0459706
0.0462945
0.0458841
0.0449534
0.0436716
0.0421667
0.0405305
0.0388258
0.0370922
0.0353522
0.0336162
0.0318866
0.0301607
0.0284327
0.0266959
0.0249432
0.0231677
0.0213636
0.019526
0.017651
0.0157355
0.0137775
0.0117747
0.00972804
0.00762192
0.0055115
0.00316539
0.00173678
-0.153915
-0.153136
-0.150612
-0.144993
-0.135986
-0.123602
-0.108198
-0.0904884
-0.0714281
-0.0520413
-0.0332539
-0.0158259
-0.000371841
0.0127561
0.02344
0.0317423
0.0378563
0.0420569
0.0446565
0.045971
0.0462941
0.0458833
0.0449525
0.0436708
0.0421661
0.0405302
0.0388258
0.0370923
0.0353524
0.0336164
0.0318866
0.0301605
0.0284323
0.0266953
0.0249424
0.0231669
0.0213628
0.0195253
0.0176504
0.015735
0.0137772
0.0117744
0.00972782
0.00762188
0.00551154
0.00316533
0.00173662
-0.163729
-0.159424
-0.154844
-0.148306
-0.138718
-0.125939
-0.11028
-0.0923929
-0.0732027
-0.0537188
-0.0348911
-0.0174949
-0.00208946
0.0109973
0.0216562
0.0299549
0.0360885
0.0403317
0.0429951
0.0443914
0.0448111
0.0445078
0.0436914
0.0425274
0.0411401
0.0396185
0.0380226
0.0363903
0.0347429
0.0330902
0.0314344
0.0297731
0.0281012
0.0264126
0.0247009
0.0229603
0.0211858
0.0193731
0.0175192
0.0156218
0.0136795
0.0116908
0.00965726
0.00756789
0.00546594
0.00318
0.00154609
-0.181597
-0.166914
-0.158006
-0.150699
-0.14073
-0.127527
-0.111657
-0.0938003
-0.0747916
-0.0556037
-0.0371621
-0.0202006
-0.00522235
0.00749324
0.0178676
0.0259839
0.0320402
0.0363045
0.039075
0.040649
0.0413001
0.0412656
0.04074
0.0398758
0.0387859
0.0375509
0.0362243
0.0348398
0.0334162
0.0319626
0.0304812
0.0289709
0.0274283
0.0258492
0.0242297
0.0225661
0.0208555
0.0190959
0.017286
0.0154253
0.013514
0.0115528
0.00954395
0.0074847
0.00539864
0.00321409
0.00123801
-0.194435
-0.171787
-0.159498
-0.150631
-0.139588
-0.125734
-0.109884
-0.0926103
-0.0745222
-0.0564509
-0.0392328
-0.0235083
-0.00967781
0.00206817
0.0117064
0.019341
0.0251636
0.0294174
0.0323646
0.0342624
0.035344
0.0358093
0.0358202
0.0355021
0.034947
0.0342198
0.0333638
0.0324064
0.0313637
0.0302443
0.0290525
0.0277898
0.0264567
0.0250532
0.0235794
0.0220361
0.0204239
0.0187447
0.0170002
0.0151929
0.0133258
0.0114022
0.00942581
0.00740286
0.00533593
0.003255
0.000937436
-0.184998
-0.164867
-0.152203
-0.142641
-0.131668
-0.118539
-0.10391
-0.0883006
-0.0722146
-0.0563233
-0.0413008
-0.0276413
-0.0156176
-0.00532823
0.00325298
0.0102346
0.0157811
0.0200845
0.0233464
0.0257578
0.0274907
0.0286884
0.029467
0.0299143
0.0300957
0.0300566
0.0298291
0.0294343
0.0288872
0.0281979
0.0273748
0.0264242
0.0253529
0.0241665
0.0228715
0.0214738
0.01998
0.0183957
0.0167276
0.0149814
0.0131635
0.01128
0.00933677
0.00734523
0.00529637
0.00327772
0.000761469
-0.141927
-0.134257
-0.127646
-0.121603
-0.11411
-0.10453
-0.0932902
-0.0809912
-0.0682051
-0.0555127
-0.0434353
-0.0323366
-0.0224062
-0.0137002
-0.00619086
0.000200121
0.00557961
0.0100682
0.0137878
0.0168524
0.0193622
0.021401
0.0230354
0.0243171
0.0252852
0.0259693
0.0263923
0.0265728
0.0265264
0.0262677
0.02581
0.0251668
0.0243508
0.0233751
0.022252
0.0209937
0.0196116
0.0181167
0.0165191
0.0148286
0.0130542
0.0112051
0.00928815
0.00731694
0.0052813
0.00326943
0.00074871
-0.0872956
-0.0937197
-0.0965
-0.0968644
-0.0946028
-0.0896557
-0.0825604
-0.0740529
-0.0647876
-0.0552961
-0.0459949
-0.0371668
-0.0289725
-0.0214787
-0.0146994
-0.00861461
-0.00319039
0.00161885
0.00585859
0.00957563
0.0128098
0.0155984
0.0179705
0.0199534
0.0215685
0.0228376
0.0237791
0.0244127
0.0247566
0.024831
0.0246543
0.0242462
0.0236245
0.0228083
0.0218145
0.0206606
0.0193616
0.0179325
0.0163863
0.014736
0.0129923
0.0111664
0.00926661
0.00730518
0.00527894
0.00324194
0.000845233
-0.0468498
-0.0624845
-0.0723263
-0.077872
-0.0797983
-0.0786019
-0.0749537
-0.0695816
-0.0631021
-0.0559946
-0.0486215
-0.0412494
-0.0340599
-0.0271741
-0.020668
-0.0145915
-0.00897173
-0.00382363
0.000850452
0.00505281
0.00879234
0.0120787
0.0149258
0.0173473
0.0193608
0.0209839
0.0222368
0.0231392
0.0237143
0.0239841
0.0239722
0.0237009
0.0231937
0.0224713
0.0215546
0.0204623
0.0192128
0.0178221
0.016306
0.0146781
0.0129517
0.011138
0.00924752
0.00728979
0.00527185
0.00321101
0.000956906
-0.0222976
-0.043508
-0.0582797
-0.067782
-0.0729004
-0.0743847
-0.0729878
-0.0694387
-0.0643705
-0.0582986
-0.0516304
-0.0446805
-0.0376848
-0.0308163
-0.0241992
-0.0179214
-0.0120431
-0.00660349
-0.0016262
0.00287698
0.00690311
0.0104557
0.0135436
0.01618
0.0183817
0.0201678
0.0215611
0.0225855
0.0232646
0.0236225
0.023684
0.0234736
0.0230156
0.0223331
0.0214479
0.0203804
0.0191498
0.0177737
0.0162682
0.0146481
0.0129269
0.0111169
0.00922848
0.0072717
0.00525752
0.0031878
0.0010221
-0.0136317
-0.0381143
-0.0557086
-0.0673885
-0.074102
-0.0767187
-0.0760652
-0.0729194
-0.0679756
-0.0618215
-0.0549349
-0.0476897
-0.0403671
-0.0331705
-0.0262422
-0.0196783
-0.0135417
-0.00787166
-0.00269063
0.00199113
0.00617234
0.00985862
0.0130609
0.0157941
0.018077
0.0199311
0.0213807
0.0224508
0.0231668
0.0235544
0.0236391
0.0234467
0.023002
0.0223289
0.0214499
0.0203862
0.0191572
0.0177811
0.0162744
0.0146522
0.0129283
0.0111151
0.00922357
0.00726421
0.00524533
0.00317777
0.00104804
)
;

boundaryField
{
    inlet
    {
        type            zeroGradient;
    }
    outlet
    {
        type            fixedValue;
        value           uniform 0;
    }
    upperWall
    {
        type            zeroGradient;
    }
    lowerWall
    {
        type            zeroGradient;
    }
    frontAndBack
    {
        type            empty;
    }
}


// ************************************************************************* //
