/*--------------------------------*- C++ -*----------------------------------*\
| =========                 |                                                 |
| \\      /  F ield         | OpenFOAM: The Open Source CFD Toolbox           |
|  \\    /   O peration     | Version:  2406                                  |
|   \\  /    A nd           | Website:  www.openfoam.com                      |
|    \\/     M anipulation  |                                                 |
\*---------------------------------------------------------------------------*/
FoamFile
{
    version     2.0;
    format      ascii;
    arch        "LSB;label=32;scalar=64";
    class       volVectorField;
    location    "41";
    object      U;
}
// * * * * * * * * * * * * * * * * * * * * * * * * * * * * * * * * * * * * * //

dimensions      [0 1 -1 0 0 0 0];

internalField   nonuniform List<vector> 
1964
(
(0.0985952 -0.00107313 0)
(0.100497 -0.0011481 0)
(0.102208 -0.00068066 0)
(0.103483 -0.000386202 0)
(0.10437 -0.000245744 0)
(0.105016 -0.000162041 0)
(0.105501 -0.000106732 0)
(0.105868 -7.53196e-05 0)
(0.106153 -5.93356e-05 0)
(0.106384 -4.88216e-05 0)
(0.106577 -3.83219e-05 0)
(0.106739 -2.85991e-05 0)
(0.106877 -2.24337e-05 0)
(0.106996 -2.10497e-05 0)
(0.107104 -2.2742e-05 0)
(0.107203 -2.52792e-05 0)
(0.107298 -2.64794e-05 0)
(0.107392 -2.63232e-05 0)
(0.107486 -2.5442e-05 0)
(0.107584 -2.54849e-05 0)
(0.107689 -2.76891e-05 0)
(0.107806 -3.3103e-05 0)
(0.107943 -4.21849e-05 0)
(0.108109 -5.54346e-05 0)
(0.108315 -7.32218e-05 0)
(0.108576 -9.6727e-05 0)
(0.108912 -0.000127375 0)
(0.109349 -0.000168021 0)
(0.109924 -0.000222117 0)
(0.110682 -0.000295083 0)
(0.111689 -0.000393677 0)
(0.113031 -0.000527581 0)
(0.114824 -0.000709442 0)
(0.117228 -0.000956739 0)
(0.120454 -0.00129274 0)
(0.124791 -0.00174864 0)
(0.130622 -0.00236493 0)
(0.138452 -0.00319255 0)
(0.148938 -0.00429119 0)
(0.162905 -0.00572407 0)
(0.181347 -0.00754124 0)
(0.205371 -0.0097519 0)
(0.236074 -0.0122734 0)
(0.27425 -0.0148466 0)
(0.320052 -0.0169831 0)
(0.372184 -0.0177642 0)
(0.427571 -0.0162993 0)
(0.27636 -0.0014929 0)
(0.276317 -0.0024376 0)
(0.276793 -0.0021466 0)
(0.277343 -0.00166309 0)
(0.277969 -0.00128164 0)
(0.278619 -0.000987858 0)
(0.27922 -0.000759637 0)
(0.279743 -0.000591702 0)
(0.280194 -0.000473819 0)
(0.280587 -0.000391081 0)
(0.28093 -0.00032922 0)
(0.281232 -0.000279718 0)
(0.281497 -0.00024014 0)
(0.281733 -0.000210981 0)
(0.281946 -0.000191371 0)
(0.282143 -0.000180371 0)
(0.282331 -0.000175189 0)
(0.282514 -0.000174983 0)
(0.282697 -0.000179295 0)
(0.282885 -0.000189362 0)
(0.283084 -0.00020736 0)
(0.283302 -0.00023611 0)
(0.283551 -0.000279197 0)
(0.283845 -0.000341201 0)
(0.284203 -0.00042754 0)
(0.284651 -0.000546218 0)
(0.28522 -0.000706936 0)
(0.285953 -0.00092417 0)
(0.286908 -0.00121627 0)
(0.288161 -0.00160936 0)
(0.289814 -0.00213759 0)
(0.292 -0.0028479 0)
(0.294901 -0.00380229 0)
(0.298756 -0.00508416 0)
(0.303881 -0.00680275 0)
(0.310691 -0.00910079 0)
(0.319727 -0.0121586 0)
(0.331681 -0.0161974 0)
(0.347429 -0.0214713 0)
(0.368041 -0.0282443 0)
(0.394786 -0.0367376 0)
(0.429079 -0.0470341 0)
(0.472386 -0.0589246 0)
(0.525931 -0.0716823 0)
(0.590539 -0.0838829 0)
(0.66531 -0.0926083 0)
(0.747694 -0.094834 0)
(0.436621 -0.000803743 0)
(0.436445 -0.00164767 0)
(0.436296 -0.00180597 0)
(0.436036 -0.00170758 0)
(0.43596 -0.00155808 0)
(0.436095 -0.00138404 0)
(0.43633 -0.00119844 0)
(0.436595 -0.00102578 0)
(0.436866 -0.00088147 0)
(0.437137 -0.000766096 0)
(0.437403 -0.000670704 0)
(0.437656 -0.000587928 0)
(0.437891 -0.000516156 0)
(0.438107 -0.000458326 0)
(0.438308 -0.000416949 0)
(0.4385 -0.000391874 0)
(0.438688 -0.000380414 0)
(0.438876 -0.000379818 0)
(0.439066 -0.000388332 0)
(0.439263 -0.000407144 0)
(0.439472 -0.000439394 0)
(0.439698 -0.000490955 0)
(0.439953 -0.000569078 0)
(0.44025 -0.000683227 0)
(0.440609 -0.000844793 0)
(0.441053 -0.00106861 0)
(0.441613 -0.00137389 0)
(0.442331 -0.00178665 0)
(0.443261 -0.00234172 0)
(0.444475 -0.0030865 0)
(0.446068 -0.00408437 0)
(0.448168 -0.00542059 0)
(0.45094 -0.00720815 0)
(0.454607 -0.00959657 0)
(0.459459 -0.0127809 0)
(0.465877 -0.0170126 0)
(0.474355 -0.0226084 0)
(0.485533 -0.0299553 0)
(0.500227 -0.0395022 0)
(0.519466 -0.0517289 0)
(0.54453 -0.0670663 0)
(0.576967 -0.0857643 0)
(0.618585 -0.107617 0)
(0.671263 -0.131685 0)
(0.73728 -0.155799 0)
(0.816559 -0.175071 0)
(0.910092 -0.185516 0)
(0.576817 -0.000430703 0)
(0.576805 -0.00105947 0)
(0.576706 -0.00134094 0)
(0.576309 -0.00140835 0)
(0.575964 -0.00139553 0)
(0.575791 -0.00133575 0)
(0.575724 -0.00123993 0)
(0.575706 -0.00112868 0)
(0.575723 -0.0010226 0)
(0.575774 -0.000929503 0)
(0.575854 -0.000846697 0)
(0.575952 -0.000768914 0)
(0.576055 -0.000696236 0)
(0.576156 -0.000632928 0)
(0.576256 -0.000585057 0)
(0.576358 -0.00055483 0)
(0.576468 -0.000542329 0)
(0.576586 -0.000544999 0)
(0.576714 -0.00056163 0)
(0.576852 -0.000592711 0)
(0.577001 -0.000642257 0)
(0.577166 -0.000717082 0)
(0.577352 -0.000827593 0)
(0.577569 -0.000986625 0)
(0.57783 -0.00121133 0)
(0.578155 -0.00152247 0)
(0.578564 -0.00194814 0)
(0.579089 -0.00252419 0)
(0.579769 -0.00329979 0)
(0.580654 -0.00433959 0)
(0.581814 -0.00573143 0)
(0.583339 -0.00759139 0)
(0.585348 -0.0100747 0)
(0.588 -0.0133848 0)
(0.591508 -0.0177891 0)
(0.596152 -0.0236318 0)
(0.602306 -0.0313523 0)
(0.610473 -0.041497 0)
(0.621333 -0.0547242 0)
(0.635816 -0.0717876 0)
(0.655194 -0.0934629 0)
(0.681239 -0.120422 0)
(0.716282 -0.152814 0)
(0.763433 -0.190006 0)
(0.826948 -0.228851 0)
(0.908226 -0.262592 0)
(1.01974 -0.287772 0)
(0.696922 -0.000268698 0)
(0.696996 -0.000721146 0)
(0.697018 -0.00098831 0)
(0.696696 -0.0010991 0)
(0.696333 -0.00113553 0)
(0.696083 -0.00112938 0)
(0.695909 -0.0010878 0)
(0.695763 -0.00102482 0)
(0.695638 -0.000957574 0)
(0.695544 -0.0008956 0)
(0.695486 -0.000838215 0)
(0.695454 -0.000781429 0)
(0.695435 -0.000724584 0)
(0.695419 -0.000672851 0)
(0.695406 -0.000632531 0)
(0.695401 -0.000608753 0)
(0.695409 -0.000602748 0)
(0.69543 -0.000613893 0)
(0.695466 -0.000641141 0)
(0.695514 -0.000685428 0)
(0.695571 -0.000750627 0)
(0.695638 -0.000844522 0)
(0.695715 -0.00097837 0)
(0.695807 -0.00116787 0)
(0.69592 -0.00143256 0)
(0.696064 -0.00179817 0)
(0.696249 -0.00229716 0)
(0.69649 -0.00297285 0)
(0.696806 -0.00388196 0)
(0.69722 -0.00510091 0)
(0.697764 -0.00673113 0)
(0.698479 -0.00890863 0)
(0.699422 -0.0118136 0)
(0.700669 -0.0156851 0)
(0.702324 -0.0208373 0)
(0.704533 -0.0276824 0)
(0.707504 -0.036755 0)
(0.711541 -0.0487437 0)
(0.717102 -0.0645235 0)
(0.724907 -0.0851864 0)
(0.736083 -0.112047 0)
(0.752557 -0.146623 0)
(0.777148 -0.190297 0)
(0.815366 -0.244233 0)
(0.872675 -0.306033 0)
(0.960247 -0.369746 0)
(1.10052 -0.434331 0)
(0.796987 -0.000178644 0)
(0.797098 -0.0004976 0)
(0.797195 -0.000716047 0)
(0.796952 -0.000829571 0)
(0.796624 -0.000883806 0)
(0.796375 -0.000902031 0)
(0.796181 -0.000889483 0)
(0.795999 -0.000855505 0)
(0.795823 -0.00081381 0)
(0.795668 -0.000773678 0)
(0.795544 -0.000735723 0)
(0.795445 -0.000696769 0)
(0.795358 -0.000656009 0)
(0.795271 -0.00061762 0)
(0.795184 -0.000587846 0)
(0.795101 -0.000572276 0)
(0.795029 -0.000573352 0)
(0.794972 -0.000591512 0)
(0.794927 -0.000626366 0)
(0.794892 -0.00067904 0)
(0.794861 -0.00075328 0)
(0.79483 -0.000856605 0)
(0.794795 -0.00100034 0)
(0.794756 -0.00120034 0)
(0.79471 -0.00147701 0)
(0.794657 -0.00185699 0)
(0.794596 -0.00237433 0)
(0.794525 -0.00307395 0)
(0.79444 -0.00401486 0)
(0.794334 -0.005276 0)
(0.794199 -0.00696241 0)
(0.794023 -0.00921478 0)
(0.793791 -0.0122205 0)
(0.793488 -0.0162293 0)
(0.793097 -0.0215734 0)
(0.792603 -0.0286941 0)
(0.792009 -0.0381781 0)
(0.791352 -0.0508065 0)
(0.790749 -0.0676228 0)
(0.790492 -0.0900294 0)
(0.791192 -0.119926 0)
(0.794302 -0.159918 0)
(0.802189 -0.213542 0)
(0.82239 -0.285772 0)
(0.859332 -0.381691 0)
(0.955033 -0.506518 0)
(1.09155 -0.676875 0)
(0.877029 -0.000120031 0)
(0.877154 -0.00034115 0)
(0.87729 -0.000506969 0)
(0.877103 -0.000605461 0)
(0.876809 -0.000660633 0)
(0.876574 -0.000686944 0)
(0.876384 -0.000687983 0)
(0.876196 -0.000669953 0)
(0.876004 -0.000643723 0)
(0.875825 -0.000617351 0)
(0.875673 -0.000592305 0)
(0.875546 -0.000566132 0)
(0.875428 -0.000538115 0)
(0.875307 -0.000510969 0)
(0.87518 -0.000490249 0)
(0.875053 -0.00048082 0)
(0.874933 -0.000485781 0)
(0.874824 -0.000506048 0)
(0.874725 -0.000541939 0)
(0.87463 -0.000594547 0)
(0.874532 -0.000667356 0)
(0.874423 -0.000766799 0)
(0.874295 -0.000903225 0)
(0.874141 -0.00109072 0)
(0.873953 -0.00134831 0)
(0.87372 -0.00170025 0)
(0.873431 -0.0021784 0)
(0.873066 -0.00282402 0)
(0.8726 -0.00369199 0)
(0.871998 -0.00485496 0)
(0.871211 -0.0064103 0)
(0.870176 -0.00848805 0)
(0.86881 -0.0112627 0)
(0.867003 -0.0149679 0)
(0.864614 -0.0199175 0)
(0.861462 -0.0265343 0)
(0.857321 -0.0353909 0)
(0.851913 -0.0472699 0)
(0.844914 -0.0632532 0)
(0.835978 -0.0848627 0)
(0.824762 -0.114293 0)
(0.811212 -0.15479 0)
(0.795282 -0.211456 0)
(0.780765 -0.29231 0)
(0.766522 -0.412161 0)
(0.813538 -0.595313 0)
(0.799828 -0.876655 0)
(0.937056 -7.77476e-05 0)
(0.937185 -0.00022331 0)
(0.937343 -0.000338514 0)
(0.937191 -0.000412499 0)
(0.936922 -0.000457482 0)
(0.9367 -0.000481984 0)
(0.936517 -0.000487746 0)
(0.93633 -0.000478933 0)
(0.936132 -0.000463329 0)
(0.935941 -0.000447056 0)
(0.935776 -0.000431497 0)
(0.935635 -0.000415112 0)
(0.935502 -0.000397091 0)
(0.935365 -0.000379385 0)
(0.935218 -0.000365915 0)
(0.935067 -0.00036066 0)
(0.934919 -0.000366263 0)
(0.934779 -0.000383902 0)
(0.934645 -0.000414142 0)
(0.934511 -0.000458102 0)
(0.934367 -0.00051854 0)
(0.934203 -0.00060062 0)
(0.934006 -0.000712371 0)
(0.933764 -0.000865103 0)
(0.933464 -0.00107385 0)
(0.933088 -0.00135824 0)
(0.932611 -0.00174377 0)
(0.932003 -0.00226386 0)
(0.931218 -0.00296264 0)
(0.930196 -0.00389884 0)
(0.928856 -0.005151 0)
(0.92709 -0.00682448 0)
(0.924752 -0.00906088 0)
(0.921651 -0.012051 0)
(0.917534 -0.016053 0)
(0.912063 -0.0214182 0)
(0.904797 -0.0286282 0)
(0.895149 -0.0383517 0)
(0.882344 -0.0515295 0)
(0.865356 -0.0695083 0)
(0.842793 -0.0942622 0)
(0.812788 -0.128724 0)
(0.772356 -0.177508 0)
(0.717778 -0.247637 0)
(0.637485 -0.3532 0)
(0.530752 -0.518393 0)
(0.203809 -0.673588 0)
(0.977072 -4.39484e-05 0)
(0.977203 -0.000126874 0)
(0.977371 -0.000194593 0)
(0.97724 -0.000239773 0)
(0.976987 -0.000268425 0)
(0.976774 -0.000285286 0)
(0.976596 -0.000290931 0)
(0.976411 -0.000287533 0)
(0.97621 -0.000279596 0)
(0.976013 -0.000270836 0)
(0.97584 -0.000262286 0)
(0.975692 -0.000253234 0)
(0.975552 -0.000243246 0)
(0.975405 -0.000233415 0)
(0.975247 -0.000226048 0)
(0.975083 -0.000223567 0)
(0.97492 -0.000227702 0)
(0.974762 -0.000239368 0)
(0.974607 -0.000259112 0)
(0.974449 -0.000287841 0)
(0.974277 -0.000327427 0)
(0.974076 -0.000381235 0)
(0.973833 -0.00045441 0)
(0.973533 -0.000554178 0)
(0.973155 -0.000690176 0)
(0.972678 -0.000875021 0)
(0.97207 -0.00112518 0)
(0.971288 -0.00146227 0)
(0.970274 -0.00191491 0)
(0.968951 -0.0025212 0)
(0.967212 -0.00333217 0)
(0.964914 -0.00441636 0)
(0.961868 -0.0058661 0)
(0.957821 -0.00780624 0)
(0.952433 -0.0104064 0)
(0.945249 -0.0138989 0)
(0.935657 -0.0186042 0)
(0.922831 -0.0249703 0)
(0.905642 -0.0336312 0)
(0.882538 -0.045495 0)
(0.851351 -0.0618805 0)
(0.809045 -0.0846983 0)
(0.751128 -0.116745 0)
(0.671505 -0.161751 0)
(0.559279 -0.225066 0)
(0.405888 -0.306893 0)
(0.133582 -0.351259 0)
(0.997079 -1.42905e-05 0)
(0.99721 -4.11953e-05 0)
(0.997383 -6.35357e-05 0)
(0.997262 -7.87314e-05 0)
(0.997017 -8.84956e-05 0)
(0.996808 -9.44598e-05 0)
(0.996633 -9.68113e-05 0)
(0.996449 -9.61708e-05 0)
(0.996247 -9.38242e-05 0)
(0.996047 -9.08932e-05 9.49509e-35)
(0.995871 -8.78654e-05 0)
(0.995719 -8.47764e-05 0)
(0.995575 -8.16715e-05 0)
(0.995425 -7.89097e-05 0)
(0.995261 -7.7089e-05 0)
(0.995091 -7.68086e-05 9.34849e-35)
(0.99492 -7.84994e-05 0)
(0.994754 -8.24495e-05 0)
(0.99459 -8.89539e-05 0)
(0.99442 -9.85012e-05 0)
(0.994233 -0.000111929 0)
(0.994014 -0.000130522 0)
(0.993749 -0.000156105 0)
(0.993418 -0.000191135 -9.15431e-35)
(0.993001 -0.000238847 0)
(0.992472 -0.000303492 0)
(0.991796 -0.000390656 0)
(0.990924 -0.000507758 0)
(0.989792 -0.000664671 0)
(0.98831 -0.000874621 0)
(0.986362 -0.00115532 0)
(0.983785 -0.00153062 0)
(0.980367 -0.00203261 0)
(0.97582 -0.00270478 0)
(0.969759 -0.00360628 0)
(0.961666 -0.0048183 0)
(0.950839 -0.00645314 0)
(0.936317 -0.00866827 0)
(0.916786 -0.0116863 0)
(0.89042 -0.0158257 0)
(0.854669 -0.0215439 0)
(0.80597 -0.029491 -1.28959e-34)
(0.739249 -0.0405793 0)
(0.647837 -0.0559448 0)
(0.52176 -0.0769249 0)
(0.355879 -0.102553 0)
(0.104431 -0.109621 0)
(0.997079 1.42909e-05 0)
(0.997211 4.10908e-05 0)
(0.997383 6.3537e-05 0)
(0.997262 7.87817e-05 0)
(0.997017 8.86265e-05 0)
(0.996808 9.45512e-05 0)
(0.996633 9.64575e-05 0)
(0.996449 9.51822e-05 0)
(0.996247 9.26805e-05 0)
(0.996048 9.04048e-05 -9.49509e-35)
(0.995871 8.84132e-05 0)
(0.995719 8.59034e-05 0)
(0.995575 8.23798e-05 0)
(0.995424 7.82437e-05 0)
(0.995261 7.46605e-05 0)
(0.99509 7.29566e-05 -9.34851e-35)
(0.99492 7.40902e-05 0)
(0.994754 7.84834e-05 0)
(0.99459 8.61648e-05 0)
(0.994421 9.71059e-05 0)
(0.994233 0.000111605 0)
(0.994014 0.000130547 0)
(0.993748 0.000155625 0)
(0.993417 0.00018939 9.15433e-35)
(0.993 0.00023536 0)
(0.992471 0.000298114 0)
(0.991794 0.000383549 0)
(0.990923 0.00049928 0)
(0.98979 0.000655245 0)
(0.988309 0.000864611 0)
(0.98636 0.00114495 0)
(0.983784 0.00151993 0)
(0.980365 0.00202147 0)
(0.975818 0.00269294 0)
(0.969757 0.0035934 0)
(0.961664 0.00480404 0)
(0.950836 0.00643711 0)
(0.936314 0.00865007 0)
(0.916782 0.0116655 0)
(0.890416 0.0158019 0)
(0.854664 0.0215167 0)
(0.805965 0.0294603 1.28961e-34)
(0.739244 0.0405451 0)
(0.647832 0.055908 0)
(0.521772 0.076903 0)
(0.355891 0.10255 0)
(0.104423 0.109622 0)
(0.977072 4.39621e-05 0)
(0.977203 0.000126765 0)
(0.977371 0.000194591 0)
(0.97724 0.000239871 0)
(0.976987 0.000268592 0)
(0.976773 0.000285385 0)
(0.976595 0.000290615 0)
(0.976411 0.000286677 0)
(0.97621 0.000278653 0)
(0.976014 0.000270505 0)
(0.975841 0.000262819 0)
(0.975692 0.000254139 0)
(0.975551 0.000243602 0)
(0.975403 0.000232443 0)
(0.975245 0.000223518 0)
(0.975081 0.000219895 0)
(0.974919 0.000223714 0)
(0.974762 0.000235924 0)
(0.974609 0.000256772 0)
(0.974451 0.000286681 0)
(0.974277 0.000327062 0)
(0.974075 0.000380986 0)
(0.973831 0.000453519 0)
(0.973529 0.000552035 0)
(0.973152 0.000686433 0)
(0.972674 0.000869631 0)
(0.972066 0.00111833 0)
(0.971284 0.0014543 0)
(0.970271 0.00190616 0)
(0.968948 0.00251194 0)
(0.967208 0.00332255 0)
(0.96491 0.00440634 0)
(0.961864 0.00585553 0)
(0.957816 0.00779485 0)
(0.952426 0.0103939 0)
(0.945242 0.0138849 0)
(0.935649 0.0185885 0)
(0.922822 0.0249525 0)
(0.905631 0.033611 0)
(0.882526 0.0454718 0)
(0.851337 0.0618543 0)
(0.809032 0.0846679 0)
(0.751114 0.116714 0)
(0.67151 0.161721 0)
(0.559295 0.225048 0)
(0.405891 0.306892 0)
(0.133595 0.35126 0)
(0.937056 7.77464e-05 0)
(0.937186 0.0002233 0)
(0.937343 0.000338664 0)
(0.937191 0.000412616 0)
(0.936922 0.000457535 0)
(0.9367 0.000481952 0)
(0.936516 0.000487433 0)
(0.93633 0.000478334 0)
(0.936132 0.000462791 0)
(0.935943 0.000447023 0)
(0.935777 0.000432013 0)
(0.935635 0.000415679 0)
(0.9355 0.00039701 0)
(0.935361 0.000378183 0)
(0.935214 0.00036359 0)
(0.935064 0.00035768 0)
(0.934919 0.000363277 0)
(0.934781 0.000381489 0)
(0.934648 0.000412542 0)
(0.934513 0.000457194 0)
(0.934368 0.000517899 0)
(0.934201 0.000599691 0)
(0.934003 0.000710647 0)
(0.933759 0.000862246 0)
(0.933458 0.00106974 0)
(0.933081 0.00135297 0)
(0.932605 0.00173755 0)
(0.931997 0.00225693 0)
(0.931212 0.00295518 0)
(0.930191 0.00389096 0)
(0.928851 0.00514268 0)
(0.927084 0.0068156 0)
(0.924745 0.00905122 0)
(0.921643 0.0120404 0)
(0.917523 0.0160411 0)
(0.912051 0.0214047 0)
(0.904783 0.028613 0)
(0.895133 0.0383345 0)
(0.882326 0.05151 0)
(0.865336 0.0694863 0)
(0.84277 0.0942364 0)
(0.812766 0.128696 0)
(0.772342 0.177475 0)
(0.717778 0.247614 0)
(0.637511 0.353175 0)
(0.530769 0.518397 0)
(0.203806 0.673599 0)
(0.877029 0.000120065 0)
(0.877154 0.000341154 0)
(0.877291 0.000507075 0)
(0.877103 0.000605575 0)
(0.876809 0.000660553 0)
(0.876573 0.000686702 0)
(0.876382 0.000687538 0)
(0.876196 0.000669492 0)
(0.876005 0.000643516 0)
(0.875827 0.000617525 0)
(0.875675 0.000592619 0)
(0.875545 0.00056618 0)
(0.875424 0.000537432 0)
(0.875301 0.000509585 0)
(0.875175 0.000488386 0)
(0.87505 0.000478971 0)
(0.874933 0.000484292 0)
(0.874826 0.000505043 0)
(0.874728 0.000541249 0)
(0.874632 0.000593831 0)
(0.874532 0.000666184 0)
(0.87442 0.000764905 0)
(0.87429 0.000900417 0)
(0.874134 0.0010871 0)
(0.873945 0.00134396 0)
(0.873712 0.00169545 0)
(0.873423 0.00217325 0)
(0.873059 0.00281867 0)
(0.872594 0.00368635 0)
(0.871991 0.00484895 0)
(0.871204 0.00640368 0)
(0.870168 0.00848065 0)
(0.8688 0.0112543 0)
(0.866991 0.0149582 0)
(0.8646 0.0199065 0)
(0.861446 0.0265218 0)
(0.857302 0.0353769 0)
(0.851892 0.0472543 0)
(0.844889 0.0632358 0)
(0.83595 0.0848431 0)
(0.824732 0.114271 0)
(0.81118 0.154765 0)
(0.795264 0.21143 0)
(0.780766 0.292278 0)
(0.766547 0.41214 0)
(0.813586 0.595302 0)
(0.79986 0.876664 0)
(0.796987 0.000178645 0)
(0.797098 0.000497673 0)
(0.797195 0.000716171 0)
(0.796952 0.000829609 0)
(0.796624 0.000883758 0)
(0.796373 0.000901856 0)
(0.796179 0.00088942 0)
(0.795999 0.000855581 0)
(0.795825 0.000814032 0)
(0.795671 0.000773719 0)
(0.795545 0.000735314 0)
(0.795444 0.000695729 0)
(0.795353 0.000654593 0)
(0.795265 0.000616148 0)
(0.795178 0.000586866 0)
(0.795098 0.000571884 0)
(0.79503 0.000573516 0)
(0.794975 0.000591738 0)
(0.794931 0.000626193 0)
(0.794894 0.000677984 0)
(0.79486 0.000751201 0)
(0.794826 0.000853522 0)
(0.794789 0.000996614 0)
(0.794747 0.00119627 0)
(0.7947 0.00147303 0)
(0.794647 0.00185318 0)
(0.794587 0.00237081 0)
(0.794517 0.00307046 0)
(0.794432 0.00401122 0)
(0.794326 0.00527179 0)
(0.79419 0.00695743 0)
(0.794012 0.00920869 0)
(0.793779 0.0122132 0)
(0.793474 0.0162207 0)
(0.793079 0.0215635 0)
(0.792583 0.0286829 0)
(0.791986 0.0381656 0)
(0.791327 0.0507927 0)
(0.79072 0.0676077 0)
(0.790459 0.0900128 0)
(0.791155 0.119908 0)
(0.794267 0.159897 0)
(0.802158 0.21352 0)
(0.822386 0.285737 0)
(0.859359 0.381648 0)
(0.955067 0.506473 0)
(1.09159 0.676832 0)
(0.696922 0.00026868 0)
(0.696997 0.000721034 0)
(0.697019 0.000988178 0)
(0.696696 0.001099 0)
(0.696333 0.00113553 0)
(0.696082 0.00112944 0)
(0.695907 0.00108822 0)
(0.695763 0.00102562 0)
(0.69564 0.000958317 0)
(0.695547 0.0008957 0)
(0.695487 0.000837291 0)
(0.695451 0.000779744 0)
(0.695429 0.000722991 0)
(0.695412 0.000672039 0)
(0.695401 0.000632997 0)
(0.695399 0.000610213 0)
(0.69541 0.000604498 0)
(0.695434 0.000615077 0)
(0.695469 0.000641 0)
(0.695515 0.000683728 0)
(0.695569 0.000747532 0)
(0.695633 0.000840568 0)
(0.695707 0.000974273 0)
(0.695798 0.00116415 0)
(0.69591 0.00142964 0)
(0.696054 0.00179601 0)
(0.69624 0.0022956 0)
(0.696482 0.0029714 0)
(0.696798 0.00388021 0)
(0.697211 0.00509837 0)
(0.697754 0.00672756 0)
(0.698467 0.00890379 0)
(0.699408 0.0118075 0)
(0.700652 0.0156777 0)
(0.702304 0.020829 0)
(0.70451 0.027673 0)
(0.707478 0.0367447 0)
(0.711512 0.0487326 0)
(0.717069 0.0645116 0)
(0.724869 0.0851736 0)
(0.736041 0.112033 0)
(0.752514 0.146607 0)
(0.77711 0.190273 0)
(0.815339 0.244204 0)
(0.872675 0.305978 0)
(0.960274 0.369667 0)
(1.10055 0.434256 0)
(0.576817 0.000430692 0)
(0.576805 0.00105938 0)
(0.576707 0.00134067 0)
(0.576309 0.00140819 0)
(0.575963 0.00139522 0)
(0.575789 0.00133569 0)
(0.575722 0.00124038 0)
(0.575706 0.00112968 0)
(0.575725 0.00102314 0)
(0.575776 0.000928785 0)
(0.575854 0.000844631 0)
(0.575949 0.000766514 0)
(0.576049 0.000694608 0)
(0.57615 0.000633117 0)
(0.576252 0.000586778 0)
(0.576358 0.00055752 0)
(0.57647 0.000544608 0)
(0.576589 0.000545987 0)
(0.576716 0.000560719 0)
(0.576852 0.00059008 0)
(0.576998 0.000638464 0)
(0.57716 0.000713058 0)
(0.577343 0.000824009 0)
(0.577559 0.000984144 0)
(0.577821 0.0012099 0)
(0.578145 0.00152207 0)
(0.578555 0.00194812 0)
(0.57908 0.00252423 0)
(0.57976 0.00329917 0)
(0.580645 0.00433816 0)
(0.581803 0.00572881 0)
(0.583325 0.00758775 0)
(0.585332 0.0100699 0)
(0.587982 0.0133793 0)
(0.591487 0.0177828 0)
(0.596127 0.023625 0)
(0.602278 0.0313451 0)
(0.610442 0.0414897 0)
(0.621298 0.054717 0)
(0.635776 0.0717805 0)
(0.655149 0.0934567 0)
(0.68119 0.120416 0)
(0.716237 0.152805 0)
(0.763397 0.189991 0)
(0.826924 0.228827 0)
(0.908235 0.262543 0)
(1.01978 0.2877 0)
(0.436621 0.000803775 0)
(0.436445 0.00164777 0)
(0.436297 0.00180608 0)
(0.436036 0.00170756 0)
(0.43596 0.00155792 0)
(0.436094 0.00138401 0)
(0.436329 0.00119925 0)
(0.436594 0.00102704 0)
(0.436867 0.000882151 0)
(0.437138 0.000764953 0)
(0.437402 0.000668318 0)
(0.437652 0.000585584 0)
(0.437885 0.000515472 0)
(0.438102 0.000459695 0)
(0.438305 0.000419833 0)
(0.4385 0.000394839 0)
(0.43869 0.000382335 0)
(0.438878 0.000379749 0)
(0.439068 0.000386499 0)
(0.439262 0.000403917 0)
(0.439467 0.000435898 0)
(0.439691 0.00048785 0)
(0.439944 0.000567112 0)
(0.440241 0.000682429 0)
(0.4406 0.000845119 0)
(0.441044 0.00106951 0)
(0.441605 0.00137497 0)
(0.442323 0.0017873 0)
(0.443253 0.00234176 0)
(0.444466 0.00308558 0)
(0.446057 0.00408264 0)
(0.448154 0.00541801 0)
(0.450924 0.00720503 0)
(0.454588 0.00959298 0)
(0.459438 0.0127771 0)
(0.465853 0.0170087 0)
(0.474328 0.0226047 0)
(0.485503 0.029952 0)
(0.500194 0.0394998 0)
(0.51943 0.0517279 0)
(0.54449 0.0670679 0)
(0.576925 0.08577 0)
(0.618545 0.107628 0)
(0.671232 0.131696 0)
(0.737265 0.155809 0)
(0.816562 0.175075 0)
(0.910125 0.185489 0)
(0.27636 0.00149295 0)
(0.276317 0.00243807 0)
(0.276793 0.00214691 0)
(0.277343 0.00166322 0)
(0.277968 0.00128161 0)
(0.278617 0.00098797 0)
(0.279218 0.000760608 0)
(0.279743 0.000592927 0)
(0.280195 0.000474207 0)
(0.280587 0.000390013 0)
(0.280928 0.00032727 0)
(0.281228 0.000278419 0)
(0.281493 0.000240525 0)
(0.28173 0.000212875 0)
(0.281945 0.000194127 0)
(0.282144 0.000182483 0)
(0.282333 0.000176006 0)
(0.282516 0.000174087 0)
(0.282697 0.000177053 0)
(0.282883 0.000186602 0)
(0.283079 0.000204788 0)
(0.283296 0.000234467 0)
(0.283544 0.000278724 0)
(0.283838 0.000341797 0)
(0.284196 0.000428973 0)
(0.284644 0.000547837 0)
(0.285213 0.000708475 0)
(0.285947 0.000925057 0)
(0.286902 0.00121651 0)
(0.288153 0.00160876 0)
(0.289804 0.00213642 0)
(0.291988 0.00284623 0)
(0.294887 0.00380049 0)
(0.29874 0.00508232 0)
(0.303862 0.00680122 0)
(0.31067 0.00909955 0)
(0.319704 0.012158 0)
(0.331656 0.0161975 0)
(0.347402 0.0214724 0)
(0.368012 0.0282472 0)
(0.394755 0.0367428 0)
(0.42905 0.0470436 0)
(0.472363 0.05894 0)
(0.525919 0.0717033 0)
(0.59054 0.0839083 0)
(0.665324 0.0926303 0)
(0.747726 0.0948419 0)
(0.0985953 0.00107316 0)
(0.100497 0.00114822 0)
(0.102208 0.000680962 0)
(0.103483 0.000386261 0)
(0.10437 0.000245425 0)
(0.105016 0.000161827 0)
(0.1055 0.000107072 0)
(0.105868 7.54705e-05 0)
(0.106153 5.88481e-05 0)
(0.106383 4.7832e-05 0)
(0.106575 3.76338e-05 0)
(0.106737 2.8591e-05 0)
(0.106875 2.30047e-05 0)
(0.106996 2.16425e-05 0)
(0.107104 2.31829e-05 0)
(0.107204 2.52942e-05 0)
(0.107299 2.63591e-05 0)
(0.107392 2.60195e-05 0)
(0.107486 2.51692e-05 0)
(0.107582 2.51615e-05 0)
(0.107686 2.73788e-05 0)
(0.107803 3.27562e-05 0)
(0.10794 4.19259e-05 0)
(0.108105 5.5255e-05 0)
(0.108311 7.33006e-05 0)
(0.108572 9.69615e-05 0)
(0.108909 0.000127897 0)
(0.109346 0.000168606 0)
(0.10992 0.00022282 0)
(0.110678 0.000295649 0)
(0.111684 0.000394161 0)
(0.113025 0.000527829 0)
(0.114817 0.000709561 0)
(0.11722 0.000956705 0)
(0.120445 0.00129271 0)
(0.124781 0.00174868 0)
(0.130611 0.00236524 0)
(0.13844 0.0031933 0)
(0.148925 0.0042928 0)
(0.162892 0.00572652 0)
(0.181334 0.00754488 0)
(0.205361 0.00975677 0)
(0.236068 0.0122796 0)
(0.274254 0.0148543 0)
(0.320067 0.0169948 0)
(0.372205 0.0177775 0)
(0.427594 0.0163057 0)
(0.480674 -0.0114897 0)
(0.523758 -0.00363191 0)
(0.550385 0.00491744 0)
(0.558766 0.0121604 0)
(0.549795 0.0172769 0)
(0.52774 0.0200909 0)
(0.83187 -0.0855335 0)
(0.908113 -0.0641793 0)
(0.968181 -0.0372618 0)
(1.00927 -0.0106798 0)
(1.03319 0.0132593 0)
(1.04012 0.03334 0)
(1.01194 -0.174234 0)
(1.10554 -0.139652 0)
(1.17797 -0.0955798 0)
(1.22835 -0.0520969 0)
(1.26037 -0.0124752 0)
(1.27775 0.0220097 0)
(1.15268 -0.272879 0)
(1.26718 -0.221112 0)
(1.33993 -0.157215 0)
(1.37866 -0.0943277 0)
(1.39643 -0.0371943 0)
(1.40092 0.0113778 0)
(1.27042 -0.400562 0)
(1.36914 -0.308796 0)
(1.38794 -0.20934 0)
(1.37094 -0.119155 0)
(1.34801 -0.0445051 0)
(1.32674 0.0138013 0)
(1.25198 -0.572897 0)
(1.18839 -0.362947 0)
(1.04962 -0.1945 0)
(0.949253 -0.0782289 0)
(0.893809 -0.000510895 0)
(0.870737 0.0489548 0)
(0.789579 -0.523447 0)
(0.432676 -0.147068 0)
(0.190451 0.0130202 0)
(0.164228 0.046656 0)
(0.196754 0.0478078 0)
(0.230509 0.0539175 0)
(0.789562 0.523449 0)
(0.432644 0.147058 0)
(0.190429 -0.0130084 0)
(0.164204 -0.0466324 0)
(0.196717 -0.0477919 0)
(0.230472 -0.0539129 0)
(1.25198 0.572865 0)
(1.18835 0.362953 0)
(1.04956 0.194524 0)
(0.949182 0.0782574 0)
(0.893724 0.000555448 0)
(0.870645 -0.0489153 0)
(1.27044 0.400498 0)
(1.36914 0.308782 0)
(1.38791 0.209374 0)
(1.37089 0.1192 0)
(1.34794 0.0445492 0)
(1.32666 -0.0137688 0)
(1.15273 0.272812 0)
(1.26721 0.221061 0)
(1.33993 0.157187 0)
(1.37861 0.0943142 0)
(1.39637 0.0371728 0)
(1.40085 -0.0113909 0)
(1.01199 0.174176 0)
(1.10559 0.13957 0)
(1.17797 0.0954932 0)
(1.22832 0.0520245 0)
(1.26033 0.012434 0)
(1.27771 -0.0220223 0)
(0.831916 0.0855031 0)
(0.908158 0.0641171 0)
(0.968212 0.0371945 0)
(1.00929 0.0106298 0)
(1.03319 -0.0132783 0)
(1.04011 -0.0333369 0)
(0.480704 0.0114821 0)
(0.523796 0.00361586 0)
(0.550421 -0.00493312 0)
(0.55879 -0.0121728 0)
(0.549801 -0.0172938 0)
(0.527724 -0.0201114 0)
(0.496452 0.0207021 0)
(0.459421 0.0194999 0)
(0.419853 0.017143 0)
(0.380259 0.0143223 0)
(0.342287 0.0115218 0)
(0.306919 0.00898535 0)
(0.274722 0.00681185 0)
(0.24597 0.0050312 0)
(0.220708 0.00362943 0)
(0.198817 0.00255962 0)
(0.180081 0.00175813 0)
(0.164237 0.00116019 0)
(0.151004 0.000709151 0)
(0.140103 0.000360906 0)
(0.131265 8.49775e-05 0)
(0.124239 -0.000137593 0)
(0.118792 -0.000317448 0)
(0.114709 -0.000460764 0)
(0.111794 -0.000571688 0)
(0.109865 -0.000653872 0)
(0.108758 -0.000710896 0)
(0.108327 -0.000746258 0)
(0.108441 -0.000763818 0)
(0.108982 -0.000766404 0)
(0.109851 -0.000756429 0)
(0.11096 -0.000735988 0)
(0.112235 -0.000707358 0)
(0.113615 -0.000672694 0)
(0.115046 -0.000633314 0)
(0.116487 -0.000590442 0)
(0.117902 -0.000545324 0)
(0.119264 -0.000499262 0)
(0.120554 -0.000453447 0)
(0.121757 -0.000408794 0)
(0.122864 -0.000365912 0)
(0.123871 -0.00032524 0)
(0.124775 -0.000287051 0)
(0.125576 -0.00025152 0)
(0.126278 -0.000218685 0)
(0.126883 -0.000188534 0)
(0.127396 -0.000160956 0)
(0.127823 -0.000135946 0)
(0.128168 -0.000112735 0)
(0.128438 -9.16853e-05 0)
(0.128634 -6.98047e-05 0)
(0.128782 -5.2083e-05 0)
(0.12875 3.94222e-05 0)
(1.0314 0.0486581 0)
(1.00918 0.0588785 0)
(0.976109 0.0644611 0)
(0.9348 0.0663231 0)
(0.88757 0.0653809 0)
(0.836524 0.0623851 0)
(0.78361 0.0579606 0)
(0.730574 0.0526449 0)
(0.678894 0.046883 0)
(0.629758 0.0410203 0)
(0.584057 0.0353106 0)
(0.542397 0.0299289 0)
(0.505116 0.0249837 0)
(0.47232 0.0205295 0)
(0.443927 0.016581 0)
(0.419718 0.0131266 0)
(0.399379 0.0101392 0)
(0.382544 0.00758348 0)
(0.368824 0.0054207 0)
(0.35783 0.00361126 0)
(0.349189 0.00211652 0)
(0.34255 0.000899853 0)
(0.337597 -7.25046e-05 0)
(0.334044 -0.000832618 0)
(0.331636 -0.00141025 0)
(0.33015 -0.00183269 0)
(0.329398 -0.00212399 0)
(0.329209 -0.0023042 0)
(0.329441 -0.00239184 0)
(0.329973 -0.00240416 0)
(0.330709 -0.00235674 0)
(0.331568 -0.00226347 0)
(0.332486 -0.00213667 0)
(0.333414 -0.00198655 0)
(0.334313 -0.0018213 0)
(0.335152 -0.00164751 0)
(0.335911 -0.00147042 0)
(0.336575 -0.00129416 0)
(0.337135 -0.00112186 0)
(0.337586 -0.000955792 0)
(0.337926 -0.000797543 0)
(0.338156 -0.000648485 0)
(0.338278 -0.000508154 0)
(0.338303 -0.000379684 0)
(0.338214 -0.00024953 0)
(0.338111 -0.00015635 0)
(0.337659 0.000148235 0)
(1.28266 0.0502689 0)
(1.27698 0.0720074 0)
(1.26239 0.0878704 0)
(1.24001 0.0988099 0)
(1.21057 0.105572 0)
(1.17488 0.108688 0)
(1.134 0.108635 0)
(1.08918 0.105901 0)
(1.04176 0.100981 0)
(0.993073 0.0943701 0)
(0.944408 0.0865541 0)
(0.89692 0.0779961 0)
(0.851582 0.0691142 0)
(0.809147 0.0602636 0)
(0.770142 0.0517266 0)
(0.734874 0.0437116 0)
(0.703457 0.0363575 0)
(0.675846 0.0297431 0)
(0.651874 0.0238978 0)
(0.631286 0.0188141 0)
(0.61378 0.0144576 0)
(0.599024 0.0107771 0)
(0.586686 0.00771139 0)
(0.576441 0.00519548 0)
(0.567987 0.00316393 0)
(0.561047 0.00155341 0)
(0.555369 0.000305584 0)
(0.550735 -0.00063269 0)
(0.546958 -0.00131011 0)
(0.543874 -0.00177092 0)
(0.541344 -0.00205464 0)
(0.539252 -0.00219582 0)
(0.537499 -0.00222401 0)
(0.536001 -0.0021645 0)
(0.534692 -0.0020388 0)
(0.533516 -0.00186498 0)
(0.532432 -0.00165796 0)
(0.531404 -0.00142983 0)
(0.530407 -0.00119024 0)
(0.52942 -0.000946801 0)
(0.52843 -0.000705202 0)
(0.527424 -0.000469903 0)
(0.526393 -0.00024311 0)
(0.525345 -3.11014e-05 0)
(0.524228 0.000180688 0)
(0.523264 0.000320585 0)
(0.521618 0.000766406 0)
(1.39696 0.0500174 0)
(1.38792 0.079304 0)
(1.37586 0.101347 0)
(1.36117 0.117992 0)
(1.34337 0.130203 0)
(1.32203 0.138455 0)
(1.29707 0.143081 0)
(1.26864 0.144371 0)
(1.23708 0.142612 0)
(1.20295 0.138142 0)
(1.16695 0.131372 0)
(1.12988 0.12278 0)
(1.09254 0.112876 0)
(1.0557 0.10216 0)
(1.02004 0.0910995 0)
(0.986112 0.0800964 0)
(0.954322 0.0694783 0)
(0.924942 0.0594915 0)
(0.89811 0.0503044 0)
(0.87385 0.0420157 0)
(0.852097 0.0346664 0)
(0.832721 0.028252 0)
(0.815549 0.0227352 0)
(0.800381 0.0180561 0)
(0.78701 0.0141414 0)
(0.77523 0.0109114 0)
(0.764843 0.00828483 0)
(0.755666 0.00618246 0)
(0.747532 0.00452954 0)
(0.740294 0.00325734 0)
(0.733821 0.00230364 0)
(0.727999 0.00161321 0)
(0.722729 0.00113795 0)
(0.717929 0.00083616 0)
(0.713528 0.000671958 0)