/*--------------------------------*- C++ -*----------------------------------*\
| =========                 |                                                 |
| \\      /  F ield         | OpenFOAM: The Open Source CFD Toolbox           |
|  \\    /   O peration     | Version:  2406                                  |
|   \\  /    A nd           | Website:  www.openfoam.com                      |
|    \\/     M anipulation  |                                                 |
\*---------------------------------------------------------------------------*/
FoamFile
{
    version     2.0;
    format      ascii;
    arch        "LSB;label=32;scalar=64";
    class       surfaceScalarField;
    location    "79";
    object      phi;
}
// * * * * * * * * * * * * * * * * * * * * * * * * * * * * * * * * * * * * * //

dimensions      [0 3 -1 0 0 0 0];

oriented        oriented;

internalField   nonuniform List<scalar> 
3880
(
0.00994895
-0.000198953
0.0102121
-0.000263111
0.0104619
-0.000249816
0.010686
-0.000224101
0.0108828
-0.000196798
0.0110526
-0.00016984
0.0111979
-0.000145317
0.0113222
-0.000124302
0.0114289
-0.000106712
-9.20721e-05
0.011521
0.0276464
-9.53267e-05
0.0275786
-0.000195384
0.0275531
-0.000224264
0.0275572
-0.0002282
0.0275839
-0.000223563
0.0276265
-0.000212442
0.0276786
-0.000197358
0.0277356
-0.000181315
0.0277948
-0.000165882
-0.000151539
0.0278542
0.0437068
-5.21462e-05
0.0436442
-0.000132779
0.0435914
-0.000171465
0.0435497
-0.000186454
0.0435177
-0.000191596
0.0434955
-0.000190241
0.043482
-0.000183874
0.0434754
-0.000174751
0.0434742
-0.000164642
-0.000154411
0.0434771
0.0577311
-3.32761e-05
0.0576899
-9.16002e-05
0.0576469
-0.00012846
0.0576081
-0.000147624
0.0575736
-0.000157062
0.0575437
-0.000160386
0.0575187
-0.000158902
0.0574981
-0.000154103
0.057481
-0.000147507
-0.000140124
0.0574667
0.0697395
-2.27401e-05
0.0697125
-6.46742e-05
0.0696797
-9.56475e-05
0.0696469
-0.000114765
0.0696154
-0.000125566
0.0695859
-0.000130875
0.0695589
-0.000131975
0.0695347
-0.000129908
0.069513
-0.000125818
-0.000120631
0.0694935
0.0797432
-1.58924e-05
0.0797244
-4.59324e-05
0.0796988
-7.00434e-05
0.0796706
-8.65946e-05
0.0796419
-9.68363e-05
0.0796136
-0.000102545
0.0795864
-0.000104799
0.0795609
-0.000104368
0.0795371
-0.000102055
-9.85916e-05
0.079515
0.087745
-1.08856e-05
0.0877308
-3.17046e-05
0.0877099
-4.9191e-05
0.0876853
-6.20274e-05
0.087659
-7.04999e-05
0.087632
-7.55697e-05
0.0876052
-7.80026e-05
0.0875792
-7.83538e-05
0.0875543
-7.71736e-05
-7.49897e-05
0.0875307
0.093746
-6.84434e-06
0.0937343
-2.00122e-05
0.0937164
-3.13545e-05
0.0936944
-4.00227e-05
0.0936699
-4.59919e-05
0.0936441
-4.97206e-05
0.0936177
-5.1671e-05
0.0935916
-5.22079e-05
0.0935661
-5.16806e-05
-5.04264e-05
0.0935415
0.0977465
-3.31133e-06
0.0977361
-9.70031e-06
0.0977201
-1.52745e-05
0.0976997
-1.96268e-05
0.0976764
-2.2695e-05
0.0976513
-2.46572e-05
0.0976254
-2.57273e-05
0.0975992
-2.60851e-05
0.0975735
-2.58992e-05
-2.53333e-05
0.0975484
0.0997467
-1.40459e-10
0.099737
-3.10022e-11
0.0997217
-3.23965e-10
0.0997021
-7.44501e-10
0.0996794
-2.72858e-10
0.0996547
-6.20639e-11
0.099629
-7.71607e-10
0.0996029
-1.40668e-09
0.099577
-1.66232e-09
-1.61426e-09
0.0995517
0.0997467
3.31119e-06
0.099737
9.69946e-06
0.0997217
1.52742e-05
0.0997021
1.96261e-05
0.0996794
2.26935e-05
0.0996547
2.46558e-05
0.099629
2.57265e-05
0.0996029
2.60837e-05
0.099577
2.5896e-05
2.53302e-05
0.0995517
0.0977465
6.84413e-06
0.0977361
2.00121e-05
0.0977201
3.13536e-05
0.0976997
4.00215e-05
0.0976764
4.59907e-05
0.0976513
4.97194e-05
0.0976254
5.167e-05
0.0975992
5.22064e-05
0.0975735
5.16772e-05
5.04231e-05
0.0975484
0.093746
1.08855e-05
0.0937343
3.1704e-05
0.0937164
4.91905e-05
0.0936944
6.2026e-05
0.0936699
7.04989e-05
0.0936441
7.55691e-05
0.0936177
7.80013e-05
0.0935916
7.83505e-05
0.0935661
7.71687e-05
7.49861e-05
0.0935415
0.087745
1.58921e-05
0.0877308
4.59315e-05
0.0877099
7.00425e-05
0.0876853
8.65943e-05
0.087659
9.68347e-05
0.087632
0.000102544
0.0876052
0.0001048
0.0875792
0.000104365
0.0875543
0.000102048
9.85859e-05
0.0875307
0.0797432
2.27399e-05
0.0797244
6.46744e-05
0.0796988
9.56462e-05
0.0796706
0.000114761
0.0796419
0.000125565
0.0796136
0.000130876
0.0795864
0.000131975
0.0795609
0.000129905
0.0795371
0.000125814
0.000120627
0.079515
0.0697395
3.32761e-05
0.0697125
9.15992e-05
0.0696797
0.000128458
0.0696469
0.000147623
0.0696154
0.000157059
0.0695859
0.000160383
0.0695589
0.000158902
0.0695347
0.000154104
0.069513
0.000147506
0.000140121
0.0694935
0.0577311
5.21459e-05
0.0576899
0.000132779
0.0576469
0.000171464
0.0576081
0.000186454
0.0575736
0.000191595
0.0575437
0.000190238
0.0575188
0.000183869
0.0574981
0.000174751
0.057481
0.000164647
0.000154413
0.0574667
0.0437068
9.53263e-05
0.0436442
0.000195383
0.0435914
0.000224265
0.0435497
0.000228199
0.0435177
0.000223563
0.0434955
0.000212439
0.043482
0.000197351
0.0434754
0.000181313
0.0434742
0.000165891
0.000151544
0.0434771
0.0276464
0.000198953
0.0275786
0.000263109
0.0275531
0.000249815
0.0275572
0.000224104
0.0275839
0.000196797
0.0276265
0.000169834
0.0276786
0.000145313
0.0277356
0.000124306
0.0277948
0.000106718
9.20714e-05
0.0278542
0.00994895
0.0102121
0.0104619
0.010686
0.0108828
0.0110526
0.0111979
0.0113222
0.0114289
0.011521
0.0116009
-7.99234e-05
0.0116708
-6.98607e-05
0.0117323
-6.15062e-05
0.0117868
-5.45348e-05
0.0118355
-4.86941e-05
0.0118793
-4.37772e-05
0.0119189
-3.96088e-05
0.011955
-3.60498e-05
0.011988
-3.29917e-05
0.0120183
-3.03501e-05
0.0120464
-2.80586e-05
0.0120724
-2.60615e-05
0.0120967
-2.43097e-05
0.0121195
-2.27595e-05
0.0121409
-2.1375e-05
0.012161
-2.01277e-05
0.01218
-1.89974e-05
0.012198
-1.79701e-05
0.012215
-1.70351e-05
0.0122312
-1.61841e-05
0.0122466
-1.54086e-05
0.0122613
-1.47002e-05
0.0122754
-1.40501e-05
0.0122888
-1.34499e-05
0.0123017
-1.28923e-05
0.0123141
-1.23711e-05
0.0123259
-1.18819e-05
0.0123374
-1.14217e-05
0.0123484
-1.09885e-05
0.0123589
-1.05811e-05
0.0123691
-1.01984e-05
0.012379
-9.83943e-06
0.0123885
-9.50268e-06
0.0123977
-9.1866e-06
-8.88932e-06
0.0124066
0.0279128
-0.000138441
0.0279696
-0.000126663
0.0280242
-0.000116152
0.0280765
-0.000106784
0.0281262
-9.84557e-05
0.0281735
-9.10715e-05
0.0282184
-8.45073e-05
0.028261
-7.8647e-05
0.0283014
-7.33983e-05
0.0283398
-6.86884e-05
0.0283762
-6.44612e-05
0.0284108
-6.06661e-05
0.0284437
-5.7251e-05
0.0284751
-5.41631e-05
0.0285051
-5.13519e-05
0.0285337
-4.87754e-05
0.0285611
-4.64018e-05
0.0285874
-4.42089e-05
0.0286125
-4.21824e-05
0.0286367
-4.0311e-05
0.0286598
-3.85846e-05
0.0286821
-3.69913e-05
0.0287036
-3.55178e-05
0.0287243
-3.41496e-05
0.0287443
-3.28724e-05
0.0287636
-3.16737e-05
0.0287822
-3.05435e-05
0.0288003
-2.94745e-05
0.0288178
-2.84622e-05
0.0288347
-2.75036e-05
0.0288511
-2.65971e-05
0.028867
-2.57408e-05
0.0288824
-2.49328e-05
0.0288974
-2.41705e-05
-2.34505e-05
0.028912
0.0434831
-0.000144478
0.0434916
-0.000135109
0.0435018
-0.000126421
0.0435135
-0.000118423
0.0435261
-0.000111121
0.0435396
-0.000104509
0.0435536
-9.85243e-05
0.043568
-9.30842e-05
0.0435828
-8.81213e-05
0.0435977
-8.35892e-05
0.0436127
-7.94583e-05
0.0436277
-7.57018e-05
0.0436427
-7.22849e-05
0.0436577
-6.91643e-05
0.0436727
-6.62933e-05
0.0436875
-6.36306e-05
0.0437023
-6.11451e-05
0.0437169
-5.88167e-05
0.0437313
-5.66345e-05
0.0437456
-5.45923e-05
0.0437597
-5.2685e-05
0.0437736
-5.09055e-05
0.0437874
-4.92439e-05
0.0438009
-4.76875e-05
0.0438142
-4.6223e-05
0.0438274
-4.48372e-05
0.0438404
-4.35194e-05
0.0438532
-4.22614e-05
0.0438658
-4.10579e-05
0.0438782
-3.99061e-05
0.0438904
-3.8805e-05
0.0439024
-3.77538e-05
0.0439142
-3.6752e-05
0.0439258
-3.57982e-05
-3.48902e-05
0.0439373
0.0574547
-0.000132522
0.0574446
-0.000125041
0.0574361
-0.000117881
0.0574288
-0.000111152
0.0574227
-0.000104925
0.0574174
-9.9232e-05
0.0574129
-9.40493e-05
0.0574091
-8.93192e-05
0.057406
-8.49868e-05
0.0574034
-8.10162e-05
0.0574014
-7.73904e-05
0.0573998
-7.40969e-05
0.0573986
-7.11133e-05
0.0573978
-6.84031e-05
0.0573975
-6.59215e-05
0.0573974
-6.36256e-05
0.0573978
-6.14815e-05
0.0573984
-5.94683e-05
0.0573994
-5.75753e-05
0.0574006
-5.5799e-05
0.057402
-5.41374e-05
0.0574037
-5.25869e-05
0.0574056
-5.11405e-05
0.0574077
-4.97876e-05
0.05741
-4.85154e-05
0.0574125
-4.73112e-05
0.0574151
-4.61634e-05
0.0574179
-4.50634e-05
0.0574209
-4.40055e-05
0.0574239
-4.29866e-05
0.0574271
-4.2006e-05
0.0574305
-4.10639e-05
0.0574339
-4.01608e-05
0.0574374
-3.92967e-05
-3.84706e-05
0.057441
0.0694759
-0.000114925
0.06946
-0.000109054
0.0694453
-0.000103255
0.0694319
-9.76872e-05
0.0694194
-9.24535e-05
0.0694078
-8.76152e-05
0.0693969
-8.31774e-05
0.0693867
-7.91052e-05
0.0693771
-7.53589e-05
0.069368
-7.19122e-05
0.0693593
-6.87569e-05
0.0693511
-6.58905e-05
0.0693433
-6.3301e-05
0.0693359
-6.09611e-05
0.0693288
-5.88317e-05
0.069322
-5.68717e-05
0.0693156
-5.50473e-05
0.0693095
-5.33363e-05
0.0693036
-5.17283e-05
0.069298
-5.02207e-05
0.0692927
-4.88139e-05
0.0692876
-4.7507e-05
0.0692828
-4.62952e-05
0.0692782
-4.51696e-05
0.0692738
-4.41185e-05
0.0692696
-4.3129e-05
0.0692656
-4.21895e-05
0.0692619
-4.12907e-05
0.0692583
-4.04263e-05
0.0692549
-3.95933e-05
0.0692517
-3.87907e-05
0.0692486
-3.8019e-05
0.0692457
-3.72792e-05
0.069243
-3.65718e-05
-3.58966e-05
0.0692404
0.0794946
-9.4489e-05
0.0794756
-9.00743e-05
0.079458
-8.55754e-05
0.0794414
-8.11605e-05
0.0794259
-7.6949e-05
0.0794113
-7.30141e-05
0.0793975
-6.93765e-05
0.0793844
-6.60192e-05
0.079372
-6.2915e-05
0.0793601
-6.00455e-05
0.0793488
-5.74078e-05
0.0793379
-5.50054e-05
0.0793274
-5.2835e-05
0.0793174
-5.08781e-05
0.0793076
-4.91036e-05
0.0792982
-4.74758e-05
0.0792892
-4.59633e-05
0.0792804
-4.45452e-05
0.0792718
-4.32113e-05
0.0792636
-4.19601e-05
0.0792555
-4.07935e-05
0.0792477
-3.97127e-05
0.0792402
-3.87151e-05
0.0792328
-3.77937e-05
0.0792256
-3.69383e-05
0.0792186
-3.6137e-05
0.0792118
-3.53789e-05
0.0792052
-3.4655e-05
0.0791987
-3.39593e-05
0.0791924
-3.32889e-05
0.0791863
-3.26429e-05
0.0791803
-3.20223e-05
0.0791744
-3.14281e-05
0.0791687
-3.08614e-05
-3.03222e-05
0.0791631
0.0875084
-7.22006e-05
0.0874874
-6.90705e-05
0.0874677
-6.57937e-05
0.087449
-6.25213e-05
0.0874314
-5.93615e-05
0.0874148
-5.63828e-05
0.087399
-5.3611e-05
0.0873841
-5.10397e-05
0.0873698
-4.86518e-05
0.0873562
-4.64356e-05
0.0873432
-4.43913e-05
0.0873307
-4.25248e-05
0.0873187
-4.08363e-05
0.0873071
-3.93147e-05
0.087296
-3.79371e-05
0.0872852
-3.66756e-05
0.0872747
-3.55049e-05
0.0872646
-3.4407e-05
0.0872547
-3.33734e-05
0.0872452
-3.24029e-05
0.0872359
-3.14977e-05
0.0872268
-3.06596e-05
0.087218
-2.98876e-05
0.0872094
-2.91767e-05
0.087201
-2.85187e-05
0.0871927
-2.79042e-05
0.0871847
-2.73239e-05
0.0871768
-2.67701e-05
0.0871691
-2.62378e-05
0.0871615
-2.57246e-05
0.0871541
-2.52301e-05
0.0871468
-2.47551e-05
0.0871397
-2.43009e-05
0.0871327
-2.38684e-05
-2.34578e-05
0.0871258
0.093518
-4.87124e-05
0.0934957
-4.67221e-05
0.0934745
-4.4593e-05
0.0934544
-4.24366e-05
0.0934354
-4.03345e-05
0.0934173
-3.83389e-05
0.0934002
-3.64728e-05
0.0933839
-3.47359e-05
0.0933684
-3.31187e-05
0.0933535
-3.16142e-05
0.0933394
-3.02226e-05
0.0933258
-2.89484e-05
0.0933128
-2.77931e-05
0.0933002
-2.67507e-05
0.0932881
-2.58073e-05
0.0932764
-2.49447e-05
0.093265
-2.41454e-05
0.093254
-2.33968e-05
0.0932433
-2.26924e-05
0.0932329
-2.20309e-05
0.0932228
-2.14135e-05
0.093213
-2.08417e-05
0.0932034
-2.0315e-05
0.0931941
-1.98303e-05
0.093185
-1.93822e-05
0.093176
-1.8964e-05
0.0931673
-1.85693e-05
0.0931587
-1.81928e-05
0.0931503
-1.78311e-05
0.093142
-1.74824e-05
0.0931339
-1.71464e-05
0.093126
-1.68239e-05
0.0931182
-1.65158e-05
0.0931106
-1.62228e-05
-1.59451e-05
0.0931031
0.0975242
-2.45216e-05
0.097501
-2.3557e-05
0.0974789
-2.25099e-05
0.0974579
-2.14399e-05
0.097438
-2.03907e-05
0.0974191
-1.93899e-05
0.097401
-1.84511e-05
0.0973839
-1.75764e-05
0.0973675
-1.67619e-05
0.0973519
-1.60039e-05
0.097337
-1.53016e-05
0.0973227
-1.46566e-05
0.097309
-1.40694e-05
0.0972958
-1.35378e-05
0.097283
-1.30559e-05
0.0972707
-1.26158e-05
0.0972588
-1.22094e-05
0.0972472
-1.18306e-05
0.0972359
-1.14756e-05
0.097225
-1.11428e-05
0.0972145
-1.08324e-05
0.0972042
-1.05442e-05
0.0971941
-1.0278e-05
0.0971843
-1.00322e-05
0.0971748
-9.80436e-06
0.0971654
-9.59142e-06
0.0971562
-9.39045e-06
0.0971472
-9.19901e-06
0.0971384
-9.01541e-06
0.0971298
-8.83884e-06
0.0971213
-8.66912e-06
0.097113
-8.50653e-06
0.0971048
-8.35144e-06
0.0970968
-8.20413e-06
-8.0646e-06
0.0970889
0.0995272
-7.16879e-10
0.0995036
1.58161e-10
0.0994811
-8.22114e-10
0.0994597
-3.20192e-09
0.0994393
-4.50047e-09
0.0994199
-3.16256e-09
0.0994015
-5.55983e-11
0.0993839
2.25784e-09
0.0993671
1.61312e-09
0.0993511
-2.00417e-09
0.0993358
-6.54419e-09
0.0993211
-9.47241e-09
0.0993071
-9.2762e-09
0.0992936
-6.16763e-09
0.0992805
-1.70276e-09
0.0992679
2.13913e-09
0.0992557
3.84432e-09
0.0992439
2.93059e-09
0.0992324
-7.98666e-11
0.0992212
-4.04007e-09
0.0992104
-7.66503e-09
0.0991999
-1.00493e-08
0.0991896
-1.0783e-08
0.0991796
-1.00365e-08
0.0991698
-8.33003e-09
0.0991602
-6.31184e-09
0.0991508
-4.576e-09
0.0991416
-3.47071e-09
0.0991326
-3.15209e-09
0.0991238
-3.53734e-09
0.0991151
-4.44888e-09
0.0991066
-5.65305e-09
0.0990983
-6.93039e-09
0.0990901
-8.13656e-09
-9.16031e-09
0.099082
0.0995272
2.45206e-05
0.0995036
2.35568e-05
0.0994811
2.25069e-05
0.0994597
2.14323e-05
0.0994393
2.03808e-05
0.0994199
1.93834e-05
0.0994015
1.84516e-05
0.0993839
1.75819e-05
0.0993671
1.67665e-05
0.0993511
1.6002e-05
0.0993358
1.52912e-05
0.0993211
1.464e-05
0.0993071
1.40519e-05
0.0992936
1.35245e-05
0.0992805
1.30495e-05
0.0992679
1.26157e-05
0.0992557
1.22127e-05
0.0992439
1.18332e-05
0.0992324
1.14741e-05
0.0992212
1.11357e-05
0.0992104
1.08199e-05
0.0991999
1.05283e-05
0.0991896
1.02609e-05
0.0991796
1.0016e-05
0.0991698
9.79034e-06
0.0991602
9.57988e-06
0.0991508
9.3809e-06
0.0991416
9.19045e-06
0.0991326
9.00677e-06
0.0991238
8.8292e-06
0.0991151
8.65789e-06
0.0991066
8.49349e-06
0.0990983
8.33663e-06
0.0990901
8.18777e-06
8.04695e-06
0.099082
0.0975242
4.87124e-05
0.097501
4.67238e-05
0.0974789
4.45907e-05
0.0974579
4.24276e-05
0.097438
4.03225e-05
0.0974191
3.83305e-05
0.097401
3.6472e-05
0.0973839
3.47412e-05
0.0973675
3.31248e-05
0.0973519
3.16155e-05
0.097337
3.02168e-05
0.0973227
2.89369e-05
0.097309
2.77797e-05
0.0972957
2.67388e-05
0.097283
2.57988e-05
0.0972707
2.49393e-05
0.0972587
2.41416e-05
0.0972472
2.33928e-05
0.097236
2.26868e-05
0.0972251
2.20232e-05
0.0972145
2.14043e-05
0.0972042
2.08318e-05
0.0971941
2.03052e-05
0.0971843
1.98209e-05
0.0971748
1.93732e-05
0.0971654
1.8955e-05
0.0971562
1.85596e-05
0.0971472
1.8182e-05
0.0971384
1.78188e-05
0.0971298
1.74686e-05
0.0971213
1.71314e-05
0.097113
1.68081e-05
0.0971048
1.64997e-05
0.0970968
1.62066e-05
1.5929e-05
0.0970889
0.093518
7.22014e-05
0.0934957
6.90743e-05
0.0934745
6.57946e-05
0.0934544
6.25151e-05
0.0934354
5.93513e-05
0.0934173
5.63747e-05
0.0934002
5.36076e-05
0.0933839
5.10394e-05
0.0933684
4.86517e-05
0.0933535
4.64339e-05
0.0933394
4.43878e-05
0.0933258
4.25202e-05
0.0933128
4.08317e-05
0.0933002
3.931e-05
0.0932881
3.79318e-05
0.0932763
3.66691e-05
0.093265
3.54966e-05
0.093254
3.43973e-05
0.0932433
3.33631e-05
0.0932329
3.23931e-05
0.0932228
3.14891e-05
0.093213
3.06527e-05
0.0932034
2.9882e-05
0.0931941
2.91717e-05
0.0931849
2.85133e-05
0.093176
2.78974e-05
0.0931673
2.7315e-05
0.0931587
2.67589e-05
0.0931503
2.62244e-05
0.093142
2.57096e-05
0.0931339
2.52142e-05
0.093126
2.4739e-05
0.0931182
2.42851e-05
0.0931106
2.38534e-05
2.34437e-05
0.093103
0.0875084
9.44908e-05
0.0874874
9.00787e-05
0.0874677
8.55759e-05
0.087449
8.11572e-05
0.0874314
7.6945e-05
0.0874148
7.30104e-05
0.087399
6.93724e-05
0.087384
6.60138e-05
0.0873698
6.29086e-05
0.0873562
6.00396e-05
0.0873432
5.74042e-05
0.0873307
5.50049e-05
0.0873187
5.28364e-05
0.0873071
5.0879e-05
0.087296
4.91016e-05
0.0872852
4.74698e-05
0.0872747
4.59536e-05
0.0872646
4.45333e-05
0.0872547
4.31993e-05
0.0872451
4.19498e-05
0.0872359
4.07857e-05
0.0872268
3.97073e-05
0.087218
3.87113e-05
0.0872094
3.77902e-05
0.087201
3.6934e-05
0.0871927
3.61311e-05
0.0871847
3.53709e-05
0.0871768
3.46449e-05
0.0871691
3.39474e-05
0.0871615
3.32756e-05
0.0871541
3.2629e-05
0.0871468
3.20082e-05
0.0871397
3.14143e-05
0.0871327
3.08482e-05
3.03097e-05
0.0871258
0.0794946
0.000114922
0.0794756
0.000109053
0.079458
0.000103255
0.0794414
9.76872e-05
0.0794259
9.24546e-05
0.0794113
8.76159e-05
0.0793975
8.31739e-05
0.0793844
7.9097e-05
0.079372
7.53493e-05
0.0793601
7.19057e-05
0.0793488
6.87558e-05
0.0793379
6.58938e-05
0.0793274
6.33053e-05
0.0793174
6.09629e-05
0.0793076
5.88287e-05
0.0792982
5.68641e-05
0.0792891
5.50369e-05
0.0792803
5.33255e-05
0.0792718
5.17191e-05
0.0792635
5.0214e-05
0.0792555
4.88096e-05
0.0792477
4.7504e-05
0.0792402
4.62923e-05
0.0792328
4.51658e-05
0.0792256
4.41132e-05
0.0792186
4.31221e-05
0.0792118
4.21813e-05
0.0792052
4.12816e-05
0.0791987
4.04167e-05
0.0791924
3.95835e-05
0.0791862
3.87808e-05
0.0791802
3.8009e-05
0.0791744
3.7269e-05
0.0791687
3.65614e-05
3.5886e-05
0.0791631
0.0694759
0.000132518
0.06946
0.000125035
0.0694454
0.000117878
0.0694319
0.000111157
0.0694194
0.000104933
0.0694078
9.92361e-05
0.0693969
9.4044e-05
0.0693867
8.93072e-05
0.0693771
8.49754e-05
0.069368
8.10114e-05
0.0693593
7.73934e-05
0.0693511
7.41041e-05
0.0693433
7.11192e-05
0.0693359
6.84036e-05
0.0693288
6.59156e-05
0.069322
6.36155e-05
0.0693156
6.14707e-05
0.0693095
5.94599e-05
0.0693036
5.75708e-05
0.069298
5.57979e-05
0.0692927
5.41381e-05
0.0692876
5.25872e-05
0.0692828
5.11386e-05
0.0692782
4.97828e-05
0.0692738
4.8508e-05
0.0692696
4.73021e-05
0.0692656
4.61539e-05
0.0692618
4.50546e-05
0.0692582
4.3998e-05
0.0692548
4.29806e-05
0.0692516
4.2001e-05
0.0692486
4.10592e-05
0.0692457
4.01557e-05
0.069243
3.92905e-05
3.84629e-05
0.0692404
0.0574547
0.000144471
0.0574447
0.000135098
0.0574361
0.000126418
0.0574288
0.000118431
0.0574226
0.000111133
0.0574174
0.000104513
0.0574129
9.8517e-05
0.0574091
9.30715e-05
0.057406
8.8112e-05
0.0574034
8.35884e-05
0.0574014
7.94648e-05
0.0573997
7.57103e-05
0.0573986
7.22898e-05
0.0573978
6.91623e-05
0.0573974
6.62853e-05
0.0573974
6.362e-05
0.0573978
6.1136e-05
0.0573984
5.8812e-05
0.0573994
5.66348e-05
0.0574006
5.45961e-05
0.057402
5.26894e-05
0.0574037
5.09079e-05
0.0574056
4.92423e-05
0.0574077
4.76817e-05
0.05741
4.62139e-05
0.0574125
4.48267e-05
0.0574151
4.35095e-05
0.0574179
4.22536e-05
0.0574208
4.1053e-05
0.0574239
3.9904e-05
0.0574271
3.88046e-05
0.0574304
3.7754e-05
0.0574338
3.67514e-05
0.0574373
3.57958e-05
3.48854e-05
0.0574409
0.0434831
0.000138433
0.0434916
0.000126649
0.0435018
0.00011615
0.0435135
0.000106794
0.0435261
9.84667e-05
0.0435396
9.10728e-05
0.0435536
8.44997e-05
0.043568
7.86371e-05
0.0435828
7.33928e-05
0.0435977
6.86901e-05
0.0436127
6.44681e-05
0.0436277
6.06732e-05
0.0436427
5.72541e-05
0.0436577
5.41603e-05
0.0436727
5.13448e-05
0.0436875
4.87673e-05
0.0437022
4.63961e-05
0.0437169
4.42077e-05
0.0437313
4.21854e-05
0.0437456
4.03165e-05
0.0437597
3.85897e-05
0.0437736
3.69936e-05
0.0437873
3.55159e-05
0.0438009
3.41437e-05
0.0438142
3.28638e-05
0.0438274
3.16646e-05
0.0438403
3.05358e-05
0.0438531
2.94697e-05
0.0438657
2.84607e-05
0.0438781
2.75049e-05
0.0438903
2.65998e-05
0.0439023
2.57436e-05
0.0439142
2.49342e-05
0.0439258
2.41697e-05
2.34471e-05
0.0439372
0.0279128
7.99165e-05
0.0279696
6.98551e-05
0.0280242
6.15081e-05
0.0280764
5.45418e-05
0.0281262
4.86991e-05
0.0281735
4.37765e-05
0.0282184
3.96042e-05
0.028261
3.6045e-05
0.0283014
3.29898e-05
0.0283398
3.03518e-05
0.0283762
2.80626e-05
0.0284108
2.60654e-05
0.0284437
2.43115e-05
0.0284751
2.27588e-05
0.0285051
2.13723e-05
0.0285337
2.01247e-05
0.0285611
1.89954e-05
0.0285874
1.79697e-05
0.0286125
1.70363e-05
0.0286367
1.61859e-05
0.0286598
1.54102e-05
0.0286821
1.47007e-05
0.0287036
1.40491e-05
0.0287243
1.34477e-05
0.0287443
1.28893e-05
0.0287635
1.23682e-05
0.0287822
1.18797e-05
0.0288003
1.14206e-05
0.0288177
1.09885e-05
0.0288347
1.05818e-05
0.0288511
1.01993e-05
0.028867
9.84004e-06
0.0288824
9.50257e-06
0.0288974
9.18562e-06
8.88745e-06
0.0289119
0.0116009
0.0116708
0.0117323
0.0117868
0.0118355
0.0118793
0.0119189
0.011955
0.011988
0.0120183
0.0120464
0.0120724
0.0120967
0.0121195
0.0121409
0.012161
0.01218
0.012198
0.012215
0.0122312
0.0122466
0.0122613
0.0122754
0.0122888
0.0123017
0.0123141
0.0123259
0.0123374
0.0123483
0.0123589
0.0123691
0.012379
0.0123885
0.0123977
0.0124065
0.0124152
-8.60887e-06
0.0124235
-8.34344e-06
0.0124316
-8.09125e-06
0.0124394
-7.85102e-06
0.0124471
-7.62154e-06
0.0124545
-7.40215e-06
0.0124617
-7.19219e-06
0.0124687
-6.99139e-06
0.0124755
-6.79941e-06
-6.61603e-06
0.0124821
0.0289261
-2.27691e-05
0.0289399
-2.21223e-05
0.0289533
-2.15066e-05
0.0289664
-2.09187e-05
0.0289791
-2.03558e-05
0.0289915
-1.98162e-05
0.0290036
-1.92982e-05
0.0290154
-1.8801e-05
0.029027
-1.83239e-05
-1.78664e-05
0.0290382
0.0439485
-3.4025e-05
0.0439596
-3.3199e-05
0.0439705
-3.24083e-05
0.0439812
-3.16495e-05
0.0439918
-3.09194e-05
0.0440022
-3.02154e-05
0.0440124
-2.95358e-05
0.0440225
-2.88792e-05
0.0440324
-2.82449e-05
-2.76324e-05
0.0440422
0.0574446
-3.76806e-05
0.0574483
-3.69241e-05
0.0574521
-3.61978e-05
0.057456
-3.54985e-05
0.0574599
-3.48231e-05
0.0574638
-3.4169e-05
0.0574678
-3.35343e-05
0.0574719
-3.29176e-05
0.0574759
-3.23181e-05
-3.17355e-05
0.05748
0.069238
-3.52524e-05
0.0692357
-3.4637e-05
0.0692336
-3.40475e-05
0.0692316
-3.34811e-05
0.0692297
-3.29346e-05
0.0692279
-3.24055e-05
0.0692263
-3.18917e-05
0.0692247
-3.13917e-05
0.0692233
-3.09045e-05
-3.04298e-05
0.069222
0.0791577
-2.98098e-05
0.0791524
-2.93222e-05
0.0791472
-2.88572e-05
0.0791421
-2.84119e-05
0.0791372
-2.79837e-05
0.0791323
-2.75701e-05
0.0791276
-2.7169e-05
0.079123
-2.67791e-05
0.0791185
-2.63994e-05
-2.60295e-05
0.0791141
0.0871191
-2.30687e-05
0.0871125
-2.26994e-05
0.087106
-2.23481e-05
0.0870996
-2.20125e-05
0.0870933
-2.16903e-05
0.0870871
-2.13794e-05
0.087081
-2.10784e-05
0.087075
-2.0786e-05
0.0870691
-2.05015e-05
-2.02246e-05
0.0870633
0.0930957
-1.56822e-05
0.0930884
-1.5433e-05
0.0930813
-1.51961e-05
0.0930742
-1.49699e-05
0.0930673
-1.47528e-05
0.0930605
-1.45434e-05
0.0930537
-1.43405e-05
0.0930471
-1.41435e-05
0.0930405
-1.39519e-05
-1.37655e-05
0.0930341
0.0970811
-7.93253e-06
0.0970735
-7.80733e-06
0.097066
-7.68821e-06
0.0970586
-7.57434e-06
0.0970514
-7.46491e-06
0.0970442
-7.35925e-06
0.0970371
-7.25683e-06
0.0970301
-7.15735e-06
0.0970232
-7.06062e-06
-6.96661e-06
0.0970164
0.0990741
-9.98144e-09
0.0990663
-1.05869e-08
0.0990586
-1.10189e-08
0.0990511
-1.13117e-08
0.0990436
-1.15119e-08
0.0990363
-1.16654e-08
0.099029
-1.18099e-08
0.0990219
-1.19937e-08
0.0990148
-1.22433e-08
-1.25946e-08
0.0990079
0.0990741
7.91386e-06
0.0990663
7.78784e-06
0.0990586
7.66802e-06
0.0990511
7.55351e-06
0.0990436
7.44345e-06
0.0990363
7.33713e-06
0.099029
7.23402e-06
0.0990219
7.13377e-06
0.0990148
7.03619e-06
6.94123e-06
0.0990079
0.0970811
1.56663e-05
0.0970735
1.5417e-05
0.097066
1.51798e-05
0.0970586
1.49529e-05
0.0970513
1.47347e-05
0.0970441
1.4524e-05
0.0970371
1.43196e-05
0.0970301
1.41211e-05
0.0970232
1.3928e-05
1.37401e-05
0.0970164
0.0930957
2.30552e-05
0.0930884
2.26863e-05
0.0930812
2.23348e-05
0.0930742
2.19984e-05
0.0930673
2.16749e-05
0.0930604
2.13625e-05
0.0930537
2.10596e-05
0.093047
2.07653e-05
0.0930405
2.0479e-05
2.02005e-05
0.093034
0.0871191
2.97977e-05
0.0871124
2.93104e-05
0.0871059
2.88453e-05
0.0870995
2.83994e-05
0.0870932
2.79702e-05
0.087087
2.75553e-05
0.087081
2.71527e-05
0.087075
2.67611e-05
0.0870691
2.63799e-05
2.60086e-05
0.0870632
0.0791576
3.52415e-05
0.0791523
3.46257e-05
0.0791471
3.4036e-05
0.0791421
3.34692e-05
0.0791371
3.29222e-05
0.0791323
3.23926e-05
0.0791276
3.18781e-05
0.0791229
3.13774e-05
0.0791184
3.08894e-05
3.04139e-05
0.079114
0.069238
3.76715e-05
0.0692357
3.69137e-05
0.0692335
3.61866e-05
0.0692315
3.54869e-05
0.0692296
3.48115e-05
0.0692278
3.41577e-05
0.0692262
3.35233e-05
0.0692247
3.2907e-05
0.0692233
3.23077e-05
3.17249e-05
0.0692219
0.0574446
3.40178e-05
0.0574483
3.31899e-05
0.0574521
3.23981e-05
0.0574559
3.1639e-05
0.0574598
3.09094e-05
0.0574638
3.02064e-05
0.0574678
2.9528e-05
0.0574718
2.88725e-05
0.0574759
2.8239e-05
2.76269e-05
0.05748
0.0439485
2.27634e-05
0.0439596
2.2115e-05
0.0439705
2.14987e-05
0.0439812
2.09109e-05
0.0439917
2.03491e-05
0.0440021
1.98108e-05
0.0440124
1.92944e-05
0.0440224
1.87984e-05
0.0440324
1.83222e-05
1.78648e-05
0.0440421
0.0289261
8.6064e-06
0.0289399
8.3406e-06
0.0289533
8.08851e-06
0.0289663
7.84854e-06
0.0289791
7.61963e-06
0.0289915
7.40074e-06
0.0290036
7.19134e-06
0.0290154
6.99082e-06
0.0290269
6.79901e-06
6.6155e-06
0.0290382
0.0124151
0.0124235
0.0124316
0.0124394
0.012447
0.0124544
0.0124616
0.0124686
0.0124754
0.012482
0.0124885
-6.44094e-06
0.0124948
-6.2738e-06
0.0125009
-6.1142e-06
0.0125069
-5.9617e-06
0.0125127
-5.81576e-06
0.0125184
-5.67594e-06
0.0125239
-5.54167e-06
0.0125293
-5.41261e-06
0.0125346
-5.28828e-06
0.0125398
-5.16846e-06
0.0125448
-5.05279e-06
0.0125498
-4.94116e-06
0.0125546
-4.83332e-06
0.0125593
-4.7292e-06
0.0125639
-4.62863e-06
0.0125685
-4.53156e-06
0.0125729
-4.43779e-06
0.0125773
-4.34728e-06
0.0125815
-4.25983e-06
0.0125857
-4.17537e-06
0.0125898
-4.0937e-06
0.0125938
-4.01473e-06
0.0125977
-3.93826e-06
0.0126016
-3.86425e-06
0.0126054
-3.7925e-06
0.0126091
-3.72298e-06
0.0126128
-3.65555e-06
0.0126164
-3.59021e-06
0.0126199
-3.52684e-06
0.0126234
-3.46549e-06
0.0126268
-3.40608e-06
0.0126301
-3.34867e-06
0.0126334
-3.29326e-06
0.0126367
-3.23994e-06
-3.18877e-06
0.0126398
0.0290492
-1.74279e-05
0.0290599
-1.70077e-05
0.0290704
-1.6605e-05
0.0290807
-1.6219e-05
0.0290907
-1.58486e-05
0.0291005
-1.54928e-05
0.0291101
-1.51504e-05
0.0291196
-1.48206e-05
0.0291288
-1.45023e-05
0.0291378
-1.4195e-05
0.0291466
-1.38979e-05
0.0291553
-1.36106e-05
0.0291638
-1.33326e-05
0.0291721
-1.30636e-05
0.0291803
-1.28032e-05
0.0291883
-1.25513e-05
0.0291962
-1.23075e-05
0.0292039
-1.20716e-05
0.0292115
-1.18432e-05
0.029219
-1.16221e-05
0.0292263
-1.14078e-05
0.0292335
-1.12003e-05
0.0292405
-1.09989e-05
0.0292475
-1.08037e-05
0.0292543
-1.06141e-05
0.029261
-1.04301e-05
0.0292676
-1.02513e-05
0.0292741
-1.00778e-05
0.0292805
-9.90922e-06
0.0292867
-9.74564e-06
0.0292929
-9.58697e-06
0.029299
-9.43325e-06
0.029305
-9.28449e-06
0.0293109
-9.14086e-06
-9.00253e-06
0.0293167
0.0440518
-2.70413e-05
0.0440613
-2.64711e-05
0.0440706
-2.59214e-05
0.0440798
-2.53914e-05
0.0440888
-2.48802e-05
0.0440977
-2.4387e-05
0.0441065
-2.39106e-05
0.0441151
-2.34499e-05
0.0441236
-2.3004e-05
0.044132
-2.2572e-05
0.0441402
-2.21529e-05
0.0441483
-2.17463e-05
0.0441564
-2.13513e-05
0.0441643
-2.09677e-05
0.0441721
-2.0595e-05
0.0441797
-2.02329e-05
0.0441873
-1.98811e-05
0.0441948
-1.95392e-05
0.0442021
-1.9207e-05
0.0442094
-1.88841e-05
0.0442166
-1.85702e-05
0.0442236
-1.8265e-05
0.0442306
-1.79681e-05
0.0442375
-1.76794e-05
0.0442443
-1.73983e-05
0.044251
-1.71248e-05
0.0442576
-1.68585e-05
0.0442641
-1.65993e-05
0.0442705
-1.6347e-05
0.0442769
-1.61015e-05
0.0442832
-1.58628e-05
0.0442894
-1.56309e-05
0.0442955
-1.54059e-05
0.0443015
-1.51881e-05
-1.49777e-05
0.0443075
0.0574842
-3.11696e-05
0.0574883
-3.06203e-05
0.0574925
-3.00877e-05
0.0574967
-2.95713e-05
0.0575009
-2.90709e-05
0.0575051
-2.85859e-05
0.0575093
-2.81156e-05
0.0575135
-2.76591e-05
0.0575177
-2.72156e-05
0.0575219
-2.67843e-05
0.0575261
-2.63644e-05
0.0575303
-2.59553e-05
0.0575345
-2.55564e-05
0.0575387
-2.51672e-05
0.0575429
-2.47874e-05
0.0575471
-2.44166e-05
0.0575513
-2.40547e-05
0.0575554
-2.37013e-05
0.0575596
-2.33563e-05
0.0575637
-2.30195e-05
0.0575678
-2.26907e-05
0.0575719
-2.23698e-05
0.057576
-2.20564e-05
0.0575801
-2.17505e-05
0.0575841
-2.14519e-05
0.0575882
-2.11602e-05
0.0575922
-2.08754e-05
0.0575962
-2.05974e-05
0.0576002
-2.0326e-05
0.0576041
-2.00612e-05
0.0576081
-1.98029e-05
0.057612
-1.95514e-05
0.0576159
-1.93067e-05
0.0576198
-1.90693e-05
-1.88394e-05
0.0576236
0.0692208
-2.99674e-05
0.0692197
-2.95175e-05
0.0692187
-2.908e-05
0.0692178
-2.8655e-05
0.069217
-2.82425e-05
0.0692162
-2.78421e-05
0.0692156
-2.74533e-05
0.069215
-2.70757e-05
0.0692145
-2.67085e-05
0.069214
-2.63511e-05
0.0692137
-2.60027e-05
0.0692134
-2.56628e-05
0.0692131
-2.53306e-05
0.069213
-2.50059e-05
0.0692129
-2.46881e-05
0.0692128
-2.43769e-05
0.0692129
-2.40722e-05
0.0692129
-2.37738e-05
0.0692131
-2.34816e-05
0.0692132
-2.31954e-05
0.0692135
-2.29152e-05
0.0692137
-2.26408e-05
0.069214
-2.23723e-05
0.0692144
-2.21096e-05
0.0692148
-2.18524e-05
0.0692152
-2.16008e-05
0.0692157
-2.13546e-05
0.0692162
-2.11138e-05
0.0692168
-2.08783e-05
0.0692174
-2.06482e-05
0.069218
-2.04234e-05
0.0692187
-2.02041e-05
0.0692193
-1.99905e-05
0.0692201
-1.97831e-05
-1.95824e-05
0.0692208
0.0791098
-2.56693e-05
0.0791056
-2.53189e-05
0.0791015
-2.49783e-05
0.0790975
-2.46478e-05
0.0790936
-2.43273e-05
0.0790897
-2.40166e-05
0.079086
-2.37155e-05
0.0790824
-2.34236e-05
0.0790788
-2.31402e-05
0.0790753
-2.28649e-05
0.0790719
-2.25969e-05
0.0790686
-2.23358e-05
0.0790653
-2.20808e-05
0.0790621
-2.18316e-05
0.079059
-2.15878e-05
0.079056
-2.13491e-05
0.0790531
-2.11151e-05
0.0790502
-2.08859e-05
0.0790473
-2.06613e-05
0.0790446
-2.04411e-05
0.0790419
-2.02254e-05
0.0790393
-2.00142e-05
0.0790367
-1.98074e-05
0.0790342
-1.9605e-05
0.0790318
-1.94068e-05
0.0790294
-1.9213e-05
0.079027
-1.90234e-05
0.0790248
-1.8838e-05
0.0790225
-1.86568e-05
0.0790204
-1.84797e-05
0.0790183
-1.83069e-05
0.0790162
-1.81385e-05
0.0790142
-1.79747e-05
0.0790122
-1.78158e-05
-1.76625e-05
0.0790103
0.0870576
-1.99552e-05
0.087052
-1.96934e-05
0.0870464
-1.94392e-05
0.087041
-1.9193e-05
0.0870356
-1.89546e-05
0.0870303
-1.8724e-05
0.0870251
-1.85009e-05
0.0870199
-1.82851e-05
0.0870149
-1.8076e-05
0.0870099
-1.78733e-05
0.087005
-1.76765e-05
0.0870001
-1.74849e-05
0.0869953
-1.72983e-05
0.0869906
-1.71161e-05
0.086986
-1.69381e-05
0.0869814
-1.6764e-05
0.0869769
-1.65936e-05
0.0869724
-1.64267e-05
0.086968
-1.62633e-05
0.0869637