/*--------------------------------*- C++ -*----------------------------------*\
| =========                 |                                                 |
| \\      /  F ield         | OpenFOAM: The Open Source CFD Toolbox           |
|  \\    /   O peration     | Version:  2406                                  |
|   \\  /    A nd           | Website:  www.openfoam.com                      |
|    \\/     M anipulation  |                                                 |
\*---------------------------------------------------------------------------*/
FoamFile
{
    version     2.0;
    format      ascii;
    arch        "LSB;label=32;scalar=64";
    class       surfaceScalarField;
    location    "45";
    object      phi;
}
// * * * * * * * * * * * * * * * * * * * * * * * * * * * * * * * * * * * * * //

dimensions      [0 3 -1 0 0 0 0];

oriented        oriented;

internalField   nonuniform List<scalar> 
3796
(
0.0197685
-0.000268479
0.0200727
-0.000304179
0.0203034
-0.000230585
0.0204734
-0.000169921
0.0206028
-0.000129367
0.0207019
-9.90338e-05
0.0207777
-7.56987e-05
0.0208365
-5.87947e-05
0.0208836
-4.70957e-05
0.0209227
-3.89854e-05
0.0209557
-3.30172e-05
0.0209841
-2.83844e-05
0.021009
-2.47347e-05
0.0210312
-2.21143e-05
0.0210517
-2.04018e-05
0.0210713
-1.95722e-05
0.0210907
-1.93589e-05
0.0211106
-1.97979e-05
0.0211314
-2.08142e-05
0.0211541
-2.2696e-05
0.0211797
-2.55919e-05
0.0212098
-2.9986e-05
0.0212461
-3.61827e-05
0.0212911
-4.49012e-05
0.0213479
-5.67131e-05
0.0214208
-7.27935e-05
0.0215152
-9.42854e-05
0.0216385
-0.000123213
0.0218005
-0.000161831
0.0220142
-0.000213681
0.0222973
-0.000283056
0.0226736
-0.000376208
0.0231748
-0.00050111
0.0238437
-0.000668833
0.0247375
-0.000893722
0.0259325
-0.00119484
0.0275289
-0.00159635
0.0296572
-0.00212811
0.032482
-0.00282471
0.0362045
-0.00372243
0.0410567
-0.00485203
0.0472827
-0.00622577
0.0551012
-0.00781811
0.0646296
-0.00952832
0.0758087
-0.0111786
0.0882118
-0.0124032
-0.0128302
0.101042
0.0553676
-0.000136044
0.0553277
-0.000264173
0.0553653
-0.000268135
0.0554362
-0.000240692
0.0555199
-0.000212944
0.0556061
-0.00018508
0.0556884
-0.000157941
0.0557638
-0.000134081
0.0558314
-0.000114649
0.0558919
-9.93685e-05
0.0559462
-8.72537e-05
0.0559953
-7.73701e-05
0.0560399
-6.92531e-05
0.0560809
-6.29191e-05
0.056119
-5.84106e-05
0.0561553
-5.57364e-05
0.0561908
-5.47395e-05
0.0562265
-5.54174e-05
0.0562636
-5.78611e-05
0.0563034
-6.24675e-05
0.0563477
-6.97872e-05
0.0563985
-8.06868e-05
0.0564587
-9.6207e-05
0.0565318
-0.000117834
0.0566227
-0.00014738
0.0567375
-0.000187425
0.0568847
-0.00024123
0.057075
-0.000313362
0.057323
-0.000409738
0.057648
-0.000538455
0.0580751
-0.000710126
0.0586381
-0.000939009
0.0593809
-0.00124383
0.0603615
-0.00164928
0.0616553
-0.00218737
0.0633597
-0.00289911
0.0655993
-0.00383571
0.0685303
-0.00505891
0.0723449
-0.00663913
0.0772725
-0.00864984
0.0835754
-0.0111546
0.091537
-0.0141871
0.101431
-0.0177118
0.113469
-0.0215654
0.127724
-0.0254349
0.143838
-0.0285168
-0.0301269
0.161135
0.0874356
-7.16005e-05
0.0873482
-0.00017676
0.0872913
-0.000211128
0.0872623
-0.000211595
0.0872537
-0.000204241
0.0872612
-0.000192551
0.0872805
-0.000177079
0.0873068
-0.000160338
0.0873369
-0.000144647
0.0873686
-0.000131101
0.0874011
-0.000119635
0.0874335
-0.000109715
0.0874654
-0.000101123
0.0874967
-9.40823e-05
0.0875275
-8.90198e-05
0.087558
-8.61521e-05
0.0875889
-8.55769e-05
0.0876209
-8.73588e-05
0.0876549
-9.17725e-05
0.0876919
-9.93868e-05
0.0877333
-0.000111114
0.0877809
-0.000128233
0.0878372
-0.000152463
0.0879055
-0.00018601
0.0879901
-0.000231837
0.0880966
-0.000293769
0.0882325
-0.000376997
0.0884076
-0.000488324
0.088635
-0.000636925
0.0889315
-0.000834893
0.0893199
-0.00109835
0.0898294
-0.00144849
0.090499
-0.00191327
0.0913789
-0.00252909
0.0925347
-0.00334308
0.0940511
-0.00441538
0.0960369
-0.00582136
0.098631
-0.00765294
0.10201
-0.0100175
0.106393
-0.0130335
0.112053
-0.0168147
0.119318
-0.0214518
0.128552
-0.0269455
0.140165
-0.0331782
0.15451
-0.0397794
0.171487
-0.0454935
-0.0498293
0.19119
0.115472
-4.34339e-05
0.115412
-0.000116902
0.115356
-0.000155303
0.115312
-0.000167623
0.115278
-0.000170081
0.115253
-0.00016753
0.115237
-0.000160569
0.115227
-0.000150814
0.115223
-0.000140432
0.115223
-0.000130913
0.115226
-0.000122634
0.115232
-0.000115308
0.11524
-0.000108781
0.115249
-0.000103388
0.11526
-9.97231e-05
0.115272
-9.82603e-05
0.115286
-9.92863e-05
0.115302
-0.000103012
0.11532
-0.000109838
0.115341
-0.000120469
0.115366
-0.000136051
0.115396
-0.000158178
0.115432
-0.000189006
0.115478
-0.000231332
0.115535
-0.000288839
0.115608
-0.00036634
0.115701
-0.000470244
0.115822
-0.000609016
0.115979
-0.000793949
0.116184
-0.00103997
0.116453
-0.0013669
0.116805
-0.0018008
0.117268
-0.00237601
0.117876
-0.00313739
0.118677
-0.00414328
0.11973
-0.00546892
0.121119
-0.00721035
0.122955
-0.00948828
0.125388
-0.0124511
0.128631
-0.0162761
0.132975
-0.0211591
0.13883
-0.0273065
0.146722
-0.0348374
0.157369
-0.0438249
0.171463
-0.0538735
0.189635
-0.0636647
-0.0750621
0.214869
0.139485
-2.83017e-05
0.139448
-7.94727e-05
0.139405
-0.00011311
0.139367
-0.00012895
0.139332
-0.000135557
0.139302
-0.000137204
0.139276
-0.000134739
0.139255
-0.000129267
0.139237
-0.000122557
0.139222
-0.000116082
0.13921
-0.000110389
0.1392
-0.000105356
0.139192
-0.000100852
0.139186
-9.72221e-05
0.139181
-9.50686e-05
0.139178
-9.50157e-05
0.139177
-9.74532e-05
0.139176
-0.000102728
0.139178
-0.000111276
0.139181
-0.000123883
0.139187
-0.000141743
0.139196
-0.000166607
0.139207
-0.000200776
0.139223
-0.00024735
0.139245
-0.000310287
0.139274
-0.00039489
0.139312
-0.00050804
0.139362
-0.000658975
0.139428
-0.000859836
0.139515
-0.00112683
0.139629
-0.00148132
0.13978
-0.00195163
0.139979
-0.00257504
0.140242
-0.00340067
0.140592
-0.00449297
0.14106
-0.00593642
0.141691
-0.00784141
0.142554
-0.0103519
0.143758
-0.0136549
0.145475
-0.017993
0.147991
-0.0236751
0.15178
-0.031096
0.157626
-0.0406824
0.16675
-0.0529492
0.180701
-0.0678241
0.201592
-0.084554
-0.109229
0.235759
0.159491
-1.90748e-05
0.159466
-5.48056e-05
0.159434
-8.12984e-05
0.159402
-9.63167e-05
0.15937
-0.000104057
0.159341
-0.000107463
0.159313
-0.000107345
0.159289
-0.000104502
0.159266
-0.000100306
0.159246
-9.60144e-05
0.159228
-9.21842e-05
0.159212
-8.87905e-05
0.159197
-8.5776e-05
0.159183
-8.3421e-05
0.15917
-8.23096e-05
0.159158
-8.30481e-05
0.159147
-8.61057e-05
0.159136
-9.18703e-05
0.159126
-0.000100802
0.159116
-0.000113652
0.159106
-0.000131562
0.159095
-0.000156194
0.159084
-0.000189794
0.159072
-0.000235334
0.159059
-0.0002967
0.159043
-0.000378993
0.159024
-0.000488935
0.159
-0.000635428
0.158971
-0.000830266
0.158933
-0.00108912
0.158885
-0.00143274
0.158822
-0.00188869
0.158741
-0.00249343
0.158635
-0.00329535
0.158501
-0.00435862
0.158333
-0.00576872
0.158132
-0.00763979
0.157905
-0.0101255
0.157685
-0.0134344
0.157546
-0.0178541
0.157659
-0.023789
0.158383
-0.0318197
0.160519
-0.0428189
0.165636
-0.0580644
0.177247
-0.0794354
0.200688
-0.107995
-0.147936
0.239396
0.175494
-1.27525e-05
0.175476
-3.70269e-05
0.175451
-5.62724e-05
0.175423
-6.83989e-05
0.175394
-7.54216e-05
0.175366
-7.91184e-05
0.175339
-8.00432e-05
0.175313
-7.8762e-05
0.175289
-7.62928e-05
0.175267
-7.35925e-05
0.175246
-7.11315e-05
0.175226
-6.89371e-05
0.175207
-6.70012e-05
0.175189
-6.55526e-05
0.175172
-6.5074e-05
0.175155
-6.60875e-05
0.175139
-6.90422e-05
0.175121
-7.42986e-05
0.175103
-8.22929e-05
0.175083
-9.36519e-05
0.17506
-0.000109365
0.175035
-0.000130828
0.175005
-0.000159981
0.174969
-0.000199364
0.174925
-0.000252342
0.174869
-0.000323296
0.174799
-0.00041803
0.174708
-0.000544191
0.174589
-0.000711956
0.174435
-0.000934804
0.174233
-0.00123068
0.173968
-0.00162343
0.173619
-0.0021448
0.173161
-0.00283715
0.17256
-0.00375724
0.171773
-0.00498156
0.170747
-0.00661401
0.169419
-0.00879735
0.167715
-0.0117308
0.165557
-0.0156967
0.162877
-0.0211087
0.159635
-0.0285786
0.155929
-0.0391118
0.152117
-0.0542523
0.150274
-0.0775929
0.15742
-0.11514
-0.18216
0.191644
0.187495
-7.89154e-06
0.187481
-2.30246e-05
0.18746
-3.54962e-05
0.187436
-4.38547e-05
0.18741
-4.9043e-05
0.187383
-5.20289e-05
0.187356
-5.3097e-05
0.18733
-5.26199e-05
0.187305
-5.12838e-05
0.187281
-4.97322e-05
0.187258
-4.82888e-05
0.187236
-4.69999e-05
0.187215
-4.58753e-05
0.187195
-4.50816e-05
0.187174
-4.49509e-05
0.187154
-4.58639e-05
0.187134
-4.81583e-05
0.187111
-5.2123e-05
0.187087
-5.80866e-05
0.18706
-6.65196e-05
0.187029
-7.81332e-05
0.186992
-9.39503e-05
0.186948
-0.000115374
0.186893
-0.000144271
0.186823
-0.000183092
0.186735
-0.000235056
0.186622
-0.000304404
0.186474
-0.000396742
0.186282
-0.000519517
0.18603
-0.000682619
0.185698
-0.000899218
0.185262
-0.00118686
0.184686
-0.00156901
0.183926
-0.00207711
0.182923
-0.00275358
0.181597
-0.00365604
0.179847
-0.0048636
0.177535
-0.00648614
0.174483
-0.0086787
0.170449
-0.0116629
0.165103
-0.015763
0.157974
-0.02145
0.148309
-0.0294465
0.134768
-0.0407112
0.114131
-0.0569562
0.0789531
-0.0799636
-0.103208
0.195496
-3.79578e-06
0.195484
-1.10517e-05
0.195466
-1.71735e-05
0.195443
-2.14095e-05
0.195418
-2.41407e-05
0.195392
-2.57843e-05
0.195366
-2.64406e-05
0.195339
-2.63058e-05
0.195314
-2.57316e-05
0.195289
-2.50338e-05
0.195265
-2.43718e-05
0.195242
-2.37792e-05
0.195219
-2.32717e-05
0.195197
-2.2936e-05
0.195175
-2.29373e-05
0.195153
-2.34716e-05
0.19513
-2.47175e-05
0.195105
-2.6838e-05
0.195077
-3.00124e-05
0.195045
-3.44948e-05
0.195007
-4.06593e-05
0.194962
-4.90435e-05
0.194907
-6.03838e-05
0.194839
-7.56629e-05
0.194752
-9.61729e-05
0.194641
-0.000123614
0.194496
-0.000160223
0.194309
-0.000208964
0.194063
-0.000273767
0.19374
-0.000359863
0.193315
-0.000474216
0.192755
-0.000626129
0.192014
-0.000828051
0.191033
-0.00109674
0.189735
-0.00145485
0.188012
-0.00193333
0.185723
-0.00257485
0.182676
-0.00343895
0.178607
-0.00460983
0.173152
-0.00620777
0.165795
-0.00840698
0.155802
-0.0114565
0.142075
-0.0157202
0.123028
-0.0216644
0.0960225
-0.0299519
0.0567757
-0.0407174
-0.0464323
0.199496
5.51831e-09
0.199485
8.33515e-09
0.199468
1.93664e-08
0.199447
2.14458e-08
0.199422
2.49687e-08
0.199397
4.28544e-08
0.19937
6.17263e-08
0.199344
6.11212e-08
0.199318
4.63641e-08
0.199293
4.0165e-08
0.199269
5.19859e-08
0.199245
6.84113e-08
0.199222
7.32185e-08
0.199199
6.26353e-08
0.199176
4.65258e-08
0.199152
3.61988e-08
0.199128
3.56256e-08
0.199101
4.1647e-08
0.199071
4.74401e-08
0.199036
4.70418e-08
0.198996
3.83837e-08
0.198947
2.08991e-08
0.198886
-1.55712e-09
0.198811
-2.69683e-08
0.198715
-5.13395e-08
0.198591
-7.39689e-08
0.198431
-9.39306e-08
0.198222
-1.11938e-07
0.197949
-1.29553e-07
0.197589
-1.48386e-07
0.197115
-1.70485e-07
0.196489
-1.9709e-07
0.195661
-2.29042e-07
0.194565
-2.66477e-07
0.19311
-3.10176e-07
0.191178
-3.5971e-07
0.188603
-4.18495e-07
0.185165
-4.86573e-07
0.180555
-5.66425e-07
0.174348
-6.53416e-07
0.165941
-7.15394e-07
0.154485
-7.47985e-07
0.138766
-6.66295e-07
0.117101
-9.64507e-07
0.0871499
-7.29444e-07
0.0464321
-1.28918e-06
-5.59454e-07
0.199496
3.8012e-06
0.199485
1.10707e-05
0.199468
1.72154e-05
0.199447
2.14561e-05
0.199422
2.4192e-05
0.199397
2.58667e-05
0.19937
2.65598e-05
0.199344
2.64268e-05
0.199318
2.5827e-05
0.199293
2.51181e-05
0.199269
2.44773e-05
0.199245
2.39132e-05
0.199222
2.34115e-05
0.199199
2.30552e-05
0.199176
2.30289e-05
0.199152
2.35476e-05
0.199128
2.47961e-05
0.199101
2.6928e-05
0.199071
3.0111e-05
0.199036
3.45886e-05
0.198996
4.07316e-05
0.198947
4.90802e-05
0.198886
6.03758e-05
0.198811
7.56076e-05
0.198715
9.60722e-05
0.198591
0.000123471
0.198431
0.000160043
0.198222
0.00020875
0.197949
0.000273518
0.197589
0.000359575
0.197115
0.000473883
0.196489
0.000625741
0.195661
0.0008276
0.194565
0.00109621
0.19311
0.00145424
0.191177
0.00193263
0.188603
0.00257403
0.185164
0.003438
0.180555
0.00460872
0.174348
0.00620652
0.165941
0.00840561
0.154485
0.0114551
0.138765
0.0157186
0.117101
0.0216632
0.0871493
0.0299496
0.0464316
0.0407154
0.0464308
0.195496
7.90244e-06
0.195484
2.30414e-05
0.195466
3.55375e-05
0.195443
4.39003e-05
0.195418
4.90957e-05
0.195392
5.21122e-05
0.195366
5.32134e-05
0.195339
5.2738e-05
0.195314
5.13788e-05
0.195289
4.98175e-05
0.195265
4.83926e-05
0.195242
4.71271e-05
0.195219
4.60071e-05
0.195197
4.51986e-05
0.195176
4.50491e-05
0.195153
4.59532e-05
0.19513
4.82479e-05
0.195105
5.2217e-05
0.195077
5.81792e-05
0.195045
6.66012e-05
0.195007
7.81923e-05
0.194962
9.3979e-05
0.194907
0.000115366
0.194839
0.000144225
0.194752
0.000183008
0.19464
0.000234936
0.194496
0.000304247
0.194309
0.000396551
0.194063
0.000519287
0.19374
0.000682348
0.193315
0.000898898
0.192755
0.00118649
0.192014
0.00156857
0.191033
0.0020766
0.189735
0.00275299
0.188012
0.00365536
0.185723
0.00486282
0.182676
0.00648524
0.178607
0.00867765
0.173151
0.0116617
0.165795
0.0157617
0.155801
0.0214485
0.142075
0.0294452
0.123028
0.0407095
0.0960222
0.0569549
0.0567757
0.0799614
0.103206
0.187495
1.27598e-05
0.187481
3.70452e-05
0.18746
5.63135e-05
0.187436
6.84467e-05
0.18741
7.54772e-05
0.187383
7.91982e-05
0.187356
8.01529e-05
0.18733
7.88816e-05
0.187305
7.6398e-05
0.187281
7.36891e-05
0.187258
7.12325e-05
0.187236
6.90465e-05
0.187215
6.71089e-05
0.187195
6.56577e-05
0.187175
6.51777e-05
0.187154
6.61958e-05
0.187134
6.91492e-05
0.187111
7.44001e-05
0.187087
8.23765e-05
0.18706
9.37161e-05
0.187029
0.000109404
0.186992
0.000130846
0.186948
0.000159974
0.186893
0.000199336
0.186823
0.000252286
0.186735
0.000323214
0.186622
0.000417913
0.186474
0.000544039
0.186282
0.000711758
0.18603
0.000934562
0.185698
0.00123039
0.185262
0.00162308
0.184686
0.00214438
0.183926
0.00283667
0.182922
0.00375669
0.181597
0.00498092
0.179846
0.00661329
0.177535
0.00879653
0.174483
0.0117298
0.170449
0.0156956
0.165103
0.0211075
0.157974
0.0285773
0.148308
0.0391104
0.134767
0.054251
0.11413
0.0775914
0.0789518
0.115139
0.182158
0.175494
1.9084e-05
0.175476
5.48217e-05
0.175451
8.13367e-05
0.175423
9.63655e-05
0.175394
0.000104114
0.175366
0.000107537
0.175339
0.000107444
0.175313
0.000104618
0.175289
0.000100422
0.175267
9.61226e-05
0.175246
9.22838e-05
0.175226
8.88836e-05
0.175207
8.58685e-05
0.17519
8.35263e-05
0.175172
8.24306e-05
0.175156
8.31735e-05
0.175139
8.62205e-05
0.175121
9.19555e-05
0.175103
0.000100859
0.175083
0.000113681
0.17506
0.000131579
0.175035
0.000156204
0.175005
0.000189803
0.174969
0.000235336
0.174925
0.000296691
0.174869
0.000378959
0.174799
0.000488869
0.174707
0.000635315
0.174589
0.000830108
0.174435
0.0010889
0.174233
0.00143248
0.173968
0.00188837
0.173619
0.00249306
0.173161
0.00329491
0.172559
0.00435813
0.171772
0.00576816
0.170746
0.00763917
0.169418
0.0101248
0.167714
0.0134337
0.165557
0.0178532
0.162876
0.023788
0.159635
0.0318185
0.155928
0.0428176
0.152115
0.0580633
0.150273
0.0794339
0.157418
0.107994
0.147935
0.191641
0.159491
2.83079e-05
0.159466
7.9495e-05
0.159434
0.000113151
0.159402
0.000129006
0.15937
0.000135622
0.159341
0.000137265
0.159313
0.000134812
0.159289
0.000129363
0.159266
0.00012267
0.159246
0.000116191
0.159228
0.00011048
0.159212
0.000105432
0.159197
0.000100947
0.159183
9.73485e-05
0.15917
9.5226e-05
0.159158
9.5164e-05
0.159147
9.75653e-05
0.159136
0.000102786
0.159126
0.00011129
0.159116
0.000123874
0.159106
0.000141738
0.159095
0.000166615
0.159084
0.000200811
0.159072
0.00024739
0.159059
0.000310332
0.159043
0.000394905
0.159024
0.000508026
0.159
0.000658905
0.158971
0.000859717
0.158933
0.00112665
0.158885
0.00148109
0.158822
0.00195135
0.15874
0.00257471
0.158635
0.00340029
0.1585
0.00449255
0.158333
0.00593596
0.158131
0.0078409
0.157904
0.0103513
0.157684
0.0136543
0.157545
0.0179923
0.157659
0.0236743
0.158382
0.031095
0.160519
0.0406813
0.165634
0.0529478
0.177245
0.0678232
0.200686
0.0845534
0.109229
0.239393
0.139485
4.34358e-05
0.139447
0.000116923
0.139405
0.000155345
0.139367
0.000167693
0.139332
0.00017016
0.139302
0.000167595
0.139276
0.000160629
0.139255
0.000150896
0.139237
0.000140534
0.139222
0.000131003
0.13921
0.000122694
0.1392
0.000115362
0.139192
0.000108875
0.139186
0.00010354
0.139182
9.98998e-05
0.139178
9.8415e-05
0.139177
9.9377e-05
0.139176
0.000103041
0.139178
0.00010982
0.139181
0.000120446
0.139187
0.000136043
0.139196
0.000158209
0.139207
0.000189067
0.139223
0.000231415
0.139245
0.000288915
0.139274
0.0003664
0.139311
0.000470259
0.139361
0.00060899
0.139427
0.000793864
0.139514
0.00103984
0.139629
0.00136671
0.13978
0.00180059
0.139979
0.00237576
0.140242
0.00313711
0.140592
0.00414296
0.141059
0.00546859
0.14169
0.00720998
0.142553
0.0094879
0.143757
0.0124507
0.145474
0.0162756
0.14799
0.0211586
0.151779
0.0273058
0.157624
0.0348366
0.166748
0.0438242
0.180699
0.0538724
0.201589
0.063664
0.0750622
0.235756
0.115472
7.16054e-05
0.115412
0.000176781
0.115356
0.000211163
0.115312
0.000211662
0.115278
0.000204307
0.115253
0.000192606
0.115237
0.000177132
0.115227
0.000160421
0.115223
0.000144756
0.115223
0.000131182
0.115226
0.000119677
0.115232
0.000109766
0.11524
0.000101226
0.115249
9.42459e-05
0.11526
8.91838e-05
0.115272
8.6271e-05
0.115286
8.56251e-05
0.115302
8.73463e-05
0.11532
9.17441e-05
0.115341
9.93672e-05
0.115366
0.000111138
0.115396
0.000128297
0.115432
0.000152559
0.115478
0.000186123
0.115535
0.000231936
0.115607
0.000293848
0.115701
0.000377032
0.115822
0.000488322
0.115979
0.000636876
0.116184
0.000834808
0.116452
0.00109823
0.116805
0.00144835
0.117267
0.0019131
0.117876
0.0025289
0.118676
0.00334288
0.119729
0.00441518
0.121118
0.00582116
0.122954
0.00765274
0.125387
0.0100174
0.12863
0.0130334
0.132974
0.0168145
0.138829
0.0214515
0.146721
0.0269451
0.157368
0.0331773
0.171462
0.0397788
0.189634
0.0454926
0.0498282
0.214867
0.0874356
0.000136054
0.0873482
0.000264199
0.0872913
0.000268188
0.0872622
0.000240772
0.0872536
0.000213009
0.0872612
0.000185116
0.0872805
0.000157975
0.0873068
0.000134143
0.0873368
0.000114725
0.0873686
9.9417e-05
0.0874011
8.7291e-05
0.0874335
7.74359e-05
0.0874655
6.93861e-05
0.0874968
6.30679e-05
0.0875276
5.85462e-05
0.0875581
5.57952e-05
0.087589
5.47496e-05
0.087621
5.53813e-05
0.0876549
5.78415e-05
0.0876918
6.24686e-05
0.0877331
6.98471e-05
0.0877808
8.07718e-05
0.0878371
9.63374e-05
0.0879054
0.000117951
0.0879901
0.000147511
0.0880966
0.000187506
0.0882325
0.000241305
0.0884075
0.000313377
0.0886348
0.000409743
0.0889313
0.000538408
0.0893195
0.000710076
0.089829
0.00093893
0.0904984
0.00124375
0.0913782
0.00164919
0.0925339
0.00218729
0.0940502
0.00289904
0.0960359
0.00383566
0.09863
0.00505892
0.102008
0.00663919
0.106392
0.00864995
0.112053
0.0111547
0.119317
0.0141871
0.128552
0.0177116
0.140164
0.0215651
0.154509
0.025434
0.171485
0.0285159
0.0301263
0.191188
0.0553676
0.00026848
0.0553277
0.000304185
0.0553653
0.000230636
0.0554362
0.000169989
0.0555199
0.00012939
0.0556061
9.90393e-05
0.0556884
7.57456e-05
0.0557637
5.88552e-05
0.0558313
4.71346e-05
0.0558918
3.89777e-05
0.0559462
3.303e-05
0.0559953
2.84365e-05
0.05604
2.48554e-05
0.0560809
2.2214e-05
0.0561191
2.04875e-05
0.0561554
1.95693e-05
0.0561908
1.93443e-05
0.0562264
1.97392e-05
0.0562635
2.08062e-05
0.0563033
2.26911e-05
0.0563476
2.56599e-05
0.0563984
3.00453e-05
0.0564586
3.62998e-05
0.0565317
4.49753e-05
0.0566226
5.68273e-05
0.0567374
7.28374e-05
0.0568845
9.43642e-05
0.0570748
0.000123216
0.0573228
0.000161872
0.0576476
0.000213653
0.0580747
0.00028307
0.0586376
0.000376171
0.0593803
0.000501119
0.0603608
0.00066881
0.0616545
0.000893739
0.0633589
0.00119485
0.0655983
0.0015964
0.0685293
0.00212821
0.072344
0.00282489
0.0772717
0.00372267
0.0835747
0.00485221
0.0915365
0.00622589
0.101431
0.00781798
0.113468
0.00952812
0.127723
0.0111786
0.143836
0.0124031
0.0128298
0.161132
0.0197685
0.0200727
0.0203033
0.0204734
0.0206028
0.0207018
0.0207776
0.0208365
0.0208836
0.0209226
0.0209556
0.0209841
0.021009
0.0210312
0.0210517
0.0210713
0.0210907
0.0211104
0.0211312
0.0211539
0.0211796
0.0212097
0.021246
0.021291
0.0213479
0.0214208
0.0215152
0.0216384
0.0218003
0.022014
0.0222971
0.0226733
0.0231744
0.0238433
0.024737
0.0259319
0.0275284
0.0296567
0.0324817
0.0362045
0.0410568
0.0472829
0.055101
0.0646291
0.0758077
0.0882107
0.101041
0.112973
-0.011931
0.122396
-0.0094219
0.128353
-0.00595701
0.130737
-0.00238251
0.12979
0.000946753
0.00381713
0.125974
0.178102
-0.0288981
0.192894
-0.0242134
0.204637
-0.0176991
0.2133
-0.011044
0.219099
-0.00485157
0.000703113
0.222214
0.211063
-0.0487709
0.228126
-0.0412756
0.241644
-0.0312158
0.251675
-0.0210746
0.258448
-0.0116243
-0.00342911
0.262581
0.24057
-0.0744712
0.260101
-0.0608064
0.273376
-0.0444901
0.281263
-0.0289616
0.28502
-0.0153807
-0.0046536
0.286245
0.263802
-0.102515
0.27578
-0.0727832
0.277328
-0.0460389
0.273666
-0.0252985
0.268591
-0.0103054
-0.000207662
0.264145
0.239815
-0.102933
0.217347
-0.0503162
0.191464
-0.0201541
0.17153
-0.00536566
0.158989
0.00223669
0.00608575
0.152695
0.0887107
0.038395
0.0182409
0.0128755
0.0151119
0.0211976
0.0887089
0.102932
0.038393
0.0503156
0.0182386
0.0201544
0.0128726
0.00536554
0.015109
-0.00223663
-0.00608756
0.0211962
0.239811
0.102514
0.217343
0.0727837
0.191457
0.0460392
0.171524
0.025299
0.158982
0.0103054
0.000207747
0.152685
0.263799
0.0744712
0.275776
0.0608065
0.277324
0.044491
0.27366
0.0289628
0.268583
0.0153825
0.00465625
0.264134
0.240568
0.0487707
0.260098
0.0412757
0.273372
0.0312172
0.281258
0.0210766
0.285015
0.0116261
0.00343098
0.28624
0.211061
0.0288978
0.228123
0.024214
0.24164
0.0177
0.251673
0.0110451
0.258447
0.00485186
-0.000702898
0.262581
0.1781
0.0119311
0.192893
0.00942217
0.204637
0.00595757
0.2133
0.00238311
0.219099
-0.000946691
-0.00381703
0.222214
0.112972
0.122395
0.128353
0.130737
0.12979
0.125973
0.119957
0.00601806
0.112455
0.00750192
0.104084
0.00837159
0.0953111
0.00877371
0.0864846
0.00882703
0.0778667
0.00861857
0.0696463
0.00822117
0.0619507
0.00769637
0.05486
0.0070915
0.0484195
0.00644139
0.0426472
0.005773
0.0375396
0.00510829
0.0330748
0.00446541
0.0292167
0.00385855
0.0259191
0.0032979
0.02313
0.00278937
0.0207953
0.0023348
0.0188628
0.00193249
0.0172844
0.00157839
0.016017
0.0012672
0.0150232
0.000993623
0.0142701
0.000752923
0.0137285
0.000541347
0.0133725
0.00035586
0.0131782
0.000194123
0.0131239
5.40615e-05
0.0131897
-6.59094e-05
0.0133567
-0.000167188
0.0136077
-0.000251139
0.0139273
-0.000319744
0.0143025
-0.000375314
0.0147215
-0.000419138
0.015173
-0.000451636
0.0156467
-0.000473828
0.0161339
-0.000487318
0.0166274
-0.000493545
0.0171207
-0.000493512
0.0176087
-0.000488116
0.0180869
-0.000478229
0.0185515
-0.000464745
0.0189998
-0.000448433
0.0194298
-0.000430081
0.01984
-0.000410229
0.0202296
-0.000389692
0.0205984
-0.000368855
0.0209421
-0.000343631
-0.00035068
0.222812
0.00542107
0.22115
0.00916422
0.217496
0.0120259
0.212095
0.0141756
0.205194
0.0157289
0.197045
0.016768
0.187896
0.017371
0.177987
0.017607
0.16755
0.0175289
0.156816
0.0171767
0.146005
0.0165849
0.135328
0.0157866
0.124977
0.0148165
0.115125
0.0137114
0.105913
0.0125105
0.0974484
0.0112537
0.0898035
0.00997979
0.0830122
0.00872379
0.0770752
0.00751516
0.0719656
0.00637652
0.0676355
0.00532341
0.0640232
0.00436486
0.0610599
0.00350431
0.0586744
0.00274097
0.0567972
0.00207098
0.0553624
0.00148856
0.0543092
0.000986989
0.0535828
0.000558946
0.0531348
0.000196606
0.0529223
-0.000107453
0.0529054
-0.000358669
0.0530476
-0.00056157
0.0533169
-0.000721198
0.0536866
-0.000843694
0.054134
-0.000935023
0.0546399
-0.000999599
0.0551871
-0.00104095
0.0557611
-0.00106237
0.0563498
-0.00106709
0.056943
-0.00105812
0.0575325
-0.0010381
0.0581118
-0.00100954
0.0586758
-0.000974312
0.0592221
-0.000936037
0.0597449
-0.000891725
0.0602634
-0.000862156
-0.000775993
0.264845
0.00315788
0.265737
0.00827256
0.26544
0.0123236
0.263994
0.0156221
0.261416
0.0183071
0.25772
0.0204653
0.25292
0.0221717
0.247051
0.0234761
0.240179
0.0244016
0.232401
0.0249552
0.223848
0.0251382
0.214682
0.0249539
0.205085
0.0244132
0.195259
0.0235382
0.185405
0.0223645
0.175719
0.0209398
0.166377
0.0193213
0.157529
0.0175712
0.149293
0.0157517
0.141748
0.0139205
0.134944
0.0121278
0.128894
0.010414
0.123589
0.00880912
0.118996
0.00733287
0.115071
0.00599627
0.111756
0.00480293
0.108992
0.00375094
0.106716
0.0028343
0.104868
0.00204444
0.103389
0.00137132
0.102226
0.000804015
0.101333
0.000331273
0.10067
-5.82341e-05
0.1002
-0.000373974
0.0998883
-0.000623788
0.0997046
-0.000816062
0.0996222
-0.00095876
0.0996191
-0.00105944
0.099677
-0.00112516
0.0997807
-0.00116197
0.0999175
-0.00117503
0.100077
-0.00116922
0.100251
-0.00114813
0.100434
-0.00111885
0.100617
-0.00107496
0.100817
-0.00106266
-0.000922402
0.286294
0.00310945
0.285857
0.0087102
0.28509
0.0130905
0.284011
0.0167017
0.282598
0.0197207
0.280785
0.0222786
0.278487
0.0244703
0.275624
0.02634
0.272131
0.0278943
0.267969
0.0291177
0.263125
0.0299828
0.25762
0.0304595
0.251509
0.0305239
0.244881
0.0301662
0.23785
0.0293956
0.230548
0.0282414
0.223118
0.0267513
0.215702
0.0249874
0.208432
0.0230208
0.201427
0.0209254
0.194782
0.0187724
0.188569
0.0166263
0.182837
0.0145412
0.17761
0.0125598
0.172893
0.0107128
0.168675
0.00902011
0.164934
0.00749218
0.161636
0.00613167
0.158745
0.00493533
0.15622
0.00389568
0.154022
0.00300236
0.152109
0.00224332
0.150445
0.00160593
0.148994
0.00107706
0.147726
0.00064364
0.146616
0.000293696
0.145642
1.56393e-05
0.144783
-0.0002007
0.144021
-0.000363872
0.143341
-0.000481986
0.142729
-0.000562513
0.142172
-0.000612408
0.141661
-0.000637127
0.141187
-0.000645408
0.140744
-0.000632017
0.140327
-0.000645147
-0.000531602
0.261292
0.00596262
0.259984
0.0100185
0.259675
0.0133998
0.260043
0.0163339
0.260809
0.0189554
0.261706
0.021382
0.262519
0.0236571
0.263086
0.025773
0.263282
0.0276981
0.263016
0.0293848
0.262224
0.0307749
0.260874
0.0318091
0.258961
0.0324367
0.256504
0.0326236
0.253542
0.0323573
0.250135
0.0316482
0.246357
0.0305291
0.242292
0.0290519
0.23803
0.0272822
0.233662
0.0252939
0.22927
0.0231634
0.224932
0.0209641
0.220711
0.0187621
0.216657
0.0166134
0.212807
0.0145627
0.209184
0.0126428
0.2058
0.0108757
0.202658
0.00927363
0.199752
0.00784086
0.197073
0.00657539
0.194604
0.00547057
0.192331
0.00451649
0.190235
0.00370129
0.1883
0.00301195
0.186509
0.00243499
0.184845
0.00195724
0.183294
0.0015663
0.181843
0.00125042
0.18048
0.000998706
0.179197
0.000801502
0.177984
0.000650284
0.176834
0.000537411
0.17574
0.000456457
0.174694
0.000400329
0.173695
0.000367502
0.172712
0.000337915
0.000360308
0.152672
0.00598556
0.157074
0.00561671
0.163534
0.0069406
0.171038
0.00882998
0.178851
0.0111425
0.18654
0.0136929
0.193872
0.0163251
0.200701
0.0189438
0.206923
0.0214762
0.212466
0.023841
0.217293
0.025948
0.22139
0.0277122
0.224763
0.0290635
0.227433
0.0299535
0.229432
0.0303585
0.230799
0.0302802
0.231584
0.0297443
0.231839
0.0287962
0.231625
0.0274968
0.231001
0.0259169
0.230033
0.024132
0.22878
0.0222164
0.227303
0.0202391
0.225655
0.0182609
0.223886
0.0163322
0.222036
0.0144927
0.22014
0.0127711
0.218227
0.0111865
0.216319
0.0097491
0.214432
0.00846238
0.212578
0.00732411
0.210766
0.00632802
0.209002
0.00546507
0.20729
0.0047244
0.20563
0.00409427
0.204025
0.00356265
0.202473
0.00311785
0.200975
0.00274877
0.199528
0.00244504
0.198132
0.00219725
0.196786
0.00199705
0.195486
0.00183734
0.194231
0.00171145
0.193014
0.00161636
0.191841
0.00154077
0.190671
0.00150839
0.00142067
0.0356327
-0.00844957
0.0489376
-0.00768841
0.0614458
-0.00556788
0.0732021
-0.0029267
0.0844112
-6.72114e-05
0.0952381
0.00286561
0.105747
0.00581634
0.11592
0.00876969
0.125703
0.0116935
0.135029
0.0145156
0.143838
0.0171384
0.152085
0.0194653
0.159733
0.0214148
0.166759
0.0229277
0.173146
0.0239712
0.178887
0.0245386
0.183984
0.0246474
0.188445
0.0243348
0.192289
0.0236532
0.19554
0.0226665
0.198229
0.0214433
0.200394
0.0200518
0.202077
0.0185563
0.203323
0.0170144
0.204181
0.0154753
0.204695
0.0139784
0.204912
0.0125541
0.204875
0.0112237
0.204623
0.0100006
0.204194
0.00889178
0.203619
0.00789871
0.202928
0.00701888
0.202147
0.00624677
0.201296
0.00557494
0.200396
0.00499474
0.199461
0.00449699
0.198506
0.00407249
0.197543
0.00371238
0.196579
0.0034083
0.195624
0.00315265
0.194682
0.00293862
0.193759
0.00276073
0.192857
0.0026132
0.191976
0.00249712
0.191123
0.00239409
0.190267
0.00236431
0.00219069
0.00233437
-0.0107844
0.00728357
-0.0126384
0.012094
-0.0103793
0.0171154
-0.00794938
0.0226177
-0.00557097
0.028712
-0.00322983
0.0354504
-0.000922788
0.0427939
0.00142582
0.0506433
0.0038439
0.0588833
0.00627557
0.0673966
0.00862482
0.0760627
0.0107989
0.0847637
0.0127133
0.0933836
0.0143076
0.101812
0.0155428
0.109947
0.0164037
0.117698
0.0168968
0.12499
0.0170439
0.131765
0.0168788
0.137983
0.0164491
0.14362
0.0158069
0.148669
0.0150038
0.153136
0.0140896
0.157042
0.0131093
0.160416
0.0121021
0.163295
0.0111001
0.165721
0.0101287
0.167738
0.0092064
0.169393
0.00834604
0.17073
0.00755519
0.171792
0.00683733
0.172618
0.00619267
0.173246
0.00561902
0.173708
0.00511247
0.174035
0.00466806
0.174252
0.00428022
0.174381
0.00394319
0.174442
0.00365129
0.174451
0.00339911
0.174422
0.00318168
0.174367
0.0029945
0.174293
0.00283418
0.17421
0.00269657
0.174122
0.00258489
0.174036
0.00248035
0.173948
0.00245238
0.00225711
-0.00410652
-0.0066781
-0.00830051
-0.008445
-0.0112749
-0.00740568
-0.0131519
-0.00607337
-0.0139424
-0.00478141
-0.0136384
-0.00353469
-0.01226
-0.00230159
-0.00980048
-0.00103393
-0.0062558
0.00029918
-0.00165781
0.00167746
0.00393126
0.0030358
0.0104096
0.00432061
0.0176329
0.00549047
0.025438
0.00650309
0.0336532
0.00732874
0.0421045
0.00795346
0.0506221
0.00838063
0.0590516
0.00861579
0.0672607
0.00867118
0.075138
0.00857328
0.0825978
0.00834861
0.0895793
0.00802383
0.0960447
0.00762558
0.101977
0.00717855
0.107376
0.00670425
0.112256
0.00622082
0.116643
0.00574273
0.120569
0.0052811
0.124072
0.00484384
0.127192
0.00443617
0.129968
0.00406104
0.132442
0.00371961
0.134649
0.00341164
0.136626
0.00313593
0.138404
0.00289059
0.140011
0.00267332
0.141472
0.00248161
0.142811
0.0023129
0.144045
0.00216471
0.145192
0.00203473
0.146266
0.00192081
0.147279