/*--------------------------------*- C++ -*----------------------------------*\
| =========                 |                                                 |
| \\      /  F ield         | OpenFOAM: The Open Source CFD Toolbox           |
|  \\    /   O peration     | Version:  2406                                  |
|   \\  /    A nd           | Website:  www.openfoam.com                      |
|    \\/     M anipulation  |                                                 |
\*---------------------------------------------------------------------------*/
FoamFile
{
    version     2.0;
    format      ascii;
    arch        "LSB;label=32;scalar=64";
    class       volScalarField;
    location    "51";
    object      p;
}
// * * * * * * * * * * * * * * * * * * * * * * * * * * * * * * * * * * * * * //

dimensions      [0 2 -2 0 0 0 0];

internalField   nonuniform List<scalar> 
1800
(
0.392474
0.38731
0.380489
0.372961
0.364616
0.355328
0.345042
0.333579
0.32072
0.305498
0.396429
0.388856
0.380742
0.373038
0.364771
0.355575
0.34552
0.334612
0.322849
0.310732
0.399932
0.390697
0.381611
0.373987
0.366119
0.357378
0.348042
0.338454
0.329059
0.320877
0.403603
0.393728
0.38409
0.376539
0.369131
0.361043
0.352657
0.344478
0.336952
0.330733
0.407449
0.397362
0.387523
0.380118
0.373175
0.36576
0.358265
0.351215
0.344937
0.339775
0.410904
0.400818
0.391111
0.383984
0.377455
0.370599
0.363802
0.357542
0.35203
0.347422
0.413326
0.403458
0.394182
0.387398
0.381163
0.374689
0.368359
0.362569
0.357453
0.353072
0.414192
0.40497
0.396377
0.389843
0.383704
0.377423
0.371346
0.365771
0.360787
0.356435
0.413
0.405376
0.397719
0.391179
0.384879
0.378596
0.372575
0.367014
0.361993
0.357561
0.40965
0.404338
0.397859
0.391415
0.385011
0.378691
0.372634
0.366998
0.361879
0.357343
0.324322
0.32401
0.323831
0.323945
0.324344
0.325009
0.325935
0.327122
0.328575
0.330301
0.332304
0.334588
0.337152
0.339993
0.343103
0.34647
0.350079
0.353908
0.357932
0.362122
0.366444
0.370859
0.375327
0.379805
0.384249
0.388614
0.392859
0.396942
0.400827
0.404482
0.407879
0.410997
0.413822
0.416344
0.418561
0.324668
0.324349
0.324206
0.324354
0.324757
0.325402
0.326292
0.327436
0.328843
0.330521
0.332476
0.334711
0.337226
0.340016
0.343075
0.346392
0.34995
0.35373
0.357707
0.361852
0.366131
0.370507
0.374939
0.379385
0.383801
0.388143
0.392369
0.396438
0.400314
0.403962
0.407358
0.410479
0.41331
0.41584
0.418067
0.324808
0.324446
0.324309
0.324479
0.324881
0.325502
0.326355
0.327456
0.328818
0.33045
0.33236
0.33455
0.33702
0.339768
0.342785
0.346063
0.349584
0.353331
0.357278
0.361397
0.365654
0.370012
0.374429
0.378865
0.383274
0.387612
0.391837
0.395908
0.399788
0.403442
0.406843
0.40997
0.412808
0.415347
0.417585
0.324403
0.324016
0.323888
0.32408
0.324487
0.325099
0.325936
0.327016
0.328357
0.329967
0.331856
0.334025
0.336477
0.339207
0.342211
0.345476
0.34899
0.352732
0.356678
0.360798
0.36506
0.369426
0.373855
0.378304
0.382728
0.387081
0.391319
0.395402
0.399291
0.402954
0.406363
0.409497
0.412339
0.414881
0.417121
0.323251
0.322931
0.322893
0.323162
0.323623
0.324272
0.325136
0.326237
0.327594
0.329219
0.331118
0.333297
0.335756
0.338495
0.341508
0.344784
0.348309
0.352064
0.356026
0.360162
0.36444
0.368822
0.373266
0.377728
0.382163
0.386525
0.390769
0.394855
0.398743
0.4024
0.4058
0.408922
0.41175
0.414277
0.416502
0.321186
0.321122
0.321355
0.321837
0.322453
0.323218
0.324173
0.325347
0.326763
0.328435
0.330376
0.332589
0.335078
0.337842
0.340877
0.344173
0.347717
0.35149
0.355467
0.359618
0.363909
0.3683
0.372748
0.377208
0.381635
0.385982
0.390204
0.394261
0.398115
0.401733
0.405091
0.408168
0.410952
0.413436
0.41562
0.318032
0.318585
0.319437
0.32036
0.321275
0.32225
0.323354
0.324636
0.326132
0.327866
0.329852
0.332102
0.334624
0.337418
0.34048
0.343801
0.347366
0.351155
0.355143
0.359298
0.363583
0.367959
0.372382
0.376806
0.381186
0.385475
0.38963
0.393611
0.397383
0.400916
0.404186
0.407176
0.409876
0.412281
0.414394
0.313094
0.315285
0.317468
0.319123
0.320455
0.321689
0.322955
0.324341
0.325906
0.327689
0.329715
0.332001
0.334555
0.337378
0.340464
0.343803
0.347379
0.351169
0.355147
0.359279
0.363527
0.367851
0.372205
0.376544
0.380823
0.384998
0.389028
0.392875
0.396508
0.399901
0.403032
0.405889
0.408464
0.410756
0.412768
0.303241
0.310833
0.315933
0.318516
0.320249
0.321738
0.323135
0.324579
0.326186
0.32801
0.330073
0.33239
0.33497
0.337814
0.340915
0.344259
0.347826
0.351592
0.355528
0.359599
0.363765
0.367985
0.372214
0.376407
0.380523
0.38452
0.388361
0.392013
0.395449
0.398647
0.401593
0.404275
0.40669
0.408841
0.410732
0.287339
0.305696
0.315142
0.318455
0.32044
0.322225
0.323806
0.325329
0.326989
0.328864
0.330971
0.333322
0.335926
0.338785
0.341887
0.345215
0.348744
0.35245
0.356299
0.360257
0.364284
0.368338
0.372377
0.376359
0.380246
0.384001
0.387592
0.390994
0.394185
0.397147
0.399871
0.402351
0.404586
0.406582
0.408344
0.295547
0.307429
0.316362
0.319466
0.321286
0.323196
0.324963
0.32661
0.32835
0.330294
0.332459
0.334849
0.337472
0.340329
0.343405
0.346681
0.350129
0.353721
0.357426
0.361208
0.36503
0.368853
0.372637
0.376346
0.379947
0.383408
0.386706
0.389821
0.392735
0.39544
0.397928
0.400198
0.402253
0.404097
0.40574
0.305235
0.311436
0.318121
0.321224
0.323054
0.324948
0.32682
0.328592
0.330416
0.332412
0.33461
0.337013
0.339621
0.342432
0.345431
0.348596
0.3519
0.355315
0.35881
0.362352
0.365907
0.369441
0.372919
0.376311
0.379588
0.382729
0.385715
0.388531
0.391167
0.393618
0.395881
0.397957
0.399849
0.401563
0.403107
0.316753
0.318439
0.322089
0.324586
0.326256
0.327934
0.329699
0.331459
0.33327
0.335231
0.33738
0.339719
0.342241
0.344937
0.347789
0.350775
0.353869
0.357045
0.360274
0.363527
0.366775
0.369986
0.373135
0.376195
0.379147
0.381973
0.384659
0.387198
0.389583
0.391811
0.393881
0.395796
0.39756
0.399176
0.400652
0.326978
0.326501
0.327962
0.329496
0.330722
0.331998
0.333442
0.334989
0.336642
0.338454
0.340456
0.342644
0.345003
0.347514
0.350158
0.352912
0.355752
0.358654
0.361592
0.364542
0.367476
0.370371
0.373205
0.375959
0.378617
0.381167
0.383599
0.385909
0.388092
0.390147
0.392074
0.393873
0.395549
0.397104
0.398543
0.336241
0.334688
0.334611
0.335072
0.335651
0.33641
0.337409
0.338612
0.339997
0.341578
0.343362
0.345338
0.347481
0.349767
0.352174
0.354679
0.35726
0.359894
0.362557
0.365228
0.367886
0.370509
0.37308
0.375586
0.378012
0.380351
0.382596
0.384742
0.386785
0.388725
0.390561
0.392292
0.393921
0.395449
0.396877
0.343938
0.341732
0.340617
0.340166
0.340085
0.340316
0.340859
0.341686
0.342767
0.344088
0.345633
0.34738
0.349299
0.351363
0.353548
0.35583
0.358187
0.360598
0.363041
0.365495
0.367943
0.370367
0.372753
0.375087
0.377361
0.379565
0.381694
0.383744
0.385709
0.387589
0.389381
0.391085
0.3927
0.394225
0.395662
0.349524
0.346886
0.345095
0.343964
0.343323
0.343094
0.343245
0.343744
0.344553
0.34564
0.346974
0.348523
0.350257
0.352144
0.35416
0.356279
0.358479
0.360738
0.363035
0.365353
0.367673
0.36998
0.37226
0.374503
0.376698
0.378838
0.380916
0.382926
0.384864
0.386727
0.388512
0.390217
0.391841
0.393382
0.394839
0.352772
0.349842
0.347628
0.346049
0.345014
0.344458
0.344336
0.344606
0.345223
0.346145
0.347335
0.348754
0.35037
0.35215
0.354068
0.356098
0.358216
0.3604
0.36263
0.364887
0.367154
0.369417
0.371661
0.373876
0.376052
0.37818
0.380253
0.382265
0.384211
0.386086
0.387887
0.389612
0.391259
0.392824
0.394308
0.353768
0.350645
0.34819
0.346366
0.345116
0.344387
0.344126
0.344283
0.34481
0.345661
0.346791
0.348162
0.349739
0.35149
0.353385
0.355398
0.357505
0.359682
0.36191
0.364169
0.366443
0.368717
0.370976
0.37321
0.375408
0.377561
0.379661
0.381702
0.383678
0.385585
0.387419
0.389176
0.390855
0.392452
0.393968
0.353439
0.350195
0.347619
0.345686
0.344352
0.343563
0.343263
0.343395
0.343908
0.344753
0.345885
0.347265
0.348854
0.350622
0.352537
0.354572
0.356703
0.358907
0.361163
0.363452
0.365758
0.368064
0.370358
0.372627
0.374861
0.37705
0.379186
0.381263
0.383274
0.385216
0.387083
0.388873
0.390584
0.392212
0.393757
0.420475
0.422094
0.423431
0.424502
0.425325
0.425922
0.426315
0.426529
0.426586
0.42651
0.419994
0.421629
0.422984
0.424074
0.42492
0.425541
0.42596
0.4262
0.426285
0.426237
0.419523
0.421171
0.422539
0.423645
0.424507
0.425146
0.425584
0.425845
0.425951
0.425926
0.419061
0.42071
0.422081
0.42319
0.424057
0.424702
0.425148
0.425418
0.425536
0.425523
0.418428
0.420064
0.421425
0.422526
0.423389
0.424034
0.424483
0.42476
0.424887
0.424887
0.417509
0.419114
0.420449
0.421532
0.422382
0.423021
0.423472
0.423756
0.423895
0.423911
0.416221
0.417774
0.419068
0.420121
0.420953
0.421585
0.422037
0.422332
0.422489
0.422529
0.41451
0.415994
0.417236
0.418253
0.419065
0.419691
0.420151
0.420464
0.420649
0.420723
0.412374
0.413781
0.414967
0.415949
0.416746
0.417374
0.417852
0.418195
0.418421
0.418544
0.409885
0.411217
0.412354
0.413311
0.414104
0.414748
0.415257
0.415646
0.415926
0.41611
0.40719
0.408461
0.409564
0.410512
0.411317
0.411991
0.412547
0.412993
0.413339
0.413595
0.40449
0.40572
0.406809
0.407766
0.408599
0.409318
0.409929
0.410442
0.410861
0.411192
0.401993
0.403208
0.404302
0.405282
0.406155
0.406926
0.407599
0.408179
0.40867
0.409074
0.399869
0.401088
0.402202
0.403216
0.404134
0.404958
0.40569
0.406333
0.406888
0.407356
0.398208
0.399444
0.400587
0.401638
0.4026
0.403472
0.404255
0.404951
0.405559
0.406079
0.397011
0.398273
0.399447
0.400533
0.401533
0.402446
0.403271
0.404009
0.404657
0.405216
0.396213
0.397502
0.398705
0.399824
0.400856
0.401801
0.402659
0.403428
0.404106
0.404694
0.395709
0.397026
0.398259
0.399405
0.400465
0.401437
0.40232
0.403114
0.403816
0.404426
0.3954
0.396746
0.398007
0.399181
0.400267
0.401264
0.402171
0.402988
0.403712
0.404342
0.395217
0.396591
0.397877
0.399076
0.400185
0.401204
0.402132
0.402969
0.403711
0.40436
0.426322
0.426045
0.425698
0.4253
0.424867
0.424416
0.423961
0.423514
0.423087
0.42269
0.422334
0.422026
0.421775
0.421587
0.421468
0.421425
0.421461
0.421582
0.421789
0.422087
0.422475
0.422954
0.423522
0.424176
0.42491
0.425716
0.426581
0.427493
0.428433
0.429383
0.430323
0.431237
0.4321
0.432843
0.433298
0.426078
0.425829
0.425511
0.425141
0.424737
0.424314
0.423886
0.423465
0.423064
0.422694
0.422363
0.42208
0.421853
0.42169
0.421597
0.421578
0.421641
0.421787
0.422022
0.422347
0.422764
0.423273
0.423871
0.424556
0.425321
0.426156
0.427049
0.427985
0.428944
0.429902
0.430835
0.431718
0.432536
0.433267
0.433783
0.42579
0.425566
0.425271
0.424926
0.424545
0.424146
0.423741
0.423343
0.422965
0.422616
0.422306
0.422045
0.421839
0.421696
0.421623
0.421625
0.421709
0.421877
0.422135
0.422485
0.422929
0.423467
0.424097
0.424816
0.425618
0.426493
0.42743
0.428409
0.429411
0.430406
0.431365
0.432259
0.433088
0.433915
0.434621
0.425402
0.425193
0.424915
0.424585
0.424222
0.423838
0.423449
0.423066
0.422701
0.422364
0.422066
0.421814
0.421616
0.421481
0.421414
0.421421
0.421509
0.421683
0.421947
0.422303
0.422756
0.423305
0.423952
0.424692
0.425522
0.426434
0.427417
0.428453
0.429521
0.430592
0.431629
0.432597
0.433507
0.43452
0.43549
0.42478
0.424587
0.424326
0.424014
0.423667
0.4233
0.422925
0.422554
0.422199
0.421868
0.421573
0.421322
0.421121
0.420978
0.4209
0.420893
0.420964
0.421117
0.421358
0.421692
0.422121
0.422648
0.423274
0.424
0.424823
0.425739
0.426738
0.42781
0.428935
0.430086
0.431225
0.432304
0.433325
0.434539
0.435752
0.423824
0.423652
0.423414
0.423125
0.422799
0.422451
0.422093
0.421734
0.421386
0.421059
0.42076
0.420499
0.420281
0.420114
0.420004
0.419959
0.419983
0.420083
0.420263
0.420529
0.420885
0.421334
0.42188
0.422523
0.423263
0.424101
0.425032
0.426049
0.427141
0.428289
0.429456
0.430584
0.43164
0.432955
0.434227
0.422469
0.422328
0.422121
0.421863
0.421567
0.421244
0.420905
0.420561
0.42022
0.419892
0.419583
0.419301
0.419051
0.418841
0.418677
0.418563
0.418506
0.418511
0.418583
0.418726
0.418943
0.419239
0.419614
0.42007
0.420608
0.421226
0.421921
0.42269
0.423525
0.424412
0.425322
0.426189
0.426936
0.427929
0.428689
0.420703
0.420604
0.42044
0.420223
0.419964
0.419673
0.41936
0.419032
0.418699
0.418366
0.418039
0.417725
0.417429
0.417156
0.416912
0.4167
0.416525
0.41639
0.4163
0.416255
0.416258
0.416309
0.416406
0.416544
0.416717
0.416916
0.417126
0.41733
0.417505
0.417618
0.417618
0.417417
0.416837
0.416189
0.414814
0.418577
0.418533
0.418423
0.418257
0.418044
0.417792
0.417508
0.4172
0.416873
0.416531
0.41618
0.415823
0.415466
0.415111
0.414762
0.414422
0.414092
0.413774
0.413468
0.413173
0.412885
0.412597
0.412299
0.411976
0.411603
0.41115
0.410567
0.409792
0.408733
0.407263
0.405196
0.402256
0.397898
0.391651
0.383011
0.416208
0.41623
0.416184
0.416077
0.415917
0.415709
0.415458
0.41517
0.414846
0.414491
0.414108
0.4137
0.413269
0.412816
0.412342
0.411848
0.411332
0.410793
0.410226
0.409624
0.408976
0.408267
0.407472
0.406557
0.405472
0.404145
0.402471
0.40029
0.397367
0.393332
0.387591
0.379177
0.366139
0.3439
0.303326
0.413766
0.413861
0.413885
0.413842
0.413737
0.413575
0.413356
0.413085
0.412763
0.412391
0.411971
0.411504
0.410989
0.410426
0.409814
0.409148
0.408425
0.407639
0.406779
0.405831
0.404777
0.403588
0.402224
0.400628
0.398718
0.396371
0.393405
0.389537
0.384313
0.376966
0.366089
0.348889
0.318626
0.257556
0.103001
0.41144
0.411608
0.411701
0.411722
0.411671
0.41155
0.411361
0.411104
0.41078
0.410388
0.409928
0.409398
0.408797
0.408119
0.407362
0.406518
0.40558
0.404536
0.403371
0.402063
0.400584
0.398893
0.396935
0.394631
0.391866
0.388473
0.384201
0.378663
0.371239
0.360893
0.34579
0.32258
0.284594
0.22139
0.113148
0.409394
0.409631
0.409788
0.409864
0.409859
0.409775
0.409611
0.409365
0.409036
0.408623
0.408122
0.407531
0.406844
0.406055
0.405158
0.404142
0.402996
0.401703
0.400242
0.398584
0.396694
0.39452
0.391993
0.389017
0.385455
0.381113
0.375705
0.368806
0.359772
0.347612
0.330787
0.307023
0.273032
0.225516
0.161733
0.407738
0.408034
0.408243
0.408365
0.408399
0.408344
0.408199
0.40796
0.407625
0.407191
0.406652
0.406005
0.405241
0.404353
0.40333
0.40216
0.400826
0.399309
0.397581
0.395611
0.393352
0.390747
0.387718
0.384158
0.379922
0.374807
0.368528
0.360683
0.350699
0.337776
0.320818
0.29842
0.268921
0.23057
0.182684
0.40651
0.406851
0.407102
0.407259
0.407323
0.407291
0.407159
0.406925
0.406584
0.406131
0.405561
0.404867
0.404039
0.403069
0.401942
0.400644
0.399155
0.397452
0.395503
0.393272
0.390708
0.387748
0.38431
0.380284
0.375525
0.369836
0.362955
0.354525
0.344074
0.330976
0.314443
0.293526
0.267212
0.234591
0.195922
0.405684
0.406059
0.406339
0.406524
0.40661
0.406594
0.406472
0.406241
0.405896
0.40543
0.404837
0.404108
0.403234
0.402202
0.400998
0.399604
0.397998
0.396154
0.394037
0.391607
0.388811
0.385583
0.381839
0.37747
0.372336
0.366257
0.358996
0.350252
0.339639
0.326679
0.310808
0.291404
0.267911
0.240037
0.208317
0.405188
0.405589
0.405892
0.406096
0.406198
0.406195
0.406082
0.405855
0.405509
0.405036
0.40443
0.403681
0.402778
0.401707
0.400453
0.398996
0.397313
0.395374
0.393144
0.390579
0.387625
0.384214
0.380263
0.375665
0.370288
0.363967
0.356492
0.347609
0.337005
0.324317
0.309144
0.291088
0.269849
0.245362
0.218044
0.404942
0.405361
0.405682
0.405902
0.406018
0.406026
0.405923
0.405703
0.405361
0.404889
0.40428
0.403524
0.402609
0.401522
0.400245
0.398757
0.397035
0.395047
0.392756
0.390117
0.387075
0.383562
0.379493
0.374765
0.369252
0.3628
0.355222
0.346294
0.33576
0.32333
0.308708
0.291621
0.271891
0.249519
0.224815
0.404877
0.405315
0.405653
0.405889
0.40602
0.406042
0.405952
0.405744
0.405413
0.404952
0.404353
0.403605
0.402698
0.401616
0.400343
0.398859
0.397136
0.395145
0.392849
0.390201
0.387144
0.383612
0.379519
0.374765
0.369224
0.36275
0.355166
0.346267
0.335823
0.323586
0.309309
0.292782
0.273879
0.252624
0.229266
0.404912
0.405366
0.40572
0.405971
0.406117
0.406155
0.406079
0.405886
0.40557
0.405125
0.404542
0.403811
0.402922
0.40186
0.400609
0.399147
0.39745
0.395487
0.39322
0.390605
0.387586
0.384093
0.380044
0.375337
0.36985
0.363435
0.35592
0.347104
0.336765
0.324666
0.310576
0.294299
0.275721
0.254867
0.231954
-0.15789
-0.117336
-0.0634572
-0.0407531
-0.0267896
-0.0152802
-0.00714114
-0.00231905
6.07221e-05
0.000551079
-0.0240856
-0.052419
-0.0364974
-0.0250368
-0.0179164
-0.0110018
-0.00517113
-0.00145469
0.000318248
0.000357106
0.0772995
0.0230753
0.00670573
0.00197909
-0.000477419
-0.000361702
0.00114488
0.00219319
0.00223497
0.000377328
0.123919
0.0759701
0.0500775
0.0358339
0.0255137
0.0181973
0.0133841
0.00964152
0.00615538
0.0013499
0.152877
0.114389
0.0866909
0.0669073
0.0510306
0.0380334
0.0276465
0.0190049
0.0112318
0.00349179
0.174264
0.141632
0.113896
0.0911049
0.0717208
0.0549586
0.0405088
0.0278639
0.0161723
0.00580987
0.188889
0.159803
0.132859
0.108834
0.0873851
0.0681077
0.0507562
0.0350557
0.0203076
0.00742046
0.198469
0.171616
0.145537
0.121036
0.0983052
0.0773019
0.0579328
0.0400679
0.0232675
0.00805311
0.204324
0.178574
0.152914
0.128088
0.104526
0.0824257
0.0618423
0.0427183
0.0248257
0.00803656
0.207426
0.181939
0.156273
0.131157
0.107119
0.0844514
0.0632671
0.0435573
0.0251804
0.00793205
)
;

boundaryField
{
    inlet
    {
        type            zeroGradient;
    }
    outlet
    {
        type            fixedValue;
        value           uniform 0;
    }
    upperWall
    {
        type            zeroGradient;
    }
    lowerWall
    {
        type            zeroGradient;
    }
    frontAndBack
    {
        type            empty;
    }
}


// ************************************************************************* //
