/*--------------------------------*- C++ -*----------------------------------*\
| =========                 |                                                 |
| \\      /  F ield         | OpenFOAM: The Open Source CFD Toolbox           |
|  \\    /   O peration     | Version:  2406                                  |
|   \\  /    A nd           | Website:  www.openfoam.com                      |
|    \\/     M anipulation  |                                                 |
\*---------------------------------------------------------------------------*/
FoamFile
{
    version     2.0;
    format      ascii;
    arch        "LSB;label=32;scalar=64";
    class       surfaceScalarField;
    location    "51";
    object      phi;
}
// * * * * * * * * * * * * * * * * * * * * * * * * * * * * * * * * * * * * * //

dimensions      [0 3 -1 0 0 0 0];

oriented        oriented;

internalField   nonuniform List<scalar> 
3480
(
0.0194037
-0.000403676
0.0199288
-0.000525151
0.0204133
-0.000484528
0.0208896
-0.000476277
0.0214062
-0.000516687
0.0220047
-0.000598498
0.022744
-0.000739325
0.023728
-0.000984012
0.0251784
-0.00145043
-0.0029965
0.0281748
0.0508801
-0.00028376
0.0509887
-0.000633811
0.051304
-0.000799911
0.0517659
-0.000938133
0.052363
-0.00111382
0.0531102
-0.00134578
0.0540371
-0.00166629
0.0551915
-0.00213849
0.0566002
-0.00285915
-0.00407173
0.0576753
0.0749484
-0.000232184
0.0749357
-0.000621161
0.0750484
-0.000912569
0.0752906
-0.00118039
0.0756586
-0.00148186
0.0761551
-0.0018423
0.0767787
-0.00228994
0.0775087
-0.0028685
0.0782738
-0.00362424
-0.00461345
0.0788155
0.0909745
-0.000206728
0.0909336
-0.000580248
0.0909398
-0.000918779
0.0910139
-0.00125447
0.0911547
-0.0016227
0.0913575
-0.00204512
0.0916096
-0.00254208
0.0918789
-0.00313785
0.0921056
-0.0038509
-0.00468527
0.0921774
0.0989682
-0.000174978
0.0988903
-0.000502359
0.0988061
-0.000834553
0.0987359
-0.00118431
0.0986774
-0.00156418
0.0986202
-0.00198786
0.0985476
-0.00246954
0.0984307
-0.00302094
0.0982255
-0.00364572
-0.00433305
0.0978733
0.0989488
-0.000123808
0.0988164
-0.000369887
0.0986405
-0.000658692
0.0984382
-0.000981978
0.0982033
-0.00132932
0.0979228
-0.00170738
0.0975797
-0.00212635
0.0971489
-0.00259018
0.0965984
-0.00309518
-0.00362811
0.0958935
0.0909172
-4.10515e-05
0.0907166
-0.000169235
0.0904543
-0.00039634
0.0901405
-0.000668198
0.0897632
-0.000952023
0.0893083
-0.00125243
0.088759
-0.00157706
0.0880936
-0.00192478
0.0872877
-0.00228919
-0.00265944
0.0863191
0.0748577
0.000101268
0.0745947
9.3724e-05
0.074286
-8.75548e-05
0.0739203
-0.000302469
0.0734764
-0.000508078
0.072938
-0.00071401
0.0722871
-0.00092616
0.0715038
-0.00114143
0.0705699
-0.00135522
-0.00156199
0.0694725
0.0507744
0.000326875
0.0505813
0.000286835
0.0503907
0.000103085
0.0501313
-4.30749e-05
0.0497742
-0.000150954
0.0493055
-0.000245217
0.0487124
-0.000333051
0.0479848
-0.000413777
0.0471169
-0.000487212
-0.00055318
0.0461081
0.0193269
0.0196137
0.0197168
0.0196737
0.0195228
0.0192776
0.0189445
0.0185308
0.0180436
0.0174904
-7.17386e-05
7.17342e-05
-0.00031124
0.000239494
-0.000650771
0.000339526
-0.00102538
0.00037461
-0.00140109
0.000375713
-0.00176351
0.000362425
-0.00210746
0.000343953
-0.00243117
0.00032372
-0.00273369
0.000302518
-0.00301388
0.000280193
-0.00327025
0.000256378
-0.00350098
0.000230727
-0.00370396
0.000202967
-0.00387688
0.000172907
-0.00401733
0.000140442
-0.00412291
0.000105572
-0.00419132
6.83941e-05
-0.00422045
2.91304e-05
-0.00420857
-1.18775e-05
-0.00415443
-5.41334e-05
-0.00405737
-9.7047e-05
-0.00391736
-0.000139978
-0.0037351
-0.000182228
-0.003512
-0.000223043
-0.00325028
-0.000261672
-0.00295282
-0.000297379
-0.00262324
-0.0003295
-0.0022657
-0.000357448
-0.00188485
-0.00038075
-0.00148569
-0.000399054
-0.00107343
-0.000412143
-0.000653312
-0.000419991
-0.00023054
-0.000422645
0.000189845
-0.00042025
-0.000413177
0.000603159
-0.000281881
0.000353608
-0.000899859
0.000857452
-0.00169207
0.00113172
-0.0025403
0.00122284
-0.0033773
0.00121272
-0.00417087
0.00115601
-0.00490738
0.00108048
-0.00558139
0.000997737
-0.00619032
0.000911459
-0.00673223
0.000822111
-0.00720499
0.000729128
-0.00760604
0.000631771
-0.00793251
0.000529417
-0.00818128
0.000421658
-0.00834923
0.00030837
-0.00843342
0.000189742
-0.00843134
6.63065e-05
-0.00834112
-6.10896e-05
-0.00816177
-0.000191214
-0.00789328
-0.000322578
-0.00753677
-0.0004535
-0.00709453
-0.000582133
-0.00657014
-0.000706514
-0.0059684
-0.000824643
-0.00529535
-0.000934564
-0.00455806
-0.00103447
-0.00376459
-0.00112276
-0.00292375
-0.00119805
-0.0020449
-0.00125934
-0.00113775
-0.00130594
-0.000212157
-0.00133745
0.000721912
-0.00135377
0.00165487
-0.0013553
0.00257781
-0.00134288
-0.00131744
0.00348239
-0.000465626
0.000819221
-0.0013767
0.00176851
-0.00246927
0.00222428
-0.00359178
0.00234535
-0.00466477
0.0022857
-0.00565084
0.00214209
-0.00653457
0.00196421
-0.00731059
0.00177376
-0.00797752
0.00157839
-0.0085351
0.0013797
-0.00898311
0.00117713
-0.00932095
0.000969608
-0.00954771
0.000756164
-0.00966229
0.000536227
-0.00966366
0.000309738
-0.00955121
7.72924e-05
-0.0093249
-0.000159996
-0.00898569
-0.000400282
-0.00853555
-0.000641331
-0.00797751
-0.000880568
-0.00731581
-0.00111514
-0.00655587
-0.00134199
-0.00570434
-0.00155794
-0.00476901
-0.00175986
-0.00375871
-0.00194473
-0.00268314
-0.00210989
-0.00155272
-0.002253
-0.000378375
-0.00237222
0.000828555
-0.00246608
0.00205657
-0.00253376
0.00329452
-0.00257519
0.00453169
-0.00259073
0.0057578
-0.00258119
0.0069631
-0.00254794
-0.00249269
0.0081386
-0.000594537
0.00141375
-0.00167938
0.00285333
-0.00290162
0.0034465
-0.00408955
0.00353327
-0.0051669
0.00336304
-0.00610354
0.00307873
-0.00689073
0.00275141
-0.00752884
0.00241187
-0.00802143
0.00207098
-0.00837267
0.00173094
-0.00858636
0.00139082
-0.0086657
0.00104894
-0.00861336
0.000703817
-0.00843175
0.000354623
-0.00812336
1.35434e-06
-0.00769111
-0.000354954
-0.00713872
-0.00071237
-0.00647059
-0.00106839
-0.00569198
-0.00141991
-0.00480913
-0.00176338
-0.00382927
-0.00209497
-0.00276052
-0.00241068
-0.00161194
-0.00270645
-0.000393397
-0.00297832
0.000884567
-0.00322261
0.00221086
-0.00343609
0.00357414
-0.00361619
0.00496298
-0.00376096
0.0063661
-0.00386909
0.00777251
-0.00394005
0.00917153
-0.00397408
0.0105531
-0.00397212
0.0119077
-0.00393572
0.013227
-0.003867
-0.00376854
0.014503
-0.000670738
0.00208447
-0.001788
0.00397056
-0.00293681
0.00459529
-0.00395451
0.00455095
-0.00478935
0.00419786
-0.0054318
0.00372117
-0.00588776
0.00320736
-0.00616784
0.00269194
-0.00628303
0.00218617
-0.00624318
0.00169108
-0.00605671
0.00120434
-0.00573083
0.000723061
-0.00527192
0.000244901
-0.00468592
-0.000231388
-0.00397891
-0.000705656
-0.00315724
-0.00117662
-0.00222766
-0.00164195
-0.00119752
-0.00209853
-7.4806e-05
-0.00254261
0.00113184
-0.00297001
0.00241302
-0.00337613
0.00375869
-0.00375633
0.00515829
-0.00410603
0.00660093
-0.00442094
0.00807551
-0.00469717
0.00957091
-0.00493146
0.0110761
-0.00512131
0.0125802
-0.00526504
0.0140729
-0.00536179
0.0155445
-0.00541162
0.0169859
-0.00541545
0.0183889
-0.005375
0.0197459
-0.00529268
0.0210506
-0.00517156
-0.00501514
0.0222973
-0.000699313
0.00278378
-0.0016808
0.00495201
-0.00250608
0.00542054
-0.00307853
0.00512337
-0.00340407
0.00452339
-0.00350745
0.00382453
-0.00341378
0.00311366
-0.00314482
0.00242298
-0.00271823
0.00175955
-0.002148
0.00112085
-0.00144554
0.000501859
-0.000620572
-0.00010192
0.000318291
-0.000693982
0.0013628
-0.00127592
0.00250464
-0.00184751
0.00373522
-0.00240722
0.00504568
-0.00295243
0.00642678
-0.00347964
0.00786883
-0.00398468
0.00936169
-0.00446289
0.0108949
-0.00490939
0.0124579
-0.00531928
0.0140397
-0.00568787
0.0156296
-0.00601088
0.017217
-0.00628461
0.0187917
-0.00650614
0.0203438
-0.00667345
0.0218642
-0.00678545
0.0233444
-0.00684204
0.0247769
-0.00684412
0.026155
-0.00679351
0.0274729
-0.00669287
0.0287259
-0.00654563
0.0299101
-0.00635579
-0.00612783
0.0310229
-0.000662796
0.00344655
-0.00126273
0.0055519
-0.00142154
0.00557932
-0.00121286
0.00491466
-0.000740222
0.00405071
-6.72281e-05
0.0031515
0.000766462
0.00227994
0.0017339
0.00145551
0.00281668
0.000676743
0.00400152
-6.40154e-05
0.00527835
-0.000775
0.00663857
-0.00146218
0.00807336
-0.0021288
0.00957373
-0.00277632
0.0111307
-0.00340449
0.012735
-0.00401158
0.0143772
-0.00459472
0.0160477
-0.00515013
0.0177364
-0.0056734
0.0194332
-0.00615974
0.021128
-0.00660424
0.0228107
-0.00700208
0.0244716
-0.00734882
0.0261012
-0.00764055
0.0276907
-0.00787413
0.0292318
-0.00804731
0.0307172
-0.00815884
0.0321402
-0.00820853
0.0334954
-0.00819724
0.0347781
-0.00812686
0.0359848
-0.00800025
0.0371129
-0.00782108
0.038161
-0.00759376
0.0391285
-0.00732321
-0.00701477
0.0400154
-0.000463424
0.00390996
-0.000164445
0.00525288
0.000873869
0.00454096
0.00226698
0.00352151
0.0038186
0.00249905
0.00545775
0.00151231
0.00715425
0.000583391
0.00889283
-0.000283115
0.0106663
-0.00109681
0.0124711
-0.00186878
0.0143024
-0.00260639
0.0161547
-0.00331454
0.0180219
-0.00399605
0.0198974
-0.00465185
0.021774
-0.00528113
0.023644
-0.00588165
0.0254994
-0.00645012
0.0273317
-0.0069825
0.0291325
-0.00747425
0.0308933
-0.00792061
0.0326059
-0.00831688
0.0342624
-0.00865861
0.0358553
-0.00894187
0.0373782
-0.00916345
0.038825
-0.009321
0.0401908
-0.00941318
0.0414717
-0.00943974
0.0426646
-0.00940152
0.0437677
-0.00930044
0.0447802
-0.00913943
0.0457023
-0.00892235
0.0465349
-0.00865382
0.0472802
-0.00833909
0.0479408
-0.00798383
-0.007594
0.0485199
0.000511693
0.00339824
0.00293169
0.00283281
0.00585026
0.00162234
0.00873544
0.000636276
0.0114858
-0.000251332
0.0141055
-0.00110745
0.0166163
-0.00192749
0.019038
-0.00270483
0.021385
-0.00344386
0.0236672
-0.0041511
0.0258911
-0.00483031
0.0280595
-0.00548302
0.0301728
-0.00610942
0.0322293
-0.00670842
0.0342259
-0.00727772
0.0361582
-0.00781401
0.0380213
-0.0083133
0.0398098
-0.00877111
0.0415183
-0.00918281
0.0431414
-0.00954375
0.044674
-0.00984958
0.0461118
-0.0100964
0.0474509
-0.010281
0.0486884
-0.010401
0.0498224
-0.0104551
0.050852
-0.0104429
0.0517774
-0.0103651
0.0525996
-0.0102238
0.0533209
-0.0100219
0.0539446
-0.00976313
0.0544744
-0.00945231
0.0549153
-0.00909475
0.0552724
-0.00869629
0.0555515
-0.00826306
-0.00780132
0.0557587
0.00657629
-0.00317813
0.0121067
-0.00269764
0.0166335
-0.00290458
0.0205636
-0.00329385
0.0240554
-0.00374324
0.0272095
-0.00426152
0.0301047
-0.00482281
0.0327976
-0.00539772
0.035325
-0.00597134
0.0377108
-0.00653698
0.0399704
-0.00708997
0.0421134
-0.00762601
0.0441449
-0.00814106
0.0460675
-0.00863108
0.0478815
-0.00909176
0.0495859
-0.00951847
0.051179
-0.00990642
0.0526586
-0.0102508
0.0540225
-0.0105468
0.0552689
-0.0107902
0.0563964
-0.0109771
0.0574042
-0.0111043
0.0582927
-0.0111695
0.0590628
-0.0111712
0.0597168
-0.0111092
0.0602579
-0.010984
0.0606904
-0.0107976
0.0610193
-0.0105528
0.0612508
-0.0102534
0.0613916
-0.00990402
0.061449
-0.00950985
0.0614309
-0.00907669
0.0613451
-0.0086106
0.0611997
-0.00811781
-0.00760446
0.0610027
0.0302194
-0.00522287
0.0333739
-0.00585212
0.036499
-0.00602971
0.0394731
-0.00626803
0.0422852
-0.00655538
0.044909
-0.00688537
0.0473451
-0.00725892
0.0496094
-0.00766202
0.0517167
-0.00807877
0.0536779
-0.00849816
0.0555002
-0.00891232
0.0571887
-0.00931454
0.0587463
-0.00969871
0.0601744
-0.0100592
0.0614733
-0.0103907
0.0626428
-0.010688
0.0636825
-0.0109462
0.0645922
-0.0111605
0.065372
-0.0113267
0.0660229
-0.0114411
0.0665464
-0.0115006
0.0669451
-0.0115031
0.0672227
-0.0114471
0.0673839
-0.0113324
0.0674343
-0.0111597
0.0673809
-0.0109306
0.0672312
-0.010648
0.0669938
-0.0103155
0.0666776
-0.00993733
0.0662921
-0.00951866
0.0658472
-0.00906493
0.0653523
-0.00858194
0.0648172
-0.00807559
0.064251
-0.00755175
-0.00701609
0.0636625
0.058052
-0.00559962
0.0588258
-0.00662594
0.0599756
-0.00717946
0.0613067
-0.00759918
0.0627274
-0.00797609
0.0641636
-0.00832163
0.0655589
-0.00865422
0.066881
-0.00898414
0.0681124
-0.00931014
0.0692418
-0.0096276
0.0702616
-0.00993214
0.0711664
-0.0102194
0.0719524
-0.0104847
0.0726166
-0.0107234
0.0731569
-0.010931
0.0735721
-0.0111032
0.0738617
-0.0112358
0.0740264
-0.0113252
0.0740678
-0.0113681
0.0739888
-0.0113621
0.0737933
-0.0113052
0.0734867
-0.0111965
0.0730754
-0.0110358
0.0725669
-0.0108239
0.0719699
-0.0105627
0.0712939
-0.0102546
0.0705489
-0.00990311
0.0697458
-0.00951234
0.0688954
-0.00908693
0.0680086
-0.00863194
0.0670963
-0.00815267
0.0661688
-0.00765452
0.0652359
-0.00714282
0.0643068
-0.00662272
-0.00609905
0.0633896
0.078972
-0.00575616
0.0790654
-0.00671935
0.0792732
-0.00738729
0.0795685
-0.00789444
0.0799176
-0.00832516
0.0802927
-0.00869681
0.0806608
-0.00902231
0.0809924
-0.00931564
0.0812657
-0.00958345
0.081465
-0.00982689
0.0815782
-0.0100454
0.0815964
-0.0102375
0.081513
-0.0104013
0.0813237
-0.0105341
0.081026
-0.0106333
0.0806188
-0.010696
0.0801029
-0.0107198
0.0794803
-0.0107025
0.0787546
-0.0106425
0.0779311
-0.0105385
0.0770161
-0.0103901
0.0760173
-0.0101977
0.0749438
-0.00996221
0.0738054
-0.00968548
0.0726128
-0.00937002
0.0713773
-0.00901902
0.0701104
-0.00863621
0.0688239
-0.00822576
0.0675291
-0.00779214
0.0662371
-0.00734
0.0649584
-0.00687403
0.0637027
-0.00639885
0.0624787
-0.00591884
0.061294
-0.00543813
-0.00496045
0.0601553
0.0920069
-0.00558563
0.0916891
-0.00640148
0.091344
-0.00704224
0.0909931
-0.00754351
0.0906253
-0.00795726
0.0902316
-0.00830307
0.0898
-0.00859074
0.089316
-0.00883159
0.0887668
-0.00903419
0.0881426
-0.00920268
0.0874362
-0.00933884
0.0866421
-0.00944337
0.085757
-0.00951621
0.0847796
-0.00955672
0.0837103
-0.00956391
0.0825512
-0.00953675
0.0813058
-0.00947434
0.0799794
-0.00937603
0.0785785
-0.00924154
0.0771112
-0.00907107
0.0755864
-0.00886532
0.0740144
-0.00862556
0.0724059
-0.00835365
0.0707724
-0.00805194
0.0691258
-0.00772327
0.0674777
-0.00737089
0.0658399
-0.00699833
0.0642235
-0.00660934
0.0626391
-0.00620774
0.0610965
-0.00579735
0.0596043
-0.00538188
0.0581703
-0.00496484
0.0568009
-0.00454947
0.0555015
-0.00413871
-0.0037351
0.0542761
0.0973309
-0.00504317
0.0966296
-0.00570012
0.0958326
-0.00624524
0.0949677
-0.00667853
0.0940365
-0.00702599
0.0930381
-0.00730458
0.0919708
-0.0075234
0.0908307
-0.00769147
0.0896137
-0.00781711
0.0883171
-0.00790595
0.0869396
-0.00796134
0.0854818
-0.00798548
0.0839455
-0.00797981
0.082334
-0.00794518
0.0806523
-0.00788207
0.0789064
-0.00779076
0.0771037
-0.0076716
0.0752529
-0.00752505
0.0733632
-0.00735179
0.0714451
-0.00715285
0.0695095
-0.00692955
0.0675676
-0.00668358
0.065631
-0.00641698
0.0637113
-0.00613208
0.0618196
-0.00583146
0.0599666
-0.00551787
0.0581625
-0.00519417
0.0564165
-0.00486324
0.0547368
-0.00452793
0.0531304
-0.00419094
0.0516034
-0.00385483
0.0501605
-0.00352192
0.0488054
-0.00319428
0.0475404
-0.0028737
-0.00256168
0.0463669
0.0950118
-0.00416137
0.0939642
-0.00465254
0.0927842
-0.00506512
0.0914963
-0.00539059
0.090111
-0.00564062
0.0886344
-0.00582792
0.0870723
-0.00596118
0.0854291
-0.00604822
0.0837087
-0.00609663
0.0819154
-0.0061125
0.0800542
-0.00610008
0.0781313
-0.00606246
0.0761535
-0.00600193
0.0741286
-0.0059202
0.0720652
-0.00581853
0.0699724
-0.00569792
0.0678602
-0.00555926
0.0657388
-0.00540348
0.0636187
-0.00523157
0.0615106
-0.00504467
0.0594253
-0.00484411
0.0573732
-0.00463137
0.0553645
-0.00440812
0.0534087
-0.00417613
0.0515146
-0.00393728
0.0496903
-0.00369348
0.0479429
-0.00344665
0.0462784
-0.00319863
0.0447017
-0.00295118
0.0432168
-0.00270592
0.0418264
-0.00246431
0.0405321
-0.00222765
0.0393349
-0.00199702
0.0382345
-0.00177331
-0.00155724
0.0372301
0.0851755
-0.00301778
0.0838631
-0.00334002
0.0824029
-0.00360484
0.0808175
-0.00380507
0.0791236
-0.00394665
0.0773348
-0.00403909
0.0754641
-0.0040904
0.0735235
-0.0041075
0.0715239
-0.00409688
0.0694754
-0.00406398
0.0673883
-0.00401286
0.0652724
-0.00394644
0.0631375
-0.0038669
0.0609933
-0.00377584
0.0588493
-0.00367448
0.0567152
-0.00356371
0.0546004
-0.00344429
0.052514
-0.00331694
0.0504649
-0.0031824
0.0484618
-0.00304144
0.0465128
-0.00289493
0.0446253
-0.00274381
0.0428064
-0.00258906
0.0410621
-0.00243175
0.0393979
-0.0022729
0.0378181
-0.00211359
0.0363263
-0.00195479
0.0349253
-0.00179747
0.0336167
-0.00164248
0.0324014
-0.00149059
0.0312796
-0.00134247
0.0302507
-0.00119867
0.0293134
-0.00105962
0.0284658
-0.000925676
-0.000797045
0.0277056
0.0682078
-0.00175296
0.0667843
-0.00191641
0.0652218
-0.00204225
0.0635444
-0.00212761
0.0617748
-0.00217691
0.059933
-0.0021972
0.0580374
-0.00219469
0.0561045
-0.0021744
0.0541484
-0.00214066
0.0521815
-0.00209696
0.0502146
-0.00204584
0.0482573
-0.00198902
0.0463182
-0.00192768
0.0444052
-0.00186265
0.0425253
-0.00179449
0.0406853
-0.00172358
0.0388913
-0.00165022
0.0371492
-0.00157471
0.0354643
-0.00149733
0.0338414
-0.00141842
0.0322849
-0.00133833
0.0307987
-0.00125746
0.029386
-0.00117623
0.0280494
-0.00109507
0.026791
-0.00101438
0.0256122
-0.000934594
0.0245135
-0.000856078
0.0234953
-0.000779174
0.0225571
-0.00070419
0.021698
-0.000631375
0.0209165
-0.000560943
0.0202109
-0.000493044
0.0195792
-0.000427798
0.0190188
-0.000365263
-0.000305472
0.0185273
0.044965
-0.000609779
0.0437024
-0.000653719
0.0423427
-0.000682417
0.0409112
-0.000696034
0.0394318
-0.000697379
0.0379247
-0.000689948
0.0364066
-0.000676455
0.034891
-0.000658774
0.0333888
-0.000638326
0.0319082
-0.000616179
0.0304555
-0.00059303
0.0290359
-0.000569288
0.0276535
-0.000545191
0.0263119
-0.000520883
0.0250139
-0.000496435
0.0237623
-0.000471879
0.0225595
-0.000447234
0.0214074
-0.00042253
0.020308
-0.000397807
0.0192628
-0.000373128
0.0182732
-0.000348565
0.01734
-0.000324205
0.016464
-0.000300133
0.0156455
-0.000276446
0.0148844
-0.000253225
0.0141805
-0.000230554
0.013533
-0.000208501
0.012941
-0.000187132
0.0124034
-0.000166489
0.0119187
-0.000146616
0.0114853
-0.000127533
0.0111016
-0.000109259
0.0107656
-9.17909e-05
0.0104755
-7.5128e-05
-5.92479e-05
0.0102293
0.0168806
0.0162269
0.0155446
0.0148485
0.0141512
0.0134613
0.0127848
0.0121261
0.0114878
0.0108716
0.0102786
0.00970933
0.00916416
0.0086433
0.00814688
0.00767502
0.0072278
0.00680529
0.0064075
0.00603439
0.00568584
0.00536165
0.00506153
0.0047851
0.00453189
0.00430135
0.00409286
0.00390573
0.00373925
0.00359265
0.00346512
0.00335587
0.00326408
0.00318896
0.00312972
0.00100514
-0.000401836
0.001392
-0.000386708
0.00176047
-0.000368325
0.00210787
-0.000347241
0.00243204
-0.000324013
0.00273139
-0.000299183
0.00300481
-0.00027326
0.00325168
-0.000246707
0.00347178
-0.000219936
-0.000193297
0.00366524
0.00436098
-0.0012801
0.0052068
-0.00123218
0.00601392
-0.0011751
0.00677737
-0.00111034
0.0074931
-0.00103937
0.00815795
-0.00096366
0.00876962
-0.00088456
0.00932662
-0.000803333
0.00982816
-0.000721102
-0.000638848
0.0102741
0.00927621
-0.00241746
0.0103688
-0.00232447
0.0114101
-0.00221613
0.0123949
-0.00209488
0.013319
-0.00196317
0.014179
-0.00182338
0.0149725
-0.00167774
0.0156978
-0.00152832
0.016354
-0.00137696
-0.0012253
0.0169408
0.015729
-0.00364327
0.0168991
-0.00349439
0.0180084
-0.00332521
0.0190528
-0.00313909
0.0200293
-0.00293937
0.0209354
-0.00272923
0.0217695
-0.00251164
0.0225308
-0.00228933
0.0232189
-0.00206475
-0.00184
0.0238338
0.0234815
-0.0048273
0.0245994
-0.00461214
0.0256482
-0.00437387
0.0266259
-0.00411667
0.0275313
-0.00384458
0.0283637
-0.00356146
0.0291231
-0.00327084
0.0298099
-0.00297594
0.0304249
-0.00267956
-0.00238411
0.0309692
0.0320622
-0.00586653
0.033027
-0.00557683
0.0339169
-0.00526369
0.0347322
-0.00493194
0.035474
-0.00458621
0.0361434
-0.00423081
0.0367423
-0.00386964
0.0372727
-0.00350616
0.0377366
-0.00314336
-0.00278373
0.0381364
0.0408228
-0.00667399
0.0415525
-0.00630645
0.0422065
-0.00591767
0.0427875
-0.00551293
0.0432985
-0.00509718
0.0437427
-0.00467495
0.0441233
-0.00425026
0.0444438
-0.00382662
0.0447075
-0.00340695
-0.00299361
0.0449174
0.0490215
-0.00717565
0.0494498
-0.00673477
0.0498092
-0.00627711
0.0501043
-0.0058081
0.0503398
-0.00533272
0.0505203
-0.00485543
0.0506501
-0.00438012
0.0507335
-0.00391007
0.0507745
-0.00344793
-0.00299573
0.0507766
0.0559002
-0.00731726
0.0559823
-0.0068169
0.056011
-0.0063059
0.0559923
-0.00578949
0.0559318
-0.00527234
0.0558348
-0.00475856
0.0557062
-0.00425163
0.0555504
-0.00375436
0.0553713
-0.00326894
-0.00279694
0.0551724
0.0607618
-0.00707653
0.0604845
-0.00653967
0.0601775
-0.00599908
0.0598473
-0.00545944
0.0594997
-0.00492486
0.0591398
-0.00439879
0.0587721
-0.00388409
0.0584005
-0.00338294
0.0580284
-0.00289692
-0.00242701
0.0576583
0.0630598
-0.00647397
0.0624503
-0.00593033
0.0618407
-0.00538961
0.0612368
-0.00485566
0.0606435
-0.00433177
0.0600652
-0.00382061
0.0595052
-0.00332422
0.0589662
-0.0028441
0.0584503
-0.00238115
-0.00193574
0.0579589
0.0624917
-0.00557624
0.0616195
-0.00505826
0.0607783
-0.00454855
0.0599725
-0.00405
0.0592055
-0.00356496
0.05848
-0.00309521
0.0577977
-0.00264203
0.0571596
-0.00220618
0.0565663
-0.00178796
-0.00138721
0.0560176
0.0590681
-0.00448911
0.0580367
-0.00402698
0.0570645
-0.00357643
0.0561537
-0.00313937
0.0553059
-0.00271722
0.0545215
-0.00231097
0.0538006
-0.00192119
0.0531423
-0.00154805
0.0525456
-0.00119135
-0.000850581
0.0520088
0.0531277
-0.00334084
0.0520584
-0.0029577
0.051069
-0.0025871
0.0501596
-0.00223007
0.0493296
-0.00188727
0.0485776
-0.00155906
0.0479018
-0.00124549
0.0473
-0.000946322
0.0467696
-0.000661074
-0.000389021
0.046308
0.0452855
-0.00225942
0.0442956
-0.00196784
0.043396
-0.00168759
0.042585
-0.00141905
0.0418601
-0.00116241
0.0412186
-0.000917586
0.0406574
-0.000684352
0.0401733
-0.000462278
0.039763
-0.000250776
-4.90682e-05
0.039423
0.03632
-0.0013493
0.035502
-0.00114985
0.0347735
-0.000959058
0.0341314
-0.000776954
0.0335724
-0.000603429
0.0330931
-0.000438266
0.0326899
-0.000281129
0.0323592
-0.000131585
0.0320975
1.09219e-05
0.000146947
0.0319014
0.0270302
-0.000673872
0.0264366
-0.000556191
0.0259215
-0.000443976
0.0254817
-0.000337111
0.0251137
-0.000235435
0.0248141
-0.000138716
0.0245797
-4.668e-05
0.0244071
4.09976e-05
0.0242934
0.000124638
0.000204659
0.0242358
0.0181018
-0.000248405
0.0177397
-0.000194027
0.017438
-0.000142255
0.0171939
-9.29984e-05
0.0170046
-4.61306e-05
0.0168675
-1.51386e-06
0.0167798
4.10019e-05
0.0167393
8.1575e-05
0.0167435
0.000120408
0.000157714
0.0167905
0.0100251
-4.41336e-05
0.00986082
-2.97497e-05
0.00973466
-1.60685e-05
0.00964474
-3.04736e-06
0.00958929
9.35209e-06
0.00956662
2.11846e-05
0.00957515
3.25007e-05
0.00961341
4.33529e-05
0.00968007
5.37927e-05
6.38903e-05
0.00977394
0.00308559
0.00305584
0.00303978
0.00303673
0.00304609
0.00306728
0.00309979
0.00314315
0.00319694
0.00326084
0.00383247
-0.00016708
0.00397414
-0.00014151
0.00409105
-0.000116756
0.00418413
-9.2928e-05
0.00425437
-7.00863e-05
0.00430276
-4.82436e-05
0.00433028
-2.73746e-05
0.00433784
-7.41587e-06
0.00432628
1.17022e-05
0.00429637
3.00501e-05
0.0042488
4.77087e-05
0.00418416
6.47847e-05
0.00410291
8.13897e-05
0.00400543
9.76286e-05
0.00389198
0.000113593
0.00376278
0.000129353
0.00361798
0.000144959
0.00345771
0.000160426
0.00328213
0.000175735
0.00309148
0.000190821
0.00288608
0.000205567
0.00266645
0.000219794
0.00243336
0.000233251
0.00218791
0.000245606
0.00193161
0.000256448
0.00166647
0.000265283
0.00139506
0.000271547
0.00112061
0.000274596
0.000847217
0.00027354
0.000580713
0.000266658
0.00033095
0.00024993
0.000116553
0.000214528
-2.86669e-05
0.000145423
-6.19564e-05
3.34327e-05
-6.19242e-05
0.0106648
-0.000557389
0.011001
-0.000477387
0.0112839
-0.000399341
0.011515
-0.000323604
0.0116956
-0.000250385
0.0118275
-0.000179765
0.0119122
-0.00011171
0.0119512
-4.60902e-05
0.0119459
1.72996e-05
0.0118976
7.87022e-05
0.0118073
0.000138369
0.0116758
0.000196618
0.0115038
0.000253801
0.0112915
0.000310268
0.0110391
0.000366346
0.0107465
0.000422326
0.0104134
0.000478434
0.0100394
0.000534826
0.00962399
0.000591548
0.0091667
0.000648528
0.00866715
0.000705526
0.00812524
0.000762118
0.00754127
0.000817635
0.00691613
0.000871136
0.00625161
0.000921349
0.00555062
0.000966642
0.00481755
0.00100497
0.00405874
0.00103379
0.00328313
0.00104955
0.00250402
0.0010462
0.00174291
0.00101142
0.00103798
0.000919919
0.000455846
0.000727858
9.25027e-05
0.000397328
3.06572e-05
0.0174584
-0.00107467
0.0179075
-0.000926202
0.0182892
-0.000780729
0.0186048
-0.000638854
0.0188557
-0.000500941
0.0190433
-0.000367139
0.0191693
-0.000237397
0.019235
-0.000111488
0.0192417
1.09531e-05
0.0191903
0.000130376
0.0190818
0.000247267
0.0189165
0.000362247
0.0186946
0.000476008
0.0184159
0.000589262
0.0180799
0.000702709
0.0176856
0.000817006
0.0172316
0.000932739
0.0167165
0.00105038
0.0161382
0.00117027
0.0154946
0.00129253
0.0147835
0.00141703
0.0140027
0.00154332
0.0131502
0.00167053
0.0122246
0.00179726
0.0112249
0.00192147
0.0101516
0.0020403
0.0090071
0.00214993
0.00779611
0.00224524
0.00652706
0.00231909
0.00521374
0.00236001
0.00387935
0.0023463
0.00256642
0.00223323
0.00135984
0.00193528
0.000423284
0.00133433
0.000454023
0.0243762
-0.00161683
0.024847
-0.00139668
0.0252472
-0.00118061
0.025578
-0.00096938
0.0258407
-0.000763402
0.0260366
-0.000562813
0.026167
-0.000367473
0.0262328
-0.000176997
0.0262348
9.19124e-06
0.0261736
0.000191813
0.0260495
0.000371698
0.0258622
0.000549858
0.0256111
0.000727412
0.0252951
0.000905539
0.0249127
0.00108543
0.0244617
0.00126829
0.0239396
0.00145523
0.023343
0.00164729
0.0226683
0.00184538
0.0219111
0.00205016
0.0210665
0.00226205
0.0201292
0.00248104
0.0190935
0.00270664
0.0179535
0.00293767
0.0167034
0.00317204
0.0153377
0.00340649
0.0138519
0.00363617
0.0122435
0.00385414
0.0105129
0.00405024
0.00866504
0.00420844
0.00671295
0.00429891
0.00468945
0.00425745
0.00268381
0.00394124
0.000942
0.00307733
0.00139624
0.0314442
-0.00209155
0.0318511
-0.00180343
0.0321916
-0.00152088
0.0324671
-0.00124461
0.0326788
-0.000974968
0.0328282
-0.000711929
0.0329161
-0.00045515
0.0329433
-0.000203986
0.0329102
4.24346e-05
0.0328171
0.000285188
0.0326634
0.000525582
0.0324484
0.000765119
0.0321706
0.00100543
0.0318281
0.00124827
0.0314184
0.00149544
0.0309381
0.0017488
0.0303834
0.00201024
0.0297495
0.00228157
0.0290306
0.00256458
0.0282202
0.00286089
0.0273107
0.00317194
0.0262932
0.00349886
0.0251579
0.00384236
0.0238934
0.00420256
0.0224872
0.00457871
0.0209252
0.00496887
0.0191925
0.00536933
0.0172733
0.00577387
0.0151518
0.00617238
0.0128131
0.00654774
0.0102461
0.00686661
0.00745434
0.00704969
0.00450736
0.00689008
0.00171499
0.00587101
0.00311149
0.0384742
-0.00242923
0.0387522
-0.00208133
0.0389725
-0.00174104
0.0391369
-0.00140888
0.0392471
-0.00108495
0.0393042
-0.000768948
0.0393094
-0.000460207
0.0392634
-0.000157737
0.0391662
0.000139744
0.0390178
0.000433768
0.0388173
0.00072621
0.0385635
0.00101913
0.0382543
0.00131474
0.0378874
0.00161544
0.0374592
0.00192376
0.0369659
0.00224234
0.0364024
0.00257396
0.0357628
0.00292145
0.0350399
0.00328771
0.0342253
0.0036757
0.0333092
0.00408835
0.0322798
0.00452861
0.0311232
0.00499929
0.029823
0.00550306
0.0283598
0.00604227
0.0267104
0.00661867
0.0248472
0.00723303
0.0227372
0.00788439
0.0203414
0.0085687
0.0176141
0.00927568
0.0145023
0.00997898
0.0109539
0.0105994
0.00696866
0.010876
0.00285969
0.00998205
0.00597156
0.0450766
-0.00258838
0.0451878
-0.00219251
0.0452536
-0.00180669
0.0452759
-0.00143114
0.0452566
-0.0010656
0.0451971
-0.000709396
0.0450984
-0.000361439
0.0449611
-2.03562e-05
0.0447853
0.00031561
0.0445706
0.000648597
0.0443159
0.000980996
0.0440197
0.00131542
0.0436798
0.00165472
0.0432934
0.00200196
0.0428568
0.00236043
0.0423656
0.00273364
0.0418144
0.00312531
0.0411966
0.00353941
0.0405043
0.00398014
0.0397282
0.00445199
0.0388569
0.00495977
0.037877
0.00550869
0.0367721
0.00610443
0.0355221
0.00675326
0.0341024
0.00746222
0.032482
0.00823924
0.030622
0.00909331
0.0284723
0.0100345
0.0259678
0.0110736
0.0230235
0.0122204
0.0195273
0.0134758
0.0153332
0.0147937
0.0102955
0.015916
0.00457827
0.0157011
0.0105502
0.0507431
-0.00255492
0.0506769
-0.00212636
0.0505806
-0.00171034
0.0504561
-0.00130669
0.0503053
-0.000914715
0.0501292
-0.000533321
0.0499288
-0.000161024
0.0497044
0.000204063
0.0494558
0.000564203
0.0491824
0.000921995
0.0488831
0.00128031
0.0485563
0.0016423
0.0481996
0.0020114
0.0478103
0.00239133
0.0473846
0.0027861
0.0469182
0.00320005
0.0464058
0.00363785
0.0458406
0.00410458
0.0452151
0.00460575
0.0445197
0.00514745
0.0437431
0.00573645
0.0428714
0.00638041
0.0418877
0.00708817
0.0407709
0.00787014
0.0394943
0.00873898
0.0380232
0.00971036
0.0363123
0.0108044
0.0342997
0.0120472
0.0318996
0.0134739
0.0289895
0.0151308
0.0253883
0.0170771
0.0208215
0.0193614
0.0148781
0.0218599
0.00724814
0.0233322
0.0177984
0.0549568
-0.00233931
0.0547268
-0.00189643
0.0544845
-0.00146817
0.0542316
-0.00105388
0.0539693
-0.000652463
0.0536984
-0.000262414
0.0534191
0.000118195
0.0531314
0.000491686
0.0528349
0.00086073
0.0525286
0.00122828
0.0522112
0.00159761
0.0518812
0.00197233
0.0515362
0.00235634
0.0511736
0.00275394
0.0507899
0.00316974
0.0503811
0.00360879
0.0499423
0.0040766
0.0494677
0.00457923
0.04895
0.00512336
0.0483809
0.00571651
0.0477501
0.00636722
0.0470451
0.00708541
0.0462504
0.00788279
0.0453468
0.00877369
0.0443096
0.00977604
0.0431067
0.0109132
0.0416945
0.0122165
0.0400118
0.0137299
0.0379687
0.0155168
0.0354266
0.0176728
0.032158
0.0203454
0.0277599
0.0237586
0.0214455
0.0281742
0.011754
0.033023
0.029552
0.0572925
-0.00197362
0.0569326
-0.00153664
0.0565798
-0.00111547
0.0562349
-0.000709049
0.0558982
-0.000315904
0.0555699
6.58663e-05
0.0552494
0.000438546
0.0549363
0.00080473
0.0546296
0.00116732
0.0543283
0.00152954
0.0540309
0.00189496
0.0537357
0.00226749
0.0534406
0.00265141
0.0531431
0.00305137
0.0528403
0.00347246
0.0525287
0.00392026
0.0522044
0.00440089
0.0518624
0.00492115
0.051497
0.00548863
0.0511015
0.00611193
0.0506676
0.00680095
0.0501857
0.00756722
0.0496437
0.00842462
0.049027
0.00939017
0.0483173
0.0104855
0.047491
0.0117392
0.0465168
0.0131904
0.0453512
0.0148951
0.0439296
0.0169381
0.0421472
0.0194545
0.0398152
0.0226763
0.0365434
0.0270293
0.0313721
0.0333436
0.0217581
0.0426354