/*--------------------------------*- C++ -*----------------------------------*\
| =========                 |                                                 |
| \\      /  F ield         | OpenFOAM: The Open Source CFD Toolbox           |
|  \\    /   O peration     | Version:  2406                                  |
|   \\  /    A nd           | Website:  www.openfoam.com                      |
|    \\/     M anipulation  |                                                 |
\*---------------------------------------------------------------------------*/
FoamFile
{
    version     2.0;
    format      ascii;
    arch        "LSB;label=32;scalar=64";
    class       volVectorField;
    location    "51";
    object      U;
}
// * * * * * * * * * * * * * * * * * * * * * * * * * * * * * * * * * * * * * //

dimensions      [0 1 -1 0 0 0 0];

internalField   nonuniform List<vector> 
1800
(
(0.190116 -0.0023279 0)
(0.19618 -0.00293452 0)
(0.201804 -0.00223303 0)
(0.206526 -0.00185978 0)
(0.211338 -0.00189299 0)
(0.216816 -0.00217428 0)
(0.22338 -0.00276842 0)
(0.231619 -0.00394195 0)
(0.243485 -0.00707644 0)
(0.255773 -0.0244551 0)
(0.506642 -0.0034036 0)
(0.507988 -0.00674624 0)
(0.511336 -0.00759046 0)
(0.515202 -0.00802857 0)
(0.520284 -0.00890145 0)
(0.526938 -0.0103642 0)
(0.535261 -0.0126667 0)
(0.545477 -0.0163947 0)
(0.558127 -0.0225013 0)
(0.570848 -0.0346793 0)
(0.74745 -0.00252307 0)
(0.748252 -0.00624231 0)
(0.749967 -0.00872738 0)
(0.751647 -0.0109257 0)
(0.754397 -0.0134411 0)
(0.758668 -0.0165262 0)
(0.764312 -0.0204975 0)
(0.771101 -0.025908 0)
(0.778698 -0.0334906 0)
(0.785765 -0.0445281 0)
(0.907842 -0.00211634 0)
(0.908513 -0.00593065 0)
(0.909547 -0.00923067 0)
(0.909895 -0.0124202 0)
(0.91065 -0.0159156 0)
(0.912315 -0.0199735 0)
(0.914677 -0.0248522 0)
(0.917375 -0.0308921 0)
(0.919986 -0.0384102 0)
(0.92175 -0.0475852 0)
(0.987961 -0.00184907 0)
(0.988365 -0.00541883 0)
(0.988761 -0.00887815 0)
(0.987979 -0.0124203 0)
(0.987026 -0.0162729 0)
(0.986398 -0.0206212 0)
(0.985852 -0.0256414 0)
(0.985006 -0.0315057 0)
(0.983494 -0.0383061 0)
(0.980849 -0.0459582 0)
(0.987918 -0.00146213 0)
(0.987978 -0.00442777 0)
(0.987663 -0.0076016 0)
(0.985769 -0.0110351 0)
(0.98328 -0.0147578 0)
(0.980663 -0.0188632 0)
(0.977654 -0.0234647 0)
(0.973879 -0.0286343 0)
(0.969043 -0.0343607 0)
(0.962844 -0.0405052 0)
(0.907715 -0.000835655 0)
(0.907375 -0.00284893 0)
(0.906325 -0.00544177 0)
(0.903411 -0.0084202 0)
(0.899658 -0.0116169 0)
(0.895475 -0.0150677 0)
(0.890566 -0.0188478 0)
(0.884576 -0.0229665 0)
(0.877269 -0.0273645 0)
(0.868441 -0.0319099 0)
(0.747249 0.000249572 0)
(0.746454 -0.000495051 0)
(0.744896 -0.00245676 0)
(0.74146 -0.00484665 0)
(0.737148 -0.00729159 0)
(0.732244 -0.00983631 0)
(0.726406 -0.0125451 0)
(0.719304 -0.0153896 0)
(0.710752 -0.0182989 0)
(0.700618 -0.0211781 0)
(0.506411 0.00198076 0)
(0.505837 0.00264056 0)
(0.505239 0.000959413 0)
(0.502994 -0.00109858 0)
(0.499739 -0.00289125 0)
(0.495627 -0.00452003 0)
(0.490389 -0.00608545 0)
(0.483819 -0.00758175 0)
(0.475848 -0.00898418 0)
(0.466461 -0.0102678 0)
(0.189907 0.00181318 0)
(0.194468 0.00175941 0)
(0.197058 0.000613963 0)
(0.197275 -0.000141943 0)
(0.196174 -0.000545397 0)
(0.194169 -0.000844855 0)
(0.191284 -0.00110365 0)
(0.187545 -0.00131245 0)
(0.183027 -0.00147409 0)
(0.17781 -0.00159776 0)
(-8.57292e-05 7.19761e-05 0)
(-0.00169043 0.000501422 0)
(-0.00466759 0.000767072 0)
(-0.00834035 0.000852344 0)
(-0.0121501 0.000860253 0)
(-0.0158647 0.000841356 0)
(-0.0194052 0.000815797 0)
(-0.022747 0.000789495 0)
(-0.0258804 0.000762396 0)
(-0.0287964 0.000732774 0)
(-0.0314824 0.000698997 0)
(-0.0339216 0.000659792 0)
(-0.0360943 0.000614266 0)
(-0.0379782 0.000561683 0)
(-0.0395495 0.00050154 0)
(-0.0407839 0.000433556 0)
(-0.0416576 0.000357628 0)
(-0.0421484 0.000273901 0)
(-0.0422369 0.000183095 0)
(-0.0419075 8.64625e-05 0)
(-0.041151 -1.47145e-05 0)
(-0.0399638 -0.000118807 0)
(-0.0383491 -0.000223995 0)
(-0.0363175 -0.000328219 0)
(-0.0338871 -0.000429341 0)
(-0.0310836 -0.000525141 0)
(-0.0279397 -0.000613514 0)
(-0.0244945 -0.000692426 0)
(-0.0207922 -0.000760097 0)
(-0.0168813 -0.000815054 0)
(-0.0128134 -0.000856551 0)
(-0.00864084 -0.00088431 0)
(-0.00441624 -0.000897882 0)
(-0.000191473 -0.000897002 0)
(0.00398517 -0.000882489 0)
(-0.000664014 0.00178964 0)
(-0.0054236 0.00482116 0)
(-0.0126827 0.0066093 0)
(-0.0211185 0.00725891 0)
(-0.0296702 0.0072741 0)
(-0.0378755 0.0070054 0)
(-0.0455461 0.00662751 0)
(-0.0526066 0.0062095 0)
(-0.0590255 0.0057704 0)
(-0.0647836 0.00531011 0)
(-0.0698617 0.00482321 0)
(-0.0742364 0.00430398 0)
(-0.0778802 0.00374766 0)
(-0.0807629 0.00315095 0)
(-0.0828525 0.00251217 0)
(-0.0841184 0.00183155 0)
(-0.0845326 0.00111118 0)
(-0.0840726 0.000355881 0)
(-0.0827238 -0.000427304 0)
(-0.0804817 -0.00122926 0)
(-0.0773509 -0.00203909 0)
(-0.0733485 -0.00284483 0)
(-0.0685039 -0.00363344 0)
(-0.0628591 -0.00439134 0)
(-0.0564686 -0.0051049 0)
(-0.0493983 -0.00576119 0)
(-0.0417243 -0.00634856 0)
(-0.0335313 -0.00685694 0)
(-0.0249106 -0.00727839 0)
(-0.015958 -0.00760713 0)
(-0.00677276 -0.00783915 0)
(0.00254431 -0.00797324 0)
(0.0118974 -0.00801143 0)
(0.0211956 -0.00795808 0)
(0.0303511 -0.00781877 0)
(-0.00119923 0.00556686 0)
(-0.00864214 0.012601 0)
(-0.0189624 0.016256 0)
(-0.030345 0.0174107 0)
(-0.0414744 0.0171768 0)
(-0.0518288 0.0162916 0)
(-0.061198 0.015137 0)
(-0.0695016 0.0138778 0)
(-0.0767161 0.0125698 0)
(-0.0828379 0.0112231 0)
(-0.0878658 0.00983199 0)
(-0.0917959 0.00838741 0)
(-0.0946204 0.00688148 0)
(-0.0963285 0.00530916 0)
(-0.096909 0.00366935 0)
(-0.0963528 0.00196559 0)
(-0.0946554 0.000206455 0)
(-0.0918218 -0.00159514 0)
(-0.087867 -0.00342197 0)
(-0.0828151 -0.00525335 0)
(-0.0767026 -0.00706643 0)
(-0.0695778 -0.00883641 0)
(-0.0615012 -0.0105372 0)
(-0.0525454 -0.0121423 0)
(-0.0427936 -0.0136266 0)
(-0.032339 -0.0149669 0)
(-0.021283 -0.0161428 0)
(-0.00973312 -0.0171373 0)
(0.00219733 -0.0179373 0)
(0.0143949 -0.0185343 0)
(0.0267484 -0.0189258 0)
(0.0391476 -0.0191131 0)
(0.0514866 -0.0191019 0)
(0.0636648 -0.0189027 0)
(0.0755882 -0.0185284 0)
(-0.00160235 0.0109818 0)
(-0.0108607 0.02288 0)
(-0.0227739 0.0282619 0)
(-0.0351563 0.0294752 0)
(-0.046621 0.0284808 0)
(-0.056731 0.0264694 0)
(-0.065354 0.0240491 0)
(-0.0724717 0.0214867 0)
(-0.0781132 0.0188783 0)
(-0.082321 0.0162448 0)
(-0.085136 0.0135803 0)
(-0.0865929 0.0108717 0)
(-0.0867206 0.0081075 0)
(-0.0855437 0.0052811 0)
(-0.0830855 0.00239268 0)
(-0.0793705 -0.000549039 0)
(-0.0744351 -0.00352928 0)
(-0.0683185 -0.00652538 0)
(-0.0610682 -0.00950976 0)
(-0.0527418 -0.0124507 0)
(-0.0434068 -0.0153142 0)
(-0.0331405 -0.0180647 0)
(-0.0220287 -0.0206654 0)
(-0.0101667 -0.02308 0)
(0.00234216 -0.025274 0)
(0.0153888 -0.0272166 0)
(0.0288622 -0.0288828 0)
(0.0426484 -0.0302528 0)
(0.0566332 -0.0313125 0)
(0.0707052 -0.0320546 0)
(0.0847556 -0.0324793 0)
(0.09868 -0.0325921 0)
(0.112381 -0.0324043 0)
(0.125769 -0.0319329 0)
(0.138762 -0.0311991 0)
(-0.00191838 0.0174201 0)
(-0.0120222 0.0342357 0)
(-0.0237539 0.0406252 0)
(-0.0348718 0.0410823 0)
(-0.0442134 0.0386307 0)
(-0.051595 0.0349312 0)
(-0.0570601 0.0307919 0)
(-0.0607099 0.0265574 0)
(-0.0626583 0.022346 0)
(-0.0630112 0.0181786 0)
(-0.0618595 0.0140417 0)
(-0.0592801 0.00991409 0)
(-0.0553398 0.00577852 0)
(-0.0500983 0.00162611 0)
(-0.0436141 -0.00254278 0)
(-0.0359523 -0.00671773 0)
(-0.0271761 -0.0108763 0)
(-0.0173558 -0.0149902 0)
(-0.00656705 -0.0190246 0)
(0.00510632 -0.0229401 0)
(0.0175715 -0.0266937 0)
(0.0307315 -0.0302413 0)
(0.0444839 -0.033539 0)
(0.0587215 -0.0365445 0)
(0.0733339 -0.0392193 0)
(0.0882097 -0.0415302 0)
(0.103238 -0.043451 0)
(0.118308 -0.0449626 0)
(0.133315 -0.0460532 0)
(0.148158 -0.0467196 0)
(0.162742 -0.046967 0)
(0.176981 -0.046808 0)
(0.190797 -0.0462621 0)
(0.204119 -0.0453549 0)
(0.216887 -0.0441166 0)
(-0.00219351 0.0244049 0)
(-0.0121171 0.0451642 0)
(-0.0214505 0.0511303 0)
(-0.0285641 0.0497119 0)
(-0.0330205 0.0450678 0)
(-0.0350964 0.0392218 0)
(-0.0350814 0.0330865 0)
(-0.0332168 0.0270224 0)
(-0.0296985 0.0211311 0)
(-0.0246818 0.0154105 0)
(-0.0182918 0.00982731 0)
(-0.0106295 0.0043438 0)
(-0.00178514 -0.0010692 0)
(0.00815832 -0.00642771 0)
(0.0191146 -0.0117294 0)
(0.0310004 -0.0169593 0)
(0.04373 -0.0220924 0)
(0.057213 -0.0270953 0)
(0.0713547 -0.0319277 0)
(0.0860559 -0.0365454 0)
(0.101213 -0.0409005 0)
(0.116721 -0.0449438 0)
(0.132471 -0.0486279 0)
(0.148356 -0.0519087 0)
(0.164267 -0.0547476 0)
(0.180101 -0.0571128 0)
(0.195757 -0.0589805 0)
(0.211139 -0.0603363 0)
(0.22616 -0.0611747 0)
(0.24074 -0.0614998 0)
(0.254806 -0.0613249 0)
(0.268297 -0.0606715 0)
(0.281161 -0.0595687 0)
(0.293354 -0.0580516 0)
(0.304843 -0.0561603 0)
(-0.00242424 0.0318183 0)
(-0.0106554 0.0539025 0)
(-0.0143992 0.0569882 0)
(-0.0139553 0.0524042 0)
(-0.0103639 0.0450629 0)
(-0.0045078 0.0369589 0)
(0.00311467 0.0289115 0)
(0.012181 0.0212 0)
(0.0224744 0.0138584 0)
(0.0338467 0.00683678 0)
(0.0461786 6.80816e-05 0)
(0.0593888 -0.0065037 0)
(0.0733895 -0.0129144 0)
(0.0880896 -0.0191797 0)
(0.1034 -0.0252974 0)
(0.119232 -0.0312501 0)
(0.13549 -0.0370102 0)
(0.15208 -0.0425409 0)
(0.168901 -0.047799 0)
(0.185855 -0.0527367 0)
(0.202838 -0.0573043 0)
(0.219751 -0.0614523 0)
(0.236493 -0.0651342 0)
(0.252968 -0.0683084 0)
(0.269083 -0.0709397 0)
(0.284754 -0.0730017 0)
(0.299903 -0.0744774 0)
(0.314458 -0.0753596 0)
(0.32836 -0.075652 0)
(0.341557 -0.075368 0)
(0.35401 -0.0745308 0)
(0.365688 -0.0731722 0)
(0.376571 -0.0713313 0)
(0.386647 -0.069053 0)
(0.395917 -0.0663868 0)
(-0.00243272 0.0395952 0)
(-0.00507633 0.0574967 0)
(0.00225111 0.0541599 0)
(0.0150478 0.0455319 0)
(0.0300851 0.0357249 0)
(0.0461669 0.0259133 0)
(0.0629127 0.0165839 0)
(0.0801256 0.00785081 0)
(0.0977028 -0.000358785 0)
(0.115608 -0.00814612 0)
(0.133807 -0.0155928 0)
(0.152243 -0.022756 0)
(0.170858 -0.0296708 0)
(0.189591 -0.0363512 0)
(0.208371 -0.0427937 0)
(0.227125 -0.0489796 0)
(0.245774 -0.054879 0)
(0.264235 -0.060453 0)
(0.282422 -0.0656571 0)
(0.300252 -0.0704435 0)
(0.317639 -0.0747636 0)
(0.334503 -0.0785707 0)
(0.350768 -0.0818224 0)
(0.366362 -0.0844825 0)
(0.381223 -0.086523 0)
(0.395296 -0.0879255 0)
(0.408537 -0.0886822 0)
(0.42091 -0.0887961 0)
(0.432392 -0.0882808 0)
(0.44297 -0.0871607 0)
(0.452639 -0.0854693 0)
(0.461408 -0.0832486 0)
(0.46929 -0.080547 0)
(0.476311 -0.0774184 0)
(0.4825 -0.0739198 0)
(0.0027651 0.039507 0)
(0.015816 0.0471307 0)
(0.0427234 0.0363925 0)
(0.0728108 0.025004 0)
(0.101376 0.0144846 0)
(0.1282 0.00453435 0)
(0.153803 -0.00477389 0)
(0.178448 -0.0134183 0)
(0.202279 -0.0215105 0)
(0.225409 -0.0291758 0)
(0.247931 -0.0364917 0)
(0.269891 -0.0434994 0)
(0.291305 -0.0502202 0)
(0.312161 -0.0566584 0)
(0.332437 -0.0628021 0)
(0.352094 -0.0686262 0)
(0.371085 -0.0740952 0)
(0.389358 -0.0791673 0)
(0.406858 -0.0837968 0)
(0.423529 -0.0879369 0)
(0.43932 -0.0915421 0)
(0.454182 -0.0945704 0)
(0.468074 -0.0969859 0)
(0.480962 -0.0987602 0)
(0.492823 -0.0998744 0)
(0.503641 -0.10032 0)
(0.513413 -0.1001 0)
(0.522145 -0.0992272 0)
(0.529855 -0.0977268 0)
(0.53657 -0.0956331 0)
(0.542325 -0.0929893 0)
(0.547165 -0.0898457 0)
(0.55114 -0.0862585 0)
(0.554305 -0.0822877 0)
(0.556721 -0.077995 0)
(0.0559264 0.0052923 0)
(0.0968121 0.0033516 0)
(0.142635 -0.00479989 0)
(0.186421 -0.0125619 0)
(0.224054 -0.0196115 0)
(0.25703 -0.0266419 0)
(0.287065 -0.0336984 0)
(0.314928 -0.0406104 0)
(0.340984 -0.0473104 0)
(0.365507 -0.0537984 0)
(0.388704 -0.0600749 0)
(0.410702 -0.0661276 0)
(0.431569 -0.0719372 0)
(0.451338 -0.0774782 0)
(0.470023 -0.0827181 0)
(0.487619 -0.0876175 0)
(0.504113 -0.0921321 0)
(0.519483 -0.0962148 0)
(0.533706 -0.0998186 0)
(0.546762 -0.102898 0)
(0.558634 -0.105411 0)
(0.569311 -0.107322 0)
(0.57879 -0.108603 0)
(0.587078 -0.109235 0)
(0.594191 -0.109209 0)
(0.600157 -0.108526 0)
(0.605012 -0.1072 0)
(0.608804 -0.105255 0)
(0.611589 -0.102724 0)
(0.613431 -0.0996518 0)
(0.614403 -0.0960874 0)
(0.614578 -0.0920876 0)
(0.614038 -0.0877127 0)
(0.612861 -0.0830255 0)
(0.611129 -0.078089 0)
(0.297911 -0.0513493 0)
(0.320895 -0.0530579 0)
(0.348069 -0.0520836 0)
(0.379442 -0.0529449 0)
(0.409304 -0.0552784 0)
(0.4365 -0.0586641 0)
(0.461668 -0.0627966 0)
(0.485142 -0.0673618 0)
(0.507 -0.0721219 0)
(0.527327 -0.0769331 0)
(0.546228 -0.0817038 0)
(0.563774 -0.0863621 0)
(0.580002 -0.090846 0)
(0.594931 -0.095099 0)
(0.608566 -0.0990676 0)
(0.620909 -0.102699 0)
(0.631957 -0.105942 0)
(0.641705 -0.108746 0)
(0.650153 -0.111065 0)
(0.657303 -0.112857 0)
(0.66317 -0.114087 0)
(0.667773 -0.114726 0)
(0.671143 -0.114756 0)
(0.673323 -0.114167 0)
(0.674365 -0.112962 0)
(0.674331 -0.111152 0)
(0.673294 -0.108761 0)
(0.671336 -0.105821 0)
(0.668544 -0.102373 0)
(0.665011 -0.0984669 0)
(0.660833 -0.094157 0)
(0.656109 -0.0895018 0)
(0.650935 -0.0845624 0)
(0.645406 -0.0794 0)
(0.639611 -0.0740748 0)
(0.580586 -0.0530497 0)
(0.585207 -0.0639149 0)
(0.592977 -0.0690966 0)
(0.605569 -0.0726812 0)
(0.620027 -0.0759504 0)
(0.634556 -0.0791503 0)
(0.648744 -0.0824468 0)
(0.662377 -0.0858948 0)
(0.6752 -0.0894375 0)
(0.687036 -0.0929921 0)
(0.697798 -0.0964873 0)
(0.707433 -0.0998603 0)
(0.715897 -0.103052 0)
(0.723156 -0.106005 0)
(0.729183 -0.108664 0)
(0.733963 -0.11098 0)
(0.737488 -0.112904 0)
(0.739757 -0.114391 0)
(0.740783 -0.115403 0)
(0.740586 -0.115906 0)
(0.739202 -0.115876 0)
(0.736676 -0.115296 0)
(0.733068 -0.114157 0)
(0.728448 -0.112463 0)
(0.722898 -0.110225 0)
(0.716507 -0.107466 0)
(0.709376 -0.104217 0)
(0.701608 -0.100518 0)
(0.693312 -0.0964132 0)
(0.684598 -0.0919555 0)
(0.675575 -0.0871997 0)
(0.66635 -0.0822026 0)
(0.657024 -0.0770214 0)
(0.647692 -0.0717121 0)
(0.638441 -0.0663281 0)
(0.789951 -0.0576954 0)
(0.790861 -0.0677288 0)
(0.791524 -0.0742615 0)
(0.793817 -0.0791943 0)
(0.797269 -0.083433 0)
(0.801058 -0.0871643 0)
(0.804826 -0.0905337 0)
(0.808368 -0.0936775 0)
(0.811448 -0.0966474 0)
(0.813855 -0.0994393 0)
(0.815445 -0.102033 0)
(0.816121 -0.104404 0)
(0.815809 -0.10652 0)
(0.814455 -0.108346 0)
(0.812025 -0.109845 0)
(0.808502 -0.11098 0)
(0.803883 -0.111717 0)
(0.798184 -0.112028 0)
(0.791432 -0.111886 0)
(0.783672 -0.111273 0)
(0.774961 -0.110178 0)
(0.76537 -0.108596 0)
(0.754985 -0.106534 0)
(0.743899 -0.104004 0)
(0.732216 -0.101029 0)
(0.720046 -0.0976383 0)
(0.707504 -0.0938691 0)
(0.694707 -0.0897639 0)
(0.681772 -0.0853694 0)
(0.668811 -0.0807353 0)
(0.655932 -0.0759126 0)
(0.643237 -0.0709524 0)
(0.630817 -0.065904 0)
(0.618755 -0.0608146 0)
(0.607123 -0.0557273 0)
(0.921545 -0.0575874 0)
(0.91903 -0.0663432 0)
(0.915347 -0.0730719 0)
(0.911653 -0.0783632 0)
(0.908096 -0.0827761 0)
(0.90437 -0.0865138 0)
(0.900277 -0.0896959 0)
(0.89572 -0.0924463 0)
(0.890584 -0.0948477 0)
(0.884746 -0.0969355 0)
(0.878111 -0.0987201 0)
(0.870618 -0.100201 0)
(0.862227 -0.101369 0)
(0.852917 -0.10221 0)
(0.842681 -0.102704 0)
(0.831532 -0.102835 0)
(0.819499 -0.102586 0)
(0.806626 -0.101942 0)
(0.792971 -0.100896 0)
(0.778609 -0.0994419 0)
(0.763624 -0.0975835 0)
(0.748113 -0.0953291 0)
(0.732181 -0.0926944 0)
(0.715942 -0.0897015 0)
(0.699511 -0.0863786 0)
(0.683008 -0.0827592 0)
(0.666549 -0.0788811 0)
(0.650251 -0.0747849 0)
(0.634221 -0.0705135 0)
(0.618563 -0.0661101 0)
(0.603368 -0.0616175 0)
(0.588719 -0.0570769 0)
(0.574687 -0.0525269 0)
(0.561331 -0.0480029 0)
(0.548698 -0.0435365 0)
(0.97651 -0.0539558 0)
(0.970274 -0.061294 0)
(0.962615 -0.0673252 0)
(0.954167 -0.0721454 0)
(0.945164 -0.0760711 0)
(0.935542 -0.0792856 0)
(0.925227 -0.0818915 0)
(0.914195 -0.0839878 0)
(0.902418 -0.0856583 0)
(0.889858 -0.0869556 0)
(0.87649 -0.087908 0)
(0.86231 -0.0885311 0)
(0.847332 -0.0888326 0)
(0.831583 -0.0888146 0)
(0.815103 -0.0884758 0)
(0.797949 -0.0878138 0)
(0.780187 -0.0868272 0)
(0.761897 -0.0855166 0)
(0.743169 -0.0838856 0)
(0.724104 -0.0819417 0)
(0.704806 -0.0796966 0)
(0.685389 -0.0771669 0)
(0.665968 -0.0743732 0)
(0.646657 -0.0713407 0)
(0.627572 -0.0680978 0)
(0.608822 -0.0646759 0)
(0.590513 -0.0611079 0)
(0.57274 -0.057428 0)
(0.555592 -0.05367 0)
(0.539145 -0.0498672 0)
(0.523464 -0.046051 0)
(0.508604 -0.0422506 0)
(0.494606 -0.0384923 0)
(0.481501 -0.0347995 0)
(0.469306 -0.0311919 0)
(0.954977 -0.0467242 0)
(0.945324 -0.0524647 0)
(0.934102 -0.0572974 0)
(0.921673 -0.0611669 0)
(0.908266 -0.0642235 0)
(0.893948 -0.0666022 0)
(0.878747 -0.0683927 0)
(0.862709 -0.069679 0)
(0.84588 -0.0705399 0)
(0.828301 -0.0710356 0)
(0.810015 -0.0712066 0)
(0.791077 -0.0710813 0)
(0.771555 -0.07068 0)
(0.751521 -0.0700178 0)
(0.731057 -0.0691055 0)
(0.710253 -0.0679519 0)
(0.689204 -0.0665654 0)
(0.668009 -0.0649547 0)
(0.646774 -0.06313 0)
(0.625607 -0.0611037 0)
(0.604613 -0.0588904 0)
(0.583899 -0.0565075 0)
(0.56357 -0.0539744 0)
(0.543724 -0.0513128 0)
(0.524453 -0.0485458 0)
(0.505842 -0.0456972 0)
(0.487967 -0.0427914 0)
(0.470894 -0.039852 0)
(0.454677 -0.0369021 0)
(0.43936 -0.033963 0)
(0.424977 -0.0310543 0)
(0.411551 -0.0281935 0)
(0.399093 -0.0253958 0)
(0.387606 -0.0226739 0)
(0.377085 -0.0200379 0)
(0.857913 -0.0363718 0)
(0.845624 -0.0404315 0)
(0.831705 -0.0438226 0)
(0.816409 -0.0464664 0)
(0.799961 -0.0484319 0)
(0.782515 -0.0498184 0)
(0.76419 -0.0507092 0)
(0.745106 -0.0511807 0)
(0.725377 -0.0513052 0)
(0.705111 -0.0511428 0)
(0.684409 -0.0507381 0)
(0.663368 -0.0501241 0)
(0.642089 -0.0493262 0)
(0.620669 -0.0483634 0)
(0.599204 -0.0472506 0)
(0.577791 -0.0459992 0)
(0.556523 -0.0446193 0)
(0.535494 -0.0431202 0)
(0.514794 -0.0415115 0)
(0.494512 -0.0398036 0)
(0.474731 -0.038008 0)
(0.45553 -0.0361372 0)
(0.436982 -0.0342047 0)
(0.419151 -0.0322249 0)
(0.402096 -0.0302123 0)
(0.385866 -0.0281814 0)
(0.3705 -0.0261465 0)
(0.35603 -0.0241209 0)
(0.342478 -0.022117 0)
(0.329857 -0.0201461 0)
(0.318173 -0.018218 0)
(0.307422 -0.016341 0)
(0.297594 -0.014522 0)
(0.288675 -0.0127662 0)
(0.280642 -0.0110775 0)
(0.688814 -0.0238909 0)
(0.67535 -0.0262647 0)
(0.660367 -0.0281544 0)
(0.644102 -0.0295138 0)
(0.626808 -0.0303903 0)
(0.608702 -0.0308643 0)
(0.589974 -0.03101 0)
(0.570793 -0.0308922 0)
(0.551314 -0.0305685 0)
(0.531669 -0.0300862 0)
(0.511974 -0.0294805 0)
(0.49233 -0.0287765 0)
(0.472828 -0.0279925 0)
(0.453548 -0.0271416 0)
(0.434566 -0.0262333 0)
(0.415951 -0.0252742 0)
(0.397766 -0.0242697 0)
(0.380071 -0.0232246 0)
(0.362923 -0.0221438 0)
(0.346372 -0.0210324 0)
(0.330464 -0.0198964 0)
(0.315242 -0.018742 0)
(0.300739 -0.0175759 0)
(0.286987 -0.0164049 0)
(0.274008 -0.0152358 0)
(0.261818 -0.0140752 0)
(0.250429 -0.0129292 0)
(0.239845 -0.0118033 0)
(0.230065 -0.0107026 0)
(0.221081 -0.00963144 0)
(0.212881 -0.00859331 0)
(0.205451 -0.00759102 0)
(0.19877 -0.00662668 0)
(0.192815 -0.0057016 0)
(0.187562 -0.00481654 0)
(0.455684 -0.011388 0)
(0.443616 -0.0122813 0)
(0.430447 -0.0128981 0)
(0.416429 -0.0132371 0)
(0.401819 -0.0133428 0)
(0.38684 -0.0132733 0)
(0.371677 -0.0130769 0)
(0.356478 -0.0127898 0)
(0.341366 -0.0124406 0)
(0.326432 -0.0120509 0)
(0.311751 -0.011635 0)
(0.297377 -0.0112018 0)
(0.283357 -0.0107568 0)
(0.269729 -0.0103032 0)
(0.256524 -0.00984297 0)
(0.243769 -0.00937703 0)
(0.231491 -0.00890611 0)
(0.219711 -0.00843118 0)
(0.208449 -0.00795336 0)
(0.197722 -0.00747419 0)
(0.187545 -0.00699532 0)
(0.177928 -0.00651869 0)
(0.168881 -0.00604619 0)
(0.160407 -0.00557987 0)
(0.15251 -0.00512154 0)
(0.145185 -0.00467305 0)
(0.13843 -0.00423593 0)
(0.132235 -0.00381163 0)
(0.12659 -0.00340126 0)
(0.121481 -0.00300578 0)
(0.116895 -0.00262576 0)
(0.112814 -0.00226165 0)
(0.10922 -0.00191355 0)
(0.106094 -0.00158144 0)
(0.103418 -0.00126503 0)
(0.171975 -0.00168199 0)
(0.165631 -0.00171782 0)
(0.158919 -0.0017023 0)
(0.151997 -0.00164626 0)
(0.145006 -0.0015683 0)
(0.138052 -0.00148323 0)
(0.131207 -0.00139778 0)
(0.124522 -0.00131401 0)
(0.11803 -0.0012328 0)
(0.111754 -0.00115476 0)
(0.105705 -0.0010801 0)
(0.0998914 -0.0010089 0)
(0.0943177 -0.000941128 0)
(0.0889862 -0.000876583 0)
(0.0838988 -0.000814833 0)
(0.0790565 -0.000755348 0)
(0.0744603 -0.000697692 0)
(0.0701109 -0.000641604 0)
(0.0660088 -0.000587026 0)
(0.062154 -0.000534029 0)
(0.0585455 -0.000482776 0)
(0.0551819 -0.00043343 0)
(0.0520606 -0.000386142 0)
(0.0491784 -0.000340993 0)
(0.046531 -0.000298029 0)
(0.0441132 -0.000257235 0)
(0.0419193 -0.000218592 0)
(0.0399426 -0.000182043 0)
(0.0381761 -0.000147551 0)
(0.0366123 -0.000115043 0)
(0.0352434 -8.44633e-05 0)
(0.0340613 -5.57143e-05 0)
(0.0330579 -2.87095e-05 0)
(0.0322252 -3.32165e-06 0)
(0.0315552 2.0558e-05 0)
(0.00806953 -0.000856133 0)
(0.012021 -0.000819941 0)
(0.0158039 -0.000775581 0)
(0.0193885 -0.000724684 0)
(0.0227504 -0.000668888 0)
(0.0258711 -0.000609725 0)
(0.028737 -0.000548617 0)
(0.0313397 -0.000486798 0)
(0.033675 -0.000425337 0)
(0.0357425 -0.000365087 0)
(0.0392834 -0.0076013 0)
(0.04792 -0.00731491 0)
(0.0561974 -0.00696917 0)
(0.064061 -0.00657402 0)
(0.0714656 -0.00613941 0)
(0.0783753 -0.00567503 0)
(0.0847628 -0.00519002 0)
(0.0906094 -0.00469274 0)
(0.0959037 -0.00419063 0)
(0.100641 -0.00369006 0)
(0.0871714 -0.0179944 0)
(0.0983378 -0.0173181 0)
(0.109021 -0.0165186 0)
(0.119163 -0.0156154 0)
(0.128717 -0.0146281 0)
(0.137645 -0.0135759 0)
(0.145918 -0.0124769 0)
(0.153515 -0.0113479 0)
(0.160424 -0.0102039 0)
(0.16664 -0.00905787 0)
(0.151287 -0.0302273 0)
(0.16328 -0.0290446 0)
(0.174687 -0.0276795 0)
(0.185465 -0.0261613 0)
(0.195576 -0.024519 0)
(0.204993 -0.0227807 0)
(0.213698 -0.0209728 0)
(0.221677 -0.0191198 0)
(0.228924 -0.0172434 0)
(0.235439 -0.0153627 0)
(0.22905 -0.0425813 0)
(0.240568 -0.0407854 0)
(0.251407 -0.0387669 0)
(0.261543 -0.0365635 0)
(0.270961 -0.0342126 0)
(0.279651 -0.0317496 0)
(0.28761 -0.0292076 0)
(0.294839 -0.0266168 0)
(0.301346 -0.0240039 0)
(0.30714 -0.0213919 0)
(0.315606 -0.0539381 0)
(0.325628 -0.0514307 0)
(0.334901 -0.0486841 0)
(0.343425 -0.0457439 0)
(0.351208 -0.0426539 0)
(0.35826 -0.0394553 0)
(0.364597 -0.036186 0)
(0.370238 -0.0328799 0)
(0.375205 -0.0295664 0)
(0.379518 -0.0262706 0)
(0.404384 -0.0633846 0)
(0.412064 -0.0600998 0)
(0.418976 -0.0565852 0)
(0.425144 -0.0528922 0)
(0.430596 -0.0490692 0)
(0.435364 -0.0451611 0)
(0.43948 -0.0412082 0)
(0.442977 -0.0372459 0)
(0.44589 -0.0333044 0)
(0.448251 -0.0294084 0)
(0.487893 -0.0701098 0)
(0.492531 -0.0660472 0)
(0.496458 -0.0617891 0)
(0.499718 -0.0573899 0)
(0.50236 -0.0529 0)
(0.504428 -0.0483652 0)
(0.505969 -0.0438257 0)
(0.507025 -0.0393161 0)
(0.507638 -0.0348648 0)
(0.507845 -0.0304944 0)
(0.558448 -0.0734428 0)
(0.55955 -0.0686918 0)
(0.560089 -0.0638002 0)
(0.560124 -0.0588221 0)
(0.559714 -0.0538065 0)
(0.558914 -0.0487972 0)
(0.557775 -0.0438315 0)
(0.556343 -0.0389405 0)
(0.554659 -0.0341491 0)
(0.552762 -0.0294754 0)
(0.60892 -0.0729651 0)
(0.606311 -0.0677129 0)
(0.603373 -0.0623879 0)
(0.600172 -0.0570401 0)
(0.596769 -0.0517144 0)
(0.593219 -0.0464492 0)
(0.589571 -0.0412765 0)
(0.585866 -0.0362219 0)
(0.58214 -0.0313044 0)
(0.578423 -0.0265371 0)
(0.633635 -0.0686445 0)
(0.627557 -0.0631628 0)
(0.621446 -0.0576785 0)
(0.615364 -0.052235 0)
(0.609367 -0.0468697 0)
(0.6035 -0.0416137 0)
(0.5978 -0.0364917 0)
(0.5923 -0.0315223 0)
(0.587021 -0.0267179 0)
(0.581982 -0.0220853 0)
(0.629348 -0.0609191 0)
(0.620483 -0.0555301 0)
(0.611904 -0.0502009 0)
(0.603659 -0.0449657 0)
(0.595788 -0.0398527 0)
(0.58832 -0.0348844 0)
(0.581277 -0.0300772 0)
(0.574674 -0.0254423 0)
(0.568516 -0.0209856 0)
(0.562807 -0.0167079 0)
(0.595981 -0.0506814 0)
(0.585379 -0.0457111 0)
(0.575354 -0.0408456 0)
(0.565934 -0.0361088 0)
(0.557139 -0.0315193 0)
(0.548977 -0.0270909 0)
(0.541452 -0.0228324 0)
(0.534558 -0.018748 0)
(0.528287 -0.0148379 0)
(0.522624 -0.0110984 0)
(0.536823 -0.039155 0)
(0.525731 -0.0348814 0)
(0.515436 -0.0307343 0)
(0.505943 -0.0267279 0)
(0.497249 -0.0228722 0)
(0.489342 -0.0191734 0)
(0.482209 -0.0156341 0)
(0.475827 -0.0122534 0)
(0.470173 -0.00902752 0)
(0.46522 -0.00594969 0)
(0.458032 -0.027686 0)
(0.447678 -0.0242946 0)
(0.438234 -0.0210273 0)
(0.429687 -0.0178907 0)
(0.422013 -0.0148883 0)
(0.415189 -0.012021 0)
(0.409183 -0.00928709 0)
(0.403965 -0.00668289 0)
(0.399501 -0.0042025 0)
(0.395759 -0.00183791 0)
(0.367518 -0.0174957 0)
(0.358883 -0.0150528 0)
(0.351158 -0.0127127 0)
(0.344313 -0.0104767 0)
(0.338316 -0.00834464 0)
(0.333133 -0.0063144 0)
(0.328729 -0.00438275 0)
(0.325069 -0.00254485 0)
(0.322116 -0.000794665 0)
(0.319834 0.000874924 0)
(0.273471 -0.0094585 0)
(0.267134 -0.00791039 0)
(0.261598 -0.00643325 0)
(0.256832 -0.00502623 0)
(0.252802 -0.00368748 0)
(0.249473 -0.00241444 0)
(0.246811 -0.00120368 0)
(0.244784 -5.12469e-05 0)
(0.24336 0.00104745 0)
(0.24251 0.00209724 0)
(0.182984 -0.00397155 0)
(0.179054 -0.00316625 0)
(0.175742 -0.00239971 0)
(0.17302 -0.00167067 0)
(0.17086 -0.000977434 0)
(0.169234 -0.000318059 0)
(0.168116 0.000309657 0)
(0.167481 0.000908148 0)
(0.167305 0.00148005 0)
(0.167567 0.00202828 0)
(0.10117 -0.000963962 0)
(0.0993326 -0.000677638 0)
(0.0978852 -0.00040548 0)
(0.0968093 -0.00014668 0)
(0.0960867 9.95136e-05 0)
(0.0957001 0.000334142 0)
(0.0956333 0.000558112 0)
(0.0958708 0.000772397 0)
(0.0963986 0.000978051 0)
(0.097204 0.00117651 0)
(0.0310402 4.30712e-05 0)
(0.0306725 6.43301e-05 0)
(0.0304451 8.44694e-05 0)
(0.0303512 0.000103591 0)
(0.0303843 0.000121853 0)
(0.0305383 0.00013934 0)
(0.0308081 0.000156169 0)
(0.0311886 0.000172437 0)
(0.0316754 0.000188299 0)
(0.0322647 0.000203902 0)
(0.0375451 -0.000306728 0)
(0.0390884 -0.000250733 0)
(0.0403797 -0.000197428 0)
(0.0414278 -0.000146965 0)
(0.0422425 -9.93892e-05 0)
(0.0428337 -5.46122e-05 0)
(0.0432114 -1.24632e-05 0)
(0.0433851 2.73068e-05 0)
(0.0433634 6.48946e-05 0)
(0.0431546 0.000100457 0)
(0.042766 0.000134184 0)
(0.0422039 0.000166351 0)
(0.0414737 0.000197216 0)
(0.0405795 0.000226983 0)
(0.0395245 0.000255793 0)
(0.0383111 0.000283716 0)
(0.036941 0.000310752 0)
(0.0354156 0.000336807 0)
(0.0337364 0.000361696 0)
(0.031905 0.000385107 0)
(0.0299243 0.000406615 0)
(0.0277983 0.000425638 0)
(0.0255332 0.000441463 0)
(0.0231383 0.000453222 0)
(0.0206264 0.000459941 0)
(0.0180148 0.000460592 0)
(0.0153262 0.000454229 0)
(0.0125891 0.000440045 0)
(0.00983875 0.000417043 0)
(0.00712126 0.000382471 0)
(0.00450756 0.000327691 0)
(0.00213148 0.000229799 0)
(0.000260323 4.05933e-05 0)
(-0.000692739 -0.000279848 0)
(-0.00045784 -0.000494177 0)
(0.104823 -0.00319635 0)
(0.108456 -0.00271367 0)
(0.11155 -0.00224515 0)
(0.114116 -0.00179291 0)
(0.116171 -0.00135811 0)
(0.11773 -0.000941108 0)
(0.11881 -0.000541509 0)
(0.119425 -0.000158305 0)
(0.119591 0.000209854 0)
(0.119321 0.000564392 0)
(0.118625 0.00090689 0)
(0.117515 0.00123932 0)
(0.115996 0.00156379 0)
(0.114074 0.00188231 0)
(0.111751 0.00219668 0)
(0.109027 0.00250837 0)
(0.105899 0.0028184 0)
(0.102365 0.00312723 0)
(0.0984198 0.00343463 0)
(0.0940579 0.00373951 0)
(0.0892749 0.00403974 0)
(0.0840683 0.00433198 0)
(0.0784384 0.00461144 0)
(0.0723908 0.00487171 0)
(0.0659382 0.00510457 0)
(0.0591033 0.0053 0)
(0.0519219 0.00544618 0)
(0.044446 0.005529 0)
(0.0367492 0.00552895 0)
(0.0289363 0.00541037 0)
(0.0211661 0.0050958 0)
(0.0137088 0.0044247 0)
(0.00707172 0.00313729 0)
(0.00217468 0.00109747 0)
(-9.26332e-05 -0.000692289 0)
(0.172161 -0.00792098 0)
(0.176993 -0.00680214 0)
(0.181145 -0.0057082 0)
(0.184628 -0.00464402 0)
(0.187457 -0.00361255 0)
(0.189646 -0.00261502 0)
(0.191212 -0.00165106 0)
(0.192167 -0.000718986 0)
(0.192526 0.000183982 0)
(0.192301 0.00106104 0)
(0.1915 0.00191589 0)
(0.19013 0.00275302 0)
(0.188194 0.00357743 0)
(0.185693 0.0043942 0)
(0.182621 0.00520815 0)
(0.178973 0.00602366 0)
(0.174735 0.00684436 0)
(0.169894 0.00767291 0)
(0.164432 0.00851062 0)
(0.158329 0.00935709 0)
(0.151561 0.0102098 0)
(0.144108 0.0110634 0)
(0.135947 0.0119094 0)
(0.127061 0.0127352 0)
(0.117436 0.0135232 0)
(0.10707 0.0142502 0)
(0.0959749 0.0148864 0)
(0.0841841 0.0153933 0)
(0.0717602 0.0157179 0)
(0.0588075 0.0157723 0)
(0.0454931 0.0153862 0)
(0.0320942 0.0142156 0)
(0.019175 0.0116615 0)
(0.008134 0.0071194 0)
(0.000823737 0.00158163 0)
(0.241225 -0.0134938 0)
(0.246288 -0.0116496 0)
(0.250641 -0.00984024 0)
(0.254293 -0.0080727 0)
(0.257257 -0.00635131 0)
(0.259548 -0.00467775 0)
(0.261177 -0.0030513 0)
(0.262156 -0.00146912 0)
(0.262493 7.32835e-05 0)
(0.262197 0.00158144 0)
(0.26127 0.00306187 0)
(0.259714 0.00452246 0)
(0.257524 0.00597205 0)
(0.254692 0.00741987 0)
(0.251205 0.00887512 0)
(0.247044 0.0103467 0)
(0.242186 0.0118428 0)
(0.236602 0.0133704 0)
(0.230256 0.0149349 0)
(0.223108 0.0165396 0)
(0.215112 0.0181847 0)
(0.206217 0.0198668 0)
(0.196367 0.0215774 0)
(0.185505 0.0233016 0)
(0.17357 0.0250165 0)
(0.160505 0.0266885 0)
(0.146259 0.0282713 0)
(0.130795 0.0297011 0)
(0.114097 0.0308875 0)
(0.0961889 0.0316885 0)
(0.0771417 0.0318397 0)
(0.0571092 0.0307931 0)
(0.0365354 0.027447 0)
(0.0172661 0.02007 0)
(0.00235765 0.00802978 0)
(0.312233 -0.0188 0)
(0.31664 -0.0162435 0)
(0.320374 -0.0137338 0)
(0.32345 -0.0112787 0)
(0.325883 -0.0088825 0)
(0.327686 -0.00654603 0)
(0.328871 -0.00426721 0)
(0.329445 -0.00204115 0)
(0.329415 0.000139021 0)
(0.328785 0.00228215 0)
(0.327552 0.0043987 0)
(0.325712 0.00650097 0)
(0.323252 0.00860252 0)
(0.320156 0.0107177 0)
(0.316403 0.0128614 0)
(0.311962 0.0150485 0)
(0.306798 0.0172937 0)
(0.300867 0.0196108 0)
(0.294119 0.0220124 0)
(0.28649 0.0245094 0)
(0.277911 0.0271097 0)
(0.2683 0.0298176 0)
(0.257563 0.0326322 0)
(0.245595 0.0355456 0)
(0.232275 0.0385403 0)
(0.217472 0.0415857 0)
(0.201039 0.0446331 0)
(0.182822 0.0476094 0)
(0.162661 0.0504039 0)
(0.140401 0.0528395 0)
(0.115897 0.0545847 0)
(0.0890227 0.0549024 0)
(0.0598578 0.0520515 0)
(0.0304409 0.0423144 0)
(0.00485523 0.0208312 0)
(0.3832 -0.0230125 0)
(0.386275 -0.0198077 0)
(0.388762 -0.0166673 0)
(0.390681 -0.0135979 0)
(0.392051 -0.010602 0)
(0.392885 -0.00767844 0)
(0.393195 -0.00482228 0)
(0.392989 -0.00202562 0)
(0.392273 0.000721864 0)
(0.391047 0.0034334 0)
(0.389305 0.00612453 0)
(0.387037 0.00881291 0)
(0.384228 0.0115178 0)
(0.380855 0.0142595 0)
(0.376889 0.0170599 0)
(0.372293 0.019941 0)
(0.367022 0.022926 0)