/*--------------------------------*- C++ -*----------------------------------*\
| =========                 |                                                 |
| \\      /  F ield         | OpenFOAM: The Open Source CFD Toolbox           |
|  \\    /   O peration     | Version:  2406                                  |
|   \\  /    A nd           | Website:  www.openfoam.com                      |
|    \\/     M anipulation  |                                                 |
\*---------------------------------------------------------------------------*/
FoamFile
{
    version     2.0;
    format      ascii;
    arch        "LSB;label=32;scalar=64";
    class       volScalarField;
    location    "69";
    object      p;
}
// * * * * * * * * * * * * * * * * * * * * * * * * * * * * * * * * * * * * * //

dimensions      [0 2 -2 0 0 0 0];

internalField   nonuniform List<scalar> 
1900
(
-0.0566455
-0.0585422
-0.0617003
-0.0656271
-0.0701905
-0.0753982
-0.0812543
-0.0878166
-0.0951319
-0.10343
-0.053384
-0.0572026
-0.0613943
-0.0655017
-0.0700445
-0.0752189
-0.08096
-0.087223
-0.0939562
-0.100797
-0.0503037
-0.055616
-0.060728
-0.0648662
-0.0691595
-0.0740528
-0.0793631
-0.084843
-0.0901799
-0.0947103
-0.0472288
-0.0531474
-0.0588024
-0.0629984
-0.0670521
-0.0715821
-0.0763563
-0.0810326
-0.0853189
-0.0888131
-0.0442087
-0.0503403
-0.0562286
-0.0604148
-0.0642265
-0.0683774
-0.0726479
-0.0766928
-0.0803026
-0.0832659
-0.0416574
-0.0477921
-0.0536028
-0.0576247
-0.061195
-0.0650258
-0.0689026
-0.0725111
-0.0757128
-0.0784104
-0.0400358
-0.0459582
-0.051401
-0.0551434
-0.0585151
-0.062121
-0.0657328
-0.0690824
-0.0720807
-0.0746856
-0.0397166
-0.0450251
-0.0498462
-0.0533431
-0.0566309
-0.0601108
-0.0635677
-0.066797
-0.0697325
-0.0723436
-0.0410267
-0.0448722
-0.0487949
-0.0522208
-0.0556215
-0.0591178
-0.0625519
-0.0657861
-0.0687568
-0.0714259
-0.0438105
-0.0457963
-0.0487534
-0.0520398
-0.0554654
-0.0589538
-0.0623896
-0.0656584
-0.0686825
-0.0714119
-0.0922183
-0.0923714
-0.092484
-0.0924891
-0.0923916
-0.0922005
-0.0919182
-0.0915427
-0.09107
-0.0904957
-0.0898149
-0.0890235
-0.0881175
-0.0870933
-0.0859474
-0.0846768
-0.0832782
-0.0817488
-0.0800859
-0.0782872
-0.0763506
-0.0742747
-0.0720588
-0.0697031
-0.0672087
-0.0645784
-0.0618161
-0.0589277
-0.055921
-0.0528057
-0.0495935
-0.0462987
-0.0429375
-0.0395284
-0.0360917
-0.0920464
-0.0922052
-0.0923007
-0.0922872
-0.0921838
-0.0919971
-0.0917246
-0.0913612
-0.0909014
-0.0903397
-0.0896715
-0.0888923
-0.0879984
-0.0869862
-0.0858525
-0.0845943
-0.0832084
-0.0816923
-0.0800434
-0.0782594
-0.0763384
-0.0742789
-0.0720804
-0.0697429
-0.0672677
-0.0646572
-0.0619153
-0.0590474
-0.056061
-0.0529658
-0.0497734
-0.0464978
-0.0431548
-0.0397626
-0.0363412
-0.0919505
-0.0921355
-0.0922299
-0.0922045
-0.0920988
-0.091919
-0.0916583
-0.0913088
-0.0908633
-0.0903156
-0.0896609
-0.0888949
-0.0880139
-0.0870147
-0.0858941
-0.0846492
-0.0832774
-0.0817759
-0.0801424
-0.0783744
-0.0764702
-0.0744283
-0.0722478
-0.0699288
-0.0674722
-0.06488
-0.0621557
-0.0593048
-0.0563346
-0.0532545
-0.0500757
-0.046812
-0.0434791
-0.0400949
-0.0366794
-0.0921003
-0.0923065
-0.0924023
-0.0923692
-0.092262
-0.0920861
-0.0918317
-0.0914891
-0.0910503
-0.0905091
-0.0898606
-0.0891009
-0.0882264
-0.0872342
-0.0861212
-0.0848849
-0.0835224
-0.0820313
-0.0804089
-0.078653
-0.0767614
-0.0747324
-0.072565
-0.0702587
-0.0678138
-0.0652326
-0.0625185
-0.0596766
-0.0567139
-0.0536394
-0.0504643
-0.047202
-0.0438687
-0.0404824
-0.0370635
-0.0926205
-0.0928078
-0.0928719
-0.0928093
-0.0926822
-0.0924918
-0.0922251
-0.0918715
-0.0914227
-0.0908727
-0.0902168
-0.0894512
-0.0885725
-0.0875776
-0.0864638
-0.0852281
-0.0838678
-0.0823802
-0.0807624
-0.0790118
-0.077126
-0.0751027
-0.0729407
-0.0706394
-0.0681994
-0.0656226
-0.0629119
-0.0600722
-0.0571111
-0.0540376
-0.0508627
-0.0476
-0.0442657
-0.0408784
-0.0374588
-0.093625
-0.0937036
-0.0936508
-0.0934965
-0.0933025
-0.0930596
-0.0927494
-0.092359
-0.0918792
-0.091303
-0.0906249
-0.0898405
-0.0889465
-0.0879392
-0.0868154
-0.0855721
-0.0842061
-0.0827144
-0.0810936
-0.0793413
-0.0774551
-0.075432
-0.0732704
-0.0709697
-0.0685301
-0.0659531
-0.0632421
-0.0604019
-0.0574399
-0.0543653
-0.0511902
-0.0479287
-0.0445979
-0.0412168
-0.0378068
-0.0952379
-0.0950186
-0.094671
-0.0943075
-0.0939714
-0.0936267
-0.0932399
-0.0927904
-0.0922645
-0.0916518
-0.0909451
-0.0901383
-0.0892264
-0.0882046
-0.0870695
-0.0858173
-0.084444
-0.082946
-0.0813195
-0.0795611
-0.077668
-0.075638
-0.0734693
-0.0711614
-0.0687147
-0.0661312
-0.0634147
-0.0605708
-0.0576075
-0.054535
-0.051366
-0.0481157
-0.0448018
-0.0414442
-0.0380648
-0.0978529
-0.0967654
-0.0957313
-0.0949963
-0.0944513
-0.0939774
-0.0935084
-0.0930057
-0.0924435
-0.0918043
-0.0910762
-0.0902526
-0.0893273
-0.0882944
-0.0871489
-0.0858857
-0.0845006
-0.08299
-0.0813503
-0.0795784
-0.0776714
-0.0756274
-0.0734449
-0.0711238
-0.0686653
-0.0660724
-0.0633498
-0.0605044
-0.0575453
-0.0544841
-0.0513347
-0.0481134
-0.0448388
-0.0415314
-0.0382134
-0.10321
-0.099082
-0.0964685
-0.0952713
-0.0945398
-0.093945
-0.0934159
-0.0928928
-0.0923234
-0.0916797
-0.0909491
-0.0901216
-0.0891884
-0.0881443
-0.086985
-0.085706
-0.0843033
-0.0827731
-0.0811122
-0.0793181
-0.0773887
-0.0753227
-0.0731195
-0.0707803
-0.0683074
-0.0657053
-0.0629804
-0.0601414
-0.0571991
-0.0541666
-0.0510591
-0.0478939
-0.0446902
-0.0414688
-0.0382516
-0.112218
-0.101642
-0.0965482
-0.0950865
-0.0943119
-0.0936054
-0.093022
-0.0924993
-0.091936
-0.0912903
-0.0905529
-0.089715
-0.0887673
-0.0877041
-0.0865218
-0.0852167
-0.0837848
-0.0822229
-0.0805289
-0.0787013
-0.0767396
-0.074644
-0.0724156
-0.0700571
-0.0675727
-0.0649687
-0.0622537
-0.0594382
-0.0565348
-0.053558
-0.0505242
-0.0474511
-0.0443579
-0.0412648
-0.0381924
-0.107994
-0.100737
-0.09581
-0.094489
-0.0938703
-0.093126
-0.0924565
-0.0918862
-0.0912968
-0.0906243
-0.0898567
-0.0889873
-0.0880061
-0.0869058
-0.0856832
-0.0843353
-0.0828591
-0.0812522
-0.0795139
-0.0776448
-0.0756464
-0.0735209
-0.0712715
-0.0689027
-0.0664208
-0.0638341
-0.0611529
-0.0583894
-0.0555577
-0.052673
-0.0497521
-0.0468124
-0.0438721
-0.0409497
-0.0380635
-0.103349
-0.0992493
-0.0952728
-0.0937378
-0.0930513
-0.0923034
-0.0915658
-0.0909186
-0.090276
-0.0895594
-0.0887451
-0.0878269
-0.0867968
-0.0856475
-0.0843752
-0.0829773
-0.081452
-0.0797986
-0.0780181
-0.0761134
-0.0740883
-0.0719474
-0.0696958
-0.0673401
-0.0648882
-0.06235
-0.059737
-0.0570626
-0.0543412
-0.0515881
-0.0488193
-0.046051
-0.0432993
-0.0405802
-0.0379087
-0.0967276
-0.0954784
-0.0933219
-0.0920747
-0.0914251
-0.0907783
-0.0900776
-0.0894039
-0.0887269
-0.0879793
-0.0871298
-0.0861717
-0.0851012
-0.0839127
-0.0826018
-0.0811663
-0.079606
-0.0779224
-0.0761191
-0.0742011
-0.0721747
-0.0700464
-0.0678232
-0.0655132
-0.0631257
-0.0606713
-0.0581623
-0.055612
-0.0530344
-0.0504437
-0.0478544
-0.0452805
-0.0427353
-0.0402317
-0.0377814
-0.090848
-0.0910277
-0.0901758
-0.0894153
-0.0889444
-0.0884882
-0.0879435
-0.0873493
-0.0867062
-0.0859746
-0.085129
-0.0841653
-0.0830839
-0.0818823
-0.0805577
-0.0791092
-0.0775392
-0.075852
-0.0740539
-0.0721522
-0.0701548
-0.0680699
-0.0659058
-0.0636716
-0.0613772
-0.0590336
-0.0566528
-0.0542472
-0.0518296
-0.0494124
-0.0470079
-0.0446273
-0.0422814
-0.0399798
-0.0377312
-0.0852822
-0.0861711
-0.0862586
-0.0861229
-0.0860045
-0.0858249
-0.0855105
-0.0850722
-0.0845234
-0.0838536
-0.083052
-0.0821194
-0.0810591
-0.0798726
-0.0785602
-0.0771247
-0.0755711
-0.0739069
-0.0721405
-0.0702809
-0.068337
-0.066318
-0.0642329
-0.0620913
-0.0599032
-0.0576793
-0.0554305
-0.0531681
-0.050903
-0.0486456
-0.0464058
-0.0441926
-0.0420141
-0.0398776
-0.0377893
-0.0804694
-0.0818109
-0.08256
-0.0829795
-0.0832353
-0.0833357
-0.0832521
-0.0829895
-0.0825653
-0.0819867
-0.0812564
-0.0803795
-0.0793626
-0.0782114
-0.0769309
-0.0755276
-0.0740097
-0.0723868
-0.0706687
-0.068865
-0.0669855
-0.0650394
-0.0630362
-0.0609853
-0.0588967
-0.05678
-0.0546453
-0.0525022
-0.05036
-0.0482273
-0.0461122
-0.0440219
-0.0419628
-0.0399405
-0.03796
-0.0768325
-0.0784782
-0.0796638
-0.0804994
-0.0810772
-0.0814263
-0.0815472
-0.0814499
-0.0811533
-0.0806728
-0.0800201
-0.0792052
-0.0782388
-0.0771304
-0.0758896
-0.0745262
-0.0730506
-0.0714733
-0.0698048
-0.0680549
-0.0662336
-0.0643502
-0.062414
-0.0604345
-0.0584209
-0.0563822
-0.0543275
-0.0522652
-0.0502034
-0.0481497
-0.0461109
-0.0440932
-0.0421023
-0.0401431
-0.0382198
-0.0745882
-0.0764365
-0.0778961
-0.079008
-0.0798165
-0.0803483
-0.0806183
-0.0806436
-0.0804448
-0.0800416
-0.0794503
-0.0786857
-0.0777613
-0.0766901
-0.0754841
-0.0741552
-0.0727146
-0.0711734
-0.069542
-0.0678305
-0.0660485
-0.0642056
-0.062311
-0.0603737
-0.0584027
-0.0564066
-0.0543936
-0.0523717
-0.0503485
-0.0483307
-0.0463249
-0.0443371
-0.0423725
-0.0404358
-0.0385314
-0.0737587
-0.0757318
-0.0773414
-0.0786016
-0.0795355
-0.0801665
-0.0805165
-0.0806074
-0.0804617
-0.0801004
-0.0795426
-0.0788051
-0.0779036
-0.0768523
-0.0756646
-0.0743528
-0.0729288
-0.0714035
-0.0697874
-0.0680905
-0.0663227
-0.0644933
-0.0626115
-0.0606862
-0.0587263
-0.0567399
-0.0547354
-0.0527203
-0.050702
-0.0486873
-0.0466828
-0.0446941
-0.0427268
-0.0407857
-0.038875
-0.0738107
-0.0758556
-0.0775376
-0.0788626
-0.0798485
-0.0805186
-0.0808977
-0.0810102
-0.0808796
-0.0805283
-0.0799764
-0.0792424
-0.0783426
-0.077292
-0.0761043
-0.0747921
-0.073367
-0.07184
-0.0702217
-0.0685222
-0.0667511
-0.0649177
-0.0630314
-0.0611008
-0.0591347
-0.0571414
-0.0551288
-0.0531048
-0.0510766
-0.0490511
-0.0470348
-0.0450337
-0.0430531
-0.0410981
-0.0391729
-0.032649
-0.0292235
-0.0258386
-0.0225184
-0.0192861
-0.0161644
-0.0131741
-0.0103342
-0.00766112
-0.00516837
-0.0329123
-0.0294987
-0.0261238
-0.0228115
-0.0195853
-0.0164676
-0.0134796
-0.0106403
-0.00796668
-0.0054718
-0.0332545
-0.0298429
-0.0264682
-0.0231548
-0.0199266
-0.0168061
-0.0138148
-0.0109723
-0.00829482
-0.00579604
-0.0336341
-0.0302179
-0.0268387
-0.0235207
-0.020288
-0.0171636
-0.0141691
-0.0113239
-0.00864484
-0.00614552
-0.0340293
-0.0306138
-0.0272367
-0.0239229
-0.0206966
-0.0175811
-0.0145977
-0.0117658
-0.00910153
-0.00661831
-0.0343908
-0.030993
-0.0276382
-0.0243511
-0.0211558
-0.0180751
-0.0151298
-0.0123384
-0.00971619
-0.00727547
-0.0346869
-0.0313348
-0.0280331
-0.0248059
-0.0216767
-0.0186669
-0.0157962
-0.0130813
-0.0105359
-0.0081706
-0.0349081
-0.0316393
-0.0284306
-0.0253052
-0.0222844
-0.0193881
-0.0166333
-0.0140344
-0.0116027
-0.00934635
-0.035061
-0.0319195
-0.0288491
-0.0258703
-0.0230021
-0.0202612
-0.0176618
-0.015215
-0.0129291
-0.0108092
-0.0351613
-0.0321917
-0.0293026
-0.0265115
-0.0238339
-0.0212827
-0.0188684
-0.0165988
-0.0144788
-0.0125108
-0.0352313
-0.03247
-0.029795
-0.0272199
-0.0247561
-0.0224129
-0.020197
-0.0181126
-0.0161619
-0.0143447
-0.0352993
-0.0327651
-0.0303174
-0.0279659
-0.0257183
-0.0235801
-0.021555
-0.0196444
-0.0178481
-0.0161646
-0.0353953
-0.0330825
-0.030851
-0.0287069
-0.0266547
-0.0246973
-0.0228359
-0.0210703
-0.0193992
-0.0178202
-0.0355432
-0.033422
-0.0313726
-0.0293988
-0.0275029
-0.0256861
-0.0239484
-0.022289
-0.0207062
-0.0191977
-0.0357545
-0.0337776
-0.0318617
-0.0300092
-0.0282214
-0.0264988
-0.0248411
-0.0232476
-0.0217168
-0.0202473
-0.0360253
-0.0341397
-0.0323056
-0.0305249
-0.0287986
-0.0271272
-0.0255108
-0.0239489
-0.0224409
-0.0209856
-0.0363362
-0.034495
-0.0326989
-0.0309494
-0.0292479
-0.0275951
-0.0259916
-0.0244372
-0.0229319
-0.0214751
-0.0366627
-0.0348328
-0.0330442
-0.031299
-0.0295984
-0.0279438
-0.0263357
-0.0247747
-0.0232607
-0.0217937
-0.0369984
-0.0351591
-0.0333598
-0.0316026
-0.0298892
-0.0282209
-0.0265986
-0.0250229
-0.023494
-0.022012
-0.0372814
-0.0354269
-0.0336122
-0.0318394
-0.0301104
-0.0284266
-0.0267889
-0.0251981
-0.0236544
-0.0221581
-0.00286644
-0.000762738
0.00113926
0.00283882
0.0043375
0.00564007
0.00675375
0.00768769
0.00845269
0.0090607
0.00952454
0.00985742
0.0100727
0.0101835
0.0102027
0.0101423
0.0100137
0.00982739
0.00959297
0.00931904
0.00901322
0.00868222
0.00833182
0.00796696
0.0075918
0.00720979
0.00682372
0.00643581
0.0060478
0.00566097
0.00527624
0.00489423
0.0045153
0.00413958
0.00376705
-0.00316637
-0.00105828
0.000848584
0.00255341
0.00405834
0.00536816
0.00649002
0.00743305
0.00820796
0.00882664
0.00930182
0.0096466
0.00987422
0.00999772
0.0100297
0.00998223
0.00986648
0.00969286
0.00947083
0.00920888
0.00891458
0.00859453
0.00825449
0.00789935
0.00753324
0.00715959
0.00678119
0.00640027
0.00601858
0.00563743
0.00525777
0.00488025
0.00450526
0.00413298
0.00376344
-0.00348659
-0.00137397
0.000537803
0.0022479
0.00375847
0.00507433
0.00620271
0.00715281
0.00793543
0.00856252
0.00904681
0.00940142
0.00963956
0.00977422
0.00981793
0.00978261
0.00967939
0.00951854
0.00930938
0.0090603
0.00877873
0.00847118
0.00814329
0.00779987
0.00744497
0.00708196
0.00671358
0.00634204
0.00596905
0.00559592
0.0052236
0.00485275
0.00448377
0.00411688
0.00375214
-0.0038365
-0.00172498
0.000185259
0.00189368
0.00340273
0.00471755
0.00584568
0.00679659
0.0075813
0.00821193
0.00870134
0.00906269
0.0093092
0.0094538
0.00950892
0.00948633
0.009397
0.00925099
0.00905743
0.0088245
0.00855943
0.00826851
0.00795721
0.00763016
0.00729125
0.00694373
0.00659023
0.00623284
0.00587323
0.00551263
0.00515198
0.00479189
0.00443278
0.00407487
0.00371824
-0.00432608
-0.00223142
-0.000337504
0.00135576
0.00285141
0.00415516
0.00527499
0.00622073
0.00700366
0.00763604
0.00813075
0.00850091
0.00875955
0.00891938
0.00899254
0.00899045
0.00892371
0.00880199
0.00863405
0.00842766
0.0081897
0.00792611
0.00764205
0.00734186
0.00702919
0.00670707
0.00637795
0.00604379
0.00570612
0.00536612
0.00502464
0.00468229
0.00433948
0.00399644
0.00365329
-0.00502509
-0.00297052
-0.00111384
0.000545995
0.00201292
0.00329334
0.0043958
0.00533046
0.00610878
0.00674301
0.00724584
0.00763009
0.00790835
0.0080928
0.00819497
0.00822568
0.00819483
0.00811148
0.0079837
0.00781869
0.00762272
0.00740127
0.00715898
0.00689981
0.00662706
0.00634345
0.00605119
0.00575204
0.00544739
0.00513833
0.00482564
0.0045099
0.00419157
0.0038709
0.00354799
-0.00599238
-0.00400509
-0.00220933
-0.000602752
0.000819611
0.00206496
0.00314231
0.00406205
0.00483557
0.00547483
0.00599203
0.0063993
0.00670843
0.00693067
0.00707661
0.00715605
0.00717794
0.00715033
0.00708042
0.00697453
0.00683819
0.00667613
0.00649243
0.00629048
0.00607316
0.00584279
0.0056013
0.00535024
0.00509084
0.00482405
0.00455067
0.00427131
0.00398635
0.00369602
0.0034005
-0.00727004
-0.00537556
-0.00366175
-0.00212487
-0.000758904
0.000443989
0.00149308
0.00239868
0.00317175
0.00382355
0.00436535
0.00480819
0.00516261
0.00543858
0.00564533
0.00579133
0.00588422
0.00593084
0.00593722
0.00590865
0.00584969
0.00576427
0.0056557
0.0055268
0.0053799
0.00521694
0.00503952
0.00484896
0.00464636
0.00443266
0.00420855
0.0039745
0.0037309
0.00347813
0.0032165
-0.00885764
-0.00707399
-0.00545535
-0.00399673
-0.00269136
-0.00153112
-0.000506877
0.000391129
0.00117298
0.00184878
0.00242842
0.00292141
0.0033367
0.0036826
0.00396671
0.0041959
0.00437632
0.0045134
0.00461188
0.00467588
0.00470895
0.00471411
0.00469391
0.00465052
0.00458576
0.00450117
0.00439806
0.0042776
0.00414071
0.00398806
0.00382029
0.00363797
0.00344162
0.00323173
0.00300875
-0.0106945
-0.0090276
-0.00750595
-0.0061237
-0.00487388
-0.00374858
-0.00273938
-0.00183755
-0.00103438
-0.000321335
0.000309737
0.000866517
0.00135609
0.00178495
0.0021589
0.00248314
0.00276226
0.00300023
0.00320052
0.0033661
0.0034995
0.00360289
0.00367809
0.00372669
0.00375003
0.00374931
0.00372553
0.00367956
0.00361214
0.003524
0.00341581
0.00328821
0.00314181
0.0029772
0.00279501
-0.0126589
-0.0111011
-0.00966616
-0.00834832
-0.00714089
-0.00603686
-0.00502895
-0.00410996
-0.00327285
-0.00251096
-0.00181804
-0.00118835
-0.000616691
-9.84191e-05
0.000370582
0.000793902
0.00117466
0.00151554
0.00181884
0.00208651
0.00232019
0.00252133
0.00269111
0.00283056
0.0029406
0.00302213
0.00307596
0.00310282
0.00310342
0.00307845
0.00302858
0.00295452
0.00285696
0.00273662
0.00259425
-0.0145906
-0.0131223
-0.0117546
-0.0104824
-0.00929984
-0.00820125
-0.00718091
-0.0062333
-0.00535325
-0.00453594
-0.00377699
-0.00307246
-0.00241889
-0.00181322
-0.00125284
-0.000735492
-0.000259274
0.000177427
0.000575984
0.000937531
0.00126301
0.00155313
0.00180855
0.00203007
0.00221846
0.00237436
0.00249836
0.0025911
0.00265321
0.00268535
0.00268822
0.00266257
0.00260918
0.00252885
0.00242246
-0.0163301
-0.0149251
-0.0136011
-0.0123539
-0.011179
-0.0100723
-0.00902947
-0.00804685
-0.00712091
-0.00624846
-0.00542672
-0.00465323
-0.00392591
-0.00324295
-0.00260289
-0.00200447
-0.00144666
-0.000928641
-0.000449728
-9.5078e-06
0.000392246
0.000756162
0.00108289
0.00137289
0.00162658
0.00184441
0.00202685
0.00217444
0.00228778
0.00236754
0.00241441
0.00242919
0.00241269
0.00236582
0.0022895
-0.0177609
-0.0163929
-0.0150905
-0.0138507
-0.0126704
-0.0115469
-0.0104773
-0.00945937
-0.00849084
-0.00756982
-0.00669469
-0.00586408
-0.00507686
-0.00433209
-0.00362906
-0.00296717
-0.00234598
-0.0017653
-0.0012252
-0.000725345
-0.000265229
0.000155429
0.000536812
0.00087915
0.0011827
0.00144782
0.00167492
0.00186449
0.0020171
0.00213341
0.00221412
0.00226003
0.002272
0.00225095
0.00219788
-0.018837
-0.017484
-0.0161863
-0.014942
-0.0137489
-0.0126055
-0.0115101
-0.0104612
-0.00945764
-0.0084983
-0.00758227
-0.00670892
-0.00587762
-0.00508804
-0.00433979
-0.00363286
-0.00296734
-0.00234323
-0.00176016
-0.00121806
-0.000716833
-0.000256512
0.000163021
0.000541846
0.000880232
0.00117842
0.00143682
0.00165587
0.00183614
0.00197822
0.00208288
0.00215085
0.00218306
0.00218038
0.00214385
-0.0195822
-0.0182293
-0.0169258
-0.0156704
-0.0144621
-0.0132997
-0.0121823
-0.011109
-0.0100791
-0.00909201
-0.00814728
-0.00724454
-0.00638354
-0.00556416
-0.00478649
-0.00405061
-0.00335639
-0.00270375
-0.00209274
-0.00152347
-0.000996018
-0.000510397
-6.65699e-05
0.000335562
0.000696187
0.00101556
0.00129404
0.00153205
0.00173014
0.0018889
0.00200906
0.00209139
0.00213675
0.00214606
0.00212031
-0.0200664
-0.0187051
-0.0173905
-0.0161218
-0.0148984
-0.0137194
-0.0125845
-0.0114928
-0.0104442
-0.00943794
-0.00847405
-0.00755213
-0.00667228
-0.0058344
-0.00503856
-0.00428455
-0.0035726
-0.00290267
-0.00227505
-0.00168968
-0.00114678
-0.000646237
-0.000188161
0.000227676
0.00060132
0.000933146
0.00122337
0.00147255
0.00168108
0.00184969
0.00197896
0.00206978
0.00212288
0.00213928
0.00211986
-0.0203735
-0.0189998
-0.0176719
-0.0163895
-0.0151519
-0.0139589
-0.0128097
-0.011704
-0.0106414
-0.00962174
-0.00864461
-0.00771007
-0.00681785
-0.00596802
-0.00516046
-0.00439534
-0.00367265
-0.00299261
-0.0023552
-0.00176063
-0.00120884
-0.000699973
-0.000233865
0.000189474
0.000570328
0.000908851
0.00120549
0.00146058
0.00167473
0.00184847
0.00198259
0.00207775
0.00213491
0.00215488
0.00213872
-0.0205769
-0.0191883
-0.0178459
-0.0165493
-0.015298
-0.0140915
-0.0129295
-0.0118115
-0.0107373
-0.00970637
-0.00871867
-0.00777397
-0.00687217
-0.00601323
-0.00519717
-0.00442402
-0.00369386
-0.00300677
-0.00236285
-0.00176216
-0.00120473
-0.000690572
-0.000219629
0.000208223
0.00059317
0.000935489
0.00123553
0.00149375
0.00171067
0.00188693
0.00202322
0.00212033
0.00217911
0.0022005
0.00218545
-0.020709
-0.019307
-0.0179516
-0.0166426
-0.0153794
-0.0141616
-0.0129888
-0.0118605
-0.0107765
-0.00973646
-0.00874009
-0.00778723
-0.00687779
-0.0060117
-0.00518898
-0.00440963
-0.00367373
-0.00298134
-0.00233254
-0.00172738
-0.00116588
-0.000648032
-0.000173773
0.000257036
0.000644594
0.000989192
0.0012912
0.00155107
0.00176937
0.00194672
0.00208384
0.00218155
0.00224071
0.00226225
0.00224718
0.00339757
0.00303091
0.00266675
0.00230474
0.00194451
0.0015857
0.00122807
0.000871393
0.000514521
0.000156634
0.00339655
0.0030321
0.00266982
0.00230937
0.00195041
0.00159255
0.00123567
0.000879383
0.00052331
0.000147743
0.00338947
0.00302872
0.00266961
0.00231185
0.00195508
0.0015989
0.00124315
0.000886629
0.000533222
0.000135254
0.00336285
0.00300853
0.00265505
0.0023021
0.00194937
0.00159635
0.00124308
0.000886793
0.000537884
0.000116411
0.00331
0.00296643
0.00262239
0.00227762
0.00193187
0.00158455
0.0012362
0.000882034
0.000540588
9.38452e-05
0.00322285
0.00289543
0.00256562
0.00223326
0.00189824
0.00156003
0.00121966
0.000870643
0.000540002
6.906e-05
0.00309992
0.00279435
0.00248382
0.00216835
0.00184804
0.00152242
0.00119343
0.000852697
0.000535393
4.6055e-05
0.00294628
0.00266771
0.00238102
0.00208643
0.0017843
0.00147444
0.00115931
0.000829897
0.000526289
3.08985e-05
0.00277313
0.00252529
0.00226568
0.00199477
0.00171321
0.00142105
0.00112129
0.000805084
0.000512734
3.00264e-05
0.00259584
0.00238032
0.00214913
0.00190298
0.00164274
0.00136889
0.00108429
0.000782015
0.000496229
4.76993e-05
0.00243062
0.00224656
0.00204293
0.00182067
0.00158087
0.0013243
0.00105353
0.000764452
0.000479756
8.39843e-05
0.00229092
0.00213519
0.00195632
0.00175539
0.00153362
0.00129215
0.00103287
0.000755181
0.00046733
0.000134336
0.00218476
0.00205265
0.00189432
0.00171098
0.00150392
0.00127455
0.00102412
0.000755336
0.000462458
0.000190772
0.00211382
0.0019999
0.00185732
0.00168733
0.00149128
0.00127072
0.0010266
0.00076384
0.000466861
0.000243943
0.0020745
0.00197349
0.00184197
0.00168127
0.00149266
0.00127787
0.00103763
0.000778105
0.000479688
0.000285308
0.00206055
0.00196787
0.00184345
0.00168852
0.00150439
0.00129265
0.00105431
0.00079519
0.000498272
0.000309134
0.00206574
0.00197788
0.00185752
0.00170571
0.00152377
0.0013131
0.00107482
0.000813646
0.000519659
0.000313822
0.00208735
0.00200189
0.00188334
0.00173288
0.00155155
0.00134063
0.00110106
0.000836025
0.000544019
0.000303178
0.00213498
0.00205014
0.00193199
0.00178158
0.00159994
0.00138809
0.00114669
0.000877724
0.000585241
0.000292023
0.00219651
0.00211132
0.00199266
0.0018416
0.00165914
0.00144612
0.00120296
0.000931027
0.000634979
0.000292574
)
;

boundaryField
{
    inlet
    {
        type            zeroGradient;
    }
    outlet
    {
        type            fixedValue;
        value           uniform 0;
    }
    upperWall
    {
        type            zeroGradient;
    }
    lowerWall
    {
        type            zeroGradient;
    }
    frontAndBack
    {
        type            empty;
    }
}


// ************************************************************************* //
