/*--------------------------------*- C++ -*----------------------------------*\
| =========                 |                                                 |
| \\      /  F ield         | OpenFOAM: The Open Source CFD Toolbox           |
|  \\    /   O peration     | Version:  2406                                  |
|   \\  /    A nd           | Website:  www.openfoam.com                      |
|    \\/     M anipulation  |                                                 |
\*---------------------------------------------------------------------------*/
FoamFile
{
    version     2.0;
    format      ascii;
    arch        "LSB;label=32;scalar=64";
    class       surfaceScalarField;
    location    "41";
    object      phi;
}
// * * * * * * * * * * * * * * * * * * * * * * * * * * * * * * * * * * * * * //

dimensions      [0 3 -1 0 0 0 0];

oriented        oriented;

internalField   nonuniform List<scalar> 
3796
(
0.00995008
-0.000200069
0.0101685
-0.000218354
0.0103289
-0.000160461
0.010444
-0.000115075
0.0105292
-8.51557e-05
0.010593
-6.37245e-05
0.010641
-4.80073e-05
0.010678
-3.69897e-05
0.0107075
-2.94891e-05
0.0107318
-2.43155e-05
0.0107523
-2.04532e-05
0.0107697
-1.74072e-05
0.0107847
-1.49691e-05
0.0107979
-1.31758e-05
0.0108099
-1.19299e-05
0.0108211
-1.11878e-05
0.0108319
-1.07823e-05
0.0108426
-1.06965e-05
0.0108535
-1.08842e-05
0.0108649
-1.14534e-05
0.0108774
-1.24812e-05
0.0108915
-1.41642e-05
0.0109082
-1.66594e-05
0.0109285
-2.02598e-05
0.0109538
-2.52449e-05
0.0109859
-3.2102e-05
0.0110274
-4.13683e-05
0.0110813
-5.39082e-05
0.0111521
-7.07592e-05
0.0112457
-9.34753e-05
0.0113697
-0.000124014
0.0115349
-0.000165174
0.0117556
-0.000220586
0.0120509
-0.000295269
0.0124467
-0.00039579
0.0129777
-0.000530908
0.0136895
-0.000711799
0.014642
-0.000952428
0.0159112
-0.00126911
0.0175905
-0.00167924
0.0197883
-0.00219772
0.0226193
-0.00283077
0.0261848
-0.00356531
0.030537
-0.00435208
0.0356348
-0.00509745
0.0412506
-0.0056159
-0.00571995
0.0469704
0.0276589
-0.000108947
0.0276449
-0.000204352
0.027687
-0.000202444
0.0277498
-0.000177862
0.027818
-0.000153337
0.0278842
-0.000129808
0.0279444
-0.000108251
0.0279977
-9.0173e-05
0.0280441
-7.59246e-05
0.0280848
-6.49392e-05
0.0281206
-5.6272e-05
0.0281524
-4.91917e-05
0.0281808
-4.33526e-05
0.0282064
-3.87243e-05
0.0282298
-3.52616e-05
0.0282516
-3.29083e-05
0.0282724
-3.1504e-05
0.0282927
-3.09879e-05
0.0283131
-3.135e-05
0.0283344
-3.27362e-05
0.0283573
-3.53869e-05
0.0283828
-3.96767e-05
0.0284123
-4.60876e-05
0.0284473
-5.52805e-05
0.0284902
-6.80918e-05
0.0285439
-8.56866e-05
0.0286122
-0.000109569
0.0287002
-0.000141833
0.0288148
-0.000185227
0.0289649
-0.000243513
0.0291627
-0.00032167
0.029424
-0.000426403
0.0297701
-0.000566589
0.0302289
-0.000753982
0.0308371
-0.00100395
0.0316426
-0.00133629
0.0327068
-0.00177596
0.0341078
-0.0023533
0.0359421
-0.00310329
0.0383258
-0.00406274
0.0413921
-0.00526386
0.0452849
-0.00672345
0.0501418
-0.00842197
0.0560664
-0.0102762
0.0630796
-0.0121111
0.0709862
-0.0135224
-0.0141576
0.0794236
0.0436991
-5.80372e-05
0.0436346
-0.000139839
0.0435972
-0.000164972
0.0435835
-0.000164118
0.0435867
-0.000156538
0.0436021
-0.000145137
0.0436249
-0.000131073
0.0436514
-0.000116611
0.043679
-0.000103518
0.0437065
-9.23857e-05
0.0437332
-8.29361e-05
0.0437587
-7.47051e-05
0.0437829
-6.7528e-05
0.0438057
-6.15201e-05
0.0438274
-5.68812e-05
0.0438482
-5.36456e-05
0.0438685
-5.17792e-05
0.0438888
-5.12118e-05
0.0439094
-5.19935e-05
0.043931
-5.43345e-05
0.0439543
-5.86172e-05
0.04398
-6.54306e-05
0.0440095
-7.55572e-05
0.0440443
-9.0036e-05
0.0440864
-0.00011024
0.0441388
-0.000137964
0.0442049
-0.00017564
0.0442896
-0.000226476
0.0443993
-0.000294817
0.0445423
-0.00038643
0.0447298
-0.000509042
0.0449763
-0.000672889
0.0453013
-0.000891524
0.0457301
-0.00118274
0.046296
-0.00156969
0.0470419
-0.00208215
0.0480236
-0.00275761
0.0493125
-0.00364215
0.0509992
-0.0047899
0.0531972
-0.00626072
0.0560458
-0.00811253
0.0597122
-0.0103898
0.0643823
-0.013092
0.0702595
-0.0161537
0.0775047
-0.0193557
0.0860831
-0.0221011
-0.0240673
0.0959929
0.0577269
-3.49238e-05
0.0576798
-9.26801e-05
0.0576369
-0.000122048
0.0576041
-0.000131335
0.0575804
-0.000132791
0.0575651
-0.000129855
0.0575573
-0.000123217
0.0575552
-0.00011447
0.0575572
-0.000105467
0.0575621
-9.72444e-05
0.0575691
-8.9912e-05
0.0575775
-8.31914e-05
0.057587
-7.70119e-05
0.0575971
-7.16285e-05
0.0576077
-6.74021e-05
0.0576187
-6.45632e-05
0.0576301
-6.31919e-05
0.0576423
-6.32999e-05
0.0576553
-6.4989e-05
0.0576695
-6.85241e-05
0.0576853
-7.44023e-05
0.0577033
-8.33598e-05
0.0577241
-9.641e-05
0.057749
-0.000114884
0.0577793
-0.000140532
0.057817
-0.000175649
0.0578647
-0.000223286
0.0579258
-0.000287501
0.0580047
-0.000373718
0.0581075
-0.000489165
0.058242
-0.000643473
0.0584186
-0.000849411
0.0586511
-0.00112387
0.0589574
-0.00148907
0.0593618
-0.00197403
0.0598962
-0.00261642
0.0606031
-0.00346448
0.06154
-0.00457911
0.0627855
-0.00603541
0.0644476
-0.00792293
0.0666762
-0.0103413
0.0696785
-0.0133923
0.0737252
-0.017139
0.079178
-0.021606
0.086385
-0.0265631
0.0957498
-0.0314653
-0.0368273
0.10851
0.0697377
-2.25826e-05
0.0697079
-6.28409e-05
0.0696746
-8.87741e-05
0.0696441
-0.000100884
0.0696172
-0.000105893
0.0695942
-0.000106837
0.0695754
-0.000104323
0.0695604
-9.9407e-05
0.0695486
-9.36193e-05
0.0695394
-8.80513e-05
0.0695325
-8.29595e-05
0.0695275
-7.81649e-05
0.069524
-7.35923e-05
0.0695219
-6.95233e-05
0.0695209
-6.6358e-05
0.0695208
-6.44556e-05
0.0695216
-6.39726e-05
0.0695234
-6.50041e-05
0.0695261
-6.7674e-05
0.0695299
-7.22794e-05
0.0695349
-7.93495e-05
0.0695413
-8.96921e-05
0.0695493
-0.000104416
0.0695594
-0.000125007
0.0695723
-0.000153382
0.0695887
-0.000192094
0.0696099
-0.000244467
0.0696374
-0.000314967
0.0696732
-0.000409495
0.0697201
-0.000535961
0.0697815
-0.00070486
0.0698624
-0.00093017
0.069969
-0.0012304
0.0701101
-0.00163007
0.0702976
-0.00216149
0.0705484
-0.00286718
0.0708868
-0.00380293
0.0713494
-0.00504163
0.071992
-0.00667818
0.0729044
-0.00883547
0.0742332
-0.0116703
0.0762209
-0.0153803
0.0792664
-0.0201844
0.0839917
-0.0263318
0.0912002
-0.0337708
0.102091
-0.0423555
-0.053869
0.119133
0.0797425
-1.51195e-05
0.0797229
-4.32039e-05
0.0796978
-6.36823e-05
0.0796721
-7.51744e-05
0.0796473
-8.11002e-05
0.0796241
-8.35792e-05
0.079603
-8.31425e-05
0.0795841
-8.04987e-05
0.0795674
-7.68328e-05
0.0795525
-7.31169e-05
0.0795392
-6.96601e-05
0.0795274
-6.63509e-05
0.0795169
-6.31291e-05
0.0795076
-6.0215e-05
0.0794992
-5.80133e-05
0.0794916
-5.68874e-05
0.0794848
-5.70646e-05
0.0794785
-5.86726e-05
0.0794727
-6.18527e-05
0.0794674
-6.68928e-05
0.0794624
-7.42889e-05
0.0794576
-8.4819e-05
0.0794528
-9.95606e-05
0.0794477
-0.000119959
0.0794422
-0.000147909
0.079436
-0.000185888
0.0794287
-0.000237172
0.0794198
-0.000306095
0.0794088
-0.00039843
0.0793948
-0.000521874
0.0793766
-0.000686684
0.0793531
-0.000906541
0.0793224
-0.00119965
0.0792827
-0.00159028
0.079232
-0.00211077
0.0791692
-0.00280432
0.0790951
-0.00372883
0.0790159
-0.00496241
0.0789489
-0.0066113
0.0789353
-0.008822
0.0790652
-0.0118005
0.0795277
-0.0158429
0.0807334
-0.0213904
0.0835003
-0.0290981
0.0896142
-0.0398843
0.101859
-0.0546
-0.0729193
0.12091
0.087745
-1.0065e-05
0.0877309
-2.91096e-05
0.0877112
-4.40179e-05
0.0876894
-5.3312e-05
0.0876669
-5.86852e-05
0.0876448
-6.14325e-05
0.0876236
-6.19164e-05
0.0876038
-6.06099e-05
0.0875854
-5.83809e-05
0.0875683
-5.59837e-05
0.0875524
-5.37106e-05
0.0875375
-5.14997e-05
0.0875236
-4.93099e-05
0.0875107
-4.73081e-05
0.0874985
-4.58316e-05
0.0874868
-4.52095e-05
0.0874755
-4.56718e-05
0.0874642
-4.73547e-05
0.0874528
-5.04009e-05
0.087441
-5.50481e-05
0.0874285
-6.17243e-05
0.0874149
-7.10801e-05
0.0873994
-8.40491e-05
0.0873813
-0.000101872
0.0873596
-0.000126196
0.0873329
-0.000159165
0.0872993
-0.000203617
0.0872565
-0.000263301
0.0872013
-0.000343213
0.0871294
-0.000450011
0.0870354
-0.000592595
0.0869117
-0.000782849
0.0867488
-0.00103669
0.086534
-0.00137542
0.0862511
-0.00182775
0.0858793
-0.00243245
0.0853928
-0.00324238
0.0847607
-0.00433032
0.0839473
-0.00579802
0.0829153
-0.00779015
0.0816329
-0.0105184
0.0800888
-0.0142991
0.0783427
-0.0196442
0.0766165
-0.027372
0.0759935
-0.0392614
0.0799553
-0.0585614
-0.0895385
0.0965746
0.0937462
-6.2104e-06
0.0937352
-1.808e-05
0.0937189
-2.7745e-05
0.0936997
-3.41561e-05
0.0936791
-3.81201e-05
0.0936581
-4.03497e-05
0.0936372
-4.10315e-05
0.0936171
-4.04638e-05
0.093598
-3.9214e-05
0.0935799
-3.7795e-05
0.0935626
-3.64208e-05
0.0935461
-3.50711e-05
0.0935305
-3.37178e-05
0.0935157
-3.24739e-05
0.0935014
-3.15735e-05
0.0934874
-3.12618e-05
0.0934735
-3.17212e-05
0.0934593
-3.30682e-05
0.0934443
-3.54162e-05
0.0934283
-3.8944e-05
0.0934106
-4.39585e-05
0.0933905
-5.09359e-05
0.0933671
-6.05517e-05
0.093339
-7.37194e-05
0.0933044
-9.16425e-05
0.0932612
-0.000115901
0.0932061
-0.000148576
0.0931352
-0.000192423
0.093043
-0.000251112
0.0929226
-0.000329538
0.0927642
-0.000434251
0.0925555
-0.000574025
0.0922795
-0.00076064
0.0919141
-0.00100996
0.0914299
-0.00134347
0.0907879
-0.00179046
0.0899368
-0.00239122
0.0888083
-0.00320191
0.087312
-0.00430184
0.0853264
-0.00580472
0.0826843
-0.00787668
0.079146
-0.010761
0.0743281
-0.0148265
0.0675399
-0.020584
0.0571836
-0.0289053
0.0393711
-0.0407499
-0.0501677
0.0977468
-2.98376e-06
0.0977374
-8.67765e-06
0.0977231
-1.34272e-05
0.0977056
-1.6683e-05
0.0976862
-1.87715e-05
0.0976659
-2.00013e-05
0.0976454
-2.04422e-05
0.0976252
-2.02462e-05
0.0976057
-1.96938e-05
0.097587
-1.90384e-05
0.097569
-1.83924e-05
0.0975517
-1.7755e-05
0.097535
-1.71155e-05
0.0975191
-1.65286e-05
0.0975036
-1.61108e-05
0.0974883
-1.59905e-05
0.0974729
-1.62658e-05
0.0974568
-1.70058e-05
0.0974398
-1.82739e-05
0.097421
-2.01685e-05
0.0974
-2.28519e-05
0.0973757
-2.65745e-05
0.0973469
-3.16927e-05
0.0973119
-3.86869e-05
0.0972685
-4.81928e-05
0.0972136
-6.10449e-05
0.0971434
-7.8343e-05
0.0970524
-0.000101545
0.0969339
-0.000132591
0.0967784
-0.000174074
0.0965736
-0.000229464
0.0963031
-0.000303419
0.0959447
-0.000402201
0.0954691
-0.000534272
0.0948368
-0.000711128
0.0939949
-0.000948512
0.0928719
-0.00126819
0.0913705
-0.00170061
0.0893574
-0.00228891
0.0866473
-0.00309482
0.082978
-0.00420767
0.0779724
-0.00575571
0.0710697
-0.00792427
0.0614395
-0.0109541
0.0477056
-0.0151728
0.0275223
-0.0205673
-0.0226458
0.099747
1.62232e-09
0.0997384
-9.51867e-09
0.099725
-1.34536e-08
0.0997083
-2.18803e-08
0.0996895
-2.21306e-08
0.0996696
-1.1076e-08
0.0996492
-6.58099e-09
0.099629
-1.78513e-08
0.0996094
-3.08666e-08
0.0995904
-3.1422e-08
0.099572
-2.23488e-08
0.0995543
-1.76244e-08
0.0995372
-2.48937e-08
0.0995207
-4.25595e-08
0.0995046
-6.23504e-08
0.0994887
-7.68485e-08
0.0994725
-8.31438e-08
0.0994556
-8.19505e-08
0.0994375
-7.7704e-08
0.0994175
-7.52144e-08
0.0993948
-7.85592e-08
0.0993683
-9.06853e-08
0.0993368
-1.11058e-07
0.0992983
-1.3884e-07
0.0992503
-1.70363e-07
0.0991895
-2.03292e-07
0.0991113
-2.34902e-07
0.09901
-2.63846e-07
0.0988777
-2.90268e-07
0.0987039
-3.14676e-07
0.0984748
-3.39137e-07
0.0981717
-3.64944e-07
0.09777
-3.93984e-07
0.0972362
-4.2684e-07
0.0965256
-4.6457e-07
0.0955776
-5.06444e-07
0.09431
-5.53295e-07
0.0926099
-6.0313e-07
0.0903216
-6.51871e-07
0.0872272
-6.90964e-07
0.08302
-6.98481e-07
0.0772644
-6.76027e-07
0.0693406
-5.50766e-07
0.0583862
-7.81051e-07
0.0432136
-6.40536e-07
0.0226457
-9.88086e-07
-4.90453e-07
0.099747
2.98661e-06
0.0997384
8.65298e-06
0.099725
1.34052e-05
0.0997083
1.66463e-05
0.0996895
1.87276e-05
0.0996696
1.99737e-05
0.0996492
2.04243e-05
0.099629
2.0212e-05
0.0996094
1.96394e-05
0.0995904
1.8983e-05
0.099572
1.83498e-05
0.0995543
1.77163e-05
0.0995372
1.70591e-05
0.0995207
1.64393e-05
0.0995046
1.59875e-05
0.0994887
1.58438e-05
0.0994725
1.61107e-05
0.0994556
1.6853e-05
0.0994375
1.8127e-05
0.0994174
2.00219e-05
0.0993947
2.26935e-05
0.0993683
2.63894e-05
0.0993368
3.14655e-05
0.0992983
3.84067e-05
0.0992503
4.78532e-05
0.0991894
6.06446e-05
0.0991113
7.78844e-05
0.0990099
0.000101032
0.0988776
0.000132028
0.0987038
0.000173463
0.0984747
0.000228805
0.0981716
0.000302706
0.0977699
0.000401429
0.0972361
0.000533433
0.0965255
0.000710215
0.0955775
0.000947515
0.0943098
0.0012671
0.0926097
0.00169943
0.0903213
0.00228763
0.087227
0.00309348
0.0830197
0.00420634
0.0772643
0.00575448
0.0693399
0.00792303
0.058386
0.0109531
0.043213
0.0151709
0.0226454
0.0205656
0.0226447
0.0977468
6.2138e-06
0.0977374
1.80602e-05
0.0977231
2.77208e-05
0.0977056
3.41172e-05
0.0976862
3.80788e-05
0.0976659
4.03266e-05
0.0976454
4.1016e-05
0.0976252
4.04327e-05
0.0976057
3.91638e-05
0.097587
3.77421e-05
0.097569
3.63756e-05
0.0975516
3.50268e-05
0.097535
3.36587e-05
0.097519
3.23908e-05
0.0975035
3.14665e-05
0.0974883
3.1139e-05
0.0974728
3.15902e-05
0.0974568
3.29347e-05
0.0974397
3.5279e-05
0.097421
3.87977e-05
0.0973999
4.37936e-05
0.0973756
5.07419e-05
0.0973468
6.03193e-05
0.0973118
7.3442e-05
0.0972683
9.13161e-05
0.0972135
0.000115525
0.0971432
0.000148152
0.0970522
0.000191952
0.0969337
0.000250594
0.0967782
0.000328974
0.0965733
0.000433637
0.0963027
0.000573356
0.0959443
0.00075991
0.0954687
0.00100916
0.0948363
0.0013426
0.0939944
0.0017895
0.0928713
0.00239019
0.0913699
0.00320078
0.0893568
0.00430063
0.0866467
0.00580345
0.0829774
0.00787541
0.0779717
0.0107599
0.0710691
0.0148255
0.0614386
0.0205828
0.0477051
0.0289041
0.0275221
0.040748
0.0501664
0.0937462
1.00673e-05
0.0937351
2.90869e-05
0.0937189
4.39953e-05
0.0936997
5.32796e-05
0.0936791
5.86471e-05
0.0936581
6.14065e-05
0.0936372
6.18987e-05
0.0936171
6.05882e-05
0.093598
5.83476e-05
0.0935798
5.59426e-05
0.0935625
5.36621e-05
0.0935461
5.14431e-05
0.0935305
4.92422e-05
0.0935156
4.72329e-05
0.0935013
4.57516e-05
0.0934874
4.51264e-05
0.0934734
4.55817e-05
0.0934592
4.72523e-05
0.0934442
5.02779e-05
0.0934282
5.49e-05
0.0934105
6.15459e-05
0.0933904
7.08713e-05
0.0933669
8.38083e-05
0.0933388
0.000101602
0.0933042
0.000125894
0.0932609
0.000158833
0.0932058
0.000203251
0.0931348
0.000262899
0.0930427
0.00034277
0.0929221
0.000449522
0.0927638
0.000592052
0.0925549
0.000782249
0.0922789
0.00103602
0.0919134
0.00137469
0.0914291
0.00182695
0.0907871
0.00243157
0.0899359
0.00324143
0.0888073
0.0043293
0.0873109
0.00579693
0.0853253
0.007789
0.0826833
0.0105173
0.0791451
0.014298
0.0743271
0.0196432
0.0675389
0.0273711
0.0571822
0.0392602
0.0393695
0.0585599
0.089536
0.087745
1.51224e-05
0.0877309
4.318e-05
0.0877112
6.36579e-05
0.0876893
7.51448e-05
0.0876669
8.107e-05
0.0876448
8.35561e-05
0.0876236
8.31291e-05
0.0876038
8.04851e-05
0.0875854
7.68116e-05
0.0875682
7.30772e-05
0.0875523
6.96032e-05
0.0875374
6.62838e-05
0.0875235
6.30657e-05
0.0875106
6.01664e-05
0.0874984
5.7979e-05
0.0874867
5.68554e-05
0.0874754
5.70185e-05
0.0874641
5.85939e-05
0.0874527
6.17353e-05
0.0874409
6.67322e-05
0.0874284
7.40944e-05
0.0874147
8.45972e-05
0.0873991
9.93229e-05
0.087381
0.000119711
0.0873593
0.000147652
0.0873325
0.00018562
0.0872989
0.000236886
0.087256
0.00030578
0.0872008
0.000398078
0.0871289
0.000521473
0.0870348
0.00068623
0.086911
0.000906024
0.0867481
0.00119907
0.0865332
0.00158964
0.0862501
0.00211006
0.0858782
0.00280355
0.0853916
0.00372801
0.0847593
0.00496153
0.0839459
0.00661037
0.0829138
0.00882105
0.0816315
0.0117995
0.0800876
0.0158419
0.0783415
0.0213894
0.0766152
0.0290972
0.0759924
0.0398829
0.079954
0.0545985
0.0729177
0.0965718
0.0797425
2.2582e-05
0.0797229
6.28239e-05
0.0796978
8.8753e-05
0.0796721
0.000100863
0.0796473
0.000105875
0.0796241
0.000106813
0.0796029
0.00010431
0.0795841
9.94037e-05
0.0795673
9.36072e-05
0.0795524
8.80097e-05
0.0795391
8.28887e-05
0.0795273
7.80887e-05
0.0795168
7.3546e-05
0.0795074
6.95147e-05
0.0794991
6.63825e-05
0.0794915
6.44778e-05
0.0794846
6.3964e-05
0.0794784
6.49412e-05
0.0794726
6.75503e-05
0.0794672
7.21054e-05
0.0794622
7.91416e-05
0.0794573
8.94715e-05
0.0794524
0.0001042
0.0794473
0.000124801
0.0794418
0.000153192
0.0794355
0.000191904
0.0794282
0.000244272
0.0794193
0.000314745
0.0794082
0.000409238
0.0793941
0.000535653
0.0793759
0.000704498
0.0793522
0.000929747
0.0793215
0.00122992
0.0792816
0.00162953
0.0792308
0.0021609
0.0791679
0.00286654
0.0790936
0.00380225
0.0790143
0.00504092
0.0789472
0.00667746
0.0789335
0.00883474
0.0790637
0.0116695
0.0795261
0.0153795
0.0807321
0.0201835
0.083499
0.0263306
0.0896124
0.0337697
0.101857
0.042354
0.0538673
0.120908
0.0697377
3.49199e-05
0.0697078
9.26636e-05
0.0696746
0.000122031
0.0696441
0.00013133
0.0696172
0.000132783
0.0695942
0.000129838
0.0695754
0.000123207
0.0695604
0.000114479
0.0695485
0.000105461
0.0695393
9.71987e-05
0.0695324
8.98315e-05
0.0695273
8.31219e-05
0.0695239
7.69928e-05
0.0695218
7.16694e-05
0.0695207
6.74735e-05
0.0695207
6.46235e-05
0.0695215
6.3199e-05
0.0695233
6.32384e-05
0.069526
6.4858e-05
0.0695297
6.83469e-05
0.0695347
7.42027e-05
0.0695409
8.31663e-05
0.0695489
9.6238e-05
0.0695589
0.000114743
0.0695717
0.000140415
0.0695881
0.000175545
0.0696093
0.000223177
0.0696368
0.000287371
0.0696725
0.00037355
0.0697193
0.000488951
0.0697807
0.000643204
0.0698614
0.000849092
0.0699679
0.0011235
0.0701089
0.00148865
0.0702962
0.00197358
0.0705468
0.00261594
0.0708852
0.00346398
0.0713475
0.00457862
0.0719901
0.00603492
0.0729025
0.00792247
0.0742313
0.0103408
0.0762191
0.0133919
0.0792645
0.0171384
0.0839898
0.0216055
0.091198
0.026562
0.102088
0.031464
0.036826
0.11913
0.0577269
5.80385e-05
0.0576797
0.00013983
0.0576368
0.000164957
0.0576041
0.000164117
0.0575803
0.000156533
0.0575651
0.000145126
0.0575573
0.000131077
0.0575552
0.000116631
0.0575571
0.00010352
0.0575619
9.2334e-05
0.0575689
8.28623e-05
0.0575774
7.46624e-05
0.0575868
6.75524e-05
0.057597
6.16071e-05
0.0576075
5.69781e-05
0.0576185
5.37108e-05
0.05763
5.17753e-05
0.0576421
5.11333e-05
0.0576551
5.18609e-05
0.0576693
5.41682e-05
0.057685
5.8457e-05
0.0577028
6.52903e-05
0.0577236
7.54561e-05
0.0577484
8.99703e-05
0.0577787
0.0001102
0.0578164
0.000137937
0.057864
0.000175603
0.0579251
0.000226418
0.058004
0.000294722
0.0581068
0.000386294
0.0582412
0.000508863
0.0584177
0.00067267
0.05865
0.000891275
0.0589562
0.00118246
0.0593604
0.0015694
0.0598946
0.00208184
0.0606013
0.00275732
0.0615382
0.00364188
0.0627835
0.0047897
0.0644456
0.00626059
0.0666742
0.00811247
0.0696766
0.0103898
0.0737234
0.013092
0.079176
0.0161534
0.0863829
0.0193555
0.0957474
0.0221001
0.0240654
0.108508
0.0436991
0.000108948
0.0436346
0.00020435
0.0435971
0.000202447
0.0435834
0.000177874
0.0435866
0.000153345
0.043602
0.000129799
0.0436249
0.000108267
0.0436513
9.01983e-05
0.0436789
7.59249e-05
0.0437063
6.48903e-05
0.043733
5.62199e-05
0.0437585
4.91836e-05
0.0437827
4.34189e-05
0.0438055
3.8823e-05
0.0438272
3.5362e-05
0.0438481
3.29513e-05
0.0438684
3.14884e-05
0.0438886
3.09064e-05
0.0439092
3.12344e-05
0.0439307
3.26089e-05
0.0439539
3.52782e-05
0.0439795
3.95999e-05
0.044009
4.6055e-05
0.0440437
5.52799e-05
0.0440859
6.81219e-05
0.0441382
8.57174e-05
0.0442043
0.000109599
0.044289
0.000141833
0.0443987
0.000185203
0.0445416
0.000243448
0.044729
0.000321579
0.0449754
0.000426284
0.0453003
0.000566456
0.045729
0.000753841
0.0462946
0.00100381
0.0470404
0.00133616
0.048022
0.00177585
0.0493109
0.00235324
0.0509975
0.00310331
0.0531956
0.00406286
0.0560444
0.0052641
0.059711
0.00672377
0.0643813
0.0084224
0.0702586
0.0102766
0.0775037
0.0121109
0.0860817
0.013522
0.0141568
0.0959909
0.0276589
0.00020007
0.0276449
0.000218345
0.0276869
0.000160473
0.0277497
0.00011508
0.027818
8.51564e-05
0.0278841
6.37161e-05
0.0279444
4.80412e-05
0.0279976
3.70204e-05
0.028044
2.94914e-05
0.0280846
2.42682e-05
0.0281204
2.04191e-05
0.0281522
1.74065e-05
0.0281807
1.50316e-05
0.0282063
1.32491e-05
0.0282298
1.20093e-05
0.0282516
1.12217e-05
0.0282723
1.07871e-05
0.0282925
1.06527e-05
0.0283129
1.08255e-05
0.0283341
1.13779e-05
0.0283569
1.24237e-05
0.0283824
1.4119e-05
0.0284118
1.66523e-05
0.0284469
2.02697e-05
0.0284898
2.52878e-05
0.0285435
3.21425e-05
0.0286118
4.14216e-05
0.0286998
5.39361e-05
0.0288143
7.07843e-05
0.0289644
9.34639e-05
0.029162
0.000123999
0.0294232
0.000165128
0.0297692
0.000220545
0.0302279
0.000295213
0.0308361
0.000395751
0.0316415
0.000530866
0.0327057
0.000711782
0.0341067
0.000952435
0.0359412
0.00126918
0.0383251
0.00167938
0.0413917
0.00219795
0.045285
0.00283112
0.0501423
0.00356574
0.0560668
0.00435254
0.0630798
0.00509793
0.0709861
0.00561612
0.00571979
0.079423
0.00995007
0.0101684
0.0103289
0.010444
0.0105292
0.0105929
0.0106409
0.0106779
0.0107074
0.0107317
0.0107521
0.0107695
0.0107846
0.0107979
0.0108099
0.0108211
0.0108319
0.0108426
0.0108534
0.0108647
0.0108772
0.0108913
0.0109079
0.0109282
0.0109535
0.0109857
0.0110271
0.0110811
0.0111519
0.0112454
0.0113694
0.0115345
0.0117551
0.0120503
0.0124461
0.012977
0.0136888
0.0146413
0.0159106
0.0175901
0.0197881
0.0226194
0.0261853
0.0305379
0.0356359
0.041252
0.0469719
0.0521039
-0.00513377
0.0558614
-0.00375749
0.0578327
-0.00197131
0.058035
-0.000201895
0.0566975
0.00133776
0.00254842
0.0541495
0.0875618
-0.0132722
0.0944402
-0.0106357
0.0996307
-0.00716141
0.10314
-0.00371091
0.105032
-0.000553667
0.00222056
0.105361
0.10578
-0.0230586
0.113918
-0.018774
0.120111
-0.0133538
0.124472
-0.00807066
0.127177
-0.00325892
0.000875462
0.128523
0.120946
-0.0354935
0.129921
-0.0277485
0.135693
-0.0191258
0.138901
-0.0112782
0.140205
-0.00456254
0.000749655
0.140331
0.132275
-0.0486348
0.137412
-0.0328851
0.137873
-0.0195865
0.136169
-0.00957341
0.133892
-0.00228547
0.00282863
0.131813
0.120735
-0.0484596
0.110246
-0.0223961
0.0991376
-0.00847689
0.0909864
-0.00142235
0.086455
0.00224658
0.00450762
0.0847759
0.0481152
0.0257195
0.0172426
0.0158205
0.018067
0.0225746
0.0481133
0.0484584
0.0257182
0.0223949
0.0172408
0.00847734
0.0158181
0.00142253
0.0180638
-0.00224582
-0.00450788
0.0225714
0.120733
0.0486336
0.110242
0.032885
0.0991324
0.0195871
0.0909807
0.00957396
0.0864489
0.00228575
-0.00282855
0.084769
0.132272
0.035492
0.137409
0.0277475
0.13787
0.019126
0.136166
0.0112786
0.133888
0.00456307
-0.00074904
0.131808
0.120943
0.0230569
0.129918
0.0187725
0.135691
0.0133531
0.138899
0.00807066
0.140203
0.00325891
-0.000875334
0.140329
0.105777
0.0132707
0.113916
0.0106344
0.120108
0.00716034
0.124469
0.0037102
0.127175
0.000552931
-0.00222121
0.128522
0.0875609
0.00513348
0.0944388
0.00375679
0.0996294
0.00197063
0.103139
0.000201179
0.105031
-0.00133862
-0.00254914
0.10536
0.0521055
0.0558627
0.0578336
0.058035
0.0566966
0.0541476
0.0507605
0.00338939
0.046889
0.00387188
0.0428308
0.00405844
0.0387977
0.00403332
0.0349304
0.00386747
0.0313203
0.00361038
0.0280222
0.00329836
0.0250625
0.00295997
0.0224461
0.00261659
0.0201635
0.00228283
0.0181956
0.00196793
0.0165184
0.00167728
0.0151051
0.00141335
0.0139287
0.00117645
0.0129632
0.000965591
0.0121841
0.000779124
0.0115689
0.000615221
0.0110969
0.000472078
0.0107489
0.000348015
0.0105074
0.000241436
0.0103566
0.000150838
0.0102818
7.47737e-05
0.0102698
1.18816e-05
0.010309
-3.91844e-05
0.0103887
-7.9751e-05
0.0104997
-0.000111078
0.010634
-0.000134368
0.0107848
-0.000150844
0.0109462
-0.000161474
0.0111133
-0.00016706
0.0112816
-0.000168366
0.0114477
-0.000166197
0.011609
-0.000161332
0.0117634
-0.000154443
0.0119094
-0.000146064
0.012046
-0.000136645
0.0121725
-0.000126559
0.0122886
-0.000116123
0.0123941
-0.000105589
0.0124892
-9.51658e-05
0.0125742
-8.50079e-05
0.0126494
-7.52549e-05
0.0127153
-6.59353e-05
0.0127726
-5.72539e-05
0.0128213
-4.86954e-05
0.0128629
-4.16662e-05
-2.58618e-05
0.104271
0.00447999
0.101982
0.0061607
0.0987191
0.00732186
0.0946881
0.00806459
0.0900857
0.00847019
0.0850995
0.00859697
0.0799033
0.00849487
0.0746537
0.00820984
0.069488
0.00778258
0.0645221
0.00724889
0.0598489
0.00664129
0.0555367
0.00598957
0.0516298
0.00532028
0.0481503
0.00465601
0.045101
0.00401491
0.0424695
0.00341069
0.0402321
0.00285275
0.0383575
0.00234669
0.0368106
0.00189487
0.0355549
0.00149717
0.034554
0.00115167
0.0337735
0.000855224
0.0331812
0.000604024
0.032748
0.000393946
0.0324474
0.000220713
0.0322562
8.00625e-05
0.0321538
-3.20712e-05
0.0321221
-0.000119212
0.0321452
-0.000184572
0.0322094
-0.000231342
0.0323034
-0.000262469
0.0324178
-0.000280725
0.032545
-0.000288606
0.0326786
-0.000288185
0.0328137
-0.000281213
0.0329462
-0.000269204
0.033073
-0.00025345
0.0331918
-0.000235047
0.033301
-0.000214902
0.0333995
-0.000193765
0.0334867
-0.000172234
0.0335622
-0.000150832
0.0336261
-0.000129842
0.0336788
-0.000110041
0.0337201
-8.99534e-05
0.0337548
-7.64163e-05
-3.53136e-05
0.128799
0.00420445
0.128205
0.00675528
0.126842
0.00868457
0.124764
0.0101427
0.122025
0.0112097
0.118694
0.0119281
0.114856
0.0123329
0.110611
0.0124555
0.106069
0.012324
0.101351
0.0119671
0.0965751
0.0114174
0.091853
0.0107118
0.0872838
0.00988953
0.0829496
0.0089903
0.0789127
0.00805181
0.0752155
0.00710789
0.0718813
0.00618701
0.0689164
0.00531148
0.0663139
0.00449733
0.0640562
0.00375477
0.0621188
0.00308902
0.0604727
0.00250126
0.059087
0.0019897
0.0579304
0.0015504
0.056973
0.0011781
0.0561862
0.000866761
0.055544
0.000610053
0.0550231
0.000401618
0.0546032
0.000235303
0.0542664
0.000105352
0.0539975
6.31478e-06
0.0537834
-6.66297e-05
0.0536123
-0.000117645
0.0534746
-0.000150577
0.0533622
-0.000168867
0.0532685
-0.000175502
0.053188
-0.000173021
0.0531164
-0.000163572
0.0530504
-0.000148943
0.0529872
-0.000130616
0.0529247
-0.0001098
0.0528614
-8.75326e-05
0.052796
-6.45187e-05
0.0527281
-4.21427e-05
0.0526567
-1.86239e-05
0.0525857
-5.40722e-06
4.69693e-05
0.139848
0.00468831
0.139045
0.00755826
0.137997
0.00973261
0.136687
0.011453
0.135085
0.0128119
0.133164
0.0138498
0.130904
0.0145923
0.128308
0.0150525
0.125395
0.0152365
0.122209
0.0151531
0.118808
0.014819
0.115259
0.01426
0.111639
0.0135101
0.10802
0.0126093
0.104471
0.0116007
0.101052
0.0105273
0.0978092
0.00942946
0.0947783
0.0083423
0.0919811
0.00729448
0.089428
0.00630777
0.0871198
0.00539716
0.0850494
0.00457161
0.0832041
0.003835
0.0815673
0.00318718
0.0801203
0.00262501
0.0788437
0.00214331
0.0777181
0.00173558
0.0767251
0.00139463
0.0758473
0.00111302
0.0750692
0.000883428
0.0743765
0.000698904
0.0737569
0.000552919
0.0731997
0.000439479
0.0726958
0.000353276
0.0722372
0.000289623
0.0718173
0.000244422
0.0714301
0.000214135
0.0710707
0.000195747
0.070735
0.000186711
0.0704194
0.000184901
0.070121
0.000188559
0.0698373
0.000196195
0.069566
0.000206682
0.0693055
0.000218401
0.0690545
0.000232365
0.0688107
0.000238324
0.000275442
0.130272
0.00622926
0.129369
0.00846218
0.128873
0.0102285
0.128581
0.0117454
0.128336
0.0130566
0.128014
0.0141711
0.127527
0.01508
0.126817
0.0157619
0.125859
0.0161949
0.124645
0.0163667
0.123187
0.0162768
0.12151
0.0159378
0.119647
0.0153731
0.11764
0.0146162
0.115534
0.0137068
0.113373
0.012688
0.111199
0.0116027
0.109051
0.0104907
0.106959
0.00938685
0.104947
0.00831976
0.103032
0.00731131
0.101227
0.00637684
0.0995364
0.00552577
0.0979611
0.00476245
0.0964989
0.00408721
0.0951449
0.00349731
0.0938926
0.00298783
0.0927347
0.00255247
0.0916635
0.00218414
0.0906714
0.00187547
0.0897511
0.00161918
0.0888957
0.00140826
0.0880989
0.00123621
0.0873551
0.00109708
0.0866591
0.000985577
0.0860064
0.000897048
0.0853931
0.000827443
0.0848155
0.000773291
0.0842705
0.000731654
0.0837553
0.000700069
0.0832673
0.000676496
0.0828042
0.000659258
0.0823639
0.000646969
0.0819438
0.000638485
0.0815435
0.000632707
0.0811532
0.000628614
0.000626064
0.0853222
0.00568284
0.0876406
0.00614376
0.0906715
0.00719745
0.0939115
0.00850523
0.097063
0.00990501
0.0999533
0.0112806
0.102498
0.0125355
0.104663
0.0135962
0.106443
0.0144147
0.107846
0.0149638
0.108889
0.0152338
0.109596
0.0152304
0.109996
0.0149735
0.110119
0.0144937
0.109996
0.013829
0.109663
0.0130216
0.109151
0.0121142
0.108495
0.0111474
0.107724
0.0101576
0.106867
0.0091762
0.105951
0.00822812
0.104995
0.00733224
0.10402
0.00650155
0.103038
0.00574382
0.102063
0.00506248
0.101103
0.0044575
0.100164
0.00392625
0.0992526
0.00346428
0.0983707
0.00306601
0.0975209
0.00272524
0.0967045
0.00243555
0.095922
0.00219066
0.0951736
0.00198457
0.0944589
0.00181173
0.0937773
0.00166713
0.0931281
0.00154631
0.0925101
0.00144538
0.0919224
0.00136098
0.0913638
0.00129024
0.090833
0.00123077
0.0903289
0.00118058
0.08985
0.00113812
0.089395
0.00110194
0.0889616
0.00107195
0.08855
0.00104425
0.0881473
0.00103132
0.000980941
0.0294
-0.00114297
0.036476
-0.000932909
0.0431552
0.000517733
0.0493264
0.00233366
0.0550177
0.00421342
0.0602593
0.00603876
0.0650817
0.00771292
0.069506
0.00917169
0.0735429
0.0103776
0.0771991
0.0113075
0.0804818
0.011951
0.0833998
0.0123123
0.0859638
0.0124095
0.0881865
0.0122711
0.0900827
0.0119329
0.0916701
0.0114344
0.0929687
0.0108157
0.0940014
0.0101148
0.0947928
0.00936643
0.0953685
0.00860064
0.0957546
0.00784214
0.0959767
0.00711025
0.0960593
0.00641905
0.0960253
0.00577794
0.0958956
0.00519228
0.095689
0.00466416
0.0954222
0.00419315
0.0951096
0.00377695
0.0947636
0.00341202
0.0943948
0.00309404
0.094012
0.00281835
0.0936224
0.00258019
0.0932321
0.00237491
0.0928456
0.00219817
0.0924668
0.00204596
0.0920984
0.00191468
0.0917426
0.00180118
0.0914008
0.0017027
0.0910742
0.00161686
0.0907632
0.0015417
0.0904682
0.00147556
0.0901891
0.00141723
0.0899256
0.00136542
0.0896766
0.00132096
0.0894428
0.0012781
0.0892145
0.00125958
0.0011748
0.00418882
-0.0053324
0.00859693
-0.00534211
0.0125689
-0.003455
0.0165345
-0.0016325
0.0206473
0.000100125
0.0249162
0.00176945
0.0292966
0.00333217
0.0337354
0.00473274
0.0381747
0.00593811
0.0425561
0.006926
0.0468237
0.00768333
0.0509264
0.00820967
0.0548203
0.00851566
0.0584707
0.00862081
0.0618515
0.00855225
0.0649455
0.00834067
0.0677443
0.00801714
0.0702479
0.00761155
0.0724632
0.00715139
0.0744035
0.00666069
0.0760863
0.00615959
0.0775326
0.00566419
0.0787652
0.0051867
0.0798075
0.00473575
0.0806831
0.0043169
0.0814142
0.00393317
0.0820219
0.00358555
0.0825254
0.00327354
0.082942
0.00299555
0.0832868
0.00274928
0.0835732
0.00253203
0.0838125
0.00234092
0.0840143
0.00217306
0.0841868
0.00202566
0.0843367