/*--------------------------------*- C++ -*----------------------------------*\
| =========                 |                                                 |
| \\      /  F ield         | OpenFOAM: The Open Source CFD Toolbox           |
|  \\    /   O peration     | Version:  2406                                  |
|   \\  /    A nd           | Website:  www.openfoam.com                      |
|    \\/     M anipulation  |                                                 |
\*---------------------------------------------------------------------------*/
FoamFile
{
    version     2.0;
    format      ascii;
    arch        "LSB;label=32;scalar=64";
    class       volScalarField;
    location    "39";
    object      p;
}
// * * * * * * * * * * * * * * * * * * * * * * * * * * * * * * * * * * * * * //

dimensions      [0 2 -2 0 0 0 0];

internalField   nonuniform List<scalar> 
1964
(
2.72316
2.71797
2.7114
2.70446
2.69718
2.6896
2.68184
2.67399
2.66607
2.6581
2.65009
2.64205
2.63398
2.6259
2.61779
2.60968
2.60154
2.59339
2.58522
2.57702
2.5688
2.56056
2.55227
2.54394
2.53555
2.52707
2.51849
2.50976
2.50083
2.49165
2.48212
2.47211
2.46146
2.44993
2.4372
2.42282
2.40614
2.38625
2.36186
2.33113
2.29143
2.2391
2.16918
2.07533
1.9503
1.78706
1.58246
2.72666
2.71912
2.71142
2.70436
2.69712
2.68953
2.68175
2.67392
2.66602
2.65806
2.65004
2.642
2.63394
2.62587
2.61779
2.60967
2.60153
2.59337
2.58519
2.577
2.56878
2.56053
2.55225
2.54393
2.53553
2.52706
2.51846
2.50973
2.50079
2.4916
2.48205
2.47203
2.46137
2.44983
2.4371
2.42274
2.4061
2.38629
2.36204
2.33148
2.29194
2.23959
2.16907
2.07326
1.94357
1.77103
1.55185
2.72869
2.71973
2.71122
2.70416
2.69703
2.68943
2.68163
2.6738
2.66595
2.65802
2.65
2.64193
2.63387
2.62581
2.61776
2.60968
2.60156
2.5934
2.58522
2.57701
2.5688
2.56057
2.55232
2.54403
2.53569
2.52728
2.51878
2.51015
2.50136
2.49236
2.48307
2.4734
2.46322
2.45233
2.44046
2.42724
2.41212
2.39426
2.37243
2.34472
2.30823
2.25856
2.18916
2.09087
1.95177
1.75679
1.49811
2.72995
2.72039
2.71125
2.70407
2.69699
2.68936
2.68148
2.67366
2.66589
2.65803
2.65
2.64188
2.63377
2.62572
2.61771
2.60969
2.60162
2.5935
2.58532
2.57713
2.56892
2.56073
2.55253
2.54434
2.53614
2.5279
2.51963
2.51131
2.50292
2.49444
2.48586
2.47714
2.46821
2.459
2.44937
2.43908
2.42777
2.41477
2.39898
2.37845
2.34986
2.30769
2.2431
2.14315
1.99006
1.76069
1.44131
2.73092
2.7211
2.71148
2.70411
2.697
2.68929
2.68132
2.6735
2.66581
2.65804
2.65001
2.64183
2.63365
2.62558
2.61761
2.60968
2.6017
2.59365
2.58551
2.57734
2.56915
2.561
2.5529
2.54485
2.53685
2.52891
2.52102
2.51319
2.50546
2.49785
2.49041
2.48321
2.47632
2.46982
2.46378
2.45823
2.4531
2.4481
2.44244
2.4344
2.42043
2.39373
2.34161
2.24302
2.06296
1.76288
1.31009
2.73168
2.72173
2.71175
2.70421
2.69705
2.68926
2.68119
2.67335
2.66575
2.65807
2.65007
2.64181
2.63354
2.62542
2.61749
2.60965
2.60179
2.59383
2.58577
2.57763
2.56949
2.56139
2.5534
2.54552
2.53779
2.5302
2.52281
2.51563
2.50875
2.50226
2.49632
2.4911
2.48685
2.48387
2.48251
2.48317
2.48628
2.49214
2.5007
2.51113
2.5207
2.52296
2.50292
2.43049
2.23284
1.80698
0.893936
2.73226
2.72222
2.71201
2.70435
2.69715
2.68928
2.6811
2.67322
2.66569
2.65811
2.65013
2.64182
2.63345
2.62528
2.61736
2.6096
2.60186
2.59402
2.58604
2.57796
2.56987
2.56184
2.55396
2.54627
2.53881
2.53162
2.52476
2.51829
2.51235
2.5071
2.5028
2.49977
2.49843
2.49935
2.5032
2.51085
2.52333
2.54179
2.56736
2.60086
2.64204
2.68807
2.72948
2.74333
2.65621
2.30595
0.853154
2.73267
2.7226
2.71223
2.70449
2.69726
2.68931
2.68103
2.67311
2.66564
2.65814
2.6502
2.64185
2.6334
2.62517
2.61725
2.60956
2.60191
2.59418
2.58629
2.57828
2.57024
2.56228
2.5545
2.54698
2.53977
2.53295
2.52658
2.52079
2.51573
2.51165
2.5089
2.50793
2.50935
2.51396
2.52278
2.53714
2.55871
2.58957
2.63219
2.68942
2.76415
2.85868
2.97293
3.10215
3.22368
3.29119
3.01543
2.73294
2.72284
2.71237
2.70459
2.69735
2.68935
2.68099
2.67304
2.6656
2.65816
2.65026
2.64188
2.63338
2.6251
2.61717
2.60952
2.60195
2.59429
2.58648
2.57852
2.57053
2.56263
2.55493
2.54754
2.54053
2.53398
2.528
2.52272
2.51834
2.51518
2.51363
2.51427
2.51784
2.52533
2.53806
2.55771
2.5865
2.62727
2.68364
2.76012
2.86207
2.99549
3.16562
3.37455
3.61132
3.84233
3.92839
2.73308
2.72297
2.71245
2.70465
2.6974
2.68937
2.68097
2.673
2.66558
2.65817
2.65029
2.6419
2.63337
2.62506
2.61713
2.6095
2.60197
2.59435
2.58657
2.57866
2.57069
2.56282
2.55517
2.54784
2.54094
2.53455
2.52877
2.52377
2.51977
2.5171
2.51621
2.51773
2.52247
2.53155
2.54642
2.56898
2.60175
2.648
2.71197
2.79905
2.9159
3.07014
3.26913
3.51674
3.80362
4.09279
4.25938
2.73308
2.72297
2.71245
2.70465
2.6974
2.68937
2.68097
2.673
2.66557
2.65817
2.65028
2.6419
2.63337
2.62507
2.61714
2.6095
2.60197
2.59435
2.58657
2.57865
2.57069
2.56282
2.55517
2.54784
2.54094
2.53455
2.52878
2.52377
2.51978
2.5171
2.51621
2.51773
2.52248
2.53156
2.54642
2.56899
2.60175
2.648
2.71197
2.79906
2.91591
3.07016
3.26913
3.51681
3.80362
4.09273
4.25936
2.73294
2.72285
2.71238
2.70459
2.69735
2.68935
2.681
2.67305
2.6656
2.65815
2.65025
2.64188
2.63338
2.62511
2.61719
2.60953
2.60195
2.59429
2.58647
2.57852
2.57053
2.56263
2.55493
2.54754
2.54053
2.53399
2.52801
2.52273
2.51835
2.51518
2.51364
2.51427
2.51784
2.52534
2.53807
2.55772
2.58651
2.62728
2.68365
2.76013
2.86209
2.99551
3.16565
3.37458
3.61125
3.84241
3.92833
2.73267
2.7226
2.71223
2.70449
2.69725
2.68931
2.68105
2.67313
2.66564
2.65812
2.65018
2.64184
2.63341
2.62519
2.61727
2.60957
2.60192
2.59417
2.58628
2.57827
2.57023
2.56228
2.5545
2.54698
2.53978
2.53296
2.5266
2.5208
2.51574
2.51166
2.50891
2.50794
2.50936
2.51397
2.52279
2.53716
2.55873
2.58959
2.63222
2.68945
2.76418
2.85872
2.97298
3.10213
3.22365
3.2911
3.01539
2.73226
2.72222
2.71202
2.70435
2.69714
2.68928
2.68112
2.67324
2.66569
2.65808
2.65011
2.64181
2.63347
2.6253
2.61739
2.60962
2.60187
2.59401
2.58603
2.57795
2.56986
2.56184
2.55396
2.54628
2.53882
2.53164
2.52477
2.51831
2.51237
2.50712
2.50282
2.49979
2.49845
2.49936
2.50322
2.51088
2.52336
2.54181
2.56739
2.6009
2.64209
2.68812
2.72951
2.74336
2.65611
2.3056
0.853243
2.73168
2.72172
2.71176
2.70421
2.69704
2.68927
2.68121
2.67337
2.66575
2.65805
2.65005
2.64181
2.63355
2.62545
2.61751
2.60966
2.60179
2.59383
2.58576
2.57762
2.56948
2.56139
2.5534
2.54553
2.5378
2.53022
2.52282
2.51565
2.50876
2.50228
2.49634
2.49112
2.48687
2.48389
2.48253
2.4832
2.48631
2.49217
2.50074
2.51117
2.52075
2.523
2.50298
2.43047
2.23278
1.807
0.893728
2.73092
2.7211
2.71149
2.70411
2.69699
2.68929
2.68134
2.67351
2.66581
2.65802
2.65
2.64183
2.63367
2.6256
2.61763
2.60969
2.60171
2.59364
2.58551
2.57733
2.56915
2.56101
2.55291
2.54486
2.53687
2.52893
2.52104
2.51321
2.50548
2.49787
2.49043
2.48324
2.47635
2.46985
2.4638
2.45826
2.45313
2.44814
2.44249
2.43446
2.4205
2.39383
2.34171
2.2432
2.06312
1.7629
1.31024
2.72995
2.72039
2.71125
2.70407
2.69698
2.68936
2.68149
2.67367
2.66589
2.65802
2.64999
2.64189
2.63378
2.62574
2.61772
2.6097
2.60162
2.5935
2.58533
2.57713
2.56893
2.56073
2.55254
2.54435
2.53615
2.52792
2.51965
2.51133
2.50294
2.49447
2.48588
2.47716
2.46823
2.45903
2.44939
2.43911
2.4278
2.41482
2.39904
2.37852
2.34995
2.30781
2.24327
2.14332
1.99028
1.76096
1.44121
2.72869
2.71973
2.71122
2.70416
2.69703
2.68944
2.68163
2.6738
2.66595
2.65802
2.65
2.64194
2.63388
2.62582
2.61777
2.60968
2.60156
2.5934
2.58522
2.57702
2.5688
2.56057
2.55232
2.54404
2.5357
2.52729
2.51879
2.51017
2.50138
2.49238
2.48309
2.47343
2.46324
2.45235
2.44049
2.42728
2.41216
2.39431
2.37249
2.34479
2.30832
2.25866
2.18929
2.09101
1.95188
1.75684
1.49812
2.72666
2.71912
2.71142
2.70436
2.69712
2.68953
2.68176
2.67392
2.66602
2.65806
2.65004
2.642
2.63395
2.62588
2.61779
2.60968
2.60154
2.59338
2.5852
2.577
2.56878
2.56054
2.55226
2.54394
2.53555
2.52707
2.51848
2.50975
2.50081
2.49162
2.48207
2.47205
2.46139
2.44986
2.43714
2.42277
2.40614
2.38634
2.3621
2.33155
2.29203
2.23968
2.16917
2.07334
1.94364
1.77106
1.55179
2.72316
2.71797
2.7114
2.70446
2.69718
2.6896
2.68185
2.67399
2.66607
2.6581
2.65009
2.64205
2.63399
2.6259
2.6178
2.60968
2.60155
2.59339
2.58522
2.57703
2.56881
2.56056
2.55228
2.54395
2.53556
2.52708
2.5185
2.50977
2.50085
2.49167
2.48214
2.47213
2.46148
2.44996
2.43724
2.42285
2.40618
2.3863
2.36192
2.33119
2.2915
2.23918
2.16926
2.07541
1.95035
1.78707
1.58246
1.33995
1.07506
0.81409
0.578348
0.37536
0.206224
1.28938
1.00751
0.742117
0.512232
0.319653
0.163135
1.1718
0.836102
0.560582
0.348584
0.178084
0.0427747
0.980303
0.532591
0.243072
0.0630615
-0.0704584
-0.167146
0.579645
0.000417852
-0.247851
-0.357574
-0.428259
-0.460456
-0.517883
-0.938282
-0.874747
-0.803744
-0.758001
-0.710954
-2.04558
-1.70372
-1.18462
-0.998401
-0.891785
-0.793731
-2.04533
-1.70346
-1.18437
-0.998173
-0.8916
-0.793595
-0.517619
-0.937943
-0.874663
-0.803575
-0.757791
-0.710714
0.579606
0.000177503
-0.248146
-0.357889
-0.428161
-0.460242
0.980092
0.532208
0.242715
0.0628476
-0.0704593
-0.166975
1.17156
0.835832
0.560366
0.348477
0.177961
0.0427115
1.28928
1.00732
0.741915
0.511974
0.319373
0.16292
1.33992
1.07496
0.813924
0.578145
0.375162
0.206072
0.0716232
-0.0293409
-0.0999541
-0.144784
-0.168485
-0.175369
-0.169395
-0.154114
-0.132544
-0.107114
-0.0796938
-0.0516746
-0.0240636
0.00243294
0.027333
0.0503188
0.0711918
0.0898405
0.106219
0.120329
0.132212
0.141937
0.149595
0.155293
0.159151
0.161299
0.161868
0.16099
0.158796
0.155412
0.15096
0.145556
0.139308
0.132316
0.124672
0.116458
0.10775
0.0986153
0.0891136
0.0792984
0.0692175
0.058913
0.0484224
0.0377802
0.0270162
0.0161575
0.00516153
0.0422015
-0.045418
-0.104651
-0.140929
-0.158721
-0.16178
-0.153657
-0.13761
-0.116338
-0.0919161
-0.0659018
-0.0394483
-0.0134029
0.0116205
0.0351816
0.056973
0.0767906
0.0945131
0.110083
0.123495
0.13478
0.143998
0.151231
0.156577
0.160147
0.162062
0.162446
0.161423
0.159116
0.155647
0.151133
0.145685
0.139409
0.1324
0.124749
0.116535
0.107833
0.0987073
0.0892168
0.0794142
0.0693461
0.0590545
0.0485746
0.0379382
0.0271905
0.0163042
0.00506986
-0.0549906
-0.11844
-0.155941
-0.174877
-0.179125
-0.171236
-0.154255
-0.131376
-0.105197
-0.0775715
-0.0497817
-0.0226931
0.00313839
0.0273653
0.0497682
0.0702057
0.0885922
0.104887
0.119088
0.131223
0.141345
0.149523
0.155842
0.160397
0.163291
0.164632
0.164532
0.163104
0.160464
0.156723
0.151989
0.146367
0.139953
0.132838
0.125106
0.116832
0.108086
0.0989288
0.0894172
0.0796007
0.0695235
0.0592256
0.0487401
0.0380969
0.0273289
0.0164574
0.0048496
-0.22416
-0.248714
-0.25429
-0.248962
-0.23355
-0.208256
-0.17568
-0.139273
-0.101843
-0.0653521
-0.0310959
0.000210372
0.0283165
0.0532642
0.0752252
0.0944054
0.111005
0.125207
0.137182
0.147085
0.155058
0.161234
0.165732
0.168665
0.170139
0.170255
0.169112
0.166807
0.163435
0.15909
0.153862
0.147839
0.141103
0.133732
0.125798
0.117367
0.1085
0.0992508
0.0896697
0.0798011
0.0696848
0.0593572
0.0488479
0.0381908
0.0273882
0.0165686
0.0045114
-0.452206
-0.417905
-0.381232
-0.346648
-0.307317
-0.260485
-0.208646
-0.155207
-0.102849
-0.053709
-0.00937157
0.0293214
0.0622384
0.0897177
0.11232
0.130666
0.145353
0.156919
0.165836
0.1725
0.177238
0.180313
0.181934
0.182264
0.181432
0.179541
0.176678
0.172917
0.168329
0.162977
0.156924
0.150232
0.142957
0.135157
0.126884
0.118187
0.109114
0.0997075
0.090006
0.0800458
0.0698599
0.0594792
0.0489289
0.0382445
0.0274124
0.0166446
0.0042869
-0.64304
-0.553506
-0.485774
-0.432937
-0.376015
-0.311129
-0.242296
-0.173077
-0.106042
-0.0436886
0.0118599
0.0593959
0.0986688
0.130108
0.154516
0.172851
0.186095
0.195174
0.200913
0.204017
0.20506
0.204494
0.202661
0.199811
0.19612
0.19171
0.186665
0.181043
0.174885
0.168226
0.161096
0.153524
0.145537
0.137167
0.12844
0.119386
0.110033
0.100408
0.0905372
0.0804461
0.0701581
0.0596968
0.0490818
0.0383445
0.027481
0.0166699
0.00446139
-0.700553
-0.592954
-0.522788
-0.470759
-0.410426
-0.338944
-0.261818
-0.183134
-0.106058
-0.0338635
0.0306447
0.0857558
0.130896
0.166356
0.192974
0.211884
0.224336
0.231564
0.234705
0.234745
0.232498
0.228607
0.223555
0.217689
0.211246
0.204379
0.197179
0.189696
0.181954
0.173963
0.165725
0.15724
0.148508
0.139534
0.130323
0.120882
0.111222
0.101355
0.0912924
0.0810491
0.070639
0.0600765
0.0493771
0.0385538
0.0276458
0.0166336
0.00518576
-0.655422
-0.573739
-0.519524
-0.473942
-0.416533
-0.345924
-0.266907
-0.184098
-0.1018
-0.0240843
0.0457756
0.105691
0.154768
0.193087
0.221413
0.240929
0.253023
0.259116
0.260544
0.258487
0.253931
0.247656
0.240255
0.232153
0.223639
0.214895
0.206027
0.197086
0.188086
0.179024
0.169884
0.160647
0.151295
0.141812
0.132187
0.122411
0.112481
0.102396
0.0921581
0.0817722
0.0712441
0.0605797
0.0497906
0.0388628
0.0279054
0.016564
0.00632182
-0.56102
-0.533935
-0.503451
-0.462652
-0.407575
-0.33906
-0.26065
-0.177123
-0.0934071
-0.0139298
0.0578373
0.119595
0.170247
0.209728
0.238724
0.258413
0.270223
0.275651
0.276122
0.272906
0.267067
0.259458
0.250728
0.241344
0.231625
0.221774
0.211906
0.202078
0.192302
0.182568
0.172855
0.163132
0.153374
0.143552
0.133647
0.123642
0.113523
0.103284
0.0929191
0.0824275
0.0718095
0.0610648
0.0502022
0.0391832
0.02818
0.0165116
0.00746907
-0.510662
-0.503263
-0.484425
-0.448602
-0.396274
-0.329557
-0.252278
-0.169432
-0.0861347
-0.00675946
0.0651684
0.127154
0.178019
0.217633
0.246646
0.26622
0.277792
0.282876
0.282918
0.279213
0.272849
0.264699
0.255428
0.245519
0.235302
0.224987
0.214695
0.204483
0.194366
0.184333
0.174359
0.164414
0.154465
0.144483
0.134443
0.124325
0.114113
0.103796
0.0933666
0.0828199
0.0721544
0.061366
0.050463
0.0393907
0.0283619
0.0164954
0.00818021
-0.510659
-0.503279
-0.484439
-0.448587
-0.396242
-0.329528
-0.252261
-0.169427
-0.0861356
-0.00676111
0.0651651
0.12715
0.178015
0.217631
0.246644
0.266218
0.27779
0.282871
0.282911
0.279204
0.272838
0.264688
0.255418
0.24551
0.235295
0.224983
0.214693
0.204482
0.194366
0.184334
0.17436
0.164414
0.154465
0.144482
0.134442
0.124324
0.114112
0.103795
0.093365
0.0828186
0.0721533
0.0613653
0.0504622
0.0393904
0.0283623
0.0164945
0.00818152
-0.560999
-0.533927
-0.503451
-0.462638
-0.407546
-0.339028
-0.260621
-0.177103
-0.0933974
-0.0139287
0.0578288
0.119579
0.170231
0.209716
0.238716
0.258406
0.270215
0.275639
0.276105
0.272882
0.267039
0.259429
0.250699
0.241319
0.231605
0.22176
0.211898
0.202074
0.192302
0.18257
0.172857
0.163134
0.153374
0.143551
0.133645
0.123638
0.113519
0.103279
0.0929151
0.082424
0.0718067
0.0610625
0.0502007
0.039182
0.0281795
0.0165114
0.00747268
-0.65539
-0.573688
-0.519484
-0.47393
-0.416504
-0.345873
-0.266849
-0.184049
-0.101769
-0.0240749
0.0457629
0.105665
0.154738
0.193062
0.221394
0.240915
0.25301
0.2591
0.260522
0.25846
0.253898
0.24762
0.240219
0.232121
0.223612
0.214876
0.206014
0.197079
0.188084
0.179025
0.169886
0.160649
0.151295
0.141811
0.132183
0.122406
0.112475
0.102391
0.0921532
0.0817681
0.0712408
0.0605772
0.0497886
0.0388616
0.0279054
0.016563
0.00632771
-0.700511
-0.592895
-0.522744
-0.47075
-0.410422
-0.338928
-0.261792
-0.183102
-0.106031
-0.0338528
0.0306356
0.0857319
0.130866
0.166328
0.192949
0.211864
0.224317
0.231545
0.234683
0.234719
0.232468
0.228574
0.223522
0.217658
0.211219
0.204358
0.197163
0.189686
0.181949
0.173961
0.165724
0.157239
0.148507
0.139532
0.13032
0.120878
0.111218
0.10135
0.0912881
0.0810456
0.0706362
0.0600745
0.0493755
0.0385529
0.0276463
0.0166324
0.00519204
-0.642906
-0.553464
-0.485733
-0.4329
-0.376006
-0.311138
-0.242297
-0.173061
-0.106015
-0.0436675
0.0118703
0.0593942
0.0986619
0.130098
0.154506
0.17284
0.186083
0.195159
0.200896
0.203997
0.205038
0.20447
0.202637
0.199786
0.196098
0.191691
0.18665
0.18103
0.174876
0.16822
0.161092
0.153521
0.145535
0.137164
0.128437
0.119382
0.110029
0.100404
0.0905342
0.0804432
0.0701563
0.0596951
0.0490813
0.0383439
0.0274808
0.0166705
0.00446552
-0.451971
-0.417781
-0.381146
-0.34656
-0.307253
-0.260453
-0.20863
-0.155192
-0.102833
-0.0536924
-0.00935464
0.0293398
0.0622568
0.0897344
0.112332
0.130672
0.145352
0.156914
0.165827
0.172488
0.177224
0.180298
0.181917
0.182247
0.181414
0.179524
0.176662
0.172904
0.168318
0.162969
0.156918
0.150227
0.142953
0.135153
0.12688
0.118184
0.109111
0.0997047
0.0900034
0.0800437
0.0698583
0.0594783
0.048928
0.0382442
0.0274131
0.0166454
0.00428781
-0.22398
-0.24858
-0.254166
-0.248836
-0.233447
-0.208182
-0.175634
-0.139242
-0.101817
-0.0653204
-0.0310582
0.000254798
0.0283588
0.0533022
0.0752522
0.0944238
0.111012
0.12521
0.137178
0.14708
0.155049
0.161224
0.165719
0.168651
0.170123
0.17024
0.169096
0.166793
0.163422
0.15908
0.153854
0.147833
0.141098
0.133729
0.125794
0.117365
0.108497
0.0992487
0.0896671
0.0797995
0.0696829
0.0593564
0.0488469
0.0381905
0.0273879
0.0165708
0.00450973
-0.0549807
-0.11836
-0.155824
-0.174756
-0.179018
-0.171158
-0.1542
-0.131335
-0.105153
-0.0775205
-0.0497214
-0.0226324
0.0031953
0.0274108
0.0498034
0.0702287
0.088608
0.104895
0.119093
0.131223
0.141342
0.149515
0.155833
0.160384
0.163277
0.164617
0.164518
0.16309
0.160452
0.156712
0.151981
0.14636
0.139948
0.132834
0.125103
0.116829
0.108084
0.0989263
0.0894156
0.0795988
0.0695226
0.0592245
0.0487398
0.0380965
0.0273292
0.0164597
0.00484745
0.0421285
-0.0453689
-0.104542
-0.140812
-0.158621
-0.161704
-0.153597
-0.137555
-0.116278
-0.0918513
-0.0658346
-0.0393847
-0.0133473
0.0116654
0.0352158
0.0569974
0.0768071
0.094523
0.110088
0.123495
0.134776
0.14399
0.15122
0.156564
0.160133
0.162047
0.162432
0.16141
0.159105
0.155638
0.151125
0.145679
0.139404
0.132396
0.124746
0.116533
0.107831
0.0987054
0.0892152
0.0794128
0.0693451
0.0590539
0.0485739
0.037938
0.027191
0.0163055
0.00506836
0.0715431
-0.029351
-0.099912
-0.144712
-0.168399
-0.175281
-0.16931
-0.154034
-0.132469
-0.107044
-0.0796272
-0.0516134
-0.0240091
0.00247949
0.0273709
0.0503478
0.0712122
0.089853
0.106224
0.120329
0.132207
0.141928
0.149583
0.15528
0.159138
0.161285
0.161855
0.160979
0.158786
0.155403
0.150953
0.14555
0.139303
0.132312
0.124669
0.116456
0.107748
0.098614
0.0891125
0.0792976
0.0692169
0.0589128
0.0484223
0.0377807
0.0270161
0.0161581
0.00516189
)
;

boundaryField
{
    inlet
    {
        type            zeroGradient;
    }
    outlet
    {
        type            fixedValue;
        value           uniform 0;
    }
    upperWall
    {
        type            zeroGradient;
    }
    lowerWall
    {
        type            zeroGradient;
    }
    frontAndBack
    {
        type            empty;
    }
}


// ************************************************************************* //
