/*--------------------------------*- C++ -*----------------------------------*\
| =========                 |                                                 |
| \\      /  F ield         | OpenFOAM: The Open Source CFD Toolbox           |
|  \\    /   O peration     | Version:  2406                                  |
|   \\  /    A nd           | Website:  www.openfoam.com                      |
|    \\/     M anipulation  |                                                 |
\*---------------------------------------------------------------------------*/
FoamFile
{
    version     2.0;
    format      ascii;
    arch        "LSB;label=32;scalar=64";
    class       surfaceScalarField;
    location    "39";
    object      phi;
}
// * * * * * * * * * * * * * * * * * * * * * * * * * * * * * * * * * * * * * //

dimensions      [0 3 -1 0 0 0 0];

oriented        oriented;

internalField   nonuniform List<scalar> 
3796
(
0.0197292
-0.000229182
0.0199621
-0.000232606
0.0201148
-0.00015256
0.0202171
-0.000102309
0.020292
-7.4971e-05
0.0203476
-5.55197e-05
0.0203883
-4.05115e-05
0.0204189
-3.03757e-05
0.0204431
-2.41952e-05
0.0204634
-2.03581e-05
0.0204804
-1.73263e-05
0.0204948
-1.45847e-05
0.0205071
-1.22343e-05
0.0205179
-1.06678e-05
0.0205281
-9.83917e-06
0.0205382
-9.8158e-06
0.0205486
-1.01763e-05
0.0205596
-1.0962e-05
0.0205714
-1.19892e-05
0.0205847
-1.34804e-05
0.0206
-1.55851e-05
0.0206185
-1.86698e-05
0.0206415
-2.30669e-05
0.020671
-2.93195e-05
0.0207091
-3.79298e-05
0.0207592
-4.97916e-05
0.0208253
-6.57997e-05
0.020913
-8.75155e-05
0.02103
-0.000116704
0.0211863
-0.000156151
0.0213957
-0.0002093
0.0216769
-0.000281181
0.0220553
-0.000378321
0.0225653
-0.000509843
0.0232532
-0.000687742
0.0241817
-0.000928202
0.0254341
-0.00125201
0.0271202
-0.00168556
0.0293809
-0.00225997
0.0323908
-0.00300914
0.0363544
-0.0039627
0.0414897
-0.00513385
0.047989
-0.0064979
0.0559499
-0.00795951
0.0652784
-0.00932499
0.0755073
-0.0102243
-0.0102804
0.0857886
0.0554044
-0.00013341
0.0554094
-0.000237588
0.055474
-0.00021678
0.0555493
-0.000177487
0.0556226
-0.000148149
0.0556902
-0.00012303
0.0557499
-0.000100015
0.055801
-8.12876e-05
0.0558447
-6.76954e-05
0.0558825
-5.81326e-05
0.0559156
-5.06174e-05
0.0559447
-4.39732e-05
0.0559705
-3.8117e-05
0.0559937
-3.36584e-05
0.0560152
-3.08958e-05
0.056036
-3.00011e-05
0.0560569
-3.05594e-05
0.0560786
-3.24052e-05
0.0561019
-3.53171e-05
0.0561276
-3.95236e-05
0.0561571
-4.54577e-05
0.056192
-5.39162e-05
0.0562346
-6.58967e-05
0.0562881
-8.27803e-05
0.0563566
-0.000106165
0.0564456
-0.000138315
0.0565624
-0.000181958
0.0567165
-0.000241028
0.0569209
-0.000320539
0.0571927
-0.000427566
0.0575551
-0.000571391
0.058039
-0.000764772
0.0586855
-0.00102458
0.0595493
-0.00137348
0.0607031
-0.00184119
0.0622419
-0.00246649
0.0642892
-0.00329853
0.0670025
-0.00439786
0.0705788
-0.00583497
0.0752563
-0.00768505
0.0813107
-0.0100151
0.0890399
-0.0128609
0.0987284
-0.0161839
0.110588
-0.0198166
0.124645
-0.0233797
0.140489
-0.0260696
-0.0271321
0.157336
0.0874388
-7.22896e-05
0.0873697
-0.000168095
0.0873403
-0.00018721
0.0873391
-0.000176156
0.087354
-0.000163087
0.0873793
-0.000148344
0.0874104
-0.00013091
0.0874432
-0.00011377
0.0874756
-9.97424e-05
0.0875067
-8.90166e-05
0.0875362
-7.99888e-05
0.0875635
-7.14934e-05
0.0875887
-6.35355e-05
0.0876119
-5.69891e-05
0.0876338
-5.28028e-05
0.0876555
-5.11869e-05
0.0876776
-5.20718e-05
0.0877008
-5.50471e-05
0.0877259
-5.99489e-05
0.0877535
-6.70135e-05
0.0877848
-7.68704e-05
0.0878213
-9.07508e-05
0.0878653
-0.000110264
0.0879197
-0.000137582
0.0879889
-0.000175476
0.0880782
-0.00022745
0.0881948
-0.000298205
0.0883482
-0.000393833
0.0885509
-0.000522649
0.0888197
-0.000695692
0.0891767
-0.000927903
0.0896516
-0.0012392
0.0902835
-0.00165619
0.0911243
-0.00221401
0.0922421
-0.0029588
0.093726
-0.00395018
0.0956919
-0.00526395
0.0982883
-0.00699376
0.101705
-0.00925065
0.106178
-0.012158
0.112
-0.0158366
0.119518
-0.0203781
0.129118
-0.0257856
0.141215
-0.0319185
0.156122
-0.0382895
0.173814
-0.043762
-0.047495
0.19416
0.115471
-4.30275e-05
0.115415
-0.000111926
0.115369
-0.000141107
0.115338
-0.000145098
0.115318
-0.000143268
0.115308
-0.000138363
0.115306
-0.000129277
0.11531
-0.00011805
0.115319
-0.000107769
0.11533
-9.948e-05
0.115343
-9.22713e-05
0.115357
-8.49326e-05
0.11537
-7.74663e-05
0.115384
-7.09068e-05
0.115397
-6.65335e-05
0.115411
-6.50444e-05
0.115425
-6.65758e-05
0.115442
-7.08428e-05
0.115461
-7.77022e-05
0.115482
-8.73324e-05
0.115506
-0.00010055
0.115534
-0.000118752
0.115567
-0.000144052
0.115608
-0.000179197
0.11566
-0.000227798
0.115727
-0.000294423
0.115814
-0.000385099
0.115928
-0.000507698
0.116079
-0.00067279
0.116278
-0.000894448
0.116542
-0.00119161
0.116893
-0.00158949
0.117359
-0.00212178
0.117979
-0.00283296
0.118802
-0.00378164
0.119896
-0.00504417
0.121351
-0.00671893
0.123288
-0.00893063
0.125871
-0.0118336
0.129325
-0.0156123
0.133961
-0.0204728
0.140205
-0.0266241
0.148617
-0.0342049
0.159942
-0.0432476
0.174918
-0.0532712
0.194511
-0.0633746
-0.0736534
0.220686
0.139484
-2.74559e-05
0.139448
-7.53051e-05
0.13941
-0.000102828
0.139378
-0.00011241
0.13935
-0.000115657
0.139327
-0.000115698
0.139309
-0.000111705
0.139295
-0.000105117
0.139287
-9.85643e-05
0.139282
-9.33246e-05
0.13928
-8.87382e-05
0.139279
-8.36453e-05
0.139279
-7.78677e-05
0.13928
-7.25257e-05
0.139281
-6.89241e-05
0.139283
-6.81879e-05
0.139287
-7.0565e-05
0.139293
-7.60005e-05
0.139301
-8.43302e-05
0.139311
-9.57585e-05
0.139322
-0.000111091
0.139336
-0.000131845
0.139352
-0.000160262
0.139371
-0.000199462
0.139396
-0.000253364
0.139428
-0.000327184
0.13947
-0.000427506
0.139526
-0.000563183
0.139599
-0.000745788
0.139696
-0.000990956
0.139824
-0.00131947
0.139995
-0.00175925
0.140221
-0.00234747
0.140523
-0.00313367
0.140925
-0.00418347
0.141465
-0.00558366
0.142194
-0.00744842
0.143191
-0.00992742
0.144573
-0.0132158
0.146527
-0.0175661
0.149354
-0.0233011
0.153552
-0.0308248
0.159936
-0.0405927
0.169782
-0.0531013
0.184787
-0.0682921
0.207624
-0.0861904
-0.107817
0.241791
0.159491
-1.81025e-05
0.159467
-5.14187e-05
0.159438
-7.36924e-05
0.15941
-8.39073e-05
0.159383
-8.88302e-05
0.159358
-9.08965e-05
0.159335
-8.96639e-05
0.159315
-8.59522e-05
0.159298
-8.18535e-05
0.159285
-7.86734e-05
0.159275
-7.59853e-05
0.159265
-7.28161e-05
0.159256
-6.88935e-05
0.159247
-6.49926e-05
0.159239
-6.24629e-05
0.159231
-6.23563e-05
0.159225
-6.52009e-05
0.159221
-7.10474e-05
0.159217
-7.98066e-05
0.159215
-9.16995e-05
0.159213
-0.000107418
0.159211
-0.000128398
0.159208
-0.000156798
0.159204
-0.000195613
0.159198
-0.000248776
0.159191
-0.000321345
0.159183
-0.000419922
0.159172
-0.000553132
0.159158
-0.000732443
0.159141
-0.00097314
0.159118
-0.0012957
0.159087
-0.00172758
0.159046
-0.00230556
0.158992
-0.00307888
0.158923
-0.0041135
0.158837
-0.00549784
0.15874
-0.00735077
0.158646
-0.00983288
0.158593
-0.0131629
0.158669
-0.0176426
0.159063
-0.0236955
0.160166
-0.0319302
0.162817
-0.0432477
0.168698
-0.0589935
0.181442
-0.0810236
0.20669
-0.111443
-0.144658
0.243559
0.175494
-1.19703e-05
0.175477
-3.43798e-05
0.175454
-5.07838e-05
0.175431
-5.95219e-05
0.175406
-6.43845e-05
0.175381
-6.69657e-05
0.175357
-6.69307e-05
0.175335
-6.48597e-05
0.175316
-6.23834e-05
0.1753
-6.0542e-05
0.175285
-5.91184e-05
0.175272
-5.72838e-05
0.175258
-5.47538e-05
0.175244
-5.2093e-05
0.175229
-5.03967e-05
0.175215
-5.06442e-05
0.175202
-5.33795e-05
0.175189
-5.87272e-05
0.175177
-6.66832e-05
0.175165
-7.73941e-05
0.175152
-9.14732e-05
0.175135
-0.000110078
0.175115
-0.00013508
0.175088
-0.000169039
0.175054
-0.00021538
0.17501
-0.000278504
0.174952
-0.000364162
0.174878
-0.000479864
0.17478
-0.000635584
0.174652
-0.000844614
0.174481
-0.0011248
0.174254
-0.00150007
0.173953
-0.00200269
0.173551
-0.00267603
0.173017
-0.00357876
0.17231
-0.00479042
0.17138
-0.00641967
0.170164
-0.00861644
0.168591
-0.0115904
0.166588
-0.0156402
0.164094
-0.0212024
0.161093
-0.0289323
0.157719
-0.0398799
0.154486
-0.055759
0.153586
-0.0801361
0.161677
-0.119517
-0.174652
0.191684
0.187495
-7.32228e-06
0.187482
-2.12412e-05
0.187464
-3.1975e-05
0.187443
-3.81329e-05
0.187421
-4.18088e-05
0.187397
-4.39856e-05
0.187373
-4.44008e-05
0.18735
-4.33918e-05
0.18733
-4.20128e-05
0.187312
-4.09897e-05
0.187296
-4.02256e-05
0.18728
-3.92213e-05
0.187264
-3.77447e-05
0.187247
-3.61604e-05
0.187229
-3.52021e-05
0.187211
-3.55673e-05
0.187193
-3.76914e-05
0.187175
-4.17064e-05
0.187157
-4.76508e-05
0.187138
-5.56631e-05
0.187116
-6.61794e-05
0.187088
-8.006e-05
0.187053
-9.864e-05
0.187009
-0.000123806
0.18695
-0.000158048
0.186875
-0.000204614
0.186777
-0.000267729
0.186648
-0.00035293
0.186479
-0.000467571
0.186255
-0.000621455
0.185958
-0.000827754
0.185563
-0.00110419
0.185036
-0.00147468
0.184333
-0.00197158
0.183394
-0.00263888
0.182142
-0.00353671
0.180471
-0.00474803
0.178243
-0.00638854
0.175274
-0.00862186
0.171316
-0.0116827
0.166025
-0.0159136
0.158907
-0.021818
0.149177
-0.0301529
0.135407
-0.0419981
0.114409
-0.0591381
0.0781361
-0.0832484
-0.0965175
0.195496
-3.52314e-06
0.195485
-1.01721e-05
0.195469
-1.54286e-05
0.19545
-1.85781e-05
0.195429
-2.05711e-05
0.195406
-2.1836e-05
0.195382
-2.21884e-05
0.195359
-2.1791e-05
0.195338
-2.11577e-05
0.19532
-2.06709e-05
0.195303
-2.03173e-05
0.195286
-1.98716e-05
0.195269
-1.92313e-05
0.19525
-1.85572e-05
0.19523
-1.81998e-05
0.19521
-1.85057e-05
0.195189
-1.96823e-05
0.195168
-2.18217e-05
0.195147
-2.49518e-05
0.195123
-2.9177e-05
0.195094
-3.47487e-05
0.195059
-4.21299e-05
0.195015
-5.20382e-05
0.194957
-6.5457e-05
0.194882
-8.36996e-05
0.194784
-0.000108469
0.194656
-0.000141989
0.194489
-0.000187191
0.194268
-0.00024796
0.193975
-0.000329504
0.193586
-0.000438809
0.193068
-0.000585304
0.192376
-0.000781722
0.191451
-0.00104535
0.190213
-0.00139974
0.188555
-0.00187725
0.18633
-0.0025227
0.183341
-0.00339889
0.179313
-0.00459481
0.173868
-0.00623791
0.166464
-0.00851229
0.156325
-0.0116826
0.142295
-0.0161276
0.122637
-0.0223447
0.0944693
-0.0309795
0.0529197
-0.0417083
-0.0436001
0.199496
-6.6336e-09
0.199486
2.46193e-08
0.199471
5.45357e-09
0.199453
-1.87216e-08
0.199433
-2.74211e-09
0.19941
1.04712e-08
0.199387
-4.13078e-08
0.199364
-1.37213e-07
0.199343
-1.83904e-07
0.199324
-1.19804e-07
0.199306
1.0188e-08
0.199289
9.61559e-08
0.199271
6.56829e-08
0.199251
-9.36343e-08
0.199231
-3.16078e-07
0.199209
-5.1282e-07
0.199187
-6.18235e-07
0.199165
-6.01921e-07
0.199142
-4.93349e-07
0.199115
-3.44994e-07
0.199084
-2.19438e-07
0.199045
-1.68263e-07
0.198995
-2.07662e-07
0.198931
-3.37807e-07
0.198847
-5.27022e-07
0.198738
-7.44818e-07
0.198595
-9.56765e-07
0.198407
-1.14015e-06
0.198158
-1.28689e-06
0.197829
-1.39757e-06
0.197392
-1.48592e-06
0.196809
-1.56655e-06
0.19603
-1.65593e-06
0.194987
-1.76802e-06
0.193591
-1.90857e-06
0.191717
-2.08615e-06
0.189197
-2.29936e-06
0.185801
-2.56248e-06
0.181209
-2.86167e-06
0.174973
-3.19818e-06
0.166462
-3.61894e-06
0.15478
-3.87788e-06
0.138652
-4.3267e-06
0.116305
-4.86887e-06
0.0853219
-4.24844e-06
0.0436051
3.83658e-06
-7.75892e-08
0.199496
3.5351e-06
0.199486
1.00979e-05
0.199471
1.5432e-05
0.199453
1.86423e-05
0.199433
2.06327e-05
0.19941
2.18223e-05
0.199387
2.202e-05
0.199364
2.14773e-05
0.199343
2.08483e-05
0.199324
2.05365e-05
0.199306
2.04044e-05
0.199289
2.0054e-05
0.199271
1.9277e-05
0.199251
1.82729e-05
0.19923
1.75123e-05
0.199209
1.74898e-05
0.199187
1.85251e-05
0.199165
2.07234e-05
0.199142
2.40682e-05
0.199115
2.85543e-05
0.199084
3.43255e-05
0.199045
4.17704e-05
0.198995
5.1568e-05
0.198931
6.47279e-05
0.198847
8.26051e-05
0.198738
0.00010697
0.198594
0.000140102
0.198406
0.000184967
0.198158
0.000245468
0.197829
0.000326802
0.197391
0.000435934
0.196808
0.000582262
0.196029
0.000778491
0.194987
0.00104188
0.19359
0.00139598
0.191716
0.00187314
0.189197
0.00251815
0.1858
0.00339383
0.181208
0.00458915
0.174972
0.00623153
0.166461
0.00850528
0.154779
0.0116746
0.13865
0.0161191
0.116305
0.0223361
0.0853284
0.0309782
0.0436017
0.041701
0.0436016
0.195496
7.31442e-06
0.195485
2.12857e-05
0.195469
3.19978e-05
0.19545
3.81338e-05
0.195429
4.18187e-05
0.195406
4.39931e-05
0.195382
4.43183e-05
0.195359
4.31766e-05
0.195339
4.17528e-05
0.19532
4.08447e-05
0.195303
4.02586e-05
0.195286
3.93275e-05
0.195268
3.77313e-05
0.195249
3.58559e-05
0.195229
3.45539e-05
0.195209
3.46611e-05
0.195189
3.6688e-05
0.195168
4.07827e-05
0.195147
4.69138e-05
0.195123
5.51287e-05
0.195094
6.5774e-05
0.195059
7.96509e-05
0.195014
9.8088e-05
0.194956
0.000122993
0.194881
0.000156907
0.194783
0.00020313
0.194655
0.000265926
0.194488
0.00035086
0.194267
0.000465283
0.193974
0.000618988
0.193585
0.000825124
0.193066
0.00110139
0.192374
0.00147167
0.191449
0.00196832
0.190211
0.00263531
0.188552
0.00353277
0.186328
0.00474367
0.183338
0.00638368
0.17931
0.00861641
0.173864
0.0116766
0.16646
0.0159067
0.156321
0.0218104
0.142292
0.0301448
0.122643
0.0419923
0.094467
0.0591297
0.0529236
0.0832527
0.0965181
0.187495
1.19779e-05
0.187482
3.4358e-05
0.187464
5.08339e-05
0.187443
5.95774e-05
0.18742
6.43966e-05
0.187397
6.69046e-05
0.187373
6.67817e-05
0.18735
6.46844e-05
0.18733
6.2269e-05
0.187312
6.05386e-05
0.187296
5.91727e-05
0.18728
5.72841e-05
0.187263
5.45742e-05
0.187246
5.16883e-05
0.187228
4.97964e-05
0.18721
4.99485e-05
0.187193
5.26954e-05
0.187176
5.8136e-05
0.187158
6.61972e-05
0.187138
7.69771e-05
0.187116
9.1036e-05
0.187088
0.000109536
0.187052
0.00013435
0.187007
0.000168083
0.186949
0.00021418
0.186873
0.000277084
0.186775
0.000362544
0.186646
0.000478082
0.186477
0.000633651
0.186253
0.000842537
0.185956
0.00112255
0.185561
0.00149764
0.185034
0.00200001
0.18433
0.00267309
0.183391
0.00357549
0.182138
0.00478678
0.180466
0.00641561
0.178238
0.00861193
0.175269
0.0115854
0.17131
0.0156347
0.166019
0.021196
0.158902
0.0289255
0.149175
0.0398721
0.135408
0.0557524
0.114417
0.0801313
0.0781342
0.119517
0.174655
0.175494
1.8112e-05
0.175477
5.14579e-05
0.175455
7.37158e-05
0.17543
8.39121e-05
0.175406
8.87931e-05
0.175381
9.08458e-05
0.175357
8.96082e-05
0.175335
8.5902e-05
0.175317
8.1839e-05
0.1753
7.86653e-05
0.175285
7.59445e-05
0.175271
7.26715e-05
0.175257
6.86042e-05
0.175242
6.46039e-05
0.175228
6.20351e-05
0.175214
6.19701e-05
0.175202
6.48942e-05
0.17519
7.07899e-05
0.175178
7.95492e-05
0.175166
9.13458e-05
0.175151
0.000106912
0.175134
0.000127695
0.175113
0.000155902
0.175086
0.000194554
0.175052
0.000247591
0.175007
0.000320078
0.17495
0.00041859
0.174876
0.000551736
0.174778
0.000730961
0.174649
0.000971531
0.174478
0.00129393
0.174251
0.00172559
0.173949
0.0023033
0.173547
0.00307632
0.173013
0.00411061
0.172305
0.0054946
0.171374
0.00734716
0.170157
0.00982888
0.168584
0.0131585
0.16658
0.0176377
0.164085
0.0236902
0.161085
0.031924
0.157717
0.0432416
0.154487
0.0589841
0.153596
0.0810176
0.161684
0.111435
0.144654
0.191681
0.159491
2.74483e-05
0.159467
7.53141e-05
0.159438
0.000102845
0.15941
0.000112393
0.159383
0.000115642
0.159357
0.000115667
0.159334
0.000111749
0.159315
0.000105223
0.159299
9.86661e-05
0.159286
9.33072e-05
0.159275
8.85292e-05
0.159264
8.32742e-05
0.159255
7.74825e-05
0.159246
7.22082e-05
0.159238
6.88055e-05
0.159231
6.82125e-05
0.159225
7.06763e-05
0.159221
7.60532e-05
0.159218
8.4205e-05
0.159215
9.538e-05
0.159213
0.00011045
0.15921
0.000130979
0.159206
0.000159274
0.159201
0.00019841
0.159196
0.000252351
0.159189
0.000326203
0.15918
0.000426585
0.159169
0.000562244
0.159156
0.000744801
0.159138
0.000989824
0.159115
0.00131815
0.159083
0.00175768
0.159042
0.00234563
0.158987
0.00313153
0.158917
0.00418103
0.158831
0.0055809
0.158733
0.00744536
0.158638
0.00992404
0.158584
0.0132121
0.158659
0.0175621
0.159052
0.0232965
0.160157
0.0308196
0.16281
0.0405865
0.168703
0.0530931
0.181446
0.0682773
0.206698
0.0861779
0.1078
0.24356
0.139484
4.30207e-05
0.139448
0.000111873
0.13941
0.000141054
0.139377
0.000145105
0.13935
0.000143273
0.139326
0.000138408
0.139308
0.000129408
0.139296
0.000118272
0.139287
0.000107905
0.139282
9.94092e-05
0.139279
9.19191e-05
0.139278
8.44545e-05
0.139278
7.70549e-05
0.139278
7.07622e-05
0.13928
6.66879e-05
0.139283
6.54338e-05
0.139287
6.69829e-05
0.139293
7.10956e-05
0.139301
7.762e-05
0.13931
8.69019e-05
0.139321
9.97936e-05
0.139334
0.000117824
0.13935
0.000143068
0.139369
0.000178306
0.139394
0.000227041
0.139426
0.000293834
0.139467
0.000384606
0.139523
0.000507246
0.139596
0.000672261
0.139693
0.000893784
0.139821
0.00119072
0.139991
0.00158837
0.140217
0.00212037
0.140517
0.00283129
0.140919
0.00377972
0.141458
0.00504201
0.142187
0.00671655
0.143183
0.00892805
0.144564
0.0118308
0.146516
0.0156093
0.149342
0.0204697
0.15354
0.0266205
0.159926
0.0341997
0.169776
0.0432419
0.184791
0.0532609
0.207626
0.0633545
0.0736379
0.241796
0.115471
7.22828e-05
0.115415
0.000168129
0.115369
0.000187184
0.115338
0.000176083
0.115318
0.000163004
0.115308
0.000148382
0.115306
0.000131148
0.115311
0.000114117
0.115319
9.99297e-05
0.11533
8.87981e-05
0.115343
7.95003e-05
0.115356
7.09548e-05
0.115369
6.32465e-05
0.115382
5.7102e-05
0.115396
5.32218e-05
0.11541
5.17642e-05
0.115426
5.25449e-05
0.115443
5.52267e-05
0.115461
5.97787e-05
0.115481
6.64767e-05
0.115505
7.61375e-05
0.115532
8.99286e-05
0.115565
0.000109529
0.115606
0.00013701
0.115657
0.000175097
0.115724
0.000227245
0.115811
0.000298083
0.115925
0.000393722
0.116076
0.000522449
0.116275
0.000695342
0.116539
0.00092736
0.116889
0.00123845
0.117354
0.00165523
0.117973
0.00221288
0.118795
0.0029575
0.119889
0.00394876
0.121343
0.00526244
0.123279
0.00699224
0.125861
0.0092492
0.129314
0.0121567
0.133948
0.0158356
0.140191
0.0203779
0.148606
0.0257856
0.159932
0.0319169
0.174911
0.0382874
0.194517
0.0437588
0.0474792
0.220692
0.0874389
0.000133435
0.0873698
0.000237606
0.0873404
0.00021685
0.087339
0.000177515
0.0873536
0.00014811
0.0873789
0.000122992
0.0874101
0.000100199
0.0874433
8.15695e-05
0.0874759
6.78397e-05
0.0875067
5.79175e-05
0.0875355
5.01431e-05
0.0875623
4.35259e-05
0.0875873
3.80036e-05
0.0876108
3.3912e-05
0.0876333
3.14686e-05
0.0876555
3.05694e-05
0.087678
3.09555e-05
0.0877012
3.24278e-05
0.0877258
3.49954e-05
0.0877529
3.8941e-05
0.0877835
4.47934e-05
0.0878194
5.33168e-05
0.087863
6.54977e-05
0.0879173
8.25889e-05
0.0879865
0.000106202
0.0880758
0.000138449
0.0881924
0.00018216
0.0883456
0.000241145
0.0885481
0.000320569
0.0888166
0.000427413
0.0891731
0.000571106
0.0896475
0.000764321
0.0902788
0.00102404
0.0911189
0.00137285
0.092236
0.00184054
0.0937192
0.00246582
0.0956842
0.00329793
0.0982798
0.00439737
0.101695
0.00583472
0.106168
0.00768518
0.111989
0.0100159
0.119506
0.0128626
0.129108
0.0161873
0.141208
0.0198213
0.156118
0.0233845
0.173814
0.0260726
0.0271333
0.194172
0.0554044
0.000229188
0.0554096
0.000232721
0.055474
0.000152664
0.0555492
0.000102312
0.0556223
7.48839e-05
0.0556899
5.54915e-05
0.0557497
4.07236e-05
0.0558011
3.05851e-05
0.0558448
2.423e-05
0.0558823
2.01284e-05
0.0559149
1.70141e-05
0.0559437
1.4389e-05
0.0559695
1.22979e-05
0.055993
1.09188e-05
0.0560151
1.02414e-05
0.0560363
1.01203e-05
0.0560573
1.03603e-05
0.0560788
1.08911e-05
0.0561017
1.17491e-05
0.0561269
1.31162e-05
0.0561558
1.52226e-05
0.0561903
1.83826e-05
0.0562327
2.29317e-05
0.0562862
2.93153e-05
0.0563547
3.80736e-05
0.0564438
4.99732e-05
0.0565605
6.60273e-05
0.0567145
8.76666e-05
0.0569187
0.000116816
0.0571903
0.000156141
0.0575523
0.000209237
0.0580357
0.000281026
0.0586816
0.000378156
0.0595449
0.000509644
0.0606982
0.00068759
0.0622364
0.000928064
0.064283
0.00125197
0.0669956
0.0016856
0.0705713
0.00226023
0.0752483
0.0030096
0.0813024
0.00396353
0.0890323
0.00513535
0.098723
0.0065002
0.110586
0.00796264
0.124646
0.0093298
0.140494
0.01023
0.0102831
0.157345
0.0197292
0.019962
0.0201147
0.020217
0.0202919
0.0203474
0.0203882
0.0204188
0.020443
0.0204631
0.02048
0.0204944
0.0205067
0.0205178
0.0205281
0.0205384
0.0205488
0.0205596
0.0205713
0.0205843
0.0205994
0.0206178
0.0206407
0.0206701
0.0207082
0.0207583
0.0208244
0.0209122
0.021029
0.0211852
0.0213945
0.0216755
0.0220537
0.0225634
0.023251
0.0241792
0.0254313
0.0271171
0.0293776
0.0323875
0.0363514
0.0414873
0.0479884
0.0559523
0.0652828
0.0755124
0.0857944
0.0947045
-0.00892118
0.100735
-0.00603529
0.103207
-0.00247689
0.102356
0.000848527
0.0988024
0.00355406
0.00555805
0.0932474
0.173361
-0.024958
0.186544
-0.0192283
0.196018
-0.0119546
0.201737
-0.00486888
0.203783
0.00151303
0.00699336
0.202355
0.213939
-0.0447359
0.230022
-0.0353062
0.24188
-0.0238067
0.249838
-0.0128207
0.254286
-0.00293005
0.00556537
0.255714
0.245232
-0.0692742
0.262256
-0.0523162
0.272737
-0.0342753
0.278251
-0.0183294
0.280181
-0.00486245
0.00593459
0.279809
0.266475
-0.0939352
0.275094
-0.0609138
0.275197
-0.0343718
0.271763
-0.014897
0.267538
-0.000639218
0.00983273
0.263633
0.241651
-0.092003
0.220966
-0.0402193
0.200852
-0.0142574
0.187119
-0.0011644
0.180649
0.00582405
0.0111771
0.179307
0.099685
0.0594665
0.0452088
0.0440431
0.0498682
0.061045
0.0996732
0.0919996
0.059457
0.0402168
0.0452007
0.0142615
0.0440342
0.00116978
0.049859
-0.00581764
-0.0111715
0.0610349
0.241639
0.0939234
0.220947
0.0609137
0.200831
0.0343793
0.187095
0.0149059
0.180627
0.000649222
-0.00982764
0.179281
0.266474
0.0692578
0.275084
0.0523073
0.275181
0.0342765
0.271743
0.0183349
0.267514
0.0048662
-0.0059311
0.263607
0.24524
0.0447212
0.262255
0.0352915
0.272728
0.0237949
0.278234
0.0128134
0.280161
0.0029263
-0.00556614
0.279788
0.213949
0.0249483
0.230026
0.0192114
0.241875
0.0119367
0.249826
0.00485429
0.254271
-0.00152063
-0.00699455
0.255699
0.173372
0.00891893
0.186552
0.00602813
0.196021
0.00246797
0.201735
-0.000856483
0.203776
-0.00355944
-0.00555963
0.202344
0.0947129
0.100742
0.103211
0.102356
0.0987971
0.093238
0.0864004
0.00685124
0.0789295
0.00747444
0.0713806
0.00755041
0.0641293
0.00725118
0.0573999
0.00672849
0.0513142
0.00608492
0.0459261
0.00538797
0.0412402
0.00468642
0.0372266
0.00401427
0.0338359
0.00339129
0.0310098
0.00282644
0.0286875
0.00232222
0.0268096
0.0018775
0.02532
0.00148921
0.0241663
0.00115343
0.0233002
0.000865938
0.0226776
0.000622576
0.0222585
0.000419245
0.0220067
0.00025195
0.02189
0.000116778
0.0218801
9.92208e-06
0.0219521
-7.22001e-05
0.022085
-0.000133013
0.0222605
-0.00017578
0.0224637
-0.000203459
0.0226822
-0.000218858
0.0229063
-0.000224353
0.0231281
-0.000221959
0.0233413
-0.000213469
0.0235417
-0.000200486
0.0237259
-0.00018438
0.023892
-0.00016629
0.0240391
-0.000147131
0.0241666
-0.000127628
0.0242748
-0.000108326
0.0243644
-8.96333e-05
0.0244361
-7.18271e-05
0.0244912
-5.50905e-05
0.0245307
-3.95142e-05
0.0245558
-2.51417e-05
0.0245677
-1.19323e-05
0.0245674
1.60519e-07
0.0245559
1.14766e-05
0.0245338
2.19154e-05
0.024501
3.29054e-05
0.0244585
4.24068e-05
8.68744e-05
0.197903
0.0113089
0.191029
0.0143514
0.182357
0.0162241
0.172459
0.0171493
0.161847
0.0173398
0.150975
0.0169564
0.14023
0.0161328
0.129923
0.0149932
0.120288
0.0136494
0.111485
0.0121956
0.103603
0.0107087
0.0966762
0.00924928
0.0906909
0.00786262
0.0856006
0.00657927
0.0813364
0.00541732
0.0778172
0.00438495
0.0749568
0.00348298
0.0726691
0.00270711
0.0708715
0.00204962
0.0694877
0.00150078
0.0684477
0.00104981
0.0676897
0.000685686
0.067159
0.000397427
0.0668082
0.000174541
0.0665972
7.13083e-06
0.0664915
-0.000113637
0.0664622
-0.000195566
0.0664857
-0.000245854
0.0665428
-0.000270914
0.0666182
-0.0002763
0.0667003
-0.000266732
0.0667799
-0.000246172
0.0668505
-0.000217888
0.0669072
-0.00018454
0.066947
-0.000148241
0.0669679
-0.000110647
0.066969
-7.30083e-05
0.0669501
-3.62476e-05
0.0669115
-1.01196e-06
0.066854
3.22948e-05
0.0667785
6.34809e-05
0.0666861
9.24735e-05
0.0665778
0.000119485
0.0664553
0.000144367
0.0663183
0.000169718
0.0661723
0.000188442
0.000256425
0.254579
0.0124431
0.251284
0.0176462
0.246152
0.0213568
0.239439
0.0238653
0.231404
0.0253772
0.222344
0.0260165
0.21258
0.0258956
0.202434
0.0251376
0.192214
0.0238684
0.182196
0.0222123
0.172615
0.0202904
0.163648
0.0182169
0.155419
0.0160924
0.147998
0.0140003
0.141411
0.0120047
0.135645
0.010151
0.13066
0.00846769
0.126397
0.00696929
0.122788
0.00565905
0.119756
0.00453198
0.117229
0.00357739
0.115133
0.00278108
0.113404
0.00212691
0.11198
0.00159809
0.110809
0.00117805
0.109844
0.00085108
0.109046
0.000602539
0.10838
0.000419263
0.107819
0.000289512
0.10734
0.000202973
0.106922
0.000150734
0.10655
0.000125201
0.106212
0.000119995
0.105898
0.000129831
0.105599
0.000150396
0.10531
0.000178222
0.105027
0.000210578
0.104745
0.000245351
0.104463
0.000280961
0.104179
0.000316261
0.103892
0.000350474
0.103601
0.000383078
0.103307
0.00041395
0.103008
0.000442446
0.102707
0.000471039
0.102406
0.000489678
0.000555614
0.277984
0.0142623
0.275226
0.0204038
0.271725
0.0248604
0.267463
0.0281321
0.262408
0.0304354
0.256578
0.0318467
0.250037
0.0324342
0.242896
0.0322751
0.235309
0.031453
0.227455
0.0300651
0.219521
0.0282246
0.211685
0.0260541
0.204104
0.0236757
0.196902
0.0212026
0.190175
0.0187331
0.183979
0.0163465
0.178344
0.0141021
0.173272
0.0120402
0.168746
0.0101842
0.164735
0.00854328
0.161196
0.00711588
0.158085
0.00589254
0.155353
0.00485858
0.152955
0.00399623
0.150847
0.00328631
0.148988
0.00270947
0.147343
0.00224705
0.145881
0.00188161
0.144573
0.0015973
0.143395
0.00138
0.142328
0.00121732
0.141355
0.00109856
0.14046
0.00101463
0.139632
0.000957909
0.13886
0.000922057
0.138136
0.000901903
0.137454
0.000893272
0.136806
0.000892852
0.136189
0.000898062
0.135599
0.000906932
0.135031
0.000918005
0.134484
0.000930214
0.133955
0.000942889
0.133442
0.000955198
0.132945
0.000967944
0.13246
0.00097453
0.00100553
0.260394
0.0175004
0.258136
0.0226638
0.256511
0.0264886
0.255063
0.029583
0.253475
0.0320241
0.251537
0.0337832
0.249118
0.0348501
0.246165
0.0352247
0.24269
0.034926
0.238749
0.0340052
0.234429
0.0325451
0.229835
0.0306502
0.225077
0.028436
0.220262
0.0260189
0.215488
0.0235082
0.210835
0.0209989
0.206368
0.0185686
0.202131
0.0162758
0.198154
0.0141607
0.19445
0.0122469
0.191021
0.0105445
0.187861
0.00905264
0.184957
0.00776269
0.182293
0.00666065
0.17985
0.00572935
0.177609
0.0049501
0.175552
0.00430394
0.173661
0.00377255
0.171919
0.00333883
0.170311
0.0029872
0.168825
0.00270381
0.167446
0.00247656
0.166166
0.00229501
0.164973
0.0021503
0.16386
0.00203501
0.162819
0.00194299
0.161843
0.00186921
0.160926
0.00180961
0.160063
0.00176096
0.15925
0.00172071
0.158481
0.00168692
0.157753
0.00165814
0.157062
0.00163325
0.156405
0.00161177
0.155781
0.00159157
0.155178
0.00157793
0.00154344
0.180846
0.0159623
0.185269
0.0182425
0.190734
0.0210244
0.196235
0.0240803
0.20129
0.0269677
0.205639
0.0294317
0.209172
0.031315
0.211872
0.0325216
0.213773
0.0330237
0.214928
0.0328506
0.215403
0.0320713
0.215275
0.0307802
0.214627
0.029087
0.213541
0.0271059
0.212103
0.024947
0.210392
0.0227097
0.208482
0.0204782
0.206437
0.0183193
0.204314
0.0162826
0.202159
0.0144013
0.200009
0.0126946
0.197892
0.0111699
0.195829
0.00982587
0.193836
0.00865446
0.191922
0.0076434
0.190094
0.00677788
0.188356
0.00604193
0.186709
0.00541951
0.185152
0.00489519
0.183685
0.00445464
0.182303
0.00408489
0.181005
0.00377442
0.179787
0.00351322
0.178644
0.00329267
0.177574
0.00310549
0.176571
0.00294557
0.175632
0.00280785
0.174754
0.00268821
0.173931
0.00258329
0.173162
0.00249045
0.172441
0.00240758
0.171766
0.00233317
0.171133
0.00226586
0.170538
0.00220594
0.169982
0.00214838
0.169446
0.00211332
0.00200467
0.074432
0.00257507
0.0890181
0.00365401
0.102462
0.00757512
0.114569
0.0119685
0.125453
0.0160804
0.135189
0.0196937
0.143869
0.0226328
0.151582
0.0248075
0.158391
0.0262149
0.164343
0.0269004
0.169479
0.0269377
0.173842
0.0264204
0.177476
0.0254546
0.180434
0.0241497
0.182772
0.0226103
0.18455
0.0209311
0.185835
0.0191933
0.186691
0.017463
0.187182
0.0157911
0.18737
0.014214
0.187309
0.0127554
0.187051
0.0114283
0.186641
0.0102372
0.186115
0.0091801
0.185509
0.0082505
0.184848
0.00743901
0.184155
0.00673457
0.183449
0.0061255
0.182743
0.00560014
0.18205
0.00514741
0.181378
0.00475705
0.180732
0.00441983
0.180118
0.00412758
0.179537
0.0038732
0.178992
0.00365061
0.178483
0.00345463
0.17801
0.00328094
0.177572
0.00312594
0.177168
0.0029867
0.176798
0.00286083
0.176459
0.00274645
0.17615
0.00264222
0.175869
0.00254677
0.175613
0.00246129
0.175383
0.00237831
0.175167
0.00232999
0.00217108
0.0126875
-0.0101139
0.0247892
-0.0084568
0.035444
-0.00308727
0.0456766
0.00172993
0.0557395
0.00601336
0.065647
0.0097836
0.0753727
0.0129062
0.0848486
0.0153324
0.0939821
0.0170835
0.102678
0.0182076
0.110852
0.0187665
0.118437
0.0188377
0.125386
0.0185077
0.131673
0.0178644
0.137293
0.0169914
0.14226
0.0159645
0.146605
0.0148494
0.150368
0.0137001
0.153601
0.0125593
0.156357
0.0114587
0.158693
0.0104207
0.160663
0.00945899
0.16232
0.00858088
0.163712
0.00778841
0.164883
0.00707986
0.165871
0.00645089
0.166709
0.00589554
0.167428
0.00540697
0.16805
0.00497805
0.168595
0.00460173
0.169081
0.00427134
0.16952
0.00398072
0.169923
0.00372434
0.170299
0.0034973
0.170654
0.00329534
0.170994
0.00311478
0.171322
0.00295251
0.171642
0.00280589
0.171956
0.00267274
0.172266
0.00255128
0.172572
0.00244005
0.172876
0.00233805
0.173179
0.00224421
0.17348
0.00215978
0.17378
0.00207792
0.17408
0.00203045
0.00187302
-0.00292107
-0.0071948
-0.00364757
-0.00773332
-0.00209847
-0.00463921
0.0012195
-0.00159183
0.00616952
0.00105959
0.0125747
0.00337615
0.0201462
0.0053346
0.028573
0.00690767
0.0375564
0.0081033
0.0468257
0.00894173
0.0561456
0.00944966
0.0653151
0.0096706
0.0741718
0.00965296
0.0825932
0.00944467
0.0904942
0.00909189
0.0978237
0.00863672
0.104559
0.0081159
0.1107
0.00756024
0.116267
0.00699445
0.121289
0.0064375
0.125808
0.00590313
0.129867
0.00540057
0.133513
0.00493537
0.136792
0.00451012
0.139746
0.00412523
0.142417
0.00377953
0.144842
0.00347078
0.147053
0.00319612
0.149078
0.00295237
0.150944
0.00273626
0.15267
0.0025446
0.154277
0.00237439
0.155778
0.00222288
0.157188
0.00208759
0.158517
0.00196633
0.159775
0.00185718
0.160969
0.0017585
0.162106
0.00166887
0.163192
0.00158713
0.164231
0.00151229
0.165227
0.00144354