/*--------------------------------*- C++ -*----------------------------------*\
| =========                 |                                                 |
| \\      /  F ield         | OpenFOAM: The Open Source CFD Toolbox           |
|  \\    /   O peration     | Version:  2406                                  |
|   \\  /    A nd           | Website:  www.openfoam.com                      |
|    \\/     M anipulation  |                                                 |
\*---------------------------------------------------------------------------*/
FoamFile
{
    version     2.0;
    format      ascii;
    arch        "LSB;label=32;scalar=64";
    class       volVectorField;
    location    "39";
    object      U;
}
// * * * * * * * * * * * * * * * * * * * * * * * * * * * * * * * * * * * * * //

dimensions      [0 1 -1 0 0 0 0];

internalField   nonuniform List<vector> 
1964
(
(0.195111 -0.00118873 0)
(0.198343 -0.00113356 0)
(0.200532 -0.000596055 0)
(0.201748 -0.000329146 0)
(0.202579 -0.000220792 0)
(0.203221 -0.000146774 0)
(0.203701 -9.12173e-05 0)
(0.204052 -6.29434e-05 0)
(0.20432 -5.34484e-05 0)
(0.204539 -4.72546e-05 0)
(0.204725 -3.56824e-05 0)
(0.204881 -2.23793e-05 0)
(0.205013 -1.41377e-05 0)
(0.205127 -1.44629e-05 0)
(0.205231 -2.03558e-05 0)
(0.205332 -2.78661e-05 0)
(0.205433 -3.24482e-05 0)
(0.20554 -3.40886e-05 0)
(0.205653 -3.34553e-05 0)
(0.205777 -3.37927e-05 0)
(0.205918 -3.71542e-05 0)
(0.206085 -4.58055e-05 0)
(0.206289 -6.04809e-05 0)
(0.206547 -8.23374e-05 0)
(0.206879 -0.000111808 0)
(0.207313 -0.000151054 0)
(0.207884 -0.00020216 0)
(0.20864 -0.000270091 0)
(0.209645 -0.000360335 0)
(0.210987 -0.000482285 0)
(0.212783 -0.000647126 0)
(0.215192 -0.00087168 0)
(0.21843 -0.00117743 0)
(0.222792 -0.00159493 0)
(0.228674 -0.00216451 0)
(0.236613 -0.00294132 0)
(0.247331 -0.00399687 0)
(0.261785 -0.00542274 0)
(0.281222 -0.0073266 0)
(0.307221 -0.00982464 0)
(0.341696 -0.0130091 0)
(0.386797 -0.0168977 0)
(0.444655 -0.0213332 0)
(0.516826 -0.0258264 0)
(0.603565 -0.029429 0)
(0.702209 -0.0303857 0)
(0.806546 -0.0270079 0)
(0.552616 -0.00188013 0)
(0.553398 -0.00291422 0)
(0.554543 -0.00236882 0)
(0.555195 -0.00171505 0)
(0.555841 -0.00128941 0)
(0.556558 -0.000985821 0)
(0.557219 -0.000745996 0)
(0.557775 -0.000570747 0)
(0.558241 -0.000454591 0)
(0.558645 -0.000378742 0)
(0.559 -0.000321854 0)
(0.559313 -0.000273177 0)
(0.559586 -0.000232703 0)
(0.559826 -0.000205071 0)
(0.560046 -0.000190278 0)
(0.560255 -0.000188101 0)
(0.560462 -0.000193472 0)
(0.560675 -0.000205744 0)
(0.560899 -0.000224025 0)
(0.561142 -0.000251229 0)
(0.561414 -0.000291371 0)
(0.561731 -0.000350091 0)
(0.562112 -0.000434041 0)
(0.562584 -0.000552108 0)
(0.563184 -0.000714358 0)
(0.563957 -0.000936145 0)
(0.564967 -0.00123552 0)
(0.566296 -0.0016401 0)
(0.568055 -0.00218423 0)
(0.570391 -0.00291772 0)
(0.573502 -0.00390511 0)
(0.577654 -0.00523624 0)
(0.583199 -0.00702954 0)
(0.59061 -0.00944582 0)
(0.600513 -0.0126961 0)
(0.613737 -0.0170584 0)
(0.631361 -0.0228857 0)
(0.654782 -0.0306146 0)
(0.685767 -0.0407508 0)
(0.726493 -0.0538245 0)
(0.779551 -0.0702864 0)
(0.847847 -0.0903117 0)
(0.934382 -0.113484 0)
(1.04169 -0.138343 0)
(1.17139 -0.161921 0)
(1.32156 -0.17834 0)
(1.487 -0.181416 0)
(0.87313 -0.00102353 0)
(0.873422 -0.00203668 0)
(0.873721 -0.00211448 0)
(0.87348 -0.00189998 0)
(0.873397 -0.00168998 0)
(0.873612 -0.0014797 0)
(0.873941 -0.00125795 0)
(0.874274 -0.00105598 0)
(0.874593 -0.000898507 0)
(0.874906 -0.000783331 0)
(0.875215 -0.000689714 0)
(0.875507 -0.000603576 0)
(0.875772 -0.000524533 0)
(0.87601 -0.00046234 0)
(0.87623 -0.000424629 0)
(0.876443 -0.000412972 0)
(0.87666 -0.000422748 0)
(0.876886 -0.00044909 0)
(0.877129 -0.00048854 0)
(0.877392 -0.000543732 0)
(0.877684 -0.000620711 0)
(0.878018 -0.000731284 0)
(0.878413 -0.000889488 0)
(0.878896 -0.00111406 0)
(0.879503 -0.001427 0)
(0.88028 -0.00185735 0)
(0.881291 -0.00244221 0)
(0.882615 -0.00323223 0)
(0.884362 -0.00429486 0)
(0.886675 -0.00572247 0)
(0.889744 -0.00763854 0)
(0.893825 -0.0102101 0)
(0.899255 -0.0136589 0)
(0.906482 -0.0182801 0)
(0.916098 -0.0244601 0)
(0.928879 -0.0326997 0)
(0.945838 -0.0436329 0)
(0.968286 -0.0580389 0)
(0.997903 -0.0768264 0)
(1.03681 -0.100974 0)
(1.08764 -0.13137 0)
(1.15359 -0.168535 0)
(1.23836 -0.212074 0)
(1.34585 -0.260075 0)
(1.48052 -0.307964 0)
(1.64243 -0.345994 0)
(1.83364 -0.365569 0)
(1.1535 -0.000543504 0)
(1.15385 -0.00131639 0)
(1.15411 -0.00160271 0)
(1.15366 -0.00161799 0)
(1.15323 -0.00157275 0)
(1.15307 -0.0014905 0)
(1.15306 -0.00136521 0)
(1.15309 -0.00122285 0)
(1.15314 -0.00109787 0)
(1.15322 -0.000999159 0)
(1.15335 -0.000915004 0)
(1.1535 -0.000830676 0)
(1.15365 -0.000746439 0)
(1.15378 -0.000672409 0)
(1.1539 -0.000623219 0)
(1.15403 -0.000604219 0)
(1.15417 -0.000616562 0)
(1.15433 -0.000654649 0)
(1.15451 -0.000716156 0)
(1.15471 -0.000801256 0)
(1.15493 -0.000917955 0)
(1.15519 -0.00107922 0)
(1.15549 -0.00130587 0)
(1.15586 -0.00162292 0)
(1.15631 -0.00206451 0)
(1.15689 -0.0026712 0)
(1.15764 -0.00349866 0)
(1.15863 -0.00461708 0)
(1.15993 -0.00612371 0)
(1.16165 -0.00814582 0)
(1.16392 -0.0108577 0)
(1.16694 -0.0144893 0)
(1.17095 -0.0193502 0)
(1.17627 -0.025847 0)
(1.18335 -0.0345162 0)
(1.19277 -0.0460511 0)
(1.20529 -0.0613404 0)
(1.22196 -0.0814924 0)
(1.24419 -0.107848 0)
(1.27387 -0.141944 0)
(1.31364 -0.185374 0)
(1.3671 -0.239506 0)
(1.43903 -0.30469 0)
(1.53584 -0.379587 0)
(1.66597 -0.457737 0)
(1.83335 -0.526103 0)
(2.06255 -0.575667 0)
(1.39371 -0.000335617 0)
(1.39411 -0.000892102 0)
(1.39447 -0.00118657 0)
(1.39409 -0.00127609 0)
(1.39361 -0.00129709 0)
(1.39333 -0.00128192 0)
(1.39317 -0.00122328 0)
(1.39303 -0.00113891 0)
(1.3929 -0.00105775 0)
(1.39281 -0.000993459 0)
(1.39278 -0.000937769 0)
(1.39279 -0.000877758 0)
(1.3928 -0.000810354 0)
(1.39281 -0.000747202 0)
(1.39281 -0.000702522 0)
(1.39282 -0.000688254 0)
(1.39284 -0.000707123 0)
(1.39289 -0.000757916 0)
(1.39296 -0.000837628 0)
(1.39305 -0.000947507 0)
(1.39316 -0.00109435 0)
(1.39329 -0.00129331 0)
(1.39343 -0.00156627 0)
(1.39361 -0.00194448 0)
(1.39382 -0.0024665 0)
(1.3941 -0.00318358 0)
(1.39446 -0.00415991 0)
(1.39494 -0.00548171 0)
(1.39557 -0.00726145 0)
(1.3964 -0.0096515 0)
(1.3975 -0.0128541 0)
(1.39897 -0.0171415 0)
(1.40091 -0.0228752 0)
(1.4035 -0.0305368 0)
(1.40695 -0.0407607 0)
(1.41157 -0.0543812 0)
(1.41779 -0.0724837 0)
(1.42625 -0.0964695 0)
(1.4379 -0.128121 0)
(1.45421 -0.169662 0)
(1.4775 -0.223776 0)
(1.51166 -0.293537 0)
(1.56254 -0.381797 0)
(1.64105 -0.490795 0)
(1.75893 -0.615812 0)
(1.93926 -0.74642 0)
(2.22615 -0.873207 0)
(1.59385 -0.000221113 0)
(1.59425 -0.000611758 0)
(1.59469 -0.000859163 0)
(1.5944 -0.000965205 0)
(1.59395 -0.00101285 0)
(1.59365 -0.00102898 0)
(1.59346 -0.00100796 0)
(1.59327 -0.000960662 0)
(1.59306 -0.000910614 0)
(1.59289 -0.000871946 0)
(1.59277 -0.000839614 0)
(1.59269 -0.000802105 0)
(1.59262 -0.000755423 0)
(1.59254 -0.000708473 0)
(1.59244 -0.000675237 0)
(1.59235 -0.000668512 0)
(1.59227 -0.000693742 0)
(1.59221 -0.000751844 0)
(1.59218 -0.000841229 0)
(1.59216 -0.000963349 0)
(1.59214 -0.00112468 0)
(1.59213 -0.00133964 0)
(1.5921 -0.00163027 0)
(1.59207 -0.0020281 0)
(1.59201 -0.00257361 0)
(1.59195 -0.00332003 0)
(1.59187 -0.00433516 0)
(1.59177 -0.00570877 0)
(1.59165 -0.00755862 0)
(1.59149 -0.0100428 0)
(1.59129 -0.0133718 0)
(1.59102 -0.0178287 0)
(1.59066 -0.023791 0)
(1.59019 -0.0317637 0)
(1.58958 -0.0424196 0)
(1.58881 -0.0566552 0)
(1.58789 -0.0756638 0)
(1.58692 -0.101037 0)
(1.58615 -0.134901 0)
(1.58618 -0.180115 0)
(1.58829 -0.24055 0)
(1.59538 -0.321502 0)
(1.6125 -0.430164 0)
(1.65412 -0.576568 0)
(1.73194 -0.771006 0)
(1.92461 -1.02676 0)
(2.20362 -1.35428 0)
(1.75394 -0.000147412 0)
(1.75433 -0.000417017 0)
(1.7548 -0.000607308 0)
(1.75459 -0.000704872 0)
(1.75417 -0.00075862 0)
(1.75389 -0.00078612 0)
(1.7537 -0.000783118 0)
(1.75349 -0.000755994 0)
(1.75326 -0.000723987 0)
(1.75305 -0.000699811 0)
(1.75289 -0.000681496 0)
(1.75277 -0.000659336 0)
(1.75266 -0.000629577 0)
(1.75253 -0.000597436 0)
(1.75238 -0.000575378 0)
(1.75222 -0.000574288 0)
(1.75207 -0.000601232 0)
(1.75194 -0.000657916 0)
(1.75182 -0.000744543 0)
(1.75171 -0.000862342 0)
(1.75159 -0.00101753 0)
(1.75145 -0.00122216 0)
(1.75127 -0.00149655 0)
(1.75103 -0.00186853 0)
(1.75073 -0.00237617 0)
(1.75034 -0.00306787 0)
(1.74984 -0.00400752 0)
(1.74918 -0.00527767 0)
(1.74834 -0.00698843 0)
(1.74722 -0.00928554 0)
(1.74575 -0.012365 0)
(1.7438 -0.016489 0)
(1.7412 -0.0220102 0)
(1.73774 -0.0294018 0)
(1.73313 -0.0393013 0)
(1.72703 -0.0525684 0)
(1.71898 -0.0703698 0)
(1.70843 -0.0943012 0)
(1.69472 -0.12657 0)
(1.67716 -0.170284 0)
(1.65508 -0.229919 0)
(1.62835 -0.312111 0)
(1.5971 -0.427232 0)
(1.56828 -0.591746 0)
(1.54308 -0.835533 0)
(1.63188 -1.20899 0)
(1.61529 -1.73839 0)
(1.87399 -9.49988e-05 0)
(1.87438 -0.000271689 0)
(1.87487 -0.00040481 0)
(1.8747 -0.000480294 0)
(1.87431 -0.00052586 0)
(1.87404 -0.000552646 0)
(1.87386 -0.000556442 0)
(1.87365 -0.000541534 0)
(1.87341 -0.000521881 0)
(1.87318 -0.000507588 0)
(1.873 -0.000497866 0)
(1.87286 -0.000486073 0)
(1.87274 -0.000468491 0)
(1.87259 -0.000448735 0)
(1.87241 -0.000435407 0)
(1.87221 -0.000437425 0)
(1.87201 -0.000460639 0)
(1.87182 -0.000507438 0)
(1.87165 -0.000578518 0)
(1.87147 -0.000675463 0)
(1.87127 -0.000803091 0)
(1.87104 -0.000971163 0)
(1.87073 -0.00119536 0)
(1.87034 -0.00149813 0)
(1.86983 -0.00190951 0)
(1.86917 -0.00246885 0)
(1.86831 -0.00322731 0)
(1.86719 -0.004252 0)
(1.86572 -0.00563154 0)
(1.86379 -0.00748415 0)
(1.86123 -0.00996812 0)
(1.85783 -0.0132963 0)
(1.8533 -0.0177552 0)
(1.84725 -0.0237322 0)
(1.83919 -0.031752 0)
(1.82842 -0.0425295 0)
(1.81407 -0.0570474 0)
(1.79493 -0.0766695 0)
(1.76946 -0.103318 0)
(1.73555 -0.139742 0)
(1.69038 -0.189975 0)
(1.63014 -0.260021 0)
(1.54881 -0.359283 0)
(1.43849 -0.502303 0)
(1.27701 -0.717667 0)
(1.05759 -1.05083 0)
(0.405269 -1.31387 0)
(1.95403 -5.35548e-05 0)
(1.95441 -0.000153888 0)
(1.9549 -0.000232592 0)
(1.95476 -0.000279128 0)
(1.95439 -0.000308356 0)
(1.95413 -0.000327135 0)
(1.95395 -0.000332267 0)
(1.95375 -0.000325702 0)
(1.9535 -0.000315535 0)
(1.95326 -0.000308014 0)
(1.95307 -0.00030315 0)
(1.95292 -0.000297368 0)
(1.95279 -0.000288447 0)
(1.95263 -0.000278293 0)
(1.95243 -0.000271898 0)
(1.95221 -0.000274641 0)
(1.95199 -0.000290289 0)
(1.95177 -0.000320674 0)
(1.95156 -0.000366614 0)
(1.95134 -0.00042952 0)
(1.95109 -0.000512708 0)
(1.95079 -0.000622577 0)
(1.9504 -0.000769195 0)
(1.9499 -0.000966932 0)
(1.94924 -0.00123507 0)
(1.94839 -0.00159893 0)
(1.94727 -0.00209159 0)
(1.94582 -0.00275652 0)
(1.9439 -0.00365124 0)
(1.94137 -0.00485254 0)
(1.93802 -0.00646337 0)
(1.93357 -0.00862231 0)
(1.92762 -0.0115165 0)
(1.91968 -0.0153994 0)
(1.90906 -0.0206162 0)
(1.89484 -0.02764 0)
(1.87578 -0.0371249 0)
(1.85021 -0.0499853 0)
(1.81584 -0.0675161 0)
(1.7695 -0.0915731 0)
(1.70679 -0.124849 0)
(1.6215 -0.17125 0)
(1.5045 -0.23647 0)
(1.34321 -0.328189 0)
(1.11549 -0.457138 0)
(0.802943 -0.621803 0)
(0.244865 -0.688065 0)
(1.99404 -1.74608e-05 0)
(1.99442 -4.98588e-05 0)
(1.99492 -7.59137e-05 0)
(1.99479 -9.16837e-05 0)
(1.99442 -0.000101639 0)
(1.99417 -0.000108371 0)
(1.99399 -0.000110886 0)
(1.9938 -0.000109595 0)
(1.99355 -0.000106683 0)
(1.9933 -0.000103958 2.03676e-34)
(1.9931 -0.000101766 0)
(1.99295 -9.95504e-05 0)
(1.99281 -9.7027e-05 0)
(1.99265 -9.48381e-05 0)
(1.99244 -9.42669e-05 0)
(1.99221 -9.66109e-05 2.00122e-34)
(1.99198 -0.00010275 0)
(1.99175 -0.000113199 0)
(1.99152 -0.000128431 0)
(1.99128 -0.0001493 0)
(1.991 -0.000177383 0)
(1.99067 -0.000215189 0)
(1.99024 -0.000266344 0)
(1.98968 -0.000335764 -1.95457e-34)
(1.98895 -0.000429951 0)
(1.98799 -0.000557438 0)
(1.98674 -0.000729444 0)
(1.98511 -0.000960868 0)
(1.98296 -0.00127156 0)
(1.98012 -0.00168815 0)
(1.97636 -0.00224638 0)
(1.97134 -0.00299448 0)
(1.96465 -0.00399751 0)
(1.95571 -0.00534382 0)
(1.94373 -0.00715377 0)
(1.92768 -0.00959289 0)
(1.90612 -0.0128903 0)
(1.87711 -0.0173677 0)
(1.83798 -0.0234797 0)
(1.78501 -0.0318774 0)
(1.713 -0.0434947 0)
(1.6147 -0.0596598 -2.66215e-34)
(1.47976 -0.0822294 0)
(1.29453 -0.113523 0)
(1.03877 -0.156177 0)
(0.701645 -0.207047 0)
(0.188434 -0.213576 0)
(1.99404 1.7454e-05 0)
(1.99442 4.97279e-05 0)
(1.99492 7.59854e-05 0)
(1.99479 9.1826e-05 0)
(1.99442 0.000101925 0)
(1.99417 0.000108416 0)
(1.99399 0.000109628 0)
(1.99379 0.000106578 0)
(1.99355 0.000103123 0)
(1.9933 0.000101888 -2.03677e-34)
(1.9931 0.00010221 0)
(1.99295 0.000101518 0)
(1.99281 9.81587e-05 0)
(1.99264 9.2741e-05 0)
(1.99244 8.7787e-05 0)
(1.99221 8.6283e-05 -2.00123e-34)
(1.99198 9.04306e-05 0)
(1.99175 0.000101199 0)
(1.99152 0.000118599 0)
(1.99128 0.000142395 0)
(1.991 0.000172951 0)
(1.99067 0.000211806 0)
(1.99023 0.00026218 0)
(1.98967 0.000329075 1.95457e-34)
(1.98894 0.000419509 0)
(1.98799 0.000542672 0)
(1.98674 0.000710445 0)
(1.98511 0.000938178 0)
(1.98296 0.00124592 0)
(1.98012 0.00166026 0)
(1.97635 0.0022167 0)
(1.97134 0.00296315 0)
(1.96465 0.00396436 0)
(1.9557 0.00530841 0)
(1.94373 0.00711551 0)
(1.92767 0.00955108 0)
(1.90611 0.0128442 0)
(1.8771 0.0173164 0)
(1.83797 0.0234222 0)
(1.785 0.0318129 0)
(1.71299 0.0434224 0)
(1.61469 0.0595798 2.66221e-34)
(1.47975 0.0821413 0)
(1.29452 0.113431 0)
(1.03879 0.156123 0)
(0.701669 0.207041 0)
(0.188421 0.213582 0)
(1.95403 5.3581e-05 0)
(1.95441 0.000153739 0)
(1.9549 0.000232646 0)
(1.95476 0.000279354 0)
(1.95439 0.000308704 0)
(1.95413 0.000327193 0)
(1.95395 0.000331114 0)
(1.95375 0.000323045 0)
(1.9535 0.000312543 0)
(1.95326 0.000306454 0)
(1.95307 0.000303714 0)
(1.95292 0.00029895 0)
(1.95278 0.000288842 0)
(1.95262 0.000275516 0)
(1.95242 0.000265188 0)
(1.95221 0.000264746 0)
(1.95199 0.000279013 0)
(1.95177 0.000310025 0)
(1.95156 0.000358045 0)
(1.95134 0.000423442 0)
(1.95109 0.000508487 0)
(1.95079 0.000618841 0)
(1.9504 0.000764298 0)
(1.94989 0.000959445 0)
(1.94923 0.00122405 0)
(1.94838 0.00158406 0)
(1.94726 0.00207307 0)
(1.94581 0.00273485 0)
(1.94389 0.00362706 0)
(1.94136 0.00482637 0)
(1.93801 0.00643551 0)
(1.93355 0.00859276 0)
(1.92761 0.011485 0)
(1.91966 0.0153655 0)
(1.90904 0.0205793 0)
(1.89482 0.0275995 0)
(1.87576 0.0370801 0)
(1.85019 0.0499355 0)
(1.81581 0.0674605 0)
(1.76947 0.0915107 0)
(1.70675 0.12478 0)
(1.62146 0.171172 0)
(1.50446 0.236389 0)
(1.34322 0.328114 0)
(1.11552 0.457094 0)
(0.802942 0.6218 0)
(0.244895 0.68807 0)
(1.87399 9.49973e-05 0)
(1.87438 0.000271772 0)
(1.87487 0.000405236 0)
(1.8747 0.000480601 0)
(1.87431 0.000525973 0)
(1.87404 0.000552418 0)
(1.87385 0.00055533 0)
(1.87365 0.000539541 0)
(1.87341 0.00051993 0)
(1.87318 0.000506829 0)
(1.873 0.000498471 0)
(1.87286 0.000486892 0)
(1.87273 0.000467827 0)
(1.87258 0.000445347 0)
(1.8724 0.00042912 0)
(1.8722 0.000429186 0)
(1.87201 0.000451894 0)
(1.87182 0.000499578 0)
(1.87165 0.000572234 0)
(1.87147 0.000670653 0)
(1.87127 0.000798932 0)
(1.87103 0.000966487 0)
(1.87072 0.00118901 0)
(1.87033 0.00148926 0)
(1.86982 0.00189772 0)
(1.86915 0.00245416 0)
(1.86829 0.00321002 0)
(1.86717 0.00423252 0)
(1.86571 0.00561023 0)
(1.86377 0.00746123 0)
(1.86121 0.00994356 0)
(1.85781 0.0132699 0)
(1.85328 0.0177266 0)
(1.84723 0.0237009 0)
(1.83916 0.0317174 0)
(1.82839 0.0424913 0)
(1.81403 0.0570049 0)
(1.79489 0.0766222 0)
(1.7694 0.103265 0)
(1.73549 0.139683 0)
(1.69032 0.189908 0)
(1.63008 0.259949 0)
(1.54876 0.3592 0)
(1.43848 0.502247 0)
(1.27707 0.717607 0)
(1.05762 1.05084 0)
(0.405262 1.31389 0)
(1.75394 0.000147495 0)
(1.75433 0.000417151 0)
(1.75481 0.000607651 0)
(1.75459 0.000705213 0)
(1.75417 0.000758478 0)
(1.75389 0.000785515 0)
(1.75369 0.000781826 0)
(1.75349 0.00075449 0)
(1.75327 0.000722957 0)
(1.75305 0.000699659 0)
(1.75289 0.000681659 0)
(1.75277 0.000658876 0)
(1.75265 0.000627323 0)
(1.75252 0.0005934 0)
(1.75237 0.000569961 0)
(1.75222 0.000568635 0)
(1.75207 0.000596129 0)
(1.75194 0.000653778 0)
(1.75182 0.000741049 0)
(1.75171 0.000858827 0)
(1.75159 0.00101302 0)
(1.75144 0.00121603 0)
(1.75125 0.00148827 0)
(1.75102 0.0018582 0)
(1.75071 0.00236385 0)
(1.75032 0.00305408 0)
(1.74981 0.00399243 0)
(1.74916 0.0052616 0)
(1.74831 0.00697122 0)
(1.7472 0.00926711 0)
(1.74572 0.0123449 0)
(1.74377 0.0164668 0)
(1.74116 0.0219854 0)
(1.7377 0.0293742 0)
(1.73309 0.0392703 0)
(1.72699 0.0525338 0)
(1.71893 0.0703314 0)
(1.70836 0.0942586 0)
(1.69465 0.126523 0)
(1.67708 0.170232 0)
(1.655 0.229862 0)
(1.62826 0.312047 0)
(1.59705 0.427166 0)
(1.56827 0.591667 0)
(1.54313 0.835486 0)
(1.63197 1.20897 0)
(1.61533 1.73841 0)
(1.59385 0.000221117 0)
(1.59425 0.000612017 0)
(1.59469 0.000859536 0)
(1.5944 0.000965332 0)
(1.59395 0.00101279 0)
(1.59365 0.00102861 0)
(1.59346 0.00100784 0)
(1.59327 0.000960795 0)
(1.59307 0.000911065 0)
(1.59289 0.000871891 0)
(1.59277 0.000838436 0)
(1.59268 0.000799279 0)
(1.59261 0.000751541 0)
(1.59252 0.000704208 0)
(1.59243 0.00067193 0)
(1.59234 0.000666408 0)
(1.59227 0.000692936 0)
(1.59221 0.000751242 0)
(1.59218 0.000839891 0)
(1.59216 0.000960081 0)
(1.59214 0.00111911 0)
(1.59212 0.0013316 0)
(1.59209 0.00162046 0)
(1.59204 0.00201699 0)
(1.59199 0.00256213 0)
(1.59192 0.00330835 0)
(1.59184 0.00432365 0)
(1.59174 0.00569693 0)
(1.59162 0.00754626 0)
(1.59146 0.010029 0)
(1.59126 0.0133564 0)
(1.59099 0.0178107 0)
(1.59063 0.0237703 0)
(1.59015 0.03174 0)
(1.58953 0.0423927 0)
(1.58875 0.0566249 0)
(1.58783 0.0756301 0)
(1.58685 0.100999 0)
(1.58607 0.13486 0)
(1.58609 0.18007 0)
(1.58819 0.2405 0)
(1.59528 0.321444 0)
(1.61241 0.430104 0)
(1.6541 0.576479 0)
(1.73199 0.770901 0)
(1.92468 1.02665 0)
(2.20368 1.35418 0)
(1.39371 0.000335552 0)
(1.39411 0.000891841 0)
(1.39447 0.00118624 0)
(1.39409 0.00127581 0)
(1.3936 0.00129707 0)
(1.39332 0.0012821 0)
(1.39316 0.00122445 0)
(1.39303 0.00114102 0)
(1.39291 0.0010597 0)
(1.39282 0.000993777 0)
(1.39278 0.000935509 0)
(1.39278 0.000873473 0)
(1.39279 0.000805998 0)
(1.39279 0.000744391 0)
(1.3928 0.000702551 0)
(1.39281 0.000690614 0)
(1.39284 0.000710432 0)
(1.39289 0.000760267 0)
(1.39296 0.000837309 0)
(1.39305 0.000943798 0)
(1.39315 0.00108739 0)
(1.39327 0.00128401 0)
(1.39341 0.00155603 0)
(1.39358 0.00193435 0)
(1.3938 0.00245744 0)
(1.39407 0.00317562 0)
(1.39443 0.00415293 0)
(1.39491 0.00547485 0)
(1.39554 0.00725404 0)
(1.39637 0.00964258 0)
(1.39747 0.0128431 0)
(1.39893 0.017128 0)
(1.40087 0.022859 0)
(1.40345 0.0305177 0)
(1.40689 0.0407389 0)
(1.4115 0.0543565 0)
(1.41772 0.0724564 0)
(1.42617 0.0964394 0)
(1.43781 0.128088 0)
(1.45411 0.169626 0)
(1.47739 0.223735 0)
(1.51154 0.29349 0)
(1.56243 0.381731 0)
(1.64097 0.490716 0)
(1.75891 0.615664 0)
(1.93931 0.746217 0)
(2.22619 0.873007 0)
(1.1535 0.000543431 0)
(1.15386 0.00131624 0)
(1.15411 0.00160212 0)
(1.15366 0.00161752 0)
(1.15322 0.00157187 0)
(1.15306 0.00149045 0)
(1.15305 0.00136656 0)
(1.15308 0.00122568 0)
(1.15314 0.00109955 0)
(1.15323 0.000997803 0)
(1.15335 0.000910244 0)
(1.15349 0.000824855 0)
(1.15363 0.000742016 0)
(1.15376 0.000671949 0)
(1.15389 0.000626204 0)
(1.15403 0.000609746 0)
(1.15417 0.000621578 0)
(1.15433 0.000657342 0)
(1.15451 0.000714875 0)
(1.15471 0.000796226 0)
(1.15492 0.000909954 0)
(1.15517 0.0010701 0)
(1.15547 0.00129687 0)
(1.15583 0.00161556 0)
(1.15628 0.00205876 0)
(1.15686 0.00266741 0)
(1.15762 0.00349557 0)
(1.1586 0.00461437 0)
(1.1599 0.0061199 0)
(1.16162 0.00814075 0)
(1.16389 0.0108503 0)
(1.1669 0.0144799 0)
(1.1709 0.0193383 0)
(1.17622 0.0258332 0)
(1.18329 0.0345001 0)
(1.1927 0.0460335 0)
(1.20521 0.0613209 0)
(1.22188 0.0814719 0)
(1.24409 0.107827 0)
(1.27377 0.141922 0)
(1.31352 0.185352 0)
(1.36697 0.239484 0)
(1.4389 0.304661 0)
(1.53573 0.379542 0)
(1.66588 0.457667 0)
(1.83334 0.525972 0)
(2.06262 0.575483 0)
(0.87313 0.00102363 0)
(0.873423 0.00203697 0)
(0.873722 0.00211489 0)
(0.87348 0.00189995 0)
(0.873396 0.0016895 0)
(0.873608 0.00147964 0)
(0.873937 0.00126027 0)
(0.874273 0.00105954 0)
(0.874595 0.000900716 0)
(0.874909 0.000781107 0)
(0.875212 0.000684445 0)
(0.875497 0.000597994 0)
(0.875758 0.000522438 0)
(0.875997 0.000464649 0)
(0.876221 0.000430564 0)
(0.876441 0.000419511 0)
(0.876663 0.000427624 0)
(0.876891 0.000450007 0)
(0.87713 0.00048579 0)
(0.877388 0.000537629 0)
(0.877674 0.000613487 0)
(0.878001 0.000724053 0)
(0.878392 0.000884005 0)
(0.878872 0.00111043 0)
(0.879478 0.00142556 0)
(0.880255 0.0018571 0)
(0.881266 0.00244271 0)
(0.88259 0.00323222 0)
(0.884335 0.00429408 0)
(0.886645 0.00572002 0)
(0.889711 0.00763465 0)
(0.893787 0.0102043 0)
(0.899211 0.0136518 0)
(0.906432 0.0182716 0)
(0.916041 0.0244506 0)
(0.928814 0.0326894 0)
(0.945766 0.0436224 0)
(0.968206 0.0580285 0)
(0.997813 0.0768178 0)
(1.03671 0.100968 0)
(1.08753 0.13137 0)
(1.15347 0.168544 0)
(1.23824 0.212095 0)
(1.34576 0.2601 0)
(1.48046 0.307992 0)
(1.64241 0.346016 0)
(1.83369 0.365526 0)
(0.552616 0.00188028 0)
(0.553399 0.00291538 0)
(0.554545 0.00236969 0)
(0.555195 0.00171541 0)
(0.555839 0.00128929 0)
(0.556554 0.000986126 0)
(0.557216 0.000748552 0)
(0.557774 0.000573976 0)
(0.558242 0.000455845 0)
(0.558645 0.000376535 0)
(0.558996 0.000317478 0)
(0.559303 0.000270015 0)
(0.559574 0.000233134 0)
(0.559817 0.000208885 0)
(0.560042 0.000196344 0)
(0.560256 0.000193188 0)
(0.560466 0.000196169 0)
(0.560678 0.00020481 0)
(0.560899 0.000220032 0)
(0.561137 0.000245626 0)
(0.561404 0.000285616 0)
(0.561717 0.000345778 0)
(0.562095 0.000431881 0)
(0.562565 0.000552126 0)
(0.563164 0.000716302 0)
(0.563938 0.000938812 0)
(0.564948 0.00123845 0)
(0.566277 0.00164203 0)
(0.568034 0.00218512 0)
(0.570368 0.00291697 0)
(0.573476 0.00390317 0)
(0.577623 0.00523305 0)
(0.583163 0.00702581 0)
(0.590568 0.00944161 0)
(0.600466 0.0126921 0)
(0.613684 0.0170547 0)
(0.631302 0.022883 0)
(0.654717 0.0306133 0)
(0.685695 0.0407517 0)
(0.726416 0.0538294 0)
(0.779469 0.0702967 0)
(0.847767 0.0903326 0)
(0.934314 0.11352 0)
(1.04165 0.138394 0)
(1.17138 0.161985 0)
(1.32159 0.178404 0)
(1.48707 0.181457 0)
(0.195111 0.00118878 0)
(0.198344 0.00113378 0)
(0.200532 0.000596808 0)
(0.201747 0.0003292 0)
(0.202577 0.000219887 0)
(0.203219 0.000146181 0)
(0.203699 9.20777e-05 0)
(0.204051 6.34404e-05 0)
(0.20432 5.26116e-05 0)
(0.204538 4.51664e-05 0)
(0.204721 3.40754e-05 0)
(0.204877 2.19778e-05 0)
(0.205009 1.49783e-05 0)
(0.205125 1.5528e-05 0)
(0.20523 2.15064e-05 0)
(0.205332 2.84104e-05 0)
(0.205435 3.29343e-05 0)
(0.205541 3.40813e-05 0)
(0.205652 3.33527e-05 0)
(0.205774 3.32161e-05 0)
(0.205913 3.63631e-05 0)
(0.206078 4.46716e-05 0)
(0.206281 5.94708e-05 0)
(0.206538 8.14664e-05 0)
(0.20687 0.000111612 0)
(0.207304 0.000151304 0)
(0.207875 0.000203223 0)
(0.208631 0.000271413 0)
(0.209636 0.000362089 0)
(0.210977 0.000483804 0)
(0.212771 0.000648582 0)
(0.215179 0.000872604 0)
(0.218415 0.00117813 0)
(0.222774 0.0015952 0)
(0.228653 0.0021648 0)
(0.23659 0.00294161 0)
(0.247305 0.00399775 0)
(0.261756 0.00542439 0)
(0.28119 0.0073302 0)
(0.307188 0.00983015 0)
(0.341663 0.0130178 0)
(0.386769 0.01691 0)
(0.444638 0.0213499 0)
(0.516832 0.0258474 0)
(0.603598 0.0294598 0)
(0.70226 0.0304226 0)
(0.806604 0.0270292 0)
(0.905271 -0.0171978 0)
(0.982848 -0.00194558 0)
(1.02719 0.0137695 0)
(1.03531 0.0258856 0)
(1.01154 0.0332744 0)
(0.96422 0.0363193 0)
(1.65532 -0.160845 0)
(1.806 -0.116281 0)
(1.92195 -0.0613936 0)
(1.99816 -0.00816371 0)
(2.03674 0.0386249 0)
(2.039 0.0767743 0)
(2.04075 -0.339904 0)
(2.22869 -0.267366 0)
(2.37171 -0.176635 0)
(2.46894 -0.0877715 0)
(2.52841 -0.00699893 0)
(2.55691 0.063082 0)
(2.33103 -0.540652 0)
(2.5562 -0.43056 0)
(2.69527 -0.297768 0)
(2.76716 -0.168777 0)
(2.79863 -0.0522709 0)
(2.80451 0.0470587 0)
(2.56141 -0.793243 0)
(2.74725 -0.597769 0)
(2.77586 -0.392988 0)
(2.7394 -0.21159 0)
(2.69542 -0.0625886 0)
(2.65506 0.0556705 0)
(2.507 -1.11656 0)
(2.37411 -0.686755 0)
(2.10457 -0.353686 0)
(1.91693 -0.128248 0)
(1.82103 0.0212059 0)
(1.78896 0.119049 0)
(1.56902 -1.00177 0)
(0.881083 -0.265858 0)
(0.439758 0.0265126 0)
(0.396217 0.0847793 0)
(0.463023 0.0881955 0)
(0.533078 0.109148 0)
(1.56893 1.00177 0)
(0.880965 0.265812 0)
(0.439671 -0.0264984 0)
(0.396137 -0.0847255 0)
(0.462927 -0.0881502 0)
(0.532992 -0.109132 0)
(2.50696 1.11649 0)
(2.37393 0.686766 0)
(2.10437 0.353733 0)
(1.91672 0.128305 0)
(1.82079 -0.0211093 0)
(1.78871 -0.118972 0)
(2.56142 0.793067 0)
(2.7472 0.597716 0)
(2.77573 0.393061 0)
(2.73924 0.211705 0)
(2.69521 0.0627072 0)
(2.6548 -0.0555789 0)
(2.33111 0.540479 0)
(2.55625 0.430435 0)
(2.69523 0.297711 0)
(2.76703 0.168767 0)
(2.79844 0.0522474 0)
(2.8043 -0.0470691 0)
(2.04087 0.339796 0)
(2.22879 0.267205 0)
(2.37172 0.17646 0)
(2.46885 0.0876193 0)
(2.52827 0.00690583 0)
(2.55676 -0.0631143 0)
(1.65542 0.160805 0)
(1.8061 0.11616 0)
(1.922 0.0612478 0)
(1.99817 0.00804369 0)
(2.0367 -0.0386813 0)
(2.03892 -0.0767735 0)
(0.905342 0.017186 0)
(0.982927 0.00190773 0)
(1.02725 -0.0138121 0)
(1.03533 -0.0259218 0)
(1.01151 -0.0333094 0)
(0.964145 -0.0363497 0)
(0.900713 0.0356987 0)
(0.827799 0.0323173 0)
(0.751628 0.0273873 0)
(0.67691 0.0221009 0)
(0.606602 0.0172212 0)
(0.54232 0.0130393 0)
(0.484861 0.00959742 0)
(0.434478 0.00685949 0)
(0.391022 0.0047526 0)
(0.354076 0.00317103 0)
(0.323085 0.00199683 0)
(0.297445 0.00112253 0)
(0.276549 0.000462275 0)
(0.259817 -4.60493e-05 0)
(0.246702 -0.000443054 0)
(0.2367 -0.000753293 0)
(0.229349 -0.000990802 0)
(0.224225 -0.00116475 0)
(0.220947 -0.0012825 0)
(0.219174 -0.00135146 0)
(0.218602 -0.00137933 0)
(0.218966 -0.00137439 0)
(0.220037 -0.00134253 0)
(0.221618 -0.00128984 0)
(0.223544 -0.00122163 0)
(0.22568 -0.00114281 0)
(0.227916 -0.00105741 0)
(0.230163 -0.000968279 0)
(0.232352 -0.000877683 0)
(0.234431 -0.000787727 0)
(0.236361 -0.000700137 0)
(0.238118 -0.000616319 0)
(0.239687 -0.00053727 0)
(0.241061 -0.000463687 0)
(0.242241 -0.000395922 0)
(0.243229 -0.000334113 0)
(0.244035 -0.000278142 0)
(0.244667 -0.000227777 0)
(0.245138 -0.000182598 0)
(0.245459 -0.000142191 0)
(0.245642 -0.000105968 0)
(0.245699 -7.34297e-05 0)
(0.245638 -4.26567e-05 0)
(0.24547 -1.34375e-05 0)
(0.245196 1.82382e-05 0)
(0.24484 4.80584e-05 0)
(0.243999 0.00030758 0)
(2.00846 0.104763 0)
(1.95035 0.12212 0)
(1.87103 0.129921 0)
(1.77674 0.13026 0)
(1.67297 0.125275 0)
(1.5645 0.116684 0)
(1.45551 0.10584 0)
(1.34953 0.09385 0)
(1.2493 0.0815858 0)
(1.15677 0.0696724 0)
(1.07317 0.0585174 0)
(0.999092 0.0483576 0)
(0.934595 0.0393006 0)
(0.879351 0.0313631 0)
(0.832756 0.0245036 0)
(0.794039 0.0186484 0)
(0.762349 0.0137101 0)
(0.736812 0.00959695 0)
(0.716579 0.00621817 0)
(0.70085 0.00348668 0)
(0.688892 0.00132019 0)
(0.680044 -0.000356668 0)
(0.673725 -0.00161507 0)
(0.669425 -0.00252036 0)
(0.666706 -0.00313186 0)
(0.665201 -0.00350218 0)
(0.664591 -0.00367578 0)
(0.664616 -0.00369242 0)
(0.665061 -0.0035876 0)
(0.665758 -0.00339227 0)
(0.666573 -0.00313263 0)
(0.667402 -0.00283043 0)
(0.668168 -0.00250328 0)
(0.668815 -0.00216517 0)
(0.669305 -0.00182685 0)
(0.669613 -0.00149638 0)
(0.669725 -0.00117948 0)
(0.669637 -0.000879976 0)
(0.669349 -0.00060014 0)
(0.668868 -0.000341025 0)
(0.668201 -0.00010228 0)
(0.667359 0.000116881 0)
(0.666351 0.000320274 0)
(0.665202 0.000506266 0)
(0.663879 0.000703071 0)
(0.662594 0.000854477 0)
(0.660377 0.00145302 0)
(2.55788 0.120173 0)
(2.53487 0.163193 0)
(2.49176 0.193013 0)
(2.43176 0.211603 0)
(2.35735 0.220804 0)
(2.27113 0.222062 0)
(2.17617 0.216703 0)
(2.07577 0.206088 0)
(1.97315 0.191567 0)
(1.87129 0.174411 0)
(1.77277 0.155775 0)
(1.67963 0.13666 0)
(1.5934 0.117879 0)
(1.51503 0.100043 0)
(1.44498 0.0835668 0)
(1.38328 0.0686966 0)
(1.32964 0.0555415 0)
(1.28357 0.0441084 0)
(1.24438 0.0343325 0)
(1.21137 0.0261026 0)
(1.18375 0.0192811 0)
(1.16081 0.0137173 0)
(1.14184 0.00925847 0)
(1.12622 0.0057556 0)
(1.11337 0.00306808 0)
(1.10279 0.0010678 0)
(1.09406 -0.000360474 0)
(1.08682 -0.00131987 0)
(1.08075 -0.00190151 0)
(1.07561 -0.00218455 0)
(1.07116 -0.00223653 0)
(1.06725 -0.0021144 0)
(1.06373 -0.00186543 0)
(1.06049 -0.00152836 0)
(1.05745 -0.00113436 0)
(1.05452 -0.000708107 0)
(1.05167 -0.000268647 0)
(1.04885 0.000169689 0)
(1.04604 0.000596556 0)
(1.04321 0.00100498 0)
(1.04036 0.00139081 0)
(1.03747 0.00175173 0)
(1.03454 0.00208881 0)
(1.03159 0.00239866 0)
(1.02854 0.0027071 0)
(1.02581 0.00292457 0)
(1.02158 0.00364593 0)
(2.79265 0.126852 0)
(2.7687 0.187218 0)
(2.7367 0.231456 0)
(2.69784 0.263157 0)
(2.65147 0.284403 0)
(2.59706 0.29628 0)
(2.53495 0.299704 0)
(2.46613 0.295666 0)
(2.39201 0.285245 0)
(2.3143 0.269619 0)
(2.23487 0.250055 0)
(2.15559 0.227844 0)
(2.07813 0.204208 0)
(2.00394 0.180225 0)
(1.9341 0.156781 0)
(1.86938 0.134552 0)
(1.81018 0.114009 0)
(1.75667 0.095437 0)
(1.70875 0.0789718 0)
(1.66616 0.0646269 0)
(1.62852 0.0523287 0)
(1.59539 0.0419441 0)
(1.56629 0.0333037 0)
(1.54076 0.0262196 0)
(1.51833 0.0204998 0)
(1.49859 0.0159566 0)
(1.48116 0.0124133 0)
(1.46569 0.0097081 0)
(1.4519 0.00769589 0)
(1.43953 0.00624886 0)
(1.42836 0.00525609 0)
(1.4182 0.00462269 0)
(1.40889 0.00426851 0)
(1.4003 0.00412679 0)
(1.39232 0.00414259 0)
(1.38487 0.00427138 0)
(1.37785 0.00447762 0)
(1.37121 0.00473345 0)
(1.3649 0.00501753 0)
(1.35887 0.00531395 0)
(1.35309 0.00561134 0)
(1.34752 0.00590166 0)
(1.34214 0.00618098 0)
(1.33696 0.00644134 0)
(1.33182 0.00670111 0)
(1.32739 0.00686516 0)
(1.32081 0.00740702 0)
(2.61958 0.146788 0)
(2.59134 0.212388 0)
(2.57177 0.259847 0)
(2.55748 0.295363 0)
(2.54347 0.321357 0)
(2.52642 0.338589 0)
(2.50479 0.347633 0)
(2.47791 0.34908 0)
(2.44564 0.343556 0)
(2.40833 0.331842 0)
(2.36674 0.314933 0)
(2.32187 0.293987 0)
(2.27481 0.270229 0)
(2.22668 0.244856 0)
(2.17851 0.218954 0)
(2.13119 0.193445 0)
(2.08545 0.169055 0)
(2.04184 0.146313 0)
(2.00072 0.125561 0)
(1.9623 0.106981 0)
(1.92665 0.0906222 0)
(1.89373 0.0764352 0)
(1.86346 0.0643002 0)
(1.83566 0.054052 0)
(1.81018 0.0455004 0)
(1.78681 0.0384457 0)
(1.76536 0.0326901 0)
(1.74566 0.0280456 0)
(1.72754 0.0243386 0)
(1.71083 0.0214132 0)
(1.69539 0.0191312 0)
(1.68109 0.0173729 0)