/*--------------------------------*- C++ -*----------------------------------*\
| =========                 |                                                 |
| \\      /  F ield         | OpenFOAM: The Open Source CFD Toolbox           |
|  \\    /   O peration     | Version:  2406                                  |
|   \\  /    A nd           | Website:  www.openfoam.com                      |
|    \\/     M anipulation  |                                                 |
\*---------------------------------------------------------------------------*/
FoamFile
{
    version     2.0;
    format      ascii;
    arch        "LSB;label=32;scalar=64";
    class       volScalarField;
    location    "132";
    object      p;
}
// * * * * * * * * * * * * * * * * * * * * * * * * * * * * * * * * * * * * * //

dimensions      [0 2 -2 0 0 0 0];

internalField   nonuniform List<scalar> 
1916
(
3.93979
3.937
3.93358
3.92996
3.92619
3.92229
3.91832
3.91432
3.91029
3.90625
3.90219
3.89812
3.89405
3.88997
3.88589
3.8818
3.87772
3.87363
3.86954
3.86546
3.86137
3.85729
3.85322
3.84915
3.8451
3.84106
3.83705
3.83307
3.82914
3.82527
3.82148
3.81779
3.81425
3.81091
3.80781
3.80505
3.8027
3.80089
3.79974
3.79939
3.79995
3.80151
3.80408
3.80756
3.81185
3.81683
3.82078
3.9415
3.93755
3.93361
3.92994
3.92616
3.92225
3.91828
3.91428
3.91026
3.90622
3.90217
3.89811
3.89404
3.88996
3.88588
3.8818
3.87771
3.87363
3.86954
3.86545
3.86137
3.85729
3.85322
3.84916
3.84511
3.84108
3.83708
3.83311
3.82919
3.82533
3.82156
3.81791
3.81442
3.81114
3.80813
3.80548
3.80329
3.8017
3.80085
3.8009
3.80198
3.80418
3.8075
3.81174
3.81664
3.82226
3.82674
3.94243
3.93784
3.93357
3.92989
3.92613
3.92222
3.91824
3.91425
3.91024
3.9062
3.90215
3.89809
3.89402
3.88995
3.88587
3.88179
3.8777
3.87362
3.86953
3.86544
3.86136
3.85728
3.85321
3.84914
3.84509
3.84105
3.83704
3.83306
3.82912
3.82524
3.82144
3.81776
3.81422
3.81087
3.80779
3.80507
3.8028
3.80114
3.80025
3.80032
3.80156
3.80412
3.80803
3.81308
3.81883
3.82555
3.83028
3.94294
3.9381
3.93359
3.92986
3.92612
3.92219
3.91821
3.91422
3.91021
3.90617
3.90213
3.89807
3.894
3.88993
3.88585
3.88177
3.87769
3.8736
3.86951
3.86542
3.86133
3.85724
3.85316
3.84908
3.845
3.84094
3.83689
3.83285
3.82885
3.82488
3.82095
3.8171
3.81334
3.80971
3.80626
3.80305
3.80018
3.79778
3.79602
3.7951
3.7953
3.79688
3.80004
3.80472
3.81034
3.81715
3.81933
3.94331
3.93836
3.93367
3.92987
3.92611
3.92217
3.91818
3.91418
3.91017
3.90614
3.9021
3.89804
3.89398
3.88991
3.88583
3.88175
3.87766
3.87357
3.86948
3.86538
3.86128
3.85718
3.85307
3.84896
3.84485
3.84074
3.83662
3.83249
3.82836
3.82422
3.82007
3.81592
3.81175
3.80757
3.80339
3.79922
3.79509
3.79105
3.78719
3.78364
3.78062
3.77841
3.77729
3.77742
3.77805
3.77897
3.76818
3.9436
3.93858
3.93376
3.92989
3.92612
3.92217
3.91815
3.91415
3.91014
3.90611
3.90207
3.89801
3.89395
3.88988
3.8858
3.88172
3.87763
3.87354
3.86944
3.86533
3.86121
3.85709
3.85296
3.84882
3.84465
3.84047
3.83626
3.83201
3.82771
3.82333
3.81887
3.81429
3.80954
3.80458
3.79934
3.79373
3.78766
3.781
3.77359
3.76529
3.7559
3.74524
3.73301
3.71878
3.70016
3.67308
3.60769
3.94382
3.93876
3.93386
3.92993
3.92614
3.92217
3.91814
3.91412
3.91011
3.90608
3.90204
3.89798
3.89392
3.88985
3.88577
3.88169
3.8776
3.8735
3.86939
3.86527
3.86114
3.857
3.85283
3.84865
3.84443
3.84017
3.83585
3.83146
3.82696
3.82232
3.8175
3.81242
3.807
3.80111
3.79459
3.78722
3.7787
3.76861
3.75639
3.74124
3.72201
3.69699
3.66343
3.61714
3.54758
3.43448
3.13089
3.94397
3.9389
3.93393
3.92997
3.92616
3.92217
3.91813
3.9141
3.91008
3.90605
3.90201
3.89796
3.8939
3.88983
3.88575
3.88166
3.87756
3.87346
3.86934
3.86521
3.86107
3.8569
3.85271
3.84848
3.84421
3.83988
3.83546
3.83093
3.82624
3.82135
3.81617
3.81061
3.80452
3.79771
3.7899
3.78072
3.76963
3.75586
3.73829
3.7152
3.6839
3.63982
3.57437
3.47025
3.27798
2.87248
1.63782
3.94407
3.93898
3.93399
3.93
3.92618
3.92218
3.91812
3.91409
3.91007
3.90604
3.90199
3.89794
3.89388
3.88981
3.88573
3.88164
3.87754
3.87343
3.8693
3.86517
3.86101
3.85683
3.85261
3.84835
3.84404
3.83964
3.83514
3.8305
3.82567
3.82057
3.81512
3.80917
3.80254
3.79497
3.78611
3.77543
3.7622
3.7453
3.7231
3.69302
3.65092
3.58974
3.49649
3.34647
3.08507
2.61813
1.75049
3.94412
3.93903
3.93401
3.93001
3.92618
3.92218
3.91812
3.91408
3.91006
3.90603
3.90198
3.89793
3.89386
3.88979
3.88571
3.88162
3.87752
3.87341
3.86928
3.86514
3.86097
3.85678
3.85255
3.84828
3.84394
3.83951
3.83497
3.83026
3.82535
3.82014
3.81452
3.80835
3.80143
3.79344
3.78398
3.77245
3.75799
3.73929
3.71442
3.68034
3.63218
3.56196
3.45607
3.29167
3.03036
2.61556
1.98525
3.94411
3.93902
3.93401
3.93001
3.92618
3.92218
3.91812
3.91408
3.91006
3.90602
3.90198
3.89792
3.89386
3.88979
3.88571
3.88162
3.87752
3.8734
3.86928
3.86513
3.86097
3.85677
3.85254
3.84827
3.84392
3.8395
3.83495
3.83025
3.82533
3.82011
3.8145
3.80833
3.80139
3.7934
3.78394
3.7724
3.75792
3.73921
3.71431
3.68019
3.63197
3.56163
3.45555
3.29077
3.02876
2.61264
1.9802
3.94406
3.93898
3.93398
3.92999
3.92617
3.92217
3.91812
3.91408
3.91006
3.90603
3.90198
3.89793
3.89387
3.8898
3.88571
3.88162
3.87752
3.87341
3.86929
3.86515
3.86099
3.8568
3.85258
3.84832
3.844
3.8396
3.8351
3.83046
3.82561
3.82051
3.81504
3.80908
3.80244
3.79486
3.78598
3.77528
3.76201
3.74506
3.72279
3.69261
3.65034
3.58887
3.4951
3.34406
3.08042
2.6086
1.7302
3.94396
3.93889
3.93392
3.92996
3.92615
3.92217
3.91812
3.91409
3.91007
3.90604
3.902
3.89794
3.89388
3.88981
3.88573
3.88164
3.87754
3.87343
3.86931
3.86518
3.86103
3.85686
3.85267
3.84843
3.84416
3.83981
3.83539
3.83085
3.82615
3.82125
3.81606
3.81048
3.80437
3.79753
3.78969
3.78048
3.76934
3.75551
3.73784
3.71462
3.68311
3.6387
3.57268
3.4675
3.27277
2.86115
1.60168
3.94381
3.93875
3.93385
3.92992
3.92613
3.92216
3.91812
3.91411
3.91009
3.90606
3.90202
3.89797
3.8939
3.88983
3.88575
3.88166
3.87757
3.87346
3.86935
3.86523
3.86109
3.85694
3.85277
3.84858
3.84435
3.84009
3.83576
3.83135
3.82684
3.82219
3.81735
3.81225
3.8068
3.80088
3.79433
3.78692
3.77834
3.76818
3.75587
3.74059
3.72118
3.69591
3.66196
3.61508
3.54455
3.42997
3.12038
3.94359
3.93857
3.93375
3.92988
3.92611
3.92215
3.91814
3.91413
3.91012
3.90609
3.90205
3.89799
3.89393
3.88986
3.88578
3.88169
3.8776
3.8735
3.86939
3.86528
3.86116
3.85703
3.85289
3.84874
3.84457
3.84037
3.83615
3.83188
3.82756
3.82318
3.81869
3.81408
3.80931
3.80432
3.79904
3.79339
3.78726
3.78053
3.77305
3.76464
3.75513
3.7443
3.73186
3.71736
3.69838
3.67077
3.60393
3.9433
3.93834
3.93366
3.92985
3.9261
3.92216
3.91816
3.91416
3.91015
3.90612
3.90208
3.89802
3.89395
3.88988
3.8858
3.88171
3.87762
3.87353
3.86943
3.86533
3.86122
3.85711
3.853
3.84888
3.84476
3.84063
3.8365
3.83236
3.82821
3.82405
3.81988
3.81569
3.81149
3.80728
3.80307
3.79885
3.79468
3.79058
3.78666
3.78304
3.77994
3.77763
3.77642
3.77646
3.777
3.77781
3.76672
3.94292
3.93808
3.93358
3.92985
3.9261
3.92218
3.91819
3.9142
3.91019
3.90615
3.9021
3.89804
3.89398
3.8899
3.88582
3.88173
3.87764
3.87355
3.86946
3.86536
3.86127
3.85717
3.85307
3.84898
3.8449
3.84082
3.83675
3.83271
3.82868
3.82469
3.82075
3.81687
3.81308
3.80941
3.80593
3.80268
3.79977
3.79732
3.79551
3.79454
3.79469
3.79623
3.79935
3.80401
3.80963
3.81645
3.81856
3.94241
3.93783
3.93356
3.92987
3.92612
3.9222
3.91823
3.91423
3.91022
3.90618
3.90213
3.89806
3.89399
3.88992
3.88583
3.88175
3.87766
3.87357
3.86948
3.86538
3.86129
3.8572
3.85312
3.84904
3.84498
3.84093
3.8369
3.83291
3.82895
3.82505
3.82123
3.81752
3.81395
3.81057
3.80746
3.8047
3.80239
3.80069
3.79976
3.79979
3.801
3.80353
3.80743
3.81248
3.81825
3.82499
3.82972
3.94148
3.93753
3.9336
3.92992
3.92614
3.92223
3.91826
3.91427
3.91024
3.9062
3.90215
3.89808
3.89401
3.88993
3.88585
3.88176
3.87767
3.87358
3.86949
3.86539
3.8613
3.85722
3.85314
3.84906
3.845
3.84096
3.83694
3.83296
3.82902
3.82514
3.82135
3.81768
3.81416
3.81084
3.8078
3.80511
3.80289
3.80127
3.80038
3.80039
3.80144
3.80362
3.80693
3.81117
3.81608
3.82171
3.8262
3.93977
3.93698
3.93356
3.92995
3.92617
3.92227
3.9183
3.9143
3.91027
3.90622
3.90217
3.8981
3.89402
3.88994
3.88586
3.88177
3.87768
3.87358
3.86949
3.8654
3.86131
3.85722
3.85313
3.84906
3.84499
3.84095
3.83692
3.83293
3.82898
3.82508
3.82127
3.81756
3.81399
3.81062
3.80749
3.80469
3.80231
3.80046
3.79928
3.79889
3.79941
3.80095
3.8035
3.80697
3.81126
3.81625
3.82021
-0.847974
-0.895495
-0.605413
-0.633134
-0.763087
-0.854179
0.428226
-0.204736
-0.380885
-0.526386
-0.685539
-0.796601
1.01905
0.166281
-0.260336
-0.470963
-0.644408
-0.775051
1.00862
0.147921
-0.288027
-0.511174
-0.70247
-0.855314
0.385057
-0.269323
-0.467004
-0.643505
-0.848036
-1.01953
-0.946596
-1.01274
-0.730812
-0.790256
-0.978411
-1.15402
-0.660797
-0.662624
-0.66228
-0.658953
-0.653268
-0.645636
-0.63632
-0.625562
-0.613601
-0.600679
-0.587022
-0.572846
-0.55834
-0.543669
-0.528971
-0.514356
-0.499905
-0.485673
-0.471692
-0.457971
-0.444501
-0.431256
-0.418197
-0.405275
-0.392432
-0.379605
-0.366729
-0.353734
-0.340549
-0.327103
-0.313326
-0.299145
-0.284487
-0.269282
-0.253454
-0.236929
-0.21963
-0.201482
-0.182412
-0.162357
-0.141268
-0.119147
-0.0961545
-0.0725698
-0.048297
-0.0234287
-0.00351275
-0.658161
-0.660003
-0.659612
-0.656399
-0.651039
-0.643801
-0.634857
-0.62442
-0.612724
-0.600015
-0.586529
-0.572486
-0.558082
-0.543489
-0.528846
-0.514266
-0.499835
-0.485609
-0.471624
-0.457889
-0.444399
-0.431129
-0.418042
-0.405091
-0.39222
-0.379369
-0.366472
-0.353461
-0.340268
-0.326821
-0.313051
-0.298886
-0.284257
-0.269092
-0.253319
-0.236869
-0.219669
-0.201651
-0.182752
-0.162918
-0.142094
-0.120269
-0.0976203
-0.0745055
-0.050508
-0.0246641
-0.00326337
-0.66028
-0.66173
-0.6609
-0.657392
-0.651929
-0.644639
-0.635635
-0.625114
-0.613319
-0.600499
-0.5869
-0.572747
-0.55824
-0.54355
-0.528821
-0.514164
-0.499665
-0.485383
-0.47135
-0.457579
-0.444062
-0.430777
-0.417686
-0.404741
-0.391888
-0.379064
-0.366204
-0.353239
-0.340102
-0.326722
-0.313029
-0.298953
-0.284426
-0.269379
-0.253744
-0.237456
-0.22045
-0.202666
-0.184048
-0.164547
-0.144103
-0.122681
-0.100421
-0.0776609
-0.053854
-0.0272403
-0.00360559
-0.672078
-0.671647
-0.669016
-0.664155
-0.657632
-0.64941
-0.639564
-0.628291
-0.615832
-0.602432
-0.58833
-0.573745
-0.558871
-0.543872
-0.528887
-0.514022
-0.499358
-0.48495
-0.470829
-0.457004
-0.443466
-0.430189
-0.417134
-0.40425
-0.391479
-0.378756
-0.366014
-0.353181
-0.340188
-0.326963
-0.313437
-0.299538
-0.2852
-0.270354
-0.254939
-0.238893
-0.222157
-0.204675
-0.186395
-0.167264
-0.147218
-0.126189
-0.104205
-0.0814048
-0.0572683
-0.0301338
-0.00465371
-0.698687
-0.691015
-0.682682
-0.674513
-0.665762
-0.655811
-0.644561
-0.632134
-0.618718
-0.604522
-0.589758
-0.574624
-0.559298
-0.543934
-0.528658
-0.513567
-0.498736
-0.484215
-0.470028
-0.456183
-0.442665
-0.429446
-0.416482
-0.403719
-0.391094
-0.378538
-0.365979
-0.353343
-0.340557
-0.327548
-0.314245
-0.300576
-0.286473
-0.27187
-0.256707
-0.240924
-0.224466
-0.207279
-0.189308
-0.170491
-0.150748
-0.129982
-0.108103
-0.0850288
-0.0603865
-0.0333489
-0.00639893
-0.756653
-0.719173
-0.695422
-0.682236
-0.671116
-0.659485
-0.647066
-0.63379
-0.619693
-0.604932
-0.5897
-0.574187
-0.55856
-0.542967
-0.52753
-0.512342
-0.497468
-0.48295
-0.468809
-0.455048
-0.441647
-0.428574
-0.415781
-0.40321
-0.390793
-0.378456
-0.366124
-0.353719
-0.341165
-0.328389
-0.315316
-0.301875
-0.287995
-0.27361
-0.258659
-0.243083
-0.226826
-0.20983
-0.192032
-0.173362
-0.153731
-0.133023
-0.111091
-0.0877667
-0.0628134
-0.0360493
-0.00711143
-0.857106
-0.747121
-0.696449
-0.68101
-0.669792
-0.657411
-0.644744
-0.63159
-0.617592
-0.602834
-0.587563
-0.571999
-0.556326
-0.540705
-0.525266
-0.51011
-0.495309
-0.480903
-0.466912
-0.453331
-0.440137
-0.427289
-0.414734
-0.402407
-0.390237
-0.378144
-0.366049
-0.353873
-0.341538
-0.32897
-0.316094
-0.302834
-0.289119
-0.274884
-0.260064
-0.244602
-0.228438
-0.211512
-0.193755
-0.175089
-0.155414
-0.134612
-0.112536
-0.0890557
-0.0640049
-0.0377028
-0.00737966
-0.848112
-0.745686
-0.691102
-0.677512
-0.668133
-0.655415
-0.64227
-0.629153
-0.615272
-0.600486
-0.585085
-0.569349
-0.55349
-0.537689
-0.522105
-0.506861
-0.492037
-0.477678
-0.463796
-0.45038
-0.437392
-0.424781
-0.41248
-0.400413
-0.388499
-0.376651
-0.364786
-0.352821
-0.340679
-0.328285
-0.315556
-0.302413
-0.288788
-0.274615
-0.259831
-0.244379
-0.228198
-0.211229
-0.193403
-0.174646
-0.154867
-0.133968
-0.111841
-0.0884219
-0.0636038
-0.0380727
-0.00761707
-0.808185
-0.742066
-0.694255
-0.679265
-0.671477
-0.660305
-0.647492
-0.63429
-0.620088
-0.604579
-0.588101
-0.571094
-0.55389
-0.536761
-0.519942
-0.503618
-0.487908
-0.472872
-0.458523
-0.444828
-0.431725
-0.419128
-0.406937
-0.395044
-0.38334
-0.37172
-0.360081
-0.348331
-0.336391
-0.324184
-0.31161
-0.298581
-0.285035
-0.270912
-0.256154
-0.240706
-0.224514
-0.207525
-0.189679
-0.170917
-0.151175
-0.130388
-0.108507
-0.0855422
-0.061464
-0.0370378
-0.00818244
-0.823653
-0.803566
-0.769635
-0.749709
-0.73569
-0.718263
-0.698086
-0.677472
-0.656453
-0.634557
-0.611965
-0.589158
-0.566542
-0.544444
-0.52316
-0.502934
-0.483922
-0.466195
-0.449743
-0.43449
-0.420309
-0.40704
-0.394504
-0.382516
-0.370899
-0.359488
-0.348137
-0.336714
-0.325112
-0.313252
-0.301033
-0.288322
-0.275049
-0.26117
-0.24664
-0.231411
-0.21544
-0.198686
-0.181111
-0.16268
-0.143364
-0.123147
-0.102039
-0.0801028
-0.0574455
-0.0345098
-0.00929401
-0.924087
-0.911264
-0.874797
-0.851234
-0.833608
-0.811065
-0.784313
-0.756299
-0.727204
-0.696488
-0.664443
-0.631816
-0.59931
-0.567545
-0.537102
-0.50848
-0.482035
-0.457962
-0.436302
-0.41696
-0.399735
-0.384349
-0.370485
-0.357812
-0.346013
-0.334795
-0.323901
-0.313113
-0.302248
-0.29116
-0.27976
-0.267911
-0.255475
-0.242398
-0.228652
-0.214205
-0.199029
-0.183101
-0.166408
-0.148947
-0.13073
-0.111784
-0.0921818
-0.071996
-0.051534
-0.0305327
-0.0108453
-1.08936
-1.03367
-0.973788
-0.949433
-0.932561
-0.907908
-0.878376
-0.846877
-0.812709
-0.775099
-0.734477
-0.691799
-0.648058
-0.604278
-0.561519
-0.520783
-0.482903
-0.448471
-0.417821
-0.391024
-0.367926
-0.348192
-0.331372
-0.316952
-0.304407
-0.29324
-0.283002
-0.273306
-0.263827
-0.254291
-0.244518
-0.234385
-0.223727
-0.212422
-0.200424
-0.18771
-0.174266
-0.160089
-0.14519
-0.129597
-0.113359
-0.0965423
-0.0792655
-0.0615924
-0.0440317
-0.0254765
-0.0124012
-1.2388
-1.11957
-1.0396
-1.01836
-1.00297
-0.978623
-0.950303
-0.919628
-0.884809
-0.844813
-0.799896
-0.750822
-0.698571
-0.644389
-0.589751
-0.536216
-0.485254
-0.438103
-0.395673
-0.358497
-0.326725
-0.300167
-0.278371
-0.260707
-0.246456
-0.234881
-0.225281
-0.217027
-0.209574
-0.202474
-0.195355
-0.187979
-0.180182
-0.171794
-0.162706
-0.152866
-0.142257
-0.130885
-0.11878
-0.105994
-0.0926054
-0.0787067
-0.0644559
-0.049891
-0.0356942
-0.0200556
-0.0134039
-1.28624
-1.13037
-1.05686
-1.03716
-1.02272
-1.00348
-0.981171
-0.955247
-0.923887
-0.886153
-0.841945
-0.791574
-0.735735
-0.675597
-0.612771
-0.549164
-0.486782
-0.427527
-0.373017
-0.324451
-0.282534
-0.247476
-0.219046
-0.196673
-0.179556
-0.166778
-0.157397
-0.150518
-0.145336
-0.141163
-0.137431
-0.133691
-0.129628
-0.125037
-0.119762
-0.113692
-0.106772
-0.098999
-0.0904079
-0.0810658
-0.0710677
-0.0605286
-0.0496242
-0.0383976
-0.0276002
-0.0151335
-0.0134747
-1.14234
-1.089
-1.056
-1.03969
-1.02603
-1.01023
-0.991252
-0.967934
-0.939021
-0.903626
-0.861244
-0.811713
-0.755311
-0.692878
-0.625834
-0.556087
-0.485856
-0.417454
-0.353057
-0.294491
-0.243078
-0.199552
-0.164079
-0.136319
-0.115556
-0.100814
-0.0910017
-0.0850025
-0.0817725
-0.0803753
-0.080023
-0.08007
-0.0800217
-0.0795024
-0.0782906
-0.0762291
-0.0732191
-0.0692246
-0.0642746
-0.0584362
-0.0518165
-0.0445399
-0.0367959
-0.0286467
-0.0208226
-0.0113935
-0.0125973
-1.06454
-1.05327
-1.04226
-1.03221
-1.02109
-1.0071
-0.989245
-0.966753
-0.938861
-0.904749
-0.863693
-0.81525
-0.759402
-0.696669
-0.628193
-0.555696
-0.481349
-0.407577
-0.336831
-0.271346
-0.212913
-0.162734
-0.121384
-0.0888371
-0.064561
-0.0476485
-0.036961
-0.0312656
-0.0293423
-0.0300638
-0.0324432
-0.0356579
-0.0390592
-0.0421307
-0.0445059
-0.0459684
-0.0463777
-0.0456711
-0.0438595
-0.0410068
-0.0372184
-0.0326257
-0.0274135
-0.0216828
-0.0160559
-0.00912286
-0.0110614
-1.027
-1.02606
-1.02289
-1.01706
-1.00843
-0.996082
-0.979289
-0.957457
-0.929978
-0.896201
-0.85548
-0.807464
-0.752106
-0.689715
-0.621215
-0.548141
-0.472514
-0.396675
-0.323103
-0.254193
-0.191973
-0.137935
-0.0929489
-0.0572565
-0.0305164
-0.0119442
-0.000434476
0.00526925
0.00647594
0.00442028
0.000225526
-0.00516332
-0.0109669
-0.0165947
-0.0215782
-0.025611
-0.0285071
-0.0301881
-0.0306439
-0.0299333
-0.0281492
-0.0254238
-0.0219222
-0.017777
-0.0134587
-0.00822191
-0.00925592
-1.0085
-1.01017
-1.00899
-1.00421
-0.996048
-0.983911
-0.967154
-0.945218
-0.917546
-0.883579
-0.842787
-0.794779
-0.739441
-0.67717
-0.608881
-0.536032
-0.460564
-0.384678
-0.31072
-0.241067
-0.177792
-0.122474
-0.0761401
-0.0391762
-0.011378
0.00795171
0.0198423
0.0255404
0.0263529
0.0235673
0.0183497
0.0117237
0.00452251
-0.00258972
-0.00911802
-0.0146981
-0.0191151
-0.0222568
-0.0241052
-0.024696
-0.024118
-0.0224835
-0.0199429
-0.016629
-0.012867
-0.00849443
-0.00760102
-1.00424
-1.00647
-1.00558
-1.0006
-0.991842
-0.978906
-0.961219
-0.938221
-0.909374
-0.874174
-0.832206
-0.783222
-0.727229
-0.664611
-0.596251
-0.523561
-0.448383
-0.372878
-0.299382
-0.230203
-0.167284
-0.112116
-0.065798
-0.0288047
-0.000983455
0.0183032
0.0300529
0.0354772
0.0358766
0.0325336
0.0266362
0.019225
0.0111694
0.00315907
-0.00428213
-0.0107788
-0.0160868
-0.020077
-0.0227097
-0.0240127
-0.024061
-0.0229631
-0.02085
-0.0178518
-0.0141927
-0.0100419
-0.00669614
-1.00764
-1.00995
-1.00915
-1.00397
-0.994656
-0.980975
-0.962414
-0.938411
-0.908412
-0.871916
-0.828544
-0.778123
-0.720782
-0.657038
-0.587843
-0.514606
-0.439159
-0.363633
-0.290298
-0.22137
-0.158785
-0.104067
-0.058219
-0.0216099
0.00587526
0.0247961
0.0361386
0.0411012
0.040975
0.0370425
0.0305002
0.0224041
0.0136437
0.00493197
-0.00318887
-0.0103283
-0.0162269
-0.0207429
-0.0238291
-0.0255096
-0.0258593
-0.0249874
-0.0230212
-0.020085
-0.0163489
-0.0120451
-0.00673478
)
;

boundaryField
{
    inlet
    {
        type            zeroGradient;
    }
    outlet
    {
        type            fixedValue;
        value           uniform 0;
    }
    upperWall
    {
        type            zeroGradient;
    }
    lowerWall
    {
        type            zeroGradient;
    }
    frontAndBack
    {
        type            empty;
    }
}


// ************************************************************************* //
