/*--------------------------------*- C++ -*----------------------------------*\
| =========                 |                                                 |
| \\      /  F ield         | OpenFOAM: The Open Source CFD Toolbox           |
|  \\    /   O peration     | Version:  2406                                  |
|   \\  /    A nd           | Website:  www.openfoam.com                      |
|    \\/     M anipulation  |                                                 |
\*---------------------------------------------------------------------------*/
FoamFile
{
    version     2.0;
    format      ascii;
    arch        "LSB;label=32;scalar=64";
    class       volScalarField;
    location    "88";
    object      p;
}
// * * * * * * * * * * * * * * * * * * * * * * * * * * * * * * * * * * * * * //

dimensions      [0 2 -2 0 0 0 0];

internalField   nonuniform List<scalar> 
2000
(
0.976454
0.975286
0.97197
0.967079
0.961173
0.954445
0.947036
0.939107
0.930791
0.922177
0.983328
0.97807
0.972563
0.967241
0.961253
0.954383
0.946859
0.938894
0.930583
0.921983
0.989217
0.980219
0.972225
0.96646
0.960614
0.953767
0.946222
0.938305
0.93009
0.921582
0.99383
0.983077
0.973287
0.966744
0.960672
0.953628
0.945878
0.937848
0.929614
0.921128
0.997599
0.985998
0.974866
0.967354
0.960819
0.953507
0.945541
0.937371
0.929089
0.920613
1.00063
0.988551
0.976512
0.968196
0.961192
0.953608
0.945427
0.937096
0.928723
0.920211
1.003
0.990636
0.978018
0.969104
0.961675
0.953808
0.945412
0.936913
0.928432
0.919865
1.00475
0.992216
0.979235
0.969906
0.962139
0.954031
0.945454
0.936818
0.928243
0.919621
1.00591
0.993274
0.98008
0.970493
0.962501
0.95422
0.945513
0.936778
0.928132
0.919464
1.00649
0.993805
0.980511
0.970802
0.962697
0.954327
0.945551
0.936764
0.92808
0.919387
1.00649
0.993805
0.980511
0.970802
0.962697
0.954327
0.945551
0.936764
0.92808
0.919387
1.00591
0.993274
0.98008
0.970493
0.962501
0.95422
0.945513
0.936778
0.928132
0.919464
1.00475
0.992216
0.979235
0.969906
0.96214
0.954031
0.945454
0.936818
0.928243
0.919621
1.003
0.990636
0.978018
0.969105
0.961675
0.953809
0.945412
0.936913
0.928431
0.919865
1.00064
0.988552
0.976513
0.968196
0.961192
0.953608
0.945428
0.937096
0.928722
0.920211
0.997599
0.985998
0.974866
0.967354
0.960818
0.953507
0.945541
0.937371
0.929089
0.920612
0.99383
0.983077
0.973287
0.966744
0.960671
0.953628
0.945879
0.937848
0.929613
0.921127
0.989217
0.980219
0.972225
0.96646
0.960614
0.953767
0.946223
0.938305
0.93009
0.921581
0.983328
0.978071
0.972563
0.967241
0.961253
0.954383
0.946859
0.938894
0.930583
0.921983
0.976454
0.975287
0.97197
0.967079
0.961173
0.954445
0.947036
0.939107
0.930791
0.922177
0.913326
0.904286
0.895096
0.885785
0.876373
0.866876
0.857308
0.847678
0.837994
0.828262
0.818487
0.808674
0.798825
0.788945
0.779035
0.769097
0.759134
0.749147
0.739138
0.729108
0.719059
0.708992
0.698907
0.688806
0.67869
0.668558
0.658413
0.648254
0.638083
0.627899
0.617704
0.607498
0.597282
0.587055
0.576819
0.913147
0.904124
0.894952
0.885658
0.876261
0.866778
0.857221
0.847601
0.837925
0.8282
0.818432
0.808624
0.79878
0.788904
0.778997
0.769063
0.759102
0.749117
0.73911
0.729082
0.719034
0.708968
0.698885
0.688785
0.67867
0.668539
0.658395
0.648237
0.638066
0.627883
0.617688
0.607483
0.597267
0.587041
0.576805
0.912816
0.903848
0.894722
0.885466
0.8761
0.866641
0.857103
0.847498
0.837834
0.82812
0.81836
0.808559
0.798722
0.78885
0.778948
0.769017
0.759059
0.749077
0.739073
0.729047
0.719002
0.708938
0.698857
0.688759
0.678645
0.668516
0.658372
0.648215
0.638046
0.627864
0.61767
0.607465
0.59725
0.587025
0.57679
0.912393
0.903457
0.894367
0.885148
0.875818
0.866392
0.856882
0.847301
0.83766
0.827966
0.818224
0.808439
0.798614
0.788753
0.77886
0.768937
0.758986
0.74901
0.739012
0.728991
0.718951
0.708891
0.698813
0.688718
0.678607
0.66848
0.658338
0.648183
0.638015
0.627835
0.617643
0.607439
0.597226
0.587002
0.576768
0.911907
0.903006
0.893954
0.884778
0.875489
0.866099
0.856621
0.847068
0.837451
0.827781
0.81806
0.808292
0.798482
0.788633
0.778749
0.768834
0.758891
0.748923
0.738931
0.728917
0.718883
0.708828
0.698755
0.688664
0.678555
0.668431
0.658292
0.648139
0.637973
0.627795
0.617605
0.607404
0.597192
0.58697
0.576738
0.911501
0.902609
0.893576
0.884427
0.87517
0.865809
0.856356
0.846826
0.837232
0.827583
0.817884
0.808136
0.798342
0.788506
0.778631
0.768725
0.758789
0.748828
0.738844
0.728838
0.71881
0.708762
0.698693
0.688606
0.678501
0.668379
0.658242
0.648092
0.637928
0.627752
0.617564
0.607366
0.597156
0.586936
0.576706
0.911134
0.902241
0.893221
0.884095
0.874865
0.865531
0.856102
0.846593
0.83702
0.827392
0.817714
0.807986
0.798208
0.788385
0.77852
0.768621
0.758692
0.748738
0.738761
0.728762
0.718741
0.708699
0.698635
0.688552
0.678449
0.66833
0.658195
0.648046
0.637885
0.627711
0.617525
0.607329
0.597122
0.586904
0.576675
0.910862
0.901961
0.892947
0.883836
0.874625
0.86531
0.855898
0.846404
0.836846
0.827234
0.817573
0.807861
0.798098
0.788285
0.778428
0.768535
0.758611
0.748662
0.73869
0.728697
0.718682
0.708645
0.698586
0.688506
0.678407
0.668289
0.658156
0.648008
0.637848
0.627676
0.617492
0.607298
0.597092
0.586876
0.576649
0.910678
0.901766
0.892752
0.883649
0.874451
0.865149
0.855748
0.846264
0.836717
0.827117
0.817468
0.807769
0.798016
0.788212
0.778361
0.768472
0.758552
0.748606
0.738638
0.728649
0.718639
0.708606
0.698551
0.688474
0.678377
0.66826
0.658128
0.647981
0.637821
0.62765
0.617468
0.607275
0.597071
0.586856
0.576631
0.910587
0.901668
0.892654
0.883555
0.874363
0.865067
0.855671
0.846193
0.836651
0.827057
0.817415
0.807722
0.797975
0.788175
0.778327
0.76844
0.758521
0.748577
0.738611
0.728625
0.718617
0.708586
0.698533
0.688458
0.678361
0.668245
0.658113
0.647967
0.637808
0.627637
0.617455
0.607263
0.59706
0.586846
0.576621
0.910587
0.901668
0.892654
0.883555
0.874362
0.865066
0.855671
0.846193
0.836651
0.827057
0.817415
0.807722
0.797975
0.788175
0.778327
0.76844
0.758521
0.748577
0.738611
0.728624
0.718617
0.708586
0.698533
0.688458
0.678361
0.668246
0.658113
0.647967
0.637808
0.627637
0.617455
0.607263
0.59706
0.586846
0.576621
0.910679
0.901767
0.892753
0.883649
0.87445
0.865148
0.855748
0.846265
0.836717
0.827117
0.817468
0.807768
0.798016
0.788212
0.778361
0.768472
0.758552
0.748606
0.738638
0.728649
0.718639
0.708606
0.698551
0.688474
0.678377
0.668261
0.658128
0.647981
0.637822
0.62765
0.617468
0.607275
0.597071
0.586856
0.576631
0.910863
0.901962
0.892947
0.883835
0.874624
0.86531
0.855899
0.846405
0.836847
0.827235
0.817573
0.80786
0.798097
0.788285
0.778429
0.768536
0.758612
0.748663
0.738691
0.728697
0.718682
0.708645
0.698586
0.688506
0.678407
0.66829
0.658156
0.648009
0.637848
0.627676
0.617492
0.607298
0.597092
0.586876
0.576649
0.911134
0.902242
0.893221
0.884094
0.874863
0.865531
0.856103
0.846595
0.837021
0.827393
0.817713
0.807985
0.798207
0.788385
0.778521
0.768622
0.758693
0.748739
0.738762
0.728762
0.718741
0.708698
0.698635
0.688551
0.678449
0.66833
0.658196
0.648047
0.637885
0.627711
0.617526
0.607329
0.597122
0.586904
0.576675
0.911502
0.90261
0.893577
0.884426
0.875168
0.865808
0.856357
0.846828
0.837233
0.827584
0.817883
0.808135
0.798341
0.788505
0.778632
0.768725
0.75879
0.748829
0.738845
0.728838
0.71881
0.708761
0.698693
0.688606
0.678501
0.668379
0.658243
0.648092
0.637928
0.627752
0.617565
0.607366
0.597156
0.586936
0.576706
0.911908
0.903008
0.893954
0.884777
0.875488
0.866099
0.856622
0.847069
0.837452
0.827781
0.818059
0.808292
0.798482
0.788633
0.77875
0.768835
0.758892
0.748923
0.738931
0.728918
0.718883
0.708828
0.698755
0.688664
0.678555
0.668431
0.658292
0.64814
0.637974
0.627795
0.617605
0.607404
0.597192
0.58697
0.576738
0.912394
0.903458
0.894367
0.885147
0.875818
0.866392
0.856882
0.847302
0.83766
0.827966
0.818224
0.808439
0.798614
0.788754
0.77886
0.768937
0.758986
0.749011
0.739012
0.728991
0.718951
0.708891
0.698813
0.688718
0.678607
0.66848
0.658339
0.648183
0.638015
0.627835
0.617643
0.60744
0.597226
0.587002
0.576768
0.912816
0.903849
0.894722
0.885465
0.876099
0.866641
0.857103
0.847498
0.837834
0.82812
0.81836
0.808559
0.798722
0.788851
0.778948
0.769017
0.75906
0.749078
0.739073
0.729047
0.719002
0.708938
0.698857
0.688759
0.678645
0.668516
0.658373
0.648216
0.638046
0.627864
0.61767
0.607465
0.59725
0.587025
0.57679
0.913147
0.904124
0.894952
0.885658
0.876261
0.866778
0.857221
0.847601
0.837925
0.8282
0.818432
0.808624
0.79878
0.788904
0.778997
0.769063
0.759102
0.749117
0.73911
0.729082
0.719034
0.708968
0.698885
0.688785
0.67867
0.668539
0.658395
0.648237
0.638066
0.627883
0.617689
0.607483
0.597267
0.587041
0.576805
0.913326
0.904286
0.895096
0.885785
0.876373
0.866876
0.857308
0.847678
0.837994
0.828262
0.818487
0.808674
0.798826
0.788945
0.779035
0.769097
0.759134
0.749147
0.739138
0.729109
0.719059
0.708992
0.698907
0.688806
0.67869
0.668558
0.658413
0.648254
0.638083
0.6279
0.617705
0.607498
0.597282
0.587055
0.576819
0.566573
0.556319
0.546056
0.535785
0.525505
0.515219
0.504924
0.494623
0.484315
0.473999
0.56656
0.556306
0.546044
0.535773
0.525494
0.515207
0.504913
0.494612
0.484304
0.473989
0.566546
0.556292
0.54603
0.53576
0.525482
0.515195
0.504902
0.494601
0.484293
0.473979
0.566525
0.556272
0.546011
0.535742
0.525464
0.515179
0.504886
0.494585
0.484278
0.473964
0.566496
0.556245
0.545985
0.535717
0.52544
0.515156
0.504863
0.494564
0.484258
0.473944
0.566466
0.556216
0.545957
0.53569
0.525414
0.51513
0.504839
0.49454
0.484234
0.473922
0.566436
0.556188
0.54593
0.535664
0.525388
0.515105
0.504815
0.494517
0.484212
0.473901
0.566412
0.556165
0.545908
0.535642
0.525367
0.515085
0.504794
0.494497
0.484193
0.473882
0.566395
0.556148
0.545892
0.535626
0.525352
0.51507
0.50478
0.494483
0.484179
0.473869
0.566385
0.556139
0.545883
0.535618
0.525344
0.515062
0.504772
0.494476
0.484172
0.473862
0.566385
0.556139
0.545883
0.535618
0.525344
0.515062
0.504773
0.494476
0.484172
0.473863
0.566394
0.556148
0.545892
0.535626
0.525352
0.51507
0.50478
0.494483
0.48418
0.473869
0.566412
0.556165
0.545908
0.535642
0.525367
0.515085
0.504795
0.494497
0.484193
0.473883
0.566436
0.556188
0.54593
0.535664
0.525389
0.515106
0.504815
0.494517
0.484212
0.473901
0.566466
0.556216
0.545957
0.53569
0.525414
0.51513
0.504839
0.49454
0.484235
0.473923
0.566496
0.556245
0.545986
0.535717
0.52544
0.515156
0.504864
0.494564
0.484258
0.473945
0.566525
0.556273
0.546012
0.535742
0.525464
0.515179
0.504886
0.494586
0.484279
0.473965
0.566546
0.556292
0.54603
0.53576
0.525482
0.515196
0.504902
0.494601
0.484294
0.473979
0.56656
0.556306
0.546044
0.535773
0.525494
0.515208
0.504914
0.494612
0.484304
0.47399
0.566574
0.556319
0.546056
0.535785
0.525506
0.515219
0.504925
0.494623
0.484315
0.474
0.463678
0.45335
0.443017
0.432677
0.422332
0.411981
0.401625
0.391264
0.380898
0.370527
0.360151
0.349771
0.339386
0.328996
0.318603
0.308205
0.297804
0.287398
0.276989
0.266575
0.256158
0.245738
0.235314
0.224887
0.214456
0.204022
0.193585
0.183145
0.172702
0.162256
0.151807
0.141355
0.1309
0.120443
0.109983
0.463668
0.453341
0.443007
0.432668
0.422323
0.411972
0.401617
0.391256
0.38089
0.370519
0.360143
0.349763
0.339378
0.328989
0.318596
0.308198
0.297797
0.287391
0.276982
0.266569
0.256152
0.245732
0.235308
0.224881
0.21445
0.204017
0.19358
0.18314
0.172697
0.162251
0.151802
0.14135
0.130895
0.120438
0.109978
0.463658
0.453331
0.442998
0.432659
0.422314
0.411964
0.401608
0.391248
0.380882
0.370511
0.360136
0.349756
0.339371
0.328982
0.318589
0.308192
0.29779
0.287385
0.276976
0.266563
0.256146
0.245726
0.235302
0.224875
0.214445
0.204011
0.193575
0.183135
0.172692
0.162246
0.151797
0.141345
0.130891
0.120434
0.109974
0.463644
0.453317
0.442985
0.432646
0.422302
0.411952
0.401597
0.391237
0.380871
0.370501
0.360126
0.349746
0.339362
0.328973
0.31858
0.308183
0.297782
0.287377
0.276968
0.266555
0.256139
0.245719
0.235295
0.224869
0.214438
0.204005
0.193568
0.183129
0.172686
0.16224
0.151792
0.14134
0.130886
0.120429
0.109969
0.463625
0.453299
0.442967
0.432629
0.422286
0.411937
0.401582
0.391222
0.380857
0.370488
0.360113
0.349733
0.33935
0.328961
0.318569
0.308172
0.297771
0.287366
0.276958
0.266545
0.256129
0.245709
0.235286
0.22486
0.21443
0.203996
0.19356
0.183121
0.172678
0.162233
0.151784
0.141333
0.130879
0.120422
0.109963
0.463603
0.453278
0.442947
0.43261
0.422267
0.411919
0.401565
0.391206
0.380841
0.370472
0.360098
0.349719
0.339335
0.328947
0.318555
0.308159
0.297758
0.287354
0.276945
0.266533
0.256118
0.245698
0.235275
0.224849
0.21442
0.203987
0.193551
0.183111
0.172669
0.162224
0.151776
0.141325
0.130871
0.120415
0.109956
0.463583
0.453259
0.442928
0.432592
0.42225
0.411902
0.401549
0.39119
0.380826
0.370457
0.360083
0.349704
0.339321
0.328934
0.318542
0.308146
0.297746
0.287342
0.276934
0.266522
0.256107
0.245688
0.235265
0.224839
0.21441
0.203977
0.193541
0.183102
0.17266
0.162215
0.151767
0.141317
0.130863
0.120407
0.109948
0.463565
0.453242
0.442912
0.432577
0.422235
0.411888
0.401535
0.391177
0.380813
0.370444
0.360071
0.349692
0.339309
0.328922
0.318531
0.308135
0.297735
0.287331
0.276924
0.266512
0.256097
0.245678
0.235256
0.22483
0.214401
0.203969
0.193533
0.183094
0.172653
0.162208
0.15176
0.14131
0.130856
0.120401
0.109942
0.463553
0.45323
0.442901
0.432566
0.422224
0.411878
0.401525
0.391167
0.380804
0.370435
0.360062
0.349684
0.339301
0.328914
0.318522
0.308127
0.297727
0.287324
0.276916
0.266505
0.25609
0.245672
0.23525
0.224824
0.214395
0.203963
0.193527
0.183089
0.172647
0.162202
0.151755
0.141305
0.130852
0.120396
0.109938
0.463546
0.453223
0.442895
0.43256
0.422219
0.411872
0.40152
0.391162
0.380799
0.37043
0.360057
0.349679
0.339296
0.328909
0.318518
0.308123
0.297723
0.28732
0.276913
0.266502
0.256087
0.245668
0.235246
0.224821
0.214392
0.20396
0.193524
0.183086
0.172644
0.1622
0.151752
0.141302
0.130849
0.120394
0.109936
0.463546
0.453224
0.442895
0.43256
0.422219
0.411872
0.40152
0.391162
0.380799
0.37043
0.360057
0.349679
0.339297
0.32891
0.318518
0.308123
0.297724
0.28732
0.276913
0.266502
0.256087
0.245668
0.235246
0.224821
0.214392
0.20396
0.193524
0.183086
0.172644
0.1622
0.151752
0.141302
0.130849
0.120394
0.109936
0.463553
0.45323
0.442901
0.432566
0.422225
0.411878
0.401525
0.391167
0.380804
0.370435
0.360062
0.349684
0.339301
0.328914
0.318523
0.308127
0.297728
0.287324
0.276917
0.266506
0.256091
0.245672
0.23525
0.224824
0.214395
0.203963
0.193528
0.183089
0.172647
0.162203
0.151755
0.141305
0.130852
0.120396
0.109938
0.463566
0.453242
0.442913
0.432577
0.422235
0.411888
0.401535
0.391177
0.380813
0.370445
0.360071
0.349693
0.33931
0.328923
0.318531
0.308135
0.297736
0.287332
0.276924
0.266513
0.256098
0.245679
0.235257
0.224831
0.214402
0.203969
0.193534
0.183095
0.172653
0.162208
0.151761
0.14131
0.130857
0.120401
0.109943
0.463583
0.453259
0.442929
0.432592
0.42225
0.411902
0.401549
0.39119
0.380826
0.370457
0.360084
0.349705
0.339322
0.328934
0.318542
0.308146
0.297746
0.287342
0.276934
0.266523
0.256107
0.245688
0.235266
0.22484
0.21441
0.203978
0.193542
0.183103
0.172661
0.162216
0.151768
0.141317
0.130864
0.120408
0.109949
0.463604
0.453279
0.442948
0.432611
0.422268
0.411919
0.401566
0.391206
0.380842
0.370473
0.360098
0.349719
0.339336
0.328948
0.318556
0.308159
0.297759
0.287355
0.276946
0.266534
0.256119
0.245699
0.235276
0.22485
0.214421
0.203988
0.193552
0.183112
0.17267
0.162225
0.151777
0.141326
0.130872
0.120415
0.109956
0.463625
0.453299
0.442967
0.43263
0.422286
0.411937
0.401583
0.391223
0.380858
0.370488
0.360114
0.349734
0.33935
0.328962
0.318569
0.308173
0.297772
0.287367
0.276958
0.266546
0.25613
0.24571
0.235287
0.224861
0.214431
0.203997
0.193561
0.183122
0.172679
0.162234
0.151785
0.141334
0.13088
0.120423
0.109964
0.463644
0.453318
0.442985
0.432647
0.422302
0.411953
0.401598
0.391237
0.380872
0.370502
0.360127
0.349747
0.339363
0.328974
0.318581
0.308184
0.297783
0.287378
0.276969
0.266556
0.25614
0.24572
0.235297
0.22487
0.214439
0.204006
0.193569
0.18313
0.172687
0.162241
0.151793
0.141341
0.130887
0.12043
0.10997
0.463658
0.453331
0.442998
0.432659
0.422314
0.411964
0.401609
0.391248
0.380882
0.370512
0.360137
0.349757
0.339372
0.328983
0.31859
0.308193
0.297791
0.287386
0.276977
0.266564
0.256147
0.245727
0.235303
0.224876
0.214446
0.204012
0.193576
0.183136
0.172693
0.162247
0.151798
0.141346
0.130892
0.120435
0.109975
0.463668
0.453341
0.443008
0.432668
0.422323
0.411973
0.401617
0.391256
0.38089
0.37052
0.360144
0.349764
0.339379
0.32899
0.318597
0.308199
0.297798
0.287392
0.276983
0.26657
0.256153
0.245733
0.235309
0.224882
0.214451
0.204018
0.193581
0.183141
0.172698
0.162252
0.151803
0.141351
0.130896
0.120439
0.109979
0.463678
0.453351
0.443017
0.432677
0.422332
0.411982
0.401626
0.391265
0.380898
0.370527
0.360152
0.349771
0.339387
0.328997
0.318604
0.308206
0.297805
0.287399
0.276989
0.266576
0.256159
0.245739
0.235315
0.224888
0.214457
0.204023
0.193586
0.183146
0.172703
0.162257
0.151808
0.141356
0.130901
0.120444
0.109984
0.0995202
0.0890549
0.078587
0.0681167
0.0576438
0.0471685
0.0366907
0.026211
0.0157272
0.00524823
0.0995154
0.0890502
0.0785824
0.0681121
0.0576393
0.0471641
0.036686
0.0262069
0.0157202
0.0052512
0.0995113
0.0890462
0.0785786
0.0681084
0.0576357
0.0471607
0.0366824
0.0262041
0.0157132
0.00525669
0.0995068
0.089042
0.0785746
0.0681048
0.0576325
0.0471579
0.03668
0.0262021
0.0157113
0.00525656
0.0995009
0.0890364
0.0785695
0.0681002
0.0576286
0.0471547
0.0366781
0.0262008
0.015715
0.00524804
0.099494
0.0890301
0.0785637
0.0680952
0.0576245
0.0471517
0.0366771
0.0262008
0.0157224
0.00523494
0.0994873
0.0890238
0.0785581
0.0680903
0.0576207
0.0471491
0.0366766
0.026201
0.0157302
0.00522198
0.0994815
0.0890185
0.0785534
0.0680863
0.0576177
0.0471472
0.0366764
0.0262016
0.0157365
0.00521239
0.0994774
0.0890148
0.0785501
0.0680836
0.0576156
0.0471459
0.0366764
0.0262021
0.0157405
0.00520657
0.0994754
0.0890129
0.0785485
0.0680822
0.0576146
0.0471453
0.0366764
0.0262024
0.0157424
0.00520396
0.0994755
0.089013
0.0785486
0.0680823
0.0576147
0.0471454
0.0366764
0.0262025
0.0157424
0.0052041
0.0994778
0.0890151
0.0785504
0.0680838
0.0576158
0.0471461
0.0366765
0.0262022
0.0157407
0.00520694
0.099482
0.089019
0.0785538
0.0680867
0.057618
0.0471474
0.0366766
0.026202
0.0157367
0.00521298
0.0994879
0.0890244
0.0785586
0.0680908
0.0576211
0.0471495
0.0366769
0.0262013
0.0157305
0.0052227
0.0994948
0.0890307
0.0785643
0.0680957
0.057625
0.0471522
0.0366775
0.0262012
0.0157227
0.00523568
0.0995017
0.0890371
0.0785702
0.0681008
0.0576292
0.0471552
0.0366785
0.0262013
0.0157152
0.0052487
0.0995077
0.0890428
0.0785753
0.0681055
0.0576331
0.0471584
0.0366805
0.0262025
0.0157116
0.00525703
0.0995122
0.089047
0.0785793
0.0681091
0.0576363
0.0471613
0.0366828
0.0262045
0.0157134
0.00525694
0.0995162
0.089051
0.0785831
0.0681127
0.0576399
0.0471646
0.0366864
0.0262072
0.0157204
0.00525124
0.0995211
0.0890557
0.0785878
0.0681173
0.0576444
0.047169
0.0366911
0.0262112
0.0157274
0.00524828
)
;

boundaryField
{
    inlet
    {
        type            zeroGradient;
    }
    outlet
    {
        type            fixedValue;
        value           uniform 0;
    }
    upperWall
    {
        type            zeroGradient;
    }
    lowerWall
    {
        type            zeroGradient;
    }
    frontAndBack
    {
        type            empty;
    }
}


// ************************************************************************* //
