/*--------------------------------*- C++ -*----------------------------------*\
| =========                 |                                                 |
| \\      /  F ield         | OpenFOAM: The Open Source CFD Toolbox           |
|  \\    /   O peration     | Version:  2406                                  |
|   \\  /    A nd           | Website:  www.openfoam.com                      |
|    \\/     M anipulation  |                                                 |
\*---------------------------------------------------------------------------*/
FoamFile
{
    version     2.0;
    format      ascii;
    arch        "LSB;label=32;scalar=64";
    class       surfaceScalarField;
    location    "88";
    object      phi;
}
// * * * * * * * * * * * * * * * * * * * * * * * * * * * * * * * * * * * * * //

dimensions      [0 3 -1 0 0 0 0];

oriented        oriented;

internalField   nonuniform List<scalar> 
3880
(
0.0491478
-0.000397838
0.0496562
-0.000508402
0.0501057
-0.00044947
0.0504839
-0.000378167
0.0508024
-0.000318524
0.0510678
-0.000265455
0.0512861
-0.00021829
0.0514651
-0.000178994
0.0516129
-0.000147751
-0.000123178
0.051736
0.138538
-0.000185961
0.138409
-0.00037937
0.138379
-0.000419421
0.13841
-0.000409029
0.13848
-0.000388585
0.138575
-0.000360756
0.138684
-0.000327205
0.138798
-0.000292988
0.138912
-0.000261513
-0.000233653
0.139022
0.218664
-9.95907e-05
0.218537
-0.000253214
0.218437
-0.000318769
0.218363
-0.000335388
0.21831
-0.000335835
0.218277
-0.000327429
0.218261
-0.000311191
0.218259
-0.000290556
0.218266
-0.00026906
-0.000248461
0.218281
0.288713
-6.23309e-05
0.288631
-0.00017122
0.288548
-0.000235839
0.288477
-0.000264212
0.288416
-0.000274919
0.288364
-0.000276151
0.288323
-0.000269667
0.28829
-0.000257671
0.288264
-0.000243057
-0.000227828
0.288243
0.348729
-4.1833e-05
0.348677
-0.000118893
0.348615
-0.000173608
0.348555
-0.000204261
0.348499
-0.000219259
0.348448
-0.000225037
0.348402
-0.000223899
0.348362
-0.000217459
0.348327
-0.000207826
-0.000196787
0.348296
0.398737
-2.88332e-05
0.398701
-8.33677e-05
0.398654
-0.000125922
0.398603
-0.00015327
0.398552
-0.000168616
0.398503
-0.000176044
0.398457
-0.000177668
0.398414
-0.000174766
0.398375
-0.000168803
-0.000161166
0.39834
0.438741
-1.95566e-05
0.438714
-5.70037e-05
0.438676
-8.77749e-05
0.438632
-0.000109267
0.438586
-0.000122446
0.43854
-0.000129558
0.438494
-0.000132154
0.43845
-0.000131217
0.438409
-0.000127754
-0.00012275
0.438371
0.468743
-1.22157e-05
0.468721
-3.57507e-05
0.468689
-5.56545e-05
0.46865
-7.02571e-05
0.468608
-7.97223e-05
0.468563
-8.515e-05
0.468518
-8.74936e-05
0.468475
-8.74253e-05
0.468433
-8.55879e-05
-8.26101e-05
0.468392
0.488744
-5.88782e-06
0.488725
-1.72645e-05
0.488697
-2.70287e-05
0.488661
-3.43795e-05
0.48862
-3.92898e-05
0.488577
-4.21981e-05
0.488533
-4.35476e-05
0.48849
-4.36768e-05
0.488447
-4.29008e-05
-4.15225e-05
0.488406
0.498744
-2.15214e-10
0.498727
3.59155e-11
0.4987
-7.5495e-10
0.498665
-1.07174e-09
0.498626
-4.5227e-10
0.498584
-6.68035e-10
0.49854
-1.8347e-09
0.498497
-2.64557e-09
0.498454
-2.58608e-09
-1.40031e-09
0.498412
0.498744
5.88742e-06
0.498727
1.7263e-05
0.4987
2.70283e-05
0.498665
3.43786e-05
0.498626
3.9287e-05
0.498584
4.21948e-05
0.49854
4.3545e-05
0.498497
4.36742e-05
0.498454
4.28976e-05
4.15184e-05
0.498412
0.488744
1.22153e-05
0.488725
3.57505e-05
0.488697
5.56528e-05
0.488661
7.0255e-05
0.48862
7.97203e-05
0.488577
8.51475e-05
0.488533
8.74909e-05
0.48849
8.7422e-05
0.488447
8.55839e-05
8.26071e-05
0.488406
0.468743
1.95562e-05
0.468721
5.70028e-05
0.468689
8.77739e-05
0.46865
0.000109265
0.468608
0.000122444
0.468563
0.000129557
0.468518
0.000132152
0.468475
0.000131213
0.468433
0.000127748
0.000122747
0.468392
0.438741
2.88326e-05
0.438714
8.3366e-05
0.438676
0.00012592
0.438632
0.000153269
0.438586
0.000168613
0.43854
0.000176041
0.438494
0.000177667
0.43845
0.000174764
0.438409
0.000168796
0.00016116
0.438371
0.398737
4.18325e-05
0.398701
0.000118893
0.398654
0.000173605
0.398603
0.000204255
0.398552
0.000219256
0.398503
0.000225038
0.398457
0.000223899
0.398414
0.000217454
0.398375
0.000207817
0.00019678
0.39834
0.348729
6.23306e-05
0.348677
0.000171218
0.348615
0.000235837
0.348555
0.000264211
0.348499
0.000274914
0.348448
0.000276147
0.348402
0.000269667
0.348362
0.000257671
0.348327
0.000243051
0.000227821
0.348296
0.288713
9.95902e-05
0.288631
0.000253214
0.288548
0.000318767
0.288477
0.000335386
0.288416
0.000335833
0.288364
0.000327424
0.288323
0.000311185
0.28829
0.000290554
0.288264
0.000269063
0.00024846
0.288243
0.218664
0.00018596
0.218537
0.000379369
0.218437
0.000419422
0.218363
0.000409027
0.21831
0.000388583
0.218277
0.00036075
0.218261
0.000327195
0.218259
0.000292986
0.218266
0.000261522
0.000233657
0.218281
0.138538
0.000397838
0.138409
0.0005084
0.138379
0.000449469
0.13841
0.000378171
0.13848
0.000318522
0.138575
0.000265444
0.138684
0.000218283
0.138798
0.000178998
0.138912
0.000147758
0.000123176
0.139022
0.0491478
0.0496562
0.0501057
0.0504839
0.0508024
0.0510678
0.0512861
0.0514651
0.0516129
0.0517361
0.0518398
-0.000103745
0.0519281
-8.83051e-05
0.0520041
-7.60034e-05
0.0520703
-6.61581e-05
0.0521285
-5.82208e-05
0.0521802
-5.17632e-05
0.0522267
-4.64546e-05
0.0522687
-4.20301e-05
0.052307
-3.82888e-05
0.0523421
-3.51026e-05
0.0523745
-3.23743e-05
0.0524045
-3.00154e-05
0.0524325
-2.79629e-05
0.0524587
-2.61615e-05
0.0524832
-2.45551e-05
0.0525063
-2.31093e-05
0.0525281
-2.17997e-05
0.0525487
-2.06035e-05
0.0525683
-1.95106e-05
0.0525868
-1.85137e-05
0.0526044
-1.7603e-05
0.0526211
-1.67716e-05
0.0526371
-1.60109e-05
0.0526525
-1.53109e-05
0.0526671
-1.46635e-05
0.0526812
-1.40605e-05
0.0526947
-1.34957e-05
0.0527076
-1.29647e-05
0.0527201
-1.24646e-05
0.0527321
-1.19932e-05
0.0527437
-1.15494e-05
0.0527548
-1.11318e-05
0.0527655
-1.07392e-05
0.0527759
-1.03702e-05
-1.00232e-05
0.0527859
0.139128
-0.000209243
0.139228
-0.000187967
0.139321
-0.000169514
0.139408
-0.000153559
0.13949
-0.000139764
0.139566
-0.000127814
0.139637
-0.000117435
0.139703
-0.000108348
0.139765
-0.000100321
0.139824
-9.32336e-05
0.139878
-8.69825e-05
0.13993
-8.14222e-05
0.139978
-7.64579e-05
0.140024
-7.20203e-05
0.140067
-6.80066e-05
0.140109
-6.43494e-05
0.140148
-6.1013e-05
0.140185
-5.79519e-05
0.140221
-5.51395e-05
0.140255
-5.25579e-05
0.140287
-5.01826e-05
0.140319
-4.79945e-05
0.140349
-4.59744e-05
0.140377
-4.41012e-05
0.140405
-4.23577e-05
0.140432
-4.07283e-05
0.140457
-3.92004e-05
0.140482
-3.77644e-05
0.140506
-3.64127e-05
0.140529
-3.51391e-05
0.140552
-3.39383e-05
0.140573
-3.28051e-05
0.140594
-3.17348e-05
0.140615
-3.07224e-05
-2.97639e-05
0.140635
0.218301
-0.000229312
0.218325
-0.000211776
0.218351
-0.000195896
0.218379
-0.000181645
0.218409
-0.000168933
0.218438
-0.000157616
0.218468
-0.000147526
0.218499
-0.000138484
0.218529
-0.000130326
0.218558
-0.000122969
0.218588
-0.000116355
0.218617
-0.000110371
0.218645
-0.000104938
0.218673
-0.000100013
0.218701
-9.55001e-05
0.218728
-9.13256e-05
0.218754
-8.74585e-05
0.21878
-8.38574e-05
0.218805
-8.04999e-05
0.21883
-7.73771e-05
0.218854
-7.44674e-05
0.218878
-7.17552e-05
0.218901
-6.92241e-05
0.218924
-6.68531e-05
0.218946
-6.46256e-05
0.218968
-6.25249e-05
0.21899
-6.0537e-05
0.21901
-5.86509e-05
0.219031
-5.68576e-05
0.219051
-5.51507e-05
0.21907
-5.35251e-05
0.21909
-5.19769e-05
0.219108
-5.05025e-05
0.219127
-4.90985e-05
-4.77616e-05
0.219145
0.288227
-0.000212936
0.288214
-0.000198801
0.288204
-0.000185645
0.288196
-0.000173594
0.28819
-0.000162707
0.288185
-0.000152938
0.288181
-0.000144169
0.288179
-0.000136279
0.288178
-0.000129162
0.288178
-0.000122715
0.288178
-0.000116872
0.28818
-0.000111603
0.288182
-0.000106864
0.288184
-0.000102568
0.288187
-9.86303e-05
0.288191
-9.49931e-05
0.288195
-9.16103e-05
0.2882
-8.84407e-05
0.288205
-8.54689e-05
0.28821
-8.26897e-05
0.288216
-8.00925e-05
0.288221
-7.76681e-05
0.288228
-7.54031e-05
0.288234
-7.32785e-05
0.288241
-7.12767e-05
0.288248
-6.93803e-05
0.288255
-6.75741e-05
0.288262
-6.58466e-05
0.288269
-6.41895e-05
0.288277
-6.25976e-05
0.288284
-6.10684e-05
0.288292
-5.96007e-05
0.288299
-5.81943e-05
0.288307
-5.68486e-05
-5.55623e-05
0.288315
0.348268
-0.000185382
0.348244
-0.00017415
0.348222
-0.0001634
0.348201
-0.000153349
0.348183
-0.000144143
0.348166
-0.000135808
0.34815
-0.000128277
0.348135
-0.000121484
0.348121
-0.000115338
0.348108
-0.000109733
0.348096
-0.000104657
0.348084
-0.000100118
0.348074
-9.60416e-05
0.348063
-9.23659e-05
0.348054
-8.90351e-05
0.348045
-8.59697e-05
0.348036
-8.31187e-05
0.348028
-8.04539e-05
0.348021
-7.79575e-05
0.348014
-7.56284e-05
0.348007
-7.3462e-05
0.348001
-7.14519e-05
0.347995
-6.9588e-05
0.34799
-6.78518e-05
0.347985
-6.62242e-05
0.34798
-6.46858e-05
0.347976
-6.32198e-05
0.347971
-6.18144e-05
0.347968
-6.04619e-05
0.347964
-5.9159e-05
0.347961
-5.79052e-05
0.347958
-5.67015e-05
0.347956
-5.55491e-05
0.347953
-5.44485e-05
-5.33985e-05
0.347951
0.398307
-0.000152791
0.398277
-0.000144217
0.398249
-0.000135786
0.398224
-0.000127748
0.3982
-0.000120271
0.398178
-0.000113439
0.398157
-0.000107249
0.398137
-0.000101622
0.398118
-9.64799e-05
0.3981
-9.17943e-05
0.398083
-8.75526e-05
0.398066
-8.37294e-05
0.398051
-8.03057e-05
0.398036
-7.72477e-05
0.398021
-7.44837e-05
0.398007
-7.19474e-05
0.397993
-6.95988e-05
0.39798
-6.74043e-05
0.397968
-6.53472e-05
0.397956
-6.34299e-05
0.397944
-6.16521e-05
0.397932
-6.00113e-05
0.397921
-5.85013e-05
0.397911
-5.71052e-05
0.3979
-5.58044e-05
0.39789
-5.45795e-05
0.39788
-5.34134e-05
0.397871
-5.2295e-05
0.397861
-5.12178e-05
0.397852
-5.01805e-05
0.397844
-4.91842e-05
0.397835
-4.82313e-05
0.397827
-4.73236e-05
0.397819
-4.64613e-05
-4.5643e-05
0.397811
0.438335
-0.000116939
0.438302
-0.000110785
0.438271
-0.000104592
0.438241
-9.85831e-05
0.438214
-9.29342e-05
0.438188
-8.77411e-05
0.438164
-8.29958e-05
0.438141
-7.86618e-05
0.438119
-7.47011e-05
0.438099
-7.10626e-05
0.438079
-6.77423e-05
0.43806
-6.47597e-05
0.438042
-6.20914e-05
0.438024
-5.97066e-05
0.438007
-5.7567e-05
0.437991
-5.56104e-05
0.437975
-5.37942e-05
0.43796
-5.20951e-05
0.437945
-5.04996e-05
0.43793
-4.9011e-05
0.437916
-4.76325e-05
0.437903
-4.63637e-05
0.437889
-4.52004e-05
0.437877
-4.41301e-05
0.437864
-4.3137e-05
0.437852
-4.22045e-05
0.437839
-4.13181e-05
0.437828
-4.04678e-05
0.437816
-3.96485e-05
0.437805
-3.88595e-05
0.437794
-3.81027e-05
0.437783
-3.73807e-05
0.437772
-3.66956e-05
0.437762
-3.60473e-05
-3.54345e-05
0.437751
0.468354
-7.89817e-05
0.468319
-7.50285e-05
0.468285
-7.09753e-05
0.468253
-6.69965e-05
0.468224
-6.32227e-05
0.468196
-5.97276e-05
0.468169
-5.65261e-05
0.468144
-5.35941e-05
0.46812
-5.08963e-05
0.468098
-4.84107e-05
0.468076
-4.61406e-05
0.468055
-4.40949e-05
0.468036
-4.22637e-05
0.468017
-4.06287e-05
0.467998
-3.91629e-05
0.46798
-3.78262e-05
0.467963
-3.65886e-05
0.467947
-3.5432e-05
0.46793
-3.43451e-05
0.467915
-3.33286e-05
0.467899
-3.23855e-05
0.467885
-3.15166e-05
0.46787
-3.07204e-05
0.467856
-2.99893e-05
0.467842
-2.93129e-05
0.467829
-2.86797e-05
0.467815
-2.80792e-05
0.467802
-2.7504e-05
0.46779
-2.69504e-05
0.467777
-2.64174e-05
0.467765
-2.59065e-05
0.467753
-2.54194e-05
0.467741
-2.49575e-05
0.46773
-2.45209e-05
-2.41083e-05
0.467719
0.488367
-3.97833e-05
0.488329
-3.78542e-05
0.488294
-3.58546e-05
0.488261
-3.38712e-05
0.48823
-3.19793e-05
0.4882
-3.02313e-05
0.488173
-2.86241e-05
0.488146
-2.71343e-05
0.488121
-2.57667e-05
0.488097
-2.45182e-05
0.488074
-2.33688e-05
0.488053
-2.23236e-05
0.488032
-2.13904e-05
0.488012
-2.05551e-05
0.487992
-1.98058e-05
0.487974
-1.913e-05
0.487955
-1.85075e-05
0.487938
-1.79258e-05
0.487921
-1.73795e-05
0.487905
-1.68665e-05
0.487889
-1.63884e-05
0.487873
-1.5946e-05
0.487858
-1.55388e-05
0.487843
-1.51644e-05
0.487828
-1.48182e-05
0.487814
-1.44953e-05
0.4878
-1.41908e-05
0.487787
-1.39009e-05
0.487773
-1.36233e-05
0.48776
-1.33569e-05
0.487748
-1.31018e-05
0.487735
-1.28585e-05
0.487723
-1.26271e-05
0.487711
-1.24076e-05
-1.21993e-05
0.487699
0.498373
-5.20185e-10
0.498335
-2.47436e-09
0.498299
-4.35231e-09
0.498265
-3.21163e-09
0.498233
-3.34799e-09
0.498203
-2.63544e-09
0.498174
3.29634e-09
0.498147
2.16601e-09
0.498121
-8.63759e-09
0.498097
-1.15868e-08
0.498073
-7.43634e-09
0.498051
-6.17961e-09
0.49803
-2.96002e-09
0.498009
1.19841e-09
0.497989
1.04624e-09
0.49797
-4.08005e-10
0.497952
-2.83871e-09
0.497934
-7.03824e-09
0.497916
-1.0985e-08
0.4979
-1.34398e-08
0.497883
-1.36079e-08
0.497867
-1.18015e-08
0.497852
-8.78139e-09
0.497837
-5.40379e-09
0.497822
-2.76423e-09
0.497807
-1.38475e-09
0.497793
-1.55699e-09
0.497779
-3.19763e-09
0.497766
-5.82197e-09
0.497752
-8.93584e-09
0.497739
-1.19129e-08
0.497726
-1.4253e-08
0.497714
-1.56874e-08
0.497701
-1.6142e-08
-1.56896e-08
0.497689
0.498373
3.97788e-05
0.498335
3.78494e-05
0.498299
3.58468e-05
0.498265
3.38612e-05
0.498233
3.1976e-05
0.498203
3.02345e-05
0.498174
2.86215e-05
0.498147
2.71282e-05
0.498121
2.57633e-05
0.498097
2.45058e-05
0.498073
2.33476e-05
0.498051
2.23089e-05
0.49803
2.13832e-05
0.498009
2.05523e-05
0.497989
1.9808e-05
0.49797
1.91297e-05
0.497952
1.84994e-05
0.497934
1.79114e-05
0.497916
1.73607e-05
0.497899
1.68457e-05
0.497883
1.63677e-05
0.497867
1.59272e-05
0.497852
1.55229e-05
0.497837
1.51514e-05
0.497822
1.48075e-05
0.497807
1.44858e-05
0.497793
1.41809e-05
0.497779
1.38893e-05
0.497766
1.36088e-05
0.497752
1.33392e-05
0.497739
1.3081e-05
0.497726
1.2835e-05
0.497714
1.26019e-05
0.497701
1.23816e-05
1.21733e-05
0.497689
0.488367
7.89797e-05
0.488329
7.50243e-05
0.488294
7.09671e-05
0.488261
6.69866e-05
0.48823
6.32146e-05
0.4882
5.97266e-05
0.488173
5.65314e-05
0.488146
5.35942e-05
0.488121
5.08869e-05
0.488097
4.83991e-05
0.488074
4.61278e-05
0.488053
4.4082e-05
0.488032
4.22572e-05
0.488012
4.06246e-05
0.487992
3.91552e-05
0.487974
3.78179e-05
0.487955
3.658e-05
0.487938
3.54212e-05
0.487921
3.43328e-05
0.487904
3.33158e-05
0.487888
3.2373e-05
0.487873
3.15047e-05
0.487858
3.07085e-05
0.487843
2.99764e-05
0.487828
2.9298e-05
0.487814
2.86625e-05
0.4878
2.806e-05
0.487787
2.74838e-05
0.487773
2.69301e-05
0.48776
2.6398e-05
0.487748
2.58885e-05
0.487735
2.54028e-05
0.487723
2.49418e-05
0.487711
2.45053e-05
2.40917e-05
0.487699
0.468354
0.000116939
0.468319
0.000110783
0.468285
0.000104587
0.468253
9.85763e-05
0.468224
9.29275e-05
0.468196
8.77346e-05
0.468169
8.29947e-05
0.468144
7.86634e-05
0.46812
7.46932e-05
0.468098
7.10502e-05
0.468076
6.77391e-05
0.468055
6.47579e-05
0.468036
6.20826e-05
0.468017
5.96991e-05
0.467998
5.75621e-05
0.46798
5.56007e-05
0.467963
5.37805e-05
0.467947
5.20808e-05
0.46793
5.04865e-05
0.467915
4.90006e-05
0.467899
4.76247e-05
0.467885
4.63573e-05
0.46787
4.51936e-05
0.467856
4.41207e-05
0.467842
4.31237e-05
0.467829
4.21871e-05
0.467815
4.12972e-05
0.467802
4.0445e-05
0.46779
3.96258e-05
0.467777
3.88386e-05
0.467765
3.80847e-05
0.467753
3.73659e-05
0.467741
3.66831e-05
0.46773
3.60361e-05
3.54229e-05
0.467718
0.438335
0.00015279
0.438302
0.000144219
0.438271
0.000135785
0.438241
0.00012774
0.438214
0.000120265
0.438188
0.00011344
0.438164
0.000107239
0.438141
0.000101607
0.438119
9.64821e-05
0.438099
9.18012e-05
0.438079
8.75451e-05
0.43806
8.37238e-05
0.438042
8.0308e-05
0.438024
7.72423e-05
0.438007
7.44714e-05
0.437991
7.19361e-05
0.437975
6.95877e-05
0.43796
6.73928e-05
0.437945
6.53367e-05
0.43793
6.34208e-05
0.437916
6.16446e-05
0.437903
6.0005e-05
0.437889
5.84948e-05
0.437877
5.70972e-05
0.437864
5.57937e-05
0.437851
5.45655e-05
0.437839
5.33964e-05
0.437828
5.22758e-05
0.437816
5.11978e-05
0.437805
5.01609e-05
0.437794
4.91661e-05
0.437783
4.82153e-05
0.437772
4.73097e-05
0.437762
4.64492e-05
4.56317e-05
0.437751
0.398307
0.000185382
0.398277
0.000174151
0.398249
0.000163399
0.398224
0.00015335
0.3982
0.00014414
0.398178
0.000135796
0.398157
0.000128272
0.398137
0.000121486
0.398118
0.000115329
0.3981
0.000109728
0.398083
0.00010467
0.398066
0.000100123
0.398051
9.60326e-05
0.398036
9.23569e-05
0.398021
8.90247e-05
0.398007
8.59569e-05
0.397993
8.3109e-05
0.39798
8.04477e-05
0.397968
7.79536e-05
0.397956
7.56251e-05
0.397944
7.34573e-05
0.397932
7.1445e-05
0.397921
6.95791e-05
0.397911
6.78415e-05
0.3979
6.62132e-05
0.39789
6.46745e-05
0.39788
6.32082e-05
0.397871
6.18021e-05
0.397861
6.04486e-05
0.397852
5.91446e-05
0.397844
5.78899e-05
0.397835
5.66857e-05
0.397827
5.55336e-05
0.397819
5.44337e-05
5.33848e-05
0.397811
0.348268
0.00021293
0.348244
0.0001988
0.348222
0.000185649
0.348201
0.000173598
0.348183
0.000162706
0.348166
0.000152934
0.34815
0.000144157
0.348135
0.000136269
0.348121
0.000129168
0.348108
0.000122725
0.348096
0.000116874
0.348084
0.000111604
0.348074
0.000106862
0.348063
0.000102558
0.348054
9.8618e-05
0.348045
9.49845e-05
0.348036
9.16055e-05
0.348028
8.84401e-05
0.348021
8.54705e-05
0.348014
8.26904e-05
0.348007
8.00897e-05
0.348001
7.76604e-05
0.347995
7.53916e-05
0.34799
7.32653e-05
0.347985
7.12643e-05
0.34798
6.93703e-05
0.347975
6.75669e-05
0.347971
6.58414e-05
0.347968
6.41847e-05
0.347964
6.25915e-05
0.347961
6.10598e-05
0.347958
5.95892e-05
0.347956
5.81802e-05
0.347953
5.68328e-05
5.55461e-05
0.347951
0.288227
0.000229305
0.288214
0.000211771
0.288204
0.0001959
0.288196
0.000181651
0.28819
0.000168935
0.288185
0.000157611
0.288181
0.000147517
0.288179
0.000138479
0.288178
0.00013033
0.288178
0.00012298
0.288178
0.000116364
0.28818
0.00011037
0.288182
0.00010493
0.288184
0.000100002
0.288187
9.54906e-05
0.288191
9.1321e-05
0.288195
8.74605e-05
0.2882
8.3864e-05
0.288205
8.05068e-05
0.28821
7.73804e-05
0.288216
7.44649e-05
0.288221
7.17468e-05
0.288228
6.92114e-05
0.288234
6.6839e-05
0.288241
6.46131e-05
0.288248
6.25162e-05
0.288255
6.05328e-05
0.288262
5.86506e-05
0.288269
5.68593e-05
0.288277
5.51521e-05
0.288284
5.35238e-05
0.288292
5.19715e-05
0.288299
5.04926e-05
0.288307
4.90849e-05
4.77457e-05
0.288315
0.218301
0.000209234
0.218325
0.000187957
0.218351
0.000169516
0.218379
0.000153568
0.218409
0.000139769
0.218438
0.000127809
0.218468
0.000117427
0.218499
0.000108348
0.218529
0.000100328
0.218558
9.32418e-05
0.218588
8.69886e-05
0.218617
8.14227e-05
0.218645
7.64514e-05
0.218673
7.20111e-05
0.218701
6.80009e-05
0.218728
6.43493e-05
0.218754
6.1018e-05
0.21878
5.79598e-05
0.218805
5.51468e-05
0.21883
5.2562e-05
0.218854
5.01818e-05
0.218878
4.79888e-05
0.218901
4.5965e-05
0.218924
4.40902e-05
0.218946
4.23476e-05
0.218968
4.07212e-05
0.21899
3.91974e-05
0.21901
3.77654e-05
0.219031
3.64164e-05
0.219051
3.51436e-05
0.21907
3.39413e-05
0.21909
3.2805e-05
0.219108
3.17305e-05
0.219127
3.07143e-05
2.97529e-05
0.219145
0.139128
0.000103739
0.139228
8.8302e-05
0.139321
7.60062e-05
0.139408
6.6162e-05
0.13949
5.82207e-05
0.139566
5.17593e-05
0.139637
4.64528e-05
0.139703
4.20328e-05
0.139765
3.82944e-05
0.139824
3.51085e-05
0.139878
3.23781e-05
0.13993
3.00148e-05
0.139978
2.79591e-05
0.140024
2.61575e-05
0.140067
2.45532e-05
0.140109
2.31108e-05
0.140148
2.18039e-05
0.140185
2.06089e-05
0.140221
1.95156e-05
0.140255
1.85165e-05
0.140287
1.76029e-05
0.140319
1.67689e-05
0.140349
1.60062e-05
0.140377
1.53056e-05
0.140405
1.46588e-05
0.140432
1.40574e-05
0.140457
1.34949e-05
0.140482
1.29661e-05
0.140506
1.24674e-05
0.140529
1.19965e-05
0.140552
1.15519e-05
0.140573
1.11327e-05
0.140594
1.0738e-05
0.140615
1.0367e-05
1.00184e-05
0.140634
0.0518398
0.0519281
0.0520041
0.0520703
0.0521285
0.0521802
0.0522267
0.0522687
0.052307
0.0523421
0.0523745
0.0524045
0.0524325
0.0524586
0.0524832
0.0525063
0.0525281
0.0525487
0.0525682
0.0525868
0.0526044
0.0526211
0.0526371
0.0526524
0.0526671
0.0526812
0.0526947
0.0527076
0.0527201
0.0527321
0.0527436
0.0527548
0.0527655
0.0527759
0.0527859
0.0527956
-9.69653e-06
0.052805
-9.38853e-06
0.0528141
-9.09737e-06
0.0528229
-8.82161e-06
0.0528315
-8.55963e-06
0.0528398
-8.31024e-06
0.0528479
-8.07219e-06
0.0528557
-7.8446e-06
0.0528633
-7.62658e-06
-7.41761e-06
0.0528708
0.140654
-2.88554e-05
0.140672
-2.79933e-05
0.14069
-2.71746e-05
0.140708
-2.63963e-05
0.140725
-2.56558e-05
0.140742
-2.49503e-05
0.140758
-2.42772e-05
0.140774
-2.36339e-05
0.140789
-2.30181e-05
-2.24277e-05
0.140804
0.219162
-4.64878e-05
0.21918
-4.52731e-05
0.219197
-4.41133e-05
0.219213
-4.30042e-05
0.21923
-4.19419e-05
0.219246
-4.09227e-05
0.219261
-3.99433e-05
0.219277
-3.9001e-05
0.219292
-3.80934e-05
-3.72186e-05
0.219306
0.288323
-5.43327e-05
0.288331
-5.31559e-05
0.288339
-5.20275e-05
0.288347
-5.09422e-05
0.288355
-4.98955e-05
0.288362
-4.88831e-05
0.28837
-4.79018e-05
0.288378
-4.69494e-05
0.288386
-4.60246e-05
-4.51269e-05
0.288394
0.347949
-5.23965e-05
0.347947
-5.14385e-05
0.347946
-5.05194e-05
0.347945
-4.96338e-05
0.347943
-4.87769e-05
0.347943
-4.79444e-05
0.347942
-4.71334e-05
0.347941
-4.63423e-05
0.347941
-4.55704e-05
-4.4818e-05
0.34794
0.397804
-4.48653e-05
0.397796
-4.41239e-05
0.397789
-4.34136e-05
0.397782
-4.27296e-05
0.397776
-4.20674e-05
0.397769
-4.14237e-05
0.397763
-4.07964e-05
0.397757
-4.01843e-05
0.397751
-3.95873e-05
-3.90058e-05
0.397745
0.437741
-3.48536e-05
0.437732
-3.43007e-05
0.437722
-3.37713e-05
0.437713
-3.32614e-05
0.437703
-3.27679e-05
0.437694
-3.22887e-05
0.437685
-3.18226e-05
0.437676
-3.13691e-05
0.437668
-3.09282e-05
-3.05002e-05
0.437659
0.467707
-2.37172e-05
0.467696
-2.33445e-05
0.467686
-2.29873e-05
0.467675
-2.26432e-05
0.467665
-2.23102e-05
0.467654
-2.19874e-05
0.467644
-2.16744e-05
0.467634
-2.1371e-05
0.467624
-2.10775e-05
-2.07938e-05
0.467615
0.487687
-1.2001e-05
0.487675
-1.18114e-05
0.487664
-1.16294e-05
0.487653
-1.1454e-05
0.487642
-1.12846e-05
0.487631
-1.1121e-05
0.48762
-1.09631e-05
0.48761
-1.08111e-05
0.487599
-1.06648e-05
-1.05241e-05
0.487589
0.497677
-1.45813e-08
0.497665
-1.31104e-08
0.497654
-1.16e-08
0.497642
-1.03338e-08
0.497631
-9.51272e-09
0.49762
-9.30171e-09
0.497609
-9.73727e-09
0.497598
-1.08089e-08
0.497587
-1.24238e-08
-1.44437e-08
0.497577
0.497677
1.19756e-05
0.497665
1.1787e-05
0.497654
1.1606e-05
0.497642
1.14314e-05
0.497631
1.12624e-05
0.49762
1.10986e-05
0.497609
1.09399e-05
0.497598
1.07863e-05
0.497587
1.06378e-05
1.04944e-05
0.497577
0.487687
2.36989e-05
0.487675
2.3324e-05
0.487664
2.29644e-05
0.487653
2.26179e-05
0.487642
2.2283e-05
0.487631
2.19588e-05
0.48762
2.16448e-05
0.48761
2.13409e-05
0.487599
2.1047e-05
2.0763e-05
0.487589
0.467707
3.48403e-05
0.467696
3.42844e-05
0.467686
3.37514e-05
0.467675
3.32377e-05
0.467665
3.27409e-05
0.467654
3.22591e-05
0.467644
3.17914e-05
0.467634
3.13372e-05
0.467624
3.08966e-05
3.04694e-05
0.467615
0.437741
4.48539e-05
0.437732
4.4111e-05
0.437722
4.33984e-05
0.437712
4.27112e-05
0.437703
4.20457e-05
0.437694
4.1399e-05
0.437685
4.07693e-05
0.437676
4.01556e-05
0.437668
3.95581e-05
3.89768e-05
0.437659
0.397804
5.23839e-05
0.397796
5.14264e-05
0.397789
5.05072e-05
0.397782
4.96208e-05
0.397776
4.87621e-05
0.397769
4.79275e-05
0.397763
4.71142e-05
0.397757
4.63209e-05
0.397751
4.55472e-05
4.47936e-05
0.397745
0.347949
5.43172e-05
0.347947
5.31421e-05
0.347946
5.20155e-05
0.347945
5.0932e-05
0.347943
4.98862e-05
0.347942
4.88739e-05
0.347942
4.78916e-05
0.347941
4.69374e-05
0.347941
4.60102e-05
4.51099e-05
0.34794
0.288323
4.64716e-05
0.288331
4.52583e-05
0.288339
4.41013e-05
0.288346
4.29955e-05
0.288354
4.19361e-05
0.288362
4.09188e-05
0.28837
3.99401e-05
0.288378
3.89968e-05
0.288386
3.8087e-05
3.72092e-05
0.288394
0.219162
2.88432e-05
0.21918
2.79815e-05
0.219197
2.71649e-05
0.219213
2.63894e-05
0.219229
2.56519e-05
0.219245
2.49487e-05
0.219261
2.4277e-05
0.219276
2.36338e-05
0.219292
2.3017e-05
2.24245e-05
0.219306
0.140654
9.6911e-06
0.140672
9.38318e-06
0.14069
9.09307e-06
0.140708
8.81864e-06
0.140725
8.55832e-06
0.140742
8.31017e-06
0.140758
8.07305e-06
0.140774
7.84561e-06
0.140789
7.62732e-06
7.41742e-06
0.140804
0.0527956
0.052805
0.0528141
0.0528229
0.0528314
0.0528398
0.0528478
0.0528557
0.0528633
0.0528707
0.052878
-7.21711e-06
0.052885
-7.02484e-06
0.0528918
-6.84037e-06
0.0528985
-6.66363e-06
0.052905
-6.49422e-06
0.0529113
-6.33209e-06
0.0529175
-6.17679e-06
0.0529235
-6.02818e-06
0.0529294
-5.88577e-06
0.0529352
-5.74932e-06
0.0529408
-5.61829e-06
0.0529463
-5.49241e-06
0.0529516
-5.37115e-06
0.0529569
-5.25428e-06
0.052962
-5.14129e-06
0.0529671
-5.03205e-06
0.052972
-4.92614e-06
0.0529768
-4.82354e-06
0.0529816
-4.72393e-06
0.0529862
-4.62737e-06
0.0529907
-4.53365e-06
0.0529952
-4.44289e-06
0.0529995
-4.35491e-06
0.0530038
-4.26986e-06
0.053008
-4.18758e-06
0.0530121
-4.10818e-06
0.0530161
-4.03149e-06
0.0530201
-3.95757e-06
0.053024
-3.88624e-06
0.0530278
-3.81753e-06
0.0530315
-3.75125e-06
0.0530352
-3.68743e-06
0.0530388
-3.62593e-06
0.0530424
-3.56683e-06
-3.51006e-06
0.0530459
0.140819
-2.18608e-05
0.140833
-2.1316e-05
0.140847
-2.07919e-05
0.140861
-2.02878e-05
0.140874
-1.98027e-05
0.140887
-1.93362e-05
0.1409
-1.88877e-05
0.140912
-1.84566e-05
0.140924
-1.80422e-05
0.140936
-1.7644e-05
0.140948
-1.7261e-05
0.140959
-1.68925e-05
0.14097
-1.65375e-05
0.140981
-1.61951e-05
0.140992
-1.58642e-05
0.141002
-1.55442e-05
0.141013
-1.52341e-05
0.141023
-1.49333e-05
0.141033
-1.46412e-05
0.141043
-1.43576e-05
0.141052
-1.40821e-05
0.141061
-1.38145e-05
0.141071
-1.35547e-05
0.14108
-1.33028e-05
0.141089
-1.30585e-05
0.141097
-1.2822e-05
0.141106
-1.2593e-05
0.141114
-1.23716e-05
0.141123
-1.21574e-05
0.141131
-1.19505e-05
0.141139
-1.17505e-05
0.141147
-1.15573e-05
0.141154
-1.13708e-05
0.141162
-1.1191e-05
-1.10178e-05
0.141169
0.219321
-3.6375e-05
0.219335
-3.55613e-05
0.219349
-3.47765e-05
0.219363
-3.40193e-05
0.219376
-3.32889e-05
0.21939
-3.25844e-05
0.219403
-3.19047e-05
0.219415
-3.12489e-05
0.219428
-3.06159e-05
0.21944
-3.00046e-05
0.219453
-2.9414e-05
0.219464
-2.88429e-05
0.219476
-2.82902e-05
0.219488
-2.77548e-05
0.219499
-2.72358e-05
0.21951
-2.6732e-05
0.219521
-2.62427e-05
0.219532
-2.57671e-05
0.219543
-2.53046e-05
0.219553
-2.48548e-05
0.219564
-2.44171e-05
0.219574
-2.39915e-05
0.219584
-2.35775e-05
0.219594
-2.31751e-05
0.219603
-2.27842e-05
0.219613
-2.24045e-05
0.219623
-2.20359e-05
0.219632
-2.16782e-05
0.219641
-2.13312e-05
0.21965
-2.09945e-05
0.219659
-2.06681e-05
0.219668
-2.03516e-05
0.219676
-2.00452e-05
0.219685
-1.97487e-05
-1.94625e-05
0.219693
0.288402
-4.42562e-05
0.28841
-4.34125e-05
0.288418
-4.25955e-05
0.288426
-4.18051e-05
0.288433
-4.10405e-05
0.288441
-4.03006e-05
0.288449
-3.95843e-05
0.288456
-3.88902e-05
0.288464
-3.82169e-05
0.288472
-3.7563e-05
0.288479
-3.69272e-05
0.288486
-3.63086e-05
0.288494
-3.57061e-05
0.288501
-3.5119e-05
0.288509
-3.45468e-05
0.288516
-3.39888e-05
0.288523
-3.34446e-05
0.28853
-3.2914e-05
0.288537
-3.23965e-05
0.288544
-3.18919e-05
0.288551
-3.13998e-05
0.288558
-3.09201e-05
0.288565
-3.04525e-05
0.288572
-2.99967e-05
0.288579
-2.95524e-05
0.288585
-2.91194e-05
0.288592
-2.86975e-05
0.288599
-2.82864e-05
0.288605
-2.78859e-05
0.288612
-2.74958e-05
0.288618
-2.7116e-05
0.288625
-2.67464e-05
0.288631
-2.63873e-05
0.288637
-2.60389e-05
-2.57018e-05
0.288643
0.34794
-4.40859e-05
0.34794
-4.33748e-05
0.34794
-4.26853e-05
0.34794
-4.20174e-05
0.347941
-4.13709e-05
0.347941
-4.07447e-05
0.347942
-4.01375e-05
0.347942
-3.95479e-05
0.347943
-3.89742e-05
0.347944
-3.84149e-05
0.347945
-3.78687e-05
0.347946
-3.73344e-05
0.347947
-3.68114e-05
0.347948
-3.62992e-05
0.34795
-3.57974e-05
0.347951
-3.53061e-05
0.347952
-3.48252e-05
0.347954
-3.43547e-05
0.347955
-3.38947e-05
0.347957
-3.34452e-05
0.347958
-3.3006e-05
0.34796
-3.25771e-05
0.347962
-3.21581e-05
0.347963
-3.17488e-05
0.347965
-3.1349e-05
0.347967
-3.09582e-05
0.347969
-3.05761e-05
0.347971
-3.02026e-05
0.347973
-2.98373e-05
0.347975
-2.94802e-05
0.347977
-2.91312e-05
0.347979
-2.87906e-05
0.347981
-2.84587e-05
0.347983
-2.81359e-05
-2.78233e-05
0.347985
0.397739
-3.84405e-05
0.397734
-3.78921e-05
0.397728
-3.7361e-05
0.397723
-3.68474e-05
0.397718
-3.63509e-05
0.397713
-3.58707e-05
0.397709
-3.54055e-05
0.397704
-3.4954e-05
0.3977
-3.45147e-05
0.397695
-3.40862e-05
0.397691
-3.36673e-05
0.397687
-3.3257e-05
0.397683
-3.28546e-05
0.397679
-3.24596e-05
0.397676
-3.20719e-05
0.397672
-3.16916e-05
0.397668
-3.13187e-05
0.397665
-3.09535e-05
0.397662
-3.05961e-05
0.397659
-3.02466e-05
0.397655
-2.99052e-05
0.397652
-2.95717e-05
0.397649
-2.92459e-05
0.397647
-2.89276e-05
0.397644
-2.86164e-05
0.397641
-2.83121e-05
0.397639
-2.80142e-05
0.397636
-2.77225e-05
0.397634
-2.74368e-05
0.397632
-2.71569e-05
0.397629
-2.6883e-05
0.397627
-2.66152e-05
0.397625
-2.63538e-05
0.397623
-2.60997e-05
-2.58537e-05
0.397621
0.437651
-3.00855e-05
0.437643
-2.96842e-05
0.437635
-2.92965e-05
0.437627
-2.8922e-05
0.437619
-2.85603e-05
0.437611
-2.82107e-05
0.437604
-2.78723e-05
0.437596
-2.75442e-05
0.437589
-2.72254e-05
0.437582
-2.69149e-05
0.437575
-2.66119e-05
0.437568
-2.63156e-05
0.437561
-2.60255e-05
0.437554
-2.57411e-05
0.437548
-2.54623e-05
0.437541
-2.5189e-05
0.437535
-2.49212e-05
0.437528
-2.46591e-05
0.437522
-2.44028e-05
0.437516
-2.41524e-05
0.43751
-2.39079e-05
0.437504
-2.36694e-05
0.437498
-2.34368e-05
0.437493
-2.32097e-05
0.437487
-2.29881e-05
0.437482
-2.27716e-05
0.437476
-2.25598e-05
0.437471
-2.23526e-05
0.437465
-2.21497e-05
0.43746
-2.19511e-05
0.437455
-2.17567e-05
0.43745
-2.15668e-05
0.437445
-2.13817e-05
0.43744
-2.1202e-05
-2.10286e-05
0.437435
0.467605
-2.05199e-05
0.467596
-2.02555e-05
0.467586
-2.00002e-05
0.467577
-1.97535e-05
0.467568
-1.9515e-05
0.467559
-1.9284e-05
0.46755
-1.90602e-05
0.467542
-1.8843e-05
0.467533
-1.86321e-05
0.467525
-1.8427e-05
0.467516
-1.82273e-05
0.467508
-1.80326e-05
0.4675
-1.78427e-05
0.467492
-1.76572e-05
0.467484
-1.74759e-05
0.467476
-1.72986e-05
0.467468
-1.71254e-05
0.46746
-1.6956e-05
0.467453
-1.67906e-05
0.467445
-1.66291e-05
0.467438
-1.64716e-05
0.46743
-1.63181e-05
0.467423
-1.61684e-05
0.467416
-1.60226e-05
0.467409
-1.58804e-05
0.467402
-1.57417e-05
0.467395
-1.56062e-05
0.467388
-1.54739e-05
0.467381
-1.53445e-05
0.467374
-1.52181e-05
0.467368
-1.50946e-05
0.467361
-1.49742e-05
0.467355
-1.48571e-05
0.467348
-1.47438e-05
-1.46349e-05
0.467342
0.487579
-1.03888e-05
0.487569
-1.02584e-05
0.487559
-1.01325e-05
0.487549
-1.00106e-05