/*--------------------------------*- C++ -*----------------------------------*\
| =========                 |                                                 |
| \\      /  F ield         | OpenFOAM: The Open Source CFD Toolbox           |
|  \\    /   O peration     | Version:  2406                                  |
|   \\  /    A nd           | Website:  www.openfoam.com                      |
|    \\/     M anipulation  |                                                 |
\*---------------------------------------------------------------------------*/
FoamFile
{
    version     2.0;
    format      ascii;
    arch        "LSB;label=32;scalar=64";
    class       volScalarField;
    location    "152";
    object      p;
}
// * * * * * * * * * * * * * * * * * * * * * * * * * * * * * * * * * * * * * //

dimensions      [0 2 -2 0 0 0 0];

internalField   nonuniform List<scalar> 
190000
(
2.02579
2.02079
2.0148
2.00832
2.00157
1.99468
1.98773
1.98077
1.97381
1.96684
1.95989
1.95293
1.94599
1.93904
1.9321
1.92516
1.91822
1.91127
1.90433
1.89737
1.89041
1.88344
1.87645
1.86946
1.86245
1.85543
1.84838
1.84132
1.83424
1.82714
1.82002
1.81287
1.8057
1.7985
1.79128
1.78402
1.77674
1.76943
1.76209
1.75471
1.74731
1.73987
1.7324
1.7249
1.71736
1.7098
1.70219
1.69456
1.68689
1.67919
1.67146
1.66369
1.65589
1.64806
1.64021
1.63232
1.6244
1.61645
1.60848
1.60048
1.59246
1.58442
1.57635
1.56826
1.56016
1.55204
1.54391
1.53577
1.52763
1.51948
1.51133
1.5032
1.49507
1.48697
1.4789
1.47088
1.4629
1.45499
1.44716
1.43945
1.43186
1.42443
1.4172
1.41022
1.40355
1.39725
1.39143
1.38621
1.38174
1.37823
1.37596
1.37527
1.37661
1.38053
1.38748
1.39703
1.407
1.42163
1.46041
1.35625
2.02889
2.02179
2.015
2.00832
2.00149
1.99458
1.98763
1.98066
1.97368
1.9667
1.95973
1.95276
1.94579
1.93883
1.93187
1.9249
1.91794
1.91097
1.904
1.89702
1.89003
1.88304
1.87603
1.86901
1.86198
1.85493
1.84787
1.84078
1.83368
1.82656
1.81941
1.81225
1.80505
1.79784
1.79059
1.78332
1.77602
1.76869
1.76133
1.75394
1.74652
1.73907
1.73158
1.72407
1.71652
1.70893
1.70132
1.69367
1.68598
1.67827
1.67052
1.66274
1.65492
1.64708
1.6392
1.63129
1.62335
1.61539
1.60739
1.59937
1.59131
1.58324
1.57514
1.56701
1.55887
1.55071
1.54253
1.53433
1.52612
1.51791
1.50969
1.50147
1.49326
1.48505
1.47687
1.4687
1.46058
1.4525
1.44448
1.43654
1.4287
1.42097
1.41339
1.40599
1.39882
1.39191
1.38534
1.37916
1.37348
1.3684
1.36401
1.36044
1.35775
1.3559
1.35452
1.35229
1.3466
1.33497
1.30488
1.16675
2.03041
2.02242
2.01519
2.00834
2.00145
1.9945
1.98752
1.98053
1.97354
1.96655
1.95956
1.95257
1.94558
1.93859
1.9316
1.92461
1.91762
1.91063
1.90363
1.89663
1.88961
1.88259
1.87556
1.86851
1.86146
1.85438
1.84729
1.84019
1.83306
1.82591
1.81875
1.81156
1.80434
1.7971
1.78984
1.78255
1.77523
1.76788
1.76051
1.7531
1.74566
1.73819
1.73069
1.72316
1.71559
1.708
1.70036
1.6927
1.685
1.67727
1.66951
1.66171
1.65388
1.64601
1.63811
1.63018
1.62222
1.61423
1.60621
1.59815
1.59007
1.58196
1.57382
1.56565
1.55746
1.54925
1.54101
1.53275
1.52448
1.51619
1.50788
1.49957
1.49125
1.48292
1.4746
1.46629
1.458
1.44972
1.44148
1.43328
1.42514
1.41706
1.40907
1.40118
1.39342
1.3858
1.37835
1.37108
1.36402
1.35715
1.35044
1.34376
1.33686
1.32926
1.31995
1.30709
1.28754
1.25666
1.20374
1.09843
2.03103
2.02279
2.01537
2.00841
2.00144
1.99444
1.98744
1.98043
1.97342
1.9664
1.95939
1.95238
1.94537
1.93837
1.93136
1.92435
1.91734
1.91032
1.9033
1.89627
1.88924
1.88219
1.87514
1.86807
1.86099
1.85389
1.84678
1.83965
1.83251
1.82534
1.81815
1.81094
1.80371
1.79645
1.78917
1.78186
1.77453
1.76716
1.75977
1.75235
1.74489
1.73741
1.72989
1.72235
1.71477
1.70715
1.69951
1.69183
1.68411
1.67637
1.66858
1.66077
1.65292
1.64504
1.63712
1.62917
1.62118
1.61317
1.60512
1.59703
1.58892
1.58077
1.57259
1.56439
1.55615
1.54789
1.53959
1.53127
1.52293
1.51456
1.50617
1.49776
1.48934
1.48089
1.47244
1.46398
1.45551
1.44704
1.43857
1.43011
1.42167
1.41324
1.40484
1.39646
1.38811
1.37979
1.37148
1.36317
1.3548
1.34629
1.3375
1.3282
1.31797
1.30616
1.29169
1.27285
1.2471
1.211
1.15917
1.08185
2.03135
2.02301
2.0155
2.00846
2.00144
1.9944
1.98736
1.98032
1.97329
1.96626
1.95923
1.9522
1.94517
1.93815
1.93112
1.92409
1.91706
1.91002
1.90298
1.89593
1.88887
1.88181
1.87473
1.86764
1.86054
1.85343
1.84629
1.83915
1.83198
1.82479
1.81759
1.81036
1.80311
1.79583
1.78853
1.78121
1.77386
1.76648
1.75907
1.75163
1.74416
1.73667
1.72914
1.72157
1.71398
1.70635
1.69869
1.691
1.68327
1.6755
1.66771
1.65987
1.65201
1.64411
1.63617
1.6282
1.62019
1.61215
1.60407
1.59596
1.58781
1.57963
1.57141
1.56316
1.55488
1.54656
1.53822
1.52983
1.52142
1.51298
1.5045
1.496
1.48746
1.4789
1.47031
1.46169
1.45305
1.44438
1.43569
1.42697
1.41822
1.40944
1.40063
1.39177
1.38285
1.37385
1.36472
1.35542
1.34586
1.33591
1.32537
1.31395
1.30121
1.28651
1.2689
1.24708
1.2193
1.18354
1.13747
1.07841
2.03149
2.02312
2.01557
2.00849
2.00142
1.99434
1.98728
1.98022
1.97316
1.96611
1.95907
1.95202
1.94497
1.93793
1.93088
1.92383
1.91678
1.90972
1.90266
1.89559
1.88852
1.88143
1.87434
1.86723
1.86011
1.85297
1.84582
1.83865
1.83147
1.82427
1.81704
1.8098
1.80253
1.79524
1.78792
1.78058
1.77321
1.76582
1.7584
1.75094
1.74346
1.73595
1.72841
1.72083
1.71322
1.70558
1.69791
1.6902
1.68245
1.67468
1.66686
1.65901
1.65113
1.64321
1.63525
1.62726
1.61923
1.61116
1.60306
1.59491
1.58674
1.57852
1.57027
1.56197
1.55364
1.54528
1.53687
1.52843
1.51994
1.51142
1.50286
1.49426
1.48562
1.47693
1.46821
1.45944
1.45062
1.44176
1.43284
1.42386
1.41482
1.4057
1.39649
1.38717
1.37771
1.36807
1.3582
1.34803
1.33743
1.32627
1.31433
1.30131
1.2868
1.27025
1.25093
1.22792
1.20015
1.1666
1.12646
1.07968
2.03153
2.02315
2.01558
2.00847
2.00138
1.99428
1.98719
1.98011
1.97304
1.96597
1.9589
1.95184
1.94478
1.93771
1.93065
1.92358
1.91651
1.90944
1.90236
1.89527
1.88817
1.88107
1.87395
1.86683
1.85969
1.85254
1.84537
1.83818
1.83098
1.82376
1.81652
1.80926
1.80197
1.79467
1.78734
1.77998
1.7726
1.76519
1.75775
1.75029
1.74279
1.73527
1.72771
1.72012
1.7125
1.70484
1.69715
1.68943
1.68167
1.67388
1.66605
1.65819
1.65029
1.64235
1.63437
1.62636
1.6183
1.61021
1.60208
1.59391
1.5857
1.57745
1.56916
1.56082
1.55245
1.54403
1.53557
1.52706
1.51851
1.50991
1.50127
1.49257
1.48383
1.47502
1.46617
1.45725
1.44826
1.43921
1.43007
1.42085
1.41152
1.40208
1.3925
1.38276
1.37281
1.36261
1.3521
1.34118
1.32974
1.31762
1.30463
1.29048
1.27484
1.25728
1.23726
1.21419
1.18749
1.15674
1.12189
1.08368
2.03148
2.02312
2.01555
2.00843
2.00132
1.9942
1.98709
1.98
1.97291
1.96582
1.95874
1.95166
1.94458
1.9375
1.93042
1.92334
1.91625
1.90916
1.90206
1.89496
1.88784
1.88072
1.87359
1.86645
1.85929
1.85212
1.84493
1.83773
1.83051
1.82328
1.81602
1.80874
1.80145
1.79412
1.78678
1.77941
1.77201
1.76459
1.75714
1.74966
1.74215
1.73461
1.72705
1.71944
1.71181
1.70414
1.69644
1.6887
1.68093
1.67313
1.66528
1.6574
1.64948
1.64153
1.63353
1.6255
1.61742
1.60931
1.60115
1.59295
1.58471
1.57643
1.5681
1.55972
1.5513
1.54284
1.53432
1.52575
1.51714
1.50847
1.49974
1.49095
1.4821
1.47319
1.4642
1.45514
1.446
1.43676
1.42743
1.41797
1.40839
1.39866
1.38875
1.37863
1.36825
1.35758
1.34652
1.335
1.32291
1.31009
1.29637
1.28151
1.26526
1.24728
1.22724
1.20477
1.17962
1.15171
1.1213
1.08925
2.0314
2.02305
2.01548
2.00836
2.00124
1.99411
1.98699
1.97988
1.97278
1.96568
1.95858
1.95149
1.9444
1.9373
1.9302
1.9231
1.916
1.90889
1.90178
1.89466
1.88753
1.88039
1.87324
1.86608
1.85891
1.85172
1.84452
1.8373
1.83007
1.82282
1.81555
1.80826
1.80094
1.79361
1.78625
1.77887
1.77146
1.76402
1.75656
1.74907
1.74155
1.734
1.72642
1.7188
1.71116
1.70348
1.69576
1.68801
1.68023
1.67241
1.66455
1.65666
1.64872
1.64075
1.63273
1.62468
1.61658
1.60845
1.60026
1.59204
1.58377
1.57545
1.56709
1.55868
1.55021
1.5417
1.53313
1.52451
1.51583
1.50709
1.49828
1.48941
1.48047
1.47145
1.46234
1.45315
1.44386
1.43446
1.42494
1.41528
1.40547
1.39548
1.38528
1.37484
1.36411
1.35304
1.34156
1.32959
1.31702
1.30372
1.28955
1.27432
1.25783
1.23987
1.22023
1.19871
1.17526
1.14995
1.12317
1.09568
2.03128
2.02294
2.01539
2.00827
2.00115
1.99401
1.98688
1.97976
1.97265
1.96554
1.95843
1.95132
1.94421
1.9371
1.92999
1.92288
1.91576
1.90864
1.90151
1.89437
1.88723
1.88007
1.87291
1.86573
1.85854
1.85134
1.84413
1.8369
1.82965
1.82238
1.8151
1.80779
1.80047
1.79312
1.78575
1.77835
1.77093
1.76348
1.75601
1.74851
1.74098
1.73341
1.72582
1.7182
1.71054
1.70285
1.69512
1.68736
1.67957
1.67173
1.66386
1.65595
1.648
1.64001
1.63198
1.62391
1.61579
1.60763
1.59943
1.59118
1.58288
1.57453
1.56614
1.55769
1.54919
1.54063
1.53201
1.52334
1.5146
1.50579
1.49691
1.48796
1.47893
1.46981
1.4606
1.45129
1.44187
1.43232
1.42264
1.4128
1.40279
1.39258
1.38214
1.37144
1.36043
1.34906
1.33726
1.32497
1.31209
1.29851
1.28411
1.26877
1.25233
1.23467
1.21566
1.19525
1.17346
1.15047
1.12665
1.10262
2.03114
2.02283
2.01529
2.00817
2.00105
1.9939
1.98677
1.97964
1.97252
1.9654
1.95828
1.95116
1.94404
1.93692
1.92979
1.92266
1.91553
1.90839
1.90125
1.8941
1.88694
1.87977
1.87259
1.8654
1.8582
1.85099
1.84376
1.83651
1.82925
1.82197
1.81467
1.80736
1.80002
1.79266
1.78528
1.77787
1.77044
1.76298
1.75549
1.74798
1.74044
1.73287
1.72526
1.71763
1.70996
1.70226
1.69452
1.68675
1.67894
1.6711
1.66321
1.65529
1.64733
1.63932
1.63128
1.62319
1.61505
1.60687
1.59865
1.59037
1.58205
1.57367
1.56525
1.55676
1.54823
1.53963
1.53097
1.52224
1.51345
1.50459
1.49564
1.48662
1.47751
1.46831
1.459
1.44959
1.44005
1.43037
1.42055
1.41056
1.40039
1.39
1.37937
1.36847
1.35724
1.34566
1.33365
1.32115
1.3081
1.2944
1.27996
1.26469
1.2485
1.23131
1.21308
1.19381
1.17358
1.1526
1.1312
1.10988
2.031
2.0227
2.01517
2.00806
2.00094
1.9938
1.98666
1.97953
1.97239
1.96526
1.95813
1.951
1.94387
1.93674
1.9296
1.92246
1.91532
1.90817
1.90101
1.89384
1.88667
1.87949
1.8723
1.8651
1.85788
1.85065
1.84341
1.83615
1.82888
1.82159
1.81428
1.80695
1.7996
1.79223
1.78483
1.77742
1.76997
1.76251
1.75501
1.74749
1.73994
1.73235
1.72474
1.7171
1.70942
1.70171
1.69396
1.68618
1.67836
1.67051
1.66261
1.65467
1.6467
1.63868
1.63062
1.62251
1.61436
1.60617
1.59792
1.58963
1.58128
1.57288
1.56442
1.55591
1.54734
1.53871
1.53001
1.52124
1.5124
1.50348
1.49448
1.4854
1.47622
1.46694
1.45755
1.44805
1.43841
1.42864
1.4187
1.40859
1.39829
1.38776
1.37699
1.36594
1.35457
1.34285
1.33072
1.31813
1.30502
1.29132
1.27698
1.26193
1.24611
1.2295
1.21209
1.19393
1.17513
1.15589
1.13649
1.11734
2.03086
2.02257
2.01506
2.00796
2.00084
1.99369
1.98655
1.97941
1.97228
1.96514
1.958
1.95086
1.94372
1.93657
1.92942
1.92227
1.91512
1.90795
1.90078
1.89361
1.88642
1.87923
1.87202
1.86481
1.85758
1.85034
1.84308
1.83582
1.82853
1.82123
1.81391
1.80657
1.79921
1.79183
1.78442
1.77699
1.76954
1.76206
1.75456
1.74703
1.73947
1.73188
1.72426
1.7166
1.70892
1.7012
1.69344
1.68565
1.67782
1.66996
1.66205
1.65411
1.64612
1.63809
1.63002
1.6219
1.61373
1.60552
1.59725
1.58894
1.58057
1.57215
1.56367
1.55513
1.54653
1.53787
1.52913
1.52033
1.51145
1.50249
1.49344
1.4843
1.47507
1.46573
1.45627
1.44669
1.43698
1.42712
1.4171
1.4069
1.3965
1.38588
1.37501
1.36387
1.35242
1.34063
1.32845
1.31585
1.30278
1.28919
1.27505
1.26031
1.24495
1.22897
1.21239
1.19528
1.17777
1.16003
1.14231
1.12491
2.03073
2.02245
2.01495
2.00786
2.00074
1.9936
1.98645
1.97931
1.97216
1.96502
1.95787
1.95073
1.94357
1.93642
1.92926
1.9221
1.91493
1.90776
1.90058
1.89339
1.88619
1.87898
1.87177
1.86454
1.8573
1.85005
1.84278
1.8355
1.82821
1.8209
1.81356
1.80621
1.79884
1.79145
1.78404
1.7766
1.76914
1.76166
1.75414
1.7466
1.73904
1.73144
1.72381
1.71615
1.70845
1.70073
1.69296
1.68516
1.67733
1.66945
1.66154
1.65358
1.64559
1.63755
1.62946
1.62133
1.61315
1.60493
1.59665
1.58832
1.57994
1.5715
1.563
1.55444
1.54581
1.53712
1.52836
1.51952
1.51061
1.50161
1.49252
1.48334
1.47406
1.46467
1.45517
1.44553
1.43576
1.42584
1.41576
1.40549
1.39503
1.38435
1.37343
1.36225
1.35077
1.33897
1.32682
1.31429
1.30133
1.28793
1.27405
1.25968
1.24482
1.22949
1.21372
1.1976
1.18124
1.1648
1.14849
1.13256
2.03061
2.02234
2.01485
2.00776
2.00065
1.99351
1.98636
1.97921
1.97207
1.96491
1.95776
1.9506
1.94345
1.93628
1.92911
1.92194
1.91476
1.90758
1.90039
1.89319
1.88598
1.87876
1.87154
1.8643
1.85705
1.84979
1.84251
1.83522
1.82791
1.82059
1.81325
1.80589
1.79851
1.79111
1.78369
1.77625
1.76878
1.76128
1.75376
1.74622
1.73864
1.73104
1.7234
1.71573
1.70803
1.7003
1.69253
1.68472
1.67688
1.669
1.66108
1.65311
1.64511
1.63706
1.62897
1.62083
1.61264
1.6044
1.59611
1.58777
1.57937
1.57091
1.5624
1.55382
1.54518
1.53646
1.52768
1.51882
1.50988
1.50085
1.49174
1.48253
1.47321
1.46379
1.45424
1.44457
1.43476
1.4248
1.41468
1.40438
1.39389
1.38319
1.37226
1.36108
1.34962
1.33787
1.32579
1.31338
1.30059
1.28743
1.27387
1.25992
1.24558
1.23089
1.21589
1.20067
1.18534
1.17004
1.15494
1.14023
2.0305
2.02225
2.01476
2.00768
2.00057
1.99343
1.98628
1.97913
1.97198
1.96482
1.95766
1.9505
1.94333
1.93616
1.92898
1.9218
1.91461
1.90742
1.90022
1.89301
1.88579
1.87856
1.87132
1.86408
1.85682
1.84955
1.84226
1.83496
1.82764
1.82031
1.81296
1.8056
1.79821
1.7908
1.78337
1.77592
1.76844
1.76094
1.75342
1.74586
1.73828
1.73067
1.72303
1.71536
1.70765
1.69991
1.69213
1.68432
1.67648
1.66859
1.66066
1.65269
1.64468
1.63663
1.62853
1.62038
1.61218
1.60394
1.59564
1.58728
1.57888
1.57041
1.56188
1.55329
1.54463
1.53591
1.5271
1.51823
1.50927
1.50022
1.49109
1.48186
1.47252
1.46307
1.45351
1.44382
1.43399
1.42401
1.41388
1.40357
1.39308
1.38238
1.37147
1.36033
1.34893
1.33727
1.32532
1.31307
1.3005
1.28762
1.27441
1.26089
1.24707
1.23301
1.21874
1.20435
1.18993
1.17562
1.16156
1.1479
2.03042
2.02217
2.01469
2.00761
2.00051
1.99336
1.98621
1.97906
1.97191
1.96474
1.95758
1.95041
1.94323
1.93605
1.92887
1.92168
1.91448
1.90728
1.90007
1.89285
1.88562
1.87838
1.87114
1.86388
1.85661
1.84933
1.84204
1.83473
1.8274
1.82006
1.81271
1.80533
1.79794
1.79052
1.78309
1.77563
1.76815
1.76064
1.75311
1.74555
1.73796
1.73035
1.7227
1.71502
1.70731
1.69957
1.69179
1.68397
1.67612
1.66823
1.6603
1.65232
1.64431
1.63625
1.62814
1.61999
1.61179
1.60354
1.59523
1.58687
1.57846
1.56999
1.56145
1.55285
1.54418
1.53545
1.52664
1.51775
1.50878
1.49973
1.49058
1.48134
1.47199
1.46254
1.45296
1.44327
1.43344
1.42346
1.41334
1.40305
1.39258
1.38192
1.37106
1.35999
1.34869
1.33715
1.32536
1.3133
1.30099
1.2884
1.27557
1.26248
1.24919
1.23572
1.22213
1.20849
1.1949
1.18146
1.1683
1.15554
2.03036
2.02212
2.01464
2.00756
2.00046
1.99332
1.98617
1.97901
1.97185
1.96468
1.95751
1.95034
1.94315
1.93597
1.92877
1.92158
1.91437
1.90716
1.89994
1.89271
1.88548
1.87823
1.87098
1.86371
1.85643
1.84914
1.84184
1.83452
1.82719
1.81985
1.81248
1.8051
1.7977
1.79028
1.78283
1.77537
1.76788
1.76037
1.75283
1.74527
1.73768
1.73006
1.72241
1.71473
1.70701
1.69927
1.69148
1.68366
1.67581
1.66792
1.65998
1.65201
1.64399
1.63593
1.62782
1.61966
1.61146
1.60321
1.5949
1.58654
1.57812
1.56964
1.5611
1.5525
1.54383
1.53509
1.52628
1.51739
1.50842
1.49936
1.49021
1.48097
1.47163
1.46218
1.45261
1.44292
1.43311
1.42316
1.41306
1.4028
1.39238
1.38179
1.37101
1.36004
1.34886
1.33747
1.32586
1.31403
1.30198
1.28972
1.27726
1.26461
1.25182
1.23891
1.22595
1.21301
1.20016
1.18749
1.17511
1.16313
2.03032
2.02208
2.01461
2.00754
2.00043
1.99329
1.98613
1.97898
1.97181
1.96464
1.95747
1.95028
1.94309
1.9359
1.9287
1.92149
1.91428
1.90706
1.89983
1.8926
1.88535
1.8781
1.87084
1.86356
1.85628
1.84898
1.84167
1.83435
1.82701
1.81966
1.81229
1.8049
1.79749
1.79006
1.78262
1.77515
1.76765
1.76014
1.7526
1.74503
1.73743
1.72981
1.72216
1.71447
1.70676
1.69901
1.69122
1.68341
1.67555
1.66765
1.65972
1.65174
1.64373
1.63566
1.62756
1.6194
1.6112
1.60294
1.59464
1.58628
1.57786
1.56938
1.56085
1.55225
1.54358
1.53484
1.52603
1.51715
1.50818
1.49913
1.48999
1.48076
1.47143
1.46199
1.45245
1.44279
1.433
1.42309
1.41303
1.40284
1.39248
1.38197
1.37129
1.36044
1.34941
1.33819
1.32679
1.3152
1.30343
1.2915
1.27941
1.26719
1.25488
1.24251
1.23013
1.21781
1.20562
1.19364
1.18196
1.17065
2.03032
2.02208
2.0146
2.00753
2.00042
1.99328
1.98612
1.97896
1.97179
1.96462
1.95744
1.95025
1.94305
1.93585
1.92865
1.92143
1.91421
1.90699
1.89975
1.89251
1.88526
1.878
1.87073
1.86345
1.85615
1.84885
1.84153
1.8342
1.82686
1.8195
1.81212
1.80473
1.79731
1.78988
1.78243
1.77496
1.76746
1.75994
1.7524
1.74483
1.73723
1.7296
1.72195
1.71426
1.70655
1.6988
1.69101
1.68319
1.67534
1.66744
1.65951
1.65153
1.64352
1.63546
1.62735
1.6192
1.611
1.60275
1.59445
1.58609
1.57768
1.56921
1.56068
1.55208
1.54342
1.5347
1.5259
1.51702
1.50807
1.49903
1.48991
1.4807
1.47139
1.46198
1.45247
1.44285
1.43311
1.42324
1.41325
1.40313
1.39286
1.38245
1.37189
1.36118
1.35031
1.33928
1.32809
1.31676
1.30528
1.29367
1.28196
1.27015
1.25829
1.24642
1.23459
1.22284
1.21124
1.19987
1.1888
1.1781
2.03034
2.0221
2.01462
2.00755
2.00044
1.99329
1.98613
1.97897
1.9718
1.96462
1.95743
1.95024
1.94304
1.93583
1.92862
1.9214
1.91417
1.90693
1.89969
1.89244
1.88518
1.87792
1.87064
1.86335
1.85605
1.84874
1.84142
1.83408
1.82673
1.81937
1.81199
1.80459
1.79717
1.78974
1.78228
1.7748
1.7673
1.75978
1.75223
1.74466
1.73706
1.72944
1.72178
1.7141
1.70638
1.69863
1.69085
1.68303
1.67517
1.66728
1.65935
1.65138
1.64337
1.63531
1.62721
1.61906
1.61087
1.60263
1.59433
1.58598
1.57758
1.56912
1.5606
1.55201
1.54337
1.53465
1.52587
1.51701
1.50808
1.49907
1.48997
1.48079
1.47151
1.46214
1.45267
1.4431
1.43341
1.42362
1.4137
1.40366
1.3935
1.3832
1.37278
1.36222
1.35152
1.34069
1.32974
1.31866
1.30747
1.29619
1.28483
1.27343
1.262
1.2506
1.23926
1.22803
1.21698
1.20615
1.19562
1.18545
2.03039
2.02214
2.01466
2.00759
2.00048
1.99333
1.98616
1.979
1.97182
1.96464
1.95744
1.95024
1.94304
1.93583
1.92861
1.92138
1.91415
1.90691
1.89966
1.8924
1.88514
1.87786
1.87058
1.86329
1.85598
1.84867
1.84134
1.834
1.82664
1.81927
1.81188
1.80448
1.79706
1.78962
1.78216
1.77468
1.76718
1.75966
1.75211
1.74454
1.73694
1.72931
1.72165
1.71397
1.70625
1.69851
1.69073
1.68291
1.67506
1.66717
1.65925
1.65128
1.64327
1.63522
1.62713
1.61899
1.61081
1.60257
1.59429
1.58595
1.57756
1.56911
1.5606
1.55204
1.54341
1.53471
1.52595
1.51712
1.50821
1.49923
1.49017
1.48102
1.47179
1.46247
1.45305
1.44353
1.43392
1.4242
1.41437
1.40443
1.39438
1.38421
1.37393
1.36353
1.35302
1.3424
1.33168
1.32086
1.30996
1.299
1.28799
1.27696
1.26595
1.25498
1.24409
1.23334
1.22278
1.21244
1.2024
1.1927
2.03047
2.02222
2.01473
2.00765
2.00054
1.99338
1.98622
1.97905
1.97187
1.96468
1.95748
1.95027
1.94306
1.93585
1.92862
1.92139
1.91415
1.9069
1.89965
1.89239
1.88511
1.87783
1.87055
1.86325
1.85594
1.84862
1.84128
1.83394
1.82658
1.8192
1.81181
1.80441
1.79698
1.78954
1.78208
1.7746
1.76709
1.75957
1.75202
1.74445
1.73685
1.72922
1.72157
1.71389
1.70617
1.69843
1.69065
1.68284
1.675
1.66711
1.65919
1.65124
1.64324
1.6352
1.62711
1.61898
1.61081
1.60259
1.59431
1.58599
1.57762
1.56919
1.5607
1.55215
1.54355
1.53488
1.52614
1.51734
1.50847
1.49952
1.4905
1.4814
1.47221
1.46295
1.45359
1.44415
1.43461
1.42498
1.41525
1.40542
1.39549
1.38546
1.37533
1.3651
1.35478
1.34437
1.33388
1.32332
1.31271
1.30205
1.29138
1.28071
1.27008
1.25951
1.24905
1.23874
1.22862
1.21873
1.20912
1.19984
2.03058
2.02232
2.01483
2.00775
2.00063
1.99347
1.9863
1.97912
1.97193
1.96474
1.95754
1.95033
1.94311
1.93589
1.92866
1.92142
1.91417
1.90692
1.89966
1.89239
1.88512
1.87783
1.87054
1.86323
1.85592
1.84859
1.84126
1.83391
1.82654
1.81916
1.81177
1.80436
1.79694
1.78949
1.78203
1.77455
1.76704
1.75952
1.75197
1.7444
1.7368
1.72918
1.72153
1.71385
1.70614
1.6984
1.69063
1.68282
1.67498
1.66711
1.65919
1.65124
1.64326
1.63523
1.62715
1.61904
1.61088
1.60267
1.59441
1.58611
1.57775
1.56934
1.56088
1.55236
1.54378
1.53514
1.52644
1.51767
1.50884
1.49993
1.49096
1.48191
1.47278
1.46358
1.45429
1.44493
1.43547
1.42594
1.41631
1.4066
1.3968
1.38691
1.37694
1.36689
1.35676
1.34657
1.33631
1.32601
1.31567
1.30531
1.29496
1.28463
1.27436
1.26417
1.2541
1.24419
1.23446
1.22497
1.21576
1.20686
2.03072
2.02245
2.01495
2.00786
2.00074
1.99358
1.9864
1.97922
1.97203
1.96483
1.95762
1.9504
1.94318
1.93595
1.92872
1.92147
1.91422
1.90697
1.8997
1.89243
1.88515
1.87786
1.87056
1.86325
1.85593
1.8486
1.84126
1.83391
1.82654
1.81916
1.81176
1.80435
1.79692
1.78948
1.78201
1.77453
1.76703
1.7595
1.75196
1.74439
1.73679
1.72917
1.72152
1.71385
1.70614
1.69841
1.69064
1.68285
1.67502
1.66715
1.65925
1.65131
1.64333
1.63531
1.62726
1.61915
1.61101
1.60282
1.59459
1.5863
1.57797
1.56958
1.56115
1.55266
1.54411
1.5355
1.52684
1.51811
1.50932
1.50046
1.49154
1.48255
1.47349
1.46435
1.45514
1.44586
1.4365
1.42707
1.41755
1.40796
1.3983
1.38856
1.37875
1.36888
1.35895
1.34897
1.33894
1.32889
1.31882
1.30875
1.2987
1.28869
1.27876
1.26892
1.25921
1.24966
1.2403
1.23117
1.22231
1.21375
2.03088
2.02261
2.0151
2.00801
2.00088
1.99371
1.98653
1.97934
1.97214
1.96494
1.95772
1.9505
1.94328
1.93604
1.9288
1.92155
1.9143
1.90703
1.89976
1.89249
1.8852
1.87791
1.8706
1.86329
1.85597
1.84864
1.84129
1.83393
1.82656
1.81918
1.81178
1.80437
1.79694
1.7895
1.78203
1.77455
1.76705
1.75953
1.75198
1.74441
1.73682
1.7292
1.72156
1.71389
1.70619
1.69847
1.69071
1.68292
1.6751
1.66724
1.65935
1.65142
1.64346
1.63546
1.62742
1.61933
1.61121
1.60304
1.59483
1.58657
1.57826
1.5699
1.5615
1.55304
1.54452
1.53596
1.52733
1.51865
1.50991
1.50111
1.49224
1.48332
1.47432
1.46526
1.45614
1.44694
1.43768
1.42835
1.41895
1.40949
1.39997
1.39038
1.38074
1.37105
1.36131
1.35154
1.34174
1.33192
1.32211
1.31232
1.30256
1.29286
1.28324
1.27372
1.26434
1.25512
1.2461
1.2373
1.22876
1.2205
2.03108
2.0228
2.01528
2.00818
2.00104
1.99386
1.98668
1.97948
1.97228
1.96507
1.95785
1.95062
1.94339
1.93615
1.92891
1.92165
1.91439
1.90713
1.89985
1.89257
1.88528
1.87798
1.87068
1.86336
1.85603
1.8487
1.84135
1.83399
1.82662
1.81923
1.81184
1.80442
1.79699
1.78955
1.78209
1.7746
1.7671
1.75958
1.75204
1.74448
1.73689
1.72928
1.72164
1.71398
1.70629
1.69857
1.69082
1.68304
1.67523
1.66738
1.65951
1.65159
1.64365
1.63566
1.62764
1.61957
1.61147
1.60332
1.59513
1.5869
1.57862
1.5703
1.56192
1.5535
1.54503
1.5365
1.52792
1.51929
1.5106
1.50186
1.49306
1.4842
1.47528
1.4663
1.45726
1.44816
1.439
1.42978
1.4205
1.41117
1.40179
1.39236
1.38288
1.37337
1.36382
1.35425
1.34468
1.3351
1.32553
1.316
1.30651
1.2971
1.28777
1.27856
1.26948
1.26057
1.25185
1.24336
1.2351
1.22712
2.0313
2.02301
2.01548
2.00837
2.00123
1.99404
1.98685
1.97965
1.97244
1.96522
1.958
1.95077
1.94353
1.93629
1.92904
1.92178
1.91451
1.90724
1.89996
1.89268
1.88538
1.87808
1.87077
1.86345
1.85613
1.84879
1.84144
1.83408
1.8267
1.81932
1.81192
1.8045
1.79708
1.78963
1.78217
1.77469
1.76719
1.75967
1.75214
1.74458
1.73699
1.72939
1.72176
1.7141
1.70642
1.69871
1.69097
1.6832
1.6754
1.66757
1.65971
1.65182
1.64388
1.63592
1.62791
1.61987
1.61179
1.60367
1.59551
1.58731
1.57906
1.57077
1.56243
1.55405
1.54561
1.53714
1.52861
1.52003
1.5114
1.50271
1.49398
1.48519
1.47635
1.46745
1.4585
1.4495
1.44044
1.43134
1.42219
1.41299
1.40375
1.39447
1.38516
1.37582
1.36646
1.3571
1.34773
1.33838
1.32905
1.31977
1.31054
1.30139
1.29234
1.2834
1.27461
1.26598
1.25754
1.24932
1.24133
1.2336
2.03155
2.02325
2.0157
2.00859
2.00144
1.99424
1.98704
1.97984
1.97262
1.9654
1.95817
1.95093
1.94369
1.93644
1.92919
1.92193
1.91466
1.90738
1.9001
1.89281
1.88551
1.87821
1.8709
1.86357
1.85624
1.8489
1.84155
1.83419
1.82682
1.81943
1.81203
1.80462
1.79719
1.78975
1.78229
1.77481
1.76731
1.7598
1.75227
1.74471
1.73714
1.72954
1.72191
1.71427
1.70659
1.69889
1.69117
1.68341
1.67563
1.66781
1.65996
1.65209
1.64417
1.63623
1.62825
1.62023
1.61217
1.60408
1.59595
1.58777
1.57956
1.57131
1.56301
1.55467
1.54628
1.53785
1.52937
1.52085
1.51228
1.50366
1.49499
1.48628
1.47752
1.46871
1.45985
1.45095
1.442
1.43302
1.42399
1.41492
1.40582
1.3967
1.38755
1.37839
1.36921
1.36004
1.35088
1.34175
1.33265
1.3236
1.31461
1.30571
1.29692
1.28824
1.27971
1.27134
1.26316
1.25518
1.24744
1.23993
2.03183
2.02351
2.01596
2.00883
2.00167
1.99447
1.98726
1.98005
1.97283
1.9656
1.95836
1.95112
1.94388
1.93662
1.92936
1.9221
1.91482
1.90754
1.90026
1.89297
1.88567
1.87836
1.87104
1.86372
1.85639
1.84904
1.84169
1.83433
1.82696
1.81957
1.81217
1.80476
1.79733
1.78989
1.78243
1.77496
1.76747
1.75996
1.75243
1.74488
1.73731
1.72972
1.72211
1.71447
1.70681
1.69912
1.69141
1.68366
1.67589
1.66809
1.66027
1.65241
1.64451
1.63659
1.62863
1.62064
1.61261
1.60455
1.59645
1.58831
1.58013
1.57191
1.56366
1.55536
1.54702
1.53864
1.53022
1.52175
1.51325
1.5047
1.4961
1.48746
1.47879
1.47007
1.4613
1.4525
1.44367
1.4348
1.42589
1.41696
1.408
1.39903
1.39004
1.38105
1.37205
1.36307
1.35411
1.34518
1.3363
1.32747
1.31872
1.31005
1.30149
1.29306
1.28477
1.27664
1.26869
1.26094
1.25341
1.24612
2.03213
2.0238
2.01623
2.00909
2.00192
1.99472
1.9875
1.98028
1.97305
1.96582
1.95858
1.95133
1.94408
1.93682
1.92956
1.92229
1.91501
1.90773
1.90044
1.89314
1.88584
1.87853
1.87121
1.86389
1.85655
1.84921
1.84186
1.8345
1.82712
1.81974
1.81234
1.80493
1.7975
1.79007
1.78261
1.77514
1.76766
1.76015
1.75263
1.74509
1.73753
1.72994
1.72234
1.71471
1.70706
1.69939
1.69169
1.68396
1.6762
1.66842
1.66061
1.65277
1.6449
1.637
1.62907
1.6211
1.61311
1.60507
1.597
1.5889
1.58076
1.57259
1.56437
1.55612
1.54783
1.53951
1.53114
1.52274
1.5143
1.50581
1.49729
1.48874
1.48014
1.47151
1.46285
1.45415
1.44542
1.43667
1.42789
1.41909
1.41027
1.40145
1.39262
1.38379
1.37497
1.36617
1.3574
1.34866
1.33998
1.33137
1.32283
1.31438
1.30605
1.29784
1.28977
1.28186
1.27413
1.26659
1.25926
1.25215
2.03245
2.02411
2.01652
2.00938
2.0022
1.99498
1.98776
1.98053
1.9733
1.96606
1.95881
1.95156
1.9443
1.93704
1.92977
1.9225
1.91522
1.90793
1.90064
1.89334
1.88604
1.87873
1.87141
1.86408
1.85675
1.8494
1.84205
1.83469
1.82732
1.81993
1.81254
1.80513
1.79771
1.79027
1.78282
1.77536
1.76788
1.76038
1.75286
1.74533
1.73777
1.7302
1.72261
1.71499
1.70735
1.69969
1.692
1.68429
1.67656
1.66879
1.661
1.65319
1.64534
1.63746
1.62956
1.62162
1.61365
1.60565
1.59762
1.58955
1.58145
1.57332
1.56515
1.55695
1.54871
1.54044
1.53213
1.52379
1.51542
1.50701
1.49856
1.49009
1.48158
1.47304
1.46447
1.45588
1.44726
1.43862
1.42997
1.4213
1.41262
1.40394
1.39526
1.38659
1.37794
1.36931
1.36072
1.35218
1.34369
1.33527
1.32694
1.3187
1.31057
1.30257
1.2947
1.287
1.27946
1.27211
1.26496
1.25803
2.03279
2.02444
2.01684
2.00968
2.00249
1.99527
1.98804
1.9808
1.97356
1.96632
1.95906
1.95181
1.94455
1.93728
1.93001
1.92273
1.91545
1.90816
1.90086
1.89356
1.88626
1.87894
1.87162
1.8643
1.85696
1.84962
1.84227
1.8349
1.82753
1.82015
1.81276
1.80535
1.79793
1.7905
1.78306
1.7756
1.76812
1.76063
1.75312
1.7456
1.73805
1.73049
1.72291
1.7153
1.70768
1.70003
1.69236
1.68467
1.67695
1.66921
1.66144
1.65364
1.64582
1.63797
1.63009
1.62218
1.61425
1.60628
1.59829
1.59026
1.5822
1.57411
1.56599
1.55784
1.54965
1.54144
1.53319
1.52491
1.51661
1.50827
1.4999
1.49151
1.48308
1.47464
1.46617
1.45768
1.44917
1.44064
1.43211
1.42357
1.41503
1.40649
1.39795
1.38944
1.38095
1.37249
1.36408
1.35571
1.34741
1.33918
1.33103
1.32298
1.31505
1.30724
1.29956
1.29204
1.28469
1.27752
1.27053
1.26376
2.03315
2.02478
2.01717
2.01001
2.00281
1.99557
1.98833
1.98109
1.97384
1.96659
1.95934
1.95207
1.94481
1.93754
1.93026
1.92298
1.91569
1.9084
1.90111
1.8938
1.8865
1.87918
1.87186
1.86453
1.8572
1.84986
1.8425
1.83514
1.82777
1.82039
1.813
1.8056
1.79819
1.79076
1.78332
1.77587
1.7684
1.76092
1.75342
1.7459
1.73837
1.73081
1.72324
1.71565
1.70804
1.70041
1.69276
1.68508
1.67738
1.66966
1.66191
1.65414
1.64634
1.63852
1.63067
1.62279
1.61489
1.60696
1.599
1.59101
1.583
1.57496
1.56688
1.55878
1.55065
1.54249
1.53431
1.5261
1.51786
1.50959
1.5013
1.49299
1.48465
1.4763
1.46792
1.45954
1.45113
1.44273
1.43431
1.42589
1.41748
1.40908
1.40069
1.39233
1.38399
1.37569
1.36744
1.35925
1.35111
1.34306
1.33509
1.32723
1.31947
1.31184
1.30434
1.29699
1.28981
1.28279
1.27596
1.26933
2.03353
2.02515
2.01752
2.01034
2.00314
1.99589
1.98865
1.9814
1.97414
1.96688
1.95962
1.95236
1.94509
1.93781
1.93053
1.92325
1.91596
1.90867
1.90137
1.89406
1.88676
1.87944
1.87212
1.86479
1.85746
1.85012
1.84276
1.83541
1.82804
1.82066
1.81327
1.80588
1.79847
1.79105
1.78361
1.77616
1.7687
1.76123
1.75374
1.74623
1.73871
1.73117
1.72361
1.71603
1.70844
1.70082
1.69318
1.68553
1.67785
1.67015
1.66242
1.65468
1.64691
1.63911
1.63129
1.62345
1.61558
1.60768
1.59976
1.59182
1.58385
1.57585
1.56783
1.55978
1.5517
1.5436
1.53548
1.52733
1.51916
1.51097
1.50276
1.49453
1.48628
1.47801
1.46974
1.46145
1.45315
1.44485
1.43656
1.42826
1.41998
1.41171
1.40346
1.39524
1.38705
1.3789
1.37081
1.36277
1.35481
1.34692
1.33912
1.33142
1.32383
1.31636
1.30903
1.30184
1.2948
1.28794
1.28125
1.27474
2.03392
2.02553
2.01789
2.0107
2.00348
1.99623
1.98897
1.98172
1.97446
1.96719
1.95993
1.95265
1.94538
1.9381
1.93082
1.92353
1.91624
1.90895
1.90165
1.89434
1.88703
1.87972
1.8724
1.86507
1.85773
1.85039
1.84305
1.83569
1.82832
1.82095
1.81357
1.80617
1.79877
1.79135
1.78393
1.77649
1.76903
1.76157
1.75409
1.74659
1.73908
1.73155
1.72401
1.71644
1.70886
1.70126
1.69365
1.68601
1.67835
1.67067
1.66297
1.65525
1.64751
1.63974
1.63195
1.62414
1.61631
1.60845
1.60057
1.59267
1.58474
1.57679
1.56881
1.56082
1.5528
1.54476
1.5367
1.52862
1.52052
1.5124
1.50426
1.49611
1.48795
1.47977
1.47159
1.4634
1.45521
1.44702
1.43884
1.43066
1.4225
1.41436
1.40624
1.39816
1.39011
1.38211
1.37417
1.36628
1.35847
1.35074
1.34309
1.33555
1.32811
1.3208
1.31362
1.30657
1.29968
1.29295
1.28639
1.28
2.03432
2.02592
2.01826
2.01107
2.00384
1.99658
1.98932
1.98205
1.97479
1.96752
1.96024
1.95297
1.94569
1.93841
1.93112
1.92383
1.91654
1.90924
1.90194
1.89464
1.88733
1.88001
1.87269
1.86536
1.85803
1.85069
1.84335
1.83599
1.82863
1.82126
1.81388
1.80649
1.79909
1.79169
1.78427
1.77683
1.76939
1.76193
1.75446
1.74698
1.73948
1.73196
1.72443
1.71688
1.70932
1.70174
1.69414
1.68652
1.67888
1.67123
1.66355
1.65586
1.64814
1.64041
1.63265
1.62487
1.61708
1.60926
1.60142
1.59355
1.58567
1.57777
1.56985
1.5619
1.55394
1.54596
1.53796
1.52994
1.52191
1.51387
1.50581
1.49774
1.48966
1.48157
1.47349
1.46539
1.45731
1.44922
1.44115
1.43309
1.42505
1.41703
1.40904
1.40109
1.39317
1.38531
1.37751
1.36976
1.3621
1.35451