/*--------------------------------*- C++ -*----------------------------------*\
| =========                 |                                                 |
| \\      /  F ield         | OpenFOAM: The Open Source CFD Toolbox           |
|  \\    /   O peration     | Version:  2406                                  |
|   \\  /    A nd           | Website:  www.openfoam.com                      |
|    \\/     M anipulation  |                                                 |
\*---------------------------------------------------------------------------*/
FoamFile
{
    version     2.0;
    format      ascii;
    arch        "LSB;label=32;scalar=64";
    class       volVectorField;
    location    "78";
    object      U;
}
// * * * * * * * * * * * * * * * * * * * * * * * * * * * * * * * * * * * * * //

dimensions      [0 1 -1 0 0 0 0];

internalField   nonuniform List<vector> 
2000
(
(0.098302 -0.000950119 0)
(0.1002 -0.000959044 0)
(0.101758 -0.000544252 0)
(0.102823 -0.000304903 0)
(0.103551 -0.000194131 0)
(0.104081 -0.000127067 0)
(0.104474 -8.33871e-05 0)
(0.104768 -5.78505e-05 0)
(0.104994 -4.31726e-05 0)
(0.105175 -3.37652e-05 0)
(0.276253 -0.00143313 0)
(0.27645 -0.00224186 0)
(0.277049 -0.00188954 0)
(0.277588 -0.00141543 0)
(0.278163 -0.00106853 0)
(0.278748 -0.000811446 0)
(0.279276 -0.000616269 0)
(0.279726 -0.000475417 0)
(0.280107 -0.000376804 0)
(0.280432 -0.000306166 0)
(0.436511 -0.000790363 0)
(0.436466 -0.00158187 0)
(0.436436 -0.00168754 0)
(0.436243 -0.0015565 0)
(0.436222 -0.00139051 0)
(0.436396 -0.0012121 0)
(0.436649 -0.00103149 0)
(0.436914 -0.000869249 0)
(0.437176 -0.000734715 0)
(0.437429 -0.000625408 0)
(0.576716 -0.00042166 0)
(0.576787 -0.0010229 0)
(0.576757 -0.0012716 0)
(0.576392 -0.0013161 0)
(0.576088 -0.00128709 0)
(0.575961 -0.00121707 0)
(0.575934 -0.00111613 0)
(0.575951 -0.00100366 0)
(0.576 -0.000895469 0)
(0.576074 -0.000797177 0)
(0.696829 -0.000260345 0)
(0.696973 -0.000693644 0)
(0.697047 -0.000936947 0)
(0.696737 -0.00103144 0)
(0.696393 -0.00105687 0)
(0.696169 -0.00104371 0)
(0.69602 -0.000998884 0)
(0.695901 -0.000934401 0)
(0.695808 -0.000863502 0)
(0.695744 -0.000793274 0)
(0.796901 -0.000171814 0)
(0.797073 -0.000477071 0)
(0.797217 -0.000677818 0)
(0.79698 -0.000779169 0)
(0.796664 -0.000824355 0)
(0.796432 -0.000836224 0)
(0.796254 -0.000820755 0)
(0.796091 -0.000785707 0)
(0.79594 -0.000741094 0)
(0.795811 -0.000693481 0)
(0.876947 -0.000114822 0)
(0.877129 -0.000325899 0)
(0.87731 -0.000478634 0)
(0.877127 -0.000567816 0)
(0.876844 -0.000614994 0)
(0.876624 -0.000635151 0)
(0.876446 -0.000633358 0)
(0.876273 -0.000614961 0)
(0.876105 -0.000587126 0)
(0.875951 -0.000555189 0)
(0.936977 -7.40491e-05 0)
(0.93716 -0.000212762 0)
(0.937361 -0.000318915 0)
(0.937212 -0.000386374 0)
(0.936955 -0.000425394 0)
(0.936747 -0.000444816 0)
(0.936574 -0.000448291 0)
(0.936402 -0.000439366 0)
(0.936229 -0.000422783 0)
(0.936065 -0.000402362 0)
(0.976996 -4.17272e-05 0)
(0.977178 -0.000120652 0)
(0.977387 -0.000182943 0)
(0.977259 -0.000224467 0)
(0.977019 -0.000249737 0)
(0.976819 -0.000263264 0)
(0.976651 -0.000267137 0)
(0.97648 -0.000263374 0)
(0.976305 -0.000254675 0)
(0.976138 -0.000243317 0)
(0.997004 -1.34985e-05 0)
(0.997185 -3.91335e-05 0)
(0.997399 -5.96434e-05 0)
(0.99728 -7.36197e-05 0)
(0.997048 -8.23314e-05 0)
(0.996853 -8.71429e-05 0)
(0.996687 -8.87215e-05 0)
(0.996517 -8.77211e-05 0)
(0.996342 -8.50204e-05 0)
(0.996173 -8.13785e-05 0)
(0.997004 1.35016e-05 0)
(0.997185 3.91411e-05 0)
(0.997399 5.96603e-05 0)
(0.99728 7.36468e-05 0)
(0.997048 8.23615e-05 0)
(0.996853 8.71681e-05 0)
(0.996687 8.87405e-05 0)
(0.996517 8.77435e-05 0)
(0.996342 8.50565e-05 0)
(0.996173 8.1422e-05 0)
(0.976996 4.17307e-05 0)
(0.977178 0.00012066 0)
(0.977387 0.000182959 0)
(0.977259 0.000224493 0)
(0.977019 0.000249768 0)
(0.976819 0.000263288 0)
(0.976651 0.000267154 0)
(0.97648 0.000263394 0)
(0.976305 0.000254707 0)
(0.976138 0.000243356 0)
(0.936977 7.40536e-05 0)
(0.93716 0.000212772 0)
(0.937361 0.000318935 0)
(0.937212 0.000386399 0)
(0.936955 0.00042542 0)
(0.936747 0.000444841 0)
(0.936574 0.000448315 0)
(0.936402 0.000439389 0)
(0.936229 0.000422811 0)
(0.936065 0.000402392 0)
(0.876947 0.000114826 0)
(0.877129 0.000325907 0)
(0.87731 0.000478648 0)
(0.877127 0.000567834 0)
(0.876844 0.000615018 0)
(0.876624 0.000635178 0)
(0.876446 0.000633386 0)
(0.876273 0.000614988 0)
(0.876105 0.000587152 0)
(0.875951 0.000555212 0)
(0.796901 0.00017182 0)
(0.797073 0.00047708 0)
(0.797217 0.000677834 0)
(0.79698 0.000779186 0)
(0.796664 0.000824376 0)
(0.796432 0.000836254 0)
(0.796254 0.000820787 0)
(0.796091 0.000785734 0)
(0.79594 0.000741111 0)
(0.795811 0.000693492 0)
(0.696829 0.000260348 0)
(0.696973 0.000693653 0)
(0.697047 0.000936958 0)
(0.696737 0.00103146 0)
(0.696393 0.0010569 0)
(0.696169 0.00104374 0)
(0.69602 0.000998917 0)
(0.695901 0.000934425 0)
(0.695808 0.000863515 0)
(0.695744 0.000793283 0)
(0.576715 0.000421665 0)
(0.576787 0.00102291 0)
(0.576757 0.00127162 0)
(0.576392 0.00131612 0)
(0.576088 0.00128712 0)
(0.575961 0.0012171 0)
(0.575934 0.00111616 0)
(0.575951 0.00100369 0)
(0.576 0.000895478 0)
(0.576074 0.000797185 0)
(0.436511 0.000790368 0)
(0.436466 0.00158188 0)
(0.436436 0.00168756 0)
(0.436243 0.00155652 0)
(0.436222 0.00139053 0)
(0.436396 0.00121213 0)
(0.436649 0.00103153 0)
(0.436914 0.000869277 0)
(0.437176 0.000734725 0)
(0.437429 0.000625417 0)
(0.276253 0.00143314 0)
(0.27645 0.00224186 0)
(0.277049 0.00188955 0)
(0.277588 0.00141545 0)
(0.278163 0.00106855 0)
(0.278748 0.000811474 0)
(0.279276 0.000616304 0)
(0.279726 0.000475444 0)
(0.280107 0.000376815 0)
(0.280432 0.000306175 0)
(0.098302 0.000950122 0)
(0.1002 0.000959054 0)
(0.101758 0.000544258 0)
(0.102823 0.000304906 0)
(0.103551 0.000194141 0)
(0.104081 0.000127087 0)
(0.104474 8.34004e-05 0)
(0.104768 5.785e-05 0)
(0.104994 4.31717e-05 0)
(0.105175 3.37754e-05 0)
(0.105323 -2.71435e-05 0)
(0.105446 -2.23445e-05 0)
(0.10555 -1.87999e-05 0)
(0.105639 -1.60996e-05 0)
(0.105717 -1.39803e-05 0)
(0.105785 -1.22773e-05 0)
(0.105845 -1.08794e-05 0)
(0.105898 -9.71326e-06 0)
(0.105947 -8.7345e-06 0)
(0.10599 -7.91542e-06 0)
(0.106029 -7.23081e-06 0)
(0.106066 -6.65164e-06 0)
(0.106099 -6.14967e-06 0)
(0.10613 -5.70196e-06 0)
(0.106158 -5.2951e-06 0)
(0.106185 -4.92455e-06 0)
(0.106209 -4.59024e-06 0)
(0.106232 -4.29307e-06 0)
(0.106254 -4.03163e-06 0)
(0.106274 -3.80148e-06 0)
(0.106294 -3.5965e-06 0)
(0.106312 -3.40983e-06 0)
(0.106329 -3.23615e-06 0)
(0.106345 -3.07185e-06 0)
(0.106361 -2.91559e-06 0)
(0.106375 -2.7674e-06 0)
(0.106389 -2.62819e-06 0)
(0.106402 -2.49881e-06 0)
(0.106415 -2.37973e-06 0)
(0.106427 -2.2706e-06 0)
(0.106439 -2.17062e-06 0)
(0.10645 -2.07839e-06 0)
(0.10646 -1.99257e-06 0)
(0.10647 -1.91173e-06 0)
(0.10648 -1.83495e-06 0)
(0.280712 -0.000253481 0)
(0.280953 -0.00021315 0)
(0.281163 -0.000181844 0)
(0.281346 -0.000157191 0)
(0.281508 -0.000137402 0)
(0.281652 -0.000121193 0)
(0.28178 -0.000107707 0)
(0.281896 -9.63922e-05 0)
(0.282 -8.68643e-05 0)
(0.282095 -7.88139e-05 0)
(0.282182 -7.19647e-05 0)
(0.282261 -6.60729e-05 0)
(0.282335 -6.09368e-05 0)
(0.282403 -5.6405e-05 0)
(0.282467 -5.23707e-05 0)
(0.282526 -4.87613e-05 0)
(0.282581 -4.55264e-05 0)
(0.282633 -4.2626e-05 0)
(0.282681 -4.00244e-05 0)
(0.282727 -3.76858e-05 0)
(0.28277 -3.5574e-05 0)
(0.282811 -3.36544e-05 0)
(0.28285 -3.18951e-05 0)
(0.282886 -3.02697e-05 0)
(0.282921 -2.87582e-05 0)
(0.282955 -2.73463e-05 0)
(0.282986 -2.60253e-05 0)
(0.283016 -2.47894e-05 0)
(0.283045 -2.36351e-05 0)
(0.283073 -2.25586e-05 0)
(0.283099 -2.1556e-05 0)
(0.283124 -2.0622e-05 0)
(0.283148 -1.97505e-05 0)
(0.283171 -1.89349e-05 0)
(0.283193 -1.81682e-05 0)
(0.437666 -0.000536042 0)
(0.437885 -0.00046269 0)
(0.438084 -0.000402577 0)
(0.438266 -0.000353259 0)
(0.438432 -0.000312466 0)
(0.438584 -0.000278286 0)
(0.438722 -0.000249313 0)
(0.438849 -0.000224596 0)
(0.438966 -0.000203473 0)
(0.439074 -0.000185403 0)
(0.439173 -0.000169883 0)
(0.439266 -0.000156441 0)
(0.439352 -0.000144665 0)
(0.439432 -0.000134232 0)
(0.439507 -0.000124912 0)
(0.439578 -0.000116543 0)
(0.439645 -0.000109013 0)
(0.439707 -0.000102236 0)
(0.439766 -9.61319e-05 0)
(0.439822 -9.06236e-05 0)
(0.439875 -8.56336e-05 0)
(0.439925 -8.10873e-05 0)
(0.439973 -7.69171e-05 0)
(0.440018 -7.3065e-05 0)
(0.440062 -6.94857e-05 0)
(0.440103 -6.61452e-05 0)
(0.440143 -6.30199e-05 0)
(0.440181 -6.00935e-05 0)
(0.440217 -5.73546e-05 0)
(0.440251 -5.47931e-05 0)
(0.440285 -5.23992e-05 0)
(0.440316 -5.01618e-05 0)
(0.440347 -4.80683e-05 0)
(0.440376 -4.61049e-05 0)
(0.440404 -4.42578e-05 0)
(0.576165 -0.000709244 0)
(0.576263 -0.00063145 0)
(0.576363 -0.000563645 0)
(0.576463 -0.000505204 0)
(0.576561 -0.000454909 0)
(0.576657 -0.000411347 0)
(0.576748 -0.000373331 0)
(0.576836 -0.000340054 0)
(0.576919 -0.000310984 0)
(0.576998 -0.000285669 0)
(0.577073 -0.000263618 0)
(0.577145 -0.000244294 0)
(0.577213 -0.000227188 0)
(0.577277 -0.000211879 0)
(0.577339 -0.000198065 0)
(0.577398 -0.000185548 0)
(0.577454 -0.000174198 0)
(0.577507 -0.000163915 0)
(0.577558 -0.000154601 0)
(0.577606 -0.000146154 0)
(0.577653 -0.000138464 0)
(0.577697 -0.000131423 0)
(0.57774 -0.000124935 0)
(0.577781 -0.000118917 0)
(0.57782 -0.000113306 0)
(0.577858 -0.000108055 0)
(0.577894 -0.000103131 0)
(0.577929 -9.85117e-05 0)
(0.577963 -9.41777e-05 0)
(0.577995 -9.01133e-05 0)
(0.578026 -8.63026e-05 0)
(0.578056 -8.27282e-05 0)
(0.578085 -7.93714e-05 0)
(0.578112 -7.62125e-05 0)
(0.578139 -7.3232e-05 0)
(0.695705 -0.000726067 0)
(0.695683 -0.00066307 0)
(0.695674 -0.000605419 0)
(0.695675 -0.000553712 0)
(0.695683 -0.000507715 0)
(0.695698 -0.00046667 0)
(0.695717 -0.000429812 0)
(0.69574 -0.000396665 0)
(0.695764 -0.000367006 0)
(0.695791 -0.000340663 0)
(0.695818 -0.000317352 0)
(0.695846 -0.000296653 0)
(0.695874 -0.000278097 0)
(0.695903 -0.000261268 0)
(0.695932 -0.000245869 0)
(0.69596 -0.000231726 0)
(0.695988 -0.000218743 0)
(0.696016 -0.00020686 0)
(0.696043 -0.00019601 0)
(0.69607 -0.000186103 0)
(0.696096 -0.000177027 0)
(0.696122 -0.000168665 0)
(0.696147 -0.000160905 0)
(0.696171 -0.000153655 0)
(0.696195 -0.000146848 0)
(0.696219 -0.000140435 0)
(0.696242 -0.000134389 0)
(0.696264 -0.000128689 0)
(0.696285 -0.000123321 0)
(0.696306 -0.000118268 0)
(0.696327 -0.000113513 0)
(0.696346 -0.000109036 0)
(0.696366 -0.000104813 0)
(0.696385 -0.000100821 0)
(0.696403 -9.70372e-05 0)
(0.795701 -0.000645634 0)
(0.795608 -0.000599034 0)
(0.795528 -0.000555073 0)
(0.79546 -0.000514746 0)
(0.795401 -0.000478254 0)
(0.795351 -0.000445174 0)
(0.795309 -0.000414953 0)
(0.795273 -0.000387271 0)
(0.795243 -0.000362072 0)
(0.795217 -0.000339374 0)
(0.795196 -0.000319078 0)
(0.795178 -0.000300902 0)
(0.795164 -0.000284461 0)
(0.795152 -0.000269386 0)
(0.795142 -0.000255406 0)
(0.795134 -0.00024238 0)
(0.795129 -0.00023026 0)
(0.795124 -0.000219038 0)
(0.795121 -0.000208697 0)
(0.79512 -0.000199186 0)
(0.795119 -0.000190418 0)
(0.795119 -0.000182285 0)
(0.79512 -0.000174681 0)
(0.795121 -0.000167514 0)
(0.795123 -0.00016072 0)
(0.795126 -0.000154261 0)
(0.795129 -0.000148118 0)
(0.795132 -0.000142286 0)
(0.795136 -0.000136759 0)
(0.79514 -0.000131532 0)
(0.795144 -0.000126591 0)
(0.795148 -0.000121918 0)
(0.795152 -0.000117489 0)
(0.795157 -0.000113281 0)
(0.795161 -0.00010927 0)
(0.875812 -0.000521753 0)
(0.875686 -0.000488262 0)
(0.875572 -0.000456043 0)
(0.875467 -0.000426136 0)
(0.875372 -0.000398918 0)
(0.875285 -0.000374149 0)
(0.875205 -0.000351396 0)
(0.875132 -0.000330391 0)
(0.875065 -0.00031112 0)
(0.875004 -0.000293664 0)
(0.874948 -0.000278019 0)
(0.874896 -0.000264006 0)
(0.874848 -0.000251315 0)
(0.874804 -0.000239627 0)
(0.874763 -0.000228698 0)
(0.874725 -0.000218405 0)
(0.87469 -0.000208721 0)
(0.874658 -0.000199667 0)
(0.874627 -0.000191262 0)
(0.874599 -0.000183489 0)
(0.874573 -0.000176292 0)
(0.874549 -0.000169583 0)
(0.874526 -0.00016327 0)
(0.874505 -0.000157271 0)
(0.874485 -0.000151529 0)
(0.874466 -0.000146013 0)
(0.874449 -0.000140716 0)
(0.874432 -0.000135641 0)
(0.874417 -0.000130798 0)
(0.874402 -0.00012619 0)
(0.874388 -0.000121813 0)
(0.874375 -0.000117654 0)
(0.874363 -0.000113695 0)
(0.874352 -0.000109912 0)
(0.874341 -0.000106283 0)
(0.935914 -0.000380167 0)
(0.935774 -0.000357402 0)
(0.935644 -0.000335156 0)
(0.935523 -0.00031433 0)
(0.93541 -0.000295324 0)
(0.935305 -0.000278034 0)
(0.935206 -0.000262148 0)
(0.935114 -0.000247456 0)
(0.935028 -0.000233946 0)
(0.934947 -0.000221704 0)
(0.934871 -0.000210763 0)
(0.9348 -0.000201015 0)
(0.934732 -0.000192234 0)
(0.934668 -0.000184166 0)
(0.934607 -0.000176609 0)
(0.93455 -0.000169455 0)
(0.934495 -0.000162681 0)
(0.934443 -0.000156312 0)
(0.934394 -0.000150375 0)
(0.934347 -0.000144871 0)
(0.934302 -0.000139768 0)
(0.934259 -0.000135003 0)
(0.934219 -0.000130503 0)
(0.93418 -0.000126202 0)
(0.934142 -0.000122053 0)
(0.934107 -0.000118031 0)
(0.934072 -0.000114132 0)
(0.934039 -0.000110365 0)
(0.934008 -0.000106745 0)
(0.933978 -0.00010328 0)
(0.933949 -9.99734e-05 0)
(0.933921 -9.68188e-05 0)
(0.933894 -9.38025e-05 0)
(0.933869 -9.09067e-05 0)
(0.933844 -8.81135e-05 0)
(0.975981 -0.000230612 0)
(0.975835 -0.000217348 0)
(0.975698 -0.000204232 0)
(0.975569 -0.000191864 0)
(0.975448 -0.000180546 0)
(0.975334 -0.000170253 0)
(0.975227 -0.000160803 0)
(0.975126 -0.000152064 0)
(0.975031 -0.000144023 0)
(0.974941 -0.00013674 0)
(0.974856 -0.000130251 0)
(0.974774 -0.000124501 0)
(0.974697 -0.000119357 0)
(0.974623 -0.000114656 0)
(0.974552 -0.000110263 0)
(0.974484 -0.000106102 0)
(0.974418 -0.000102153 0)
(0.974355 -9.84321e-05 0)
(0.974295 -9.4959e-05 0)
(0.974237 -9.17397e-05 0)
(0.974182 -8.87564e-05 0)
(0.974128 -8.59722e-05 0)
(0.974076 -8.33408e-05 0)
(0.974026 -8.08186e-05 0)
(0.973978 -7.83735e-05 0)
(0.973931 -7.59886e-05 0)
(0.973886 -7.36611e-05 0)
(0.973842 -7.13981e-05 0)
(0.9738 -6.92104e-05 0)
(0.973759 -6.71072e-05 0)
(0.97372 -6.50925e-05 0)
(0.973682 -6.31639e-05 0)
(0.973645 -6.13135e-05 0)
(0.973609 -5.95301e-05 0)
(0.973575 -5.78019e-05 0)
(0.996014 -7.72472e-05 0)
(0.995865 -7.28981e-05 0)
(0.995724 -6.8566e-05 0)
(0.995592 -6.44544e-05 0)
(0.995468 -6.06771e-05 0)
(0.995351 -5.72417e-05 0)
(0.995241 -5.40967e-05 0)
(0.995136 -5.11954e-05 0)
(0.995038 -4.85275e-05 0)
(0.994944 -4.61079e-05 0)
(0.994855 -4.39487e-05 0)
(0.99477 -4.20363e-05 0)
(0.994689 -4.03304e-05 0)
(0.99461 -3.87787e-05 0)
(0.994535 -3.73353e-05 0)
(0.994463 -3.59721e-05 0)
(0.994393 -3.46798e-05 0)
(0.994326 -3.34614e-05 0)
(0.994261 -3.23227e-05 0)
(0.994198 -3.12656e-05 0)
(0.994138 -3.02848e-05 0)
(0.994079 -2.93684e-05 0)
(0.994022 -2.85016e-05 0)
(0.993967 -2.76698e-05 0)
(0.993914 -2.68622e-05 0)
(0.993862 -2.6073e-05 0)
(0.993812 -2.5301e-05 0)
(0.993763 -2.4548e-05 0)
(0.993715 -2.38177e-05 0)
(0.993669 -2.3113e-05 0)
(0.993625 -2.24354e-05 0)
(0.993582 -2.17841e-05 0)
(0.99354 -2.11564e-05 0)
(0.993499 -2.05488e-05 0)
(0.993459 -1.99573e-05 0)
(0.996014 7.72748e-05 0)
(0.995865 7.28939e-05 0)
(0.995724 6.85435e-05 0)
(0.995592 6.44478e-05 0)
(0.995468 6.07092e-05 0)
(0.995351 5.7305e-05 0)
(0.995241 5.41624e-05 0)
(0.995136 5.12384e-05 0)
(0.995038 4.85436e-05 0)
(0.994944 4.61133e-05 0)
(0.994855 4.39657e-05 0)
(0.99477 4.20808e-05 0)
(0.994689 4.0405e-05 0)
(0.99461 3.88756e-05 0)
(0.994535 3.74427e-05 0)
(0.994463 3.608e-05 0)
(0.994393 3.47835e-05 0)
(0.994326 3.3562e-05 0)
(0.994261 3.24255e-05 0)
(0.994198 3.13779e-05 0)
(0.994138 3.04133e-05 0)
(0.994079 2.95181e-05 0)
(0.994023 2.86746e-05 0)
(0.993967 2.78659e-05 0)
(0.993914 2.70795e-05 0)
(0.993862 2.63085e-05 0)
(0.993812 2.55523e-05 0)
(0.993763 2.48142e-05 0)
(0.993715 2.40991e-05 0)
(0.993669 2.34119e-05 0)
(0.993625 2.27551e-05 0)
(0.993582 2.21285e-05 0)
(0.99354 2.15298e-05 0)
(0.993499 2.09549e-05 0)
(0.993459 2.0399e-05 0)
(0.975981 0.000230638 0)
(0.975835 0.000217349 0)
(0.975698 0.000204219 0)
(0.975569 0.000191866 0)
(0.975448 0.000180579 0)
(0.975334 0.000170308 0)
(0.975227 0.000160857 0)
(0.975126 0.000152098 0)
(0.975031 0.000144038 0)
(0.974941 0.000136752 0)
(0.974856 0.000130276 0)
(0.974774 0.000124551 0)
(0.974697 0.00011943 0)
(0.974623 0.000114746 0)
(0.974552 0.00011036 0)
(0.974484 0.0001062 0)
(0.974418 0.000102251 0)
(0.974356 9.85311e-05 0)
(0.974295 9.50638e-05 0)
(0.974238 9.18551e-05 0)
(0.974182 8.8887e-05 0)
(0.974128 8.61205e-05 0)
(0.974076 8.35081e-05 0)
(0.974026 8.10049e-05 0)
(0.973978 7.85779e-05 0)
(0.973931 7.621e-05 0)
(0.973886 7.38989e-05 0)
(0.973842 7.16522e-05 0)
(0.9738 6.94817e-05 0)
(0.97376 6.73974e-05 0)
(0.97372 6.54041e-05 0)
(0.973682 6.34997e-05 0)
(0.973645 6.16767e-05 0)
(0.973609 5.99233e-05 0)
(0.973575 5.82277e-05 0)
(0.935914 0.000380188 0)
(0.935774 0.000357408 0)
(0.935644 0.000335156 0)
(0.935523 0.000314342 0)
(0.93541 0.000295354 0)
(0.935305 0.000278073 0)
(0.935206 0.000262182 0)
(0.935114 0.00024748 0)
(0.935028 0.000233965 0)
(0.934947 0.00022173 0)
(0.934871 0.000210803 0)
(0.9348 0.000201071 0)
(0.934732 0.000192302 0)
(0.934668 0.000184241 0)
(0.934607 0.000176687 0)
(0.93455 0.000169537 0)
(0.934495 0.000162769 0)
(0.934443 0.000156409 0)
(0.934394 0.000150482 0)
(0.934347 0.000144991 0)
(0.934302 0.0001399 0)
(0.93426 0.000135146 0)
(0.934219 0.000130658 0)
(0.93418 0.00012637 0)
(0.934142 0.000122234 0)
(0.934107 0.000118228 0)
(0.934072 0.000114346 0)
(0.93404 0.000110598 0)
(0.934008 0.000106997 0)
(0.933978 0.000103552 0)
(0.933949 0.000100268 0)
(0.933921 9.71359e-05 0)
(0.933895 9.41436e-05 0)
(0.933869 9.12733e-05 0)
(0.933845 8.85072e-05 0)
(0.875812 0.000521769 0)
(0.875686 0.000488274 0)
(0.875572 0.000456057 0)
(0.875467 0.000426158 0)
(0.875372 0.000398941 0)
(0.875284 0.000374168 0)
(0.875205 0.000351409 0)
(0.875132 0.000330408 0)
(0.875065 0.000311148 0)
(0.875004 0.000293708 0)
(0.874948 0.000278074 0)
(0.874896 0.000264063 0)
(0.874848 0.00025137 0)
(0.874804 0.000239678 0)
(0.874763 0.000228752 0)
(0.874725 0.000218468 0)
(0.87469 0.000208799 0)
(0.874658 0.000199762 0)
(0.874628 0.000191372 0)
(0.8746 0.00018361 0)
(0.874573 0.000176419 0)
(0.874549 0.000169715 0)
(0.874526 0.000163406 0)
(0.874505 0.000157413 0)
(0.874485 0.000151681 0)
(0.874466 0.000146179 0)
(0.874449 0.000140899 0)
(0.874432 0.000135845 0)
(0.874417 0.000131022 0)
(0.874402 0.000126436 0)
(0.874389 0.000122079 0)
(0.874376 0.000117941 0)
(0.874364 0.000114 0)
(0.874352 0.000110237 0)
(0.874341 0.000106629 0)
(0.795701 0.000645646 0)
(0.795608 0.000599056 0)
(0.795528 0.000555105 0)
(0.79546 0.000514775 0)
(0.795401 0.000478267 0)
(0.795351 0.000445171 0)
(0.795309 0.000414949 0)
(0.795273 0.000387286 0)
(0.795243 0.000362113 0)
(0.795217 0.000339433 0)
(0.795196 0.000319138 0)
(0.795178 0.000300951 0)
(0.795164 0.000284497 0)
(0.795152 0.000269415 0)
(0.795142 0.00025544 0)
(0.795134 0.00024243 0)
(0.795129 0.000230331 0)
(0.795124 0.000219129 0)
(0.795121 0.000208802 0)
(0.79512 0.000199298 0)
(0.795119 0.000190531 0)
(0.795119 0.000182397 0)
(0.79512 0.000174792 0)
(0.795121 0.000167628 0)
(0.795123 0.000160841 0)
(0.795126 0.000154395 0)
(0.795129 0.000148269 0)
(0.795132 0.000142456 0)
(0.795136 0.000136949 0)
(0.79514 0.000131741 0)
(0.795144 0.000126817 0)
(0.795148 0.00012216 0)
(0.795153 0.000117746 0)
(0.795157 0.000113551 0)
(0.795162 0.000109554 0)
(0.695705 0.000726085 0)
(0.695683 0.000663108 0)
(0.695674 0.000605464 0)
(0.695675 0.000553739 0)
(0.695683 0.000507711 0)
(0.695698 0.000466648 0)
(0.695717 0.000429801 0)
(0.69574 0.000396686 0)
(0.695764 0.000367057 0)
(0.695791 0.000340724 0)
(0.695818 0.000317403 0)
(0.695846 0.000296684 0)
(0.695874 0.000278112 0)
(0.695903 0.00026128 0)
(0.695932 0.000245894 0)
(0.69596 0.000231769 0)
(0.695988 0.000218807 0)
(0.696016 0.000206939 0)
(0.696043 0.000196098 0)
(0.69607 0.000186192 0)
(0.696096 0.000177115 0)
(0.696122 0.000168749 0)
(0.696147 0.000160989 0)
(0.696172 0.000153741 0)
(0.696196 0.000146941 0)
(0.696219 0.000140539 0)
(0.696242 0.000134507 0)
(0.696264 0.000128822 0)
(0.696286 0.000123469 0)
(0.696307 0.00011843 0)
(0.696327 0.000113689 0)
(0.696347 0.000109222 0)
(0.696366 0.000105009 0)
(0.696385 0.000101026 0)
(0.696404 9.72519e-05 0)
(0.576164 0.000709271 0)
(0.576263 0.0006315 0)
(0.576363 0.000563694 0)
(0.576463 0.00050522 0)
(0.576561 0.000454889 0)
(0.576657 0.000411318 0)
(0.576748 0.000373325 0)
(0.576836 0.000340083 0)
(0.576919 0.000311034 0)
(0.576998 0.000285717 0)
(0.577073 0.000263647 0)
(0.577145 0.000244305 0)
(0.577213 0.00022719 0)
(0.577277 0.000211887 0)
(0.577339 0.000198087 0)
(0.577398 0.000185586 0)
(0.577454 0.000174249 0)
(0.577507 0.000163973 0)
(0.577558 0.000154662 0)
(0.577607 0.000146214 0)
(0.577653 0.000138522 0)
(0.577698 0.000131481 0)
(0.57774 0.000124994 0)
(0.577781 0.00011898 0)
(0.577821 0.000113374 0)
(0.577858 0.00010813 0)
(0.577895 0.000103215 0)
(0.57793 9.86042e-05 0)
(0.577963 9.42789e-05 0)
(0.577995 9.02236e-05 0)
(0.578027 8.64206e-05 0)
(0.578056 8.28538e-05 0)
(0.578085 7.95032e-05 0)
(0.578113 7.63509e-05 0)
(0.57814 7.33764e-05 0)
(0.437666 0.00053607 0)
(0.437885 0.000462738 0)
(0.438084 0.000402614 0)
(0.438266 0.000353261 0)
(0.438432 0.00031244 0)
(0.438584 0.000278263 0)
(0.438722 0.000249315 0)
(0.438849 0.000224622 0)
(0.438966 0.000203505 0)
(0.439074 0.000185426 0)
(0.439173 0.000169891 0)
(0.439266 0.00015644 0)
(0.439352 0.000144665 0)
(0.439432 0.000134241 0)
(0.439508 0.00012493 0)
(0.439578 0.000116568 0)
(0.439645 0.000109042 0)
(0.439707 0.000102266 0)
(0.439766 9.61621e-05 0)
(0.439822 9.06551e-05 0)
(0.439875 8.5667e-05 0)
(0.439925 8.11237e-05 0)
(0.439973 7.69557e-05 0)
(0.440019 7.31061e-05 0)
(0.440062 6.95282e-05 0)
(0.440104 6.61897e-05 0)
(0.440143 6.30664e-05 0)
(0.440181 6.01435e-05 0)
(0.440217 5.74083e-05 0)
(0.440252 5.48519e-05 0)
(0.440285 5.24627e-05 0)
(0.440317 5.02305e-05 0)
(0.440347 4.81412e-05 0)
(0.440377 4.61824e-05 0)
(0.440405 4.43387e-05 0)
(0.280712 0.000253505 0)
(0.280953 0.000213183 0)
(0.281163 0.000181863 0)
(0.281346 0.000157185 0)
(0.281508 0.000137382 0)
(0.281652 0.000121179 0)
(0.28178 0.000107709 0)
(0.281896 9.64035e-05 0)
(0.282 8.68752e-05 0)
(0.282095 7.88187e-05 0)
(0.282182 7.1965e-05 0)
(0.282262 6.60722e-05 0)
(0.282335 6.09388e-05 0)
(0.282403 5.64096e-05 0)
(0.282467 5.23771e-05 0)
(0.282526 4.87681e-05 0)
(0.282581 4.55341e-05 0)
(0.282633 4.26354e-05 0)
(0.282681 4.0037e-05 0)
(0.282727 3.77013e-05 0)
(0.28277 3.55925e-05 0)
(0.282811 3.36736e-05 0)
(0.28285 3.19141e-05 0)
(0.282887 3.02868e-05 0)
(0.282921 2.87737e-05 0)
(0.282955 2.73604e-05 0)
(0.282986 2.60397e-05 0)
(0.283017 2.4805e-05 0)
(0.283045 2.36535e-05 0)
(0.283073 2.25799e-05 0)
(0.283099 2.15809e-05 0)
(0.283124 2.06493e-05 0)
(0.283148 1.97803e-05 0)
(0.283172 1.89656e-05 0)
(0.283194 1.82e-05 0)
(0.105323 2.71576e-05 0)
(0.105446 2.23494e-05 0)
(0.10555 1.87946e-05 0)
(0.105639 1.60932e-05 0)
(0.105717 1.39793e-05 0)
(0.105785 1.22802e-05 0)
(0.105845 1.08815e-05 0)
(0.105898 9.71173e-06 0)
(0.105947 8.73083e-06 0)
(0.10599 7.91267e-06 0)
(0.106029 7.23058e-06 0)
(0.106066 6.6541e-06 0)
(0.106099 6.15304e-06 0)
(0.10613 5.70472e-06 0)
(0.106158 5.29627e-06 0)
(0.106185 4.92419e-06 0)
(0.106209 4.58907e-06 0)
(0.106232 4.29222e-06 0)
(0.106254 4.03173e-06 0)
(0.106274 3.80315e-06 0)
(0.106294 3.59934e-06 0)
(0.106312 3.41359e-06 0)
(0.106329 3.23989e-06 0)
(0.106345 3.07518e-06 0)
(0.106361 2.91787e-06 0)
(0.106375 2.76875e-06 0)
(0.106389 2.62857e-06 0)
(0.106403 2.49884e-06 0)
(0.106415 2.3796e-06 0)
(0.106427 2.27099e-06 0)
(0.106439 2.17151e-06 0)
(0.10645 2.08017e-06 0)
(0.10646 1.99487e-06 0)
(0.106471 1.91466e-06 0)
(0.10648 1.83794e-06 0)
(0.106489 -1.76141e-06 0)
(0.106498 -1.69088e-06 0)
(0.106507 -1.62314e-06 0)
(0.106515 -1.55837e-06 0)
(0.106523 -1.49658e-06 0)
(0.106531 -1.43799e-06 0)
(0.106538 -1.38251e-06 0)
(0.106545 -1.3302e-06 0)
(0.106552 -1.28079e-06 0)
(0.106558 -1.23419e-06 0)
(0.283215 -1.74443e-05 0)
(0.283235 -1.67578e-05 0)
(0.283255 -1.61043e-05 0)
(0.283274 -1.5481e-05 0)
(0.283292 -1.48857e-05 0)
(0.283309 -1.43172e-05 0)
(0.283326 -1.37748e-05 0)
(0.283342 -1.32581e-05 0)
(0.283358 -1.27665e-05 0)
(0.283373 -1.22993e-05 0)
(0.440431 -4.25136e-05 0)
(0.440457 -4.08606e-05 0)
(0.440483 -3.92887e-05 0)
(0.440507 -3.77902e-05 0)
(0.44053 -3.63595e-05 0)
(0.440552 -3.49929e-05 0)
(0.440574 -3.36877e-05 0)
(0.440595 -3.24422e-05 0)
(0.440615 -3.12548e-05 0)
(0.440634 -3.01237e-05 0)
(0.578165 -7.04111e-05 0)
(0.57819 -6.77331e-05 0)
(0.578214 -6.51838e-05 0)
(0.578237 -6.27516e-05 0)
(0.57826 -6.04281e-05 0)
(0.578281 -5.82066e-05 0)
(0.578302 -5.60829e-05 0)
(0.578323 -5.40533e-05 0)
(0.578342 -5.21147e-05 0)
(0.578361 -5.0264e-05 0)
(0.696421 -9.34403e-05 0)
(0.696438 -9.00124e-05 0)
(0.696454 -8.67385e-05 0)
(0.696471 -8.36069e-05 0)
(0.696487 -8.06086e-05 0)
(0.696502 -7.77371e-05 0)
(0.696517 -7.49872e-05 0)
(0.696531 -7.23545e-05 0)
(0.696545 -6.98347e-05 0)
(0.696559 -6.74236e-05 0)
(0.795166 -0.000105434 0)
(0.795171 -0.000101757 0)
(0.795175 -9.82279e-05 0)
(0.79518 -9.48364e-05 0)
(0.795185 -9.15773e-05 0)
(0.795189 -8.84461e-05 0)
(0.795194 -8.54397e-05 0)
(0.795199 -8.25543e-05 0)
(0.795203 -7.97861e-05 0)
(0.795208 -7.713e-05 0)
(0.874331 -0.000102791 0)
(0.874321 -9.9421e-05 0)
(0.874312 -9.61643e-05 0)
(0.874303 -9.30165e-05 0)
(0.874295 -8.99761e-05 0)
(0.874287 -8.70429e-05 0)
(0.874279 -8.42166e-05 0)
(0.874272 -8.1496e-05 0)
(0.874265 -7.88784e-05 0)
(0.874258 -7.63595e-05 0)
(0.93382 -8.54076e-05 0)
(0.933798 -8.27784e-05 0)
(0.933775 -8.02204e-05 0)
(0.933754 -7.77324e-05 0)
(0.933734 -7.53159e-05 0)
(0.933714 -7.29737e-05 0)
(0.933695 -7.07082e-05 0)
(0.933677 -6.85202e-05 0)
(0.933659 -6.64089e-05 0)
(0.933642 -6.43713e-05 0)
(0.973541 -5.61188e-05 0)
(0.973509 -5.4474e-05 0)
(0.973477 -5.28646e-05 0)
(0.973447 -5.12906e-05 0)
(0.973417 -4.97545e-05 0)
(0.973389 -4.82596e-05 0)
(0.973361 -4.68085e-05 0)
(0.973334 -4.54029e-05 0)
(0.973308 -4.40428e-05 0)
(0.973283 -4.27265e-05 0)
(0.993421 -1.93786e-05 0)
(0.993383 -1.88107e-05 0)
(0.993347 -1.82528e-05 0)
(0.993312 -1.77053e-05 0)
(0.993277 -1.71692e-05 0)
(0.993244 -1.66458e-05 0)
(0.993212 -1.61363e-05 0)
(0.99318 -1.56411e-05 0)
(0.99315 -1.51601e-05 0)
(0.99312 -1.46927e-05 0)
(0.993421 1.98581e-05 0)
(0.993383 1.93293e-05 0)
(0.993347 1.88112e-05 0)
(0.993312 1.83037e-05 0)
(0.993277 1.78078e-05 0)
(0.993244 1.7325e-05 0)
(0.993212 1.68569e-05 0)
(0.993181 1.64045e-05 0)
(0.99315 1.59686e-05 0)
(0.993121 1.55488e-05 0)
(0.973541 5.6579e-05 0)
(0.973509 5.49703e-05 0)
(0.973478 5.33978e-05 0)
(0.973447 5.18616e-05 0)
(0.973418 5.03641e-05 0)
(0.973389 4.89085e-05 0)
(0.973361 4.7498e-05 0)
(0.973335 4.61346e-05 0)
(0.973309 4.48186e-05 0)
(0.973283 4.35489e-05 0)
(0.933821 8.583e-05 0)
(0.933798 8.32314e-05 0)
(0.933776 8.07055e-05 0)
(0.933755 7.82513e-05 0)
(0.933734 7.58702e-05 0)
(0.933715 7.35652e-05 0)
(0.933696 7.13383e-05 0)
(0.933677 6.91908e-05 0)
(0.93366 6.71215e-05 0)
(0.933643 6.51279e-05 0)
(0.874331 0.000103159 0)
(0.874322 9.98125e-05 0)
(0.874312 9.65824e-05 0)
(0.874304 9.34633e-05 0)
(0.874295 9.04544e-05 0)
(0.874288 8.75545e-05 0)
(0.87428 8.47639e-05 0)
(0.874273 8.20802e-05 0)
(0.874266 7.95011e-05 0)
(0.87426 7.70213e-05 0)
(0.795167 0.000105734 0)
(0.795171 0.000102075 0)
(0.795176 9.85662e-05 0)
(0.795181 9.51983e-05 0)
(0.795186 9.19653e-05 0)
(0.79519 8.88629e-05 0)
(0.795195 8.58868e-05 0)
(0.7952 8.30332e-05 0)
(0.795205 8.02972e-05 0)
(0.795209 7.76738e-05 0)
(0.696421 9.36653e-05 0)
(0.696439 9.02506e-05 0)
(0.696455 8.69914e-05 0)
(0.696472 8.38781e-05 0)
(0.696488 8.08995e-05 0)
(0.696503 7.80507e-05 0)
(0.696518 7.53237e-05 0)
(0.696533 7.27157e-05 0)
(0.696547 7.02199e-05 0)
(0.696561 6.78337e-05 0)
(0.578166 7.0563e-05 0)
(0.578191 6.7893e-05 0)
(0.578215 6.5354e-05 0)
(0.578238 6.29331e-05 0)
(0.578261 6.0623e-05 0)
(0.578283 5.84158e-05 0)
(0.578304 5.63079e-05 0)
(0.578324 5.42939e-05 0)
(0.578344 5.2372e-05 0)
(0.578363 5.05371e-05 0)
(0.440432 4.25988e-05 0)
(0.440458 4.09494e-05 0)
(0.440483 3.93826e-05 0)
(0.440508 3.78892e-05 0)
(0.440531 3.64654e-05 0)
(0.440553 3.51057e-05 0)
(0.440575 3.38092e-05 0)
(0.440596 3.2572e-05 0)
(0.440616 3.13941e-05 0)
(0.440636 3.02717e-05 0)
(0.283215 1.74762e-05 0)
(0.283236 1.67905e-05 0)
(0.283255 1.61376e-05 0)
(0.283274 1.55162e-05 0)
(0.283292 1.49226e-05 0)
(0.28331 1.43574e-05 0)
(0.283327 1.38181e-05 0)
(0.283343 1.33055e-05 0)
(0.283359 1.28175e-05 0)
(0.283374 1.23546e-05 0)
(0.10649 1.76455e-06 0)
(0.106499 1.69366e-06 0)
(0.106507 1.6258e-06 0)
(0.106515 1.56059e-06 0)
(0.106523 1.49879e-06 0)
(0.106531 1.44e-06 0)
(0.106538 1.38484e-06 0)
(0.106545 1.33265e-06 0)
(0.106552 1.28384e-06 0)
(0.106559 1.23755e-06 0)
(0.106565 -1.18999e-06 0)
(0.106571 -1.14806e-06 0)
(0.106577 -1.10799e-06 0)
(0.106582 -1.0697e-06 0)
(0.106588 -1.03286e-06 0)
(0.106593 -9.97452e-07 0)
(0.106598 -9.63251e-07 0)
(0.106603 -9.30333e-07 0)
(0.106608 -8.98521e-07 0)
(0.106612 -8.67943e-07 0)
(0.106617 -8.38445e-07 0)
(0.106621 -8.10163e-07 0)
(0.106625 -7.82935e-07 0)
(0.106629 -7.56883e-07 0)
(0.106633 -7.31823e-07 0)
(0.106637 -7.07856e-07 0)
(0.10664 -6.84781e-07 0)
(0.106644 -6.62684e-07 0)
(0.106647 -6.41358e-07 0)
(0.106651 -6.20891e-07 0)
(0.106654 -6.01082e-07 0)
(0.106657 -5.82032e-07 0)
(0.10666 -5.63559e-07 0)
(0.106663 -5.45783e-07 0)
(0.106666 -5.28527e-07 0)
(0.106668 -5.11946e-07 0)
(0.106671 -4.9586e-07 0)
(0.106673 -4.80427e-07 0)
(0.106676 -4.65466e-07 0)
(0.106678 -4.5114e-07 0)
(0.106681 -4.37253e-07 0)
(0.106683 -4.23969e-07 0)
(0.106685 -4.11082e-07 0)
(0.106687 -3.98783e-07 0)
(0.106689 -3.86899e-07 0)
(0.283387 -1.18554e-05 0)
(0.283401 -1.14335e-05 0)
(0.283415 -1.10318e-05 0)
(0.283428 -1.06488e-05 0)
(0.283441 -1.02826e-05 0)
(0.283453 -9.93152e-06 0)
(0.283464 -9.59418e-06 0)
(0.283476 -9.26946e-06 0)
(0.283487 -8.9564e-06 0)
(0.283497 -8.65448e-06 0)
(0.283508 -8.36321e-06 0)
(0.283518 -8.08243e-06 0)
(0.283527 -7.81188e-06 0)
(0.283536 -7.55149e-06 0)
(0.283545 -7.30096e-06 0)
(0.283554 -7.0601e-06 0)