/*--------------------------------*- C++ -*----------------------------------*\
| =========                 |                                                 |
| \\      /  F ield         | OpenFOAM: The Open Source CFD Toolbox           |
|  \\    /   O peration     | Version:  2406                                  |
|   \\  /    A nd           | Website:  www.openfoam.com                      |
|    \\/     M anipulation  |                                                 |
\*---------------------------------------------------------------------------*/
FoamFile
{
    version     2.0;
    format      ascii;
    arch        "LSB;label=32;scalar=64";
    class       volScalarField;
    location    "92";
    object      p;
}
// * * * * * * * * * * * * * * * * * * * * * * * * * * * * * * * * * * * * * //

dimensions      [0 2 -2 0 0 0 0];

internalField   nonuniform List<scalar> 
1916
(
61.9206
61.9112
61.899
61.8861
61.8725
61.8581
61.8433
61.8281
61.8128
61.7973
61.7817
61.766
61.7503
61.7345
61.7187
61.7028
61.687
61.6712
61.6553
61.6395
61.6237
61.608
61.5924
61.5769
61.5616
61.5464
61.5316
61.5171
61.5032
61.4899
61.4774
61.466
61.4561
61.448
61.4422
61.4393
61.44
61.445
61.4549
61.4704
61.4919
61.5192
61.5513
61.5867
61.6225
61.6542
61.6711
61.9277
61.9137
61.8992
61.8859
61.8724
61.8579
61.843
61.8279
61.8126
61.7971
61.7816
61.7659
61.7502
61.7344
61.7186
61.7028
61.6869
61.6711
61.6553
61.6395
61.6237
61.608
61.5923
61.5768
61.5615
61.5463
61.5314
61.5169
61.5029
61.4896
61.477
61.4656
61.4556
61.4475
61.4417
61.439
61.44
61.4456
61.4567
61.474
61.498
61.5285
61.5646
61.604
61.6438
61.6805
61.7004
61.9323
61.9151
61.8985
61.8852
61.872
61.8577
61.8427
61.8276
61.8123
61.7969
61.7814
61.7657
61.75
61.7343
61.7185
61.7026
61.6868
61.6709
61.6551
61.6392
61.6234
61.6076
61.5919
61.5762
61.5607
61.5453
61.5301
61.5151
61.5006
61.4865
61.473
61.4604
61.4489
61.4389
61.4309
61.4255
61.4235
61.4259
61.4339
61.4488
61.4718
61.5038
61.5448
61.5933
61.6456
61.6977
61.7219
61.9356
61.9169
61.8988
61.885
61.8718
61.8574
61.8424
61.8272
61.812
61.7966
61.7811
61.7655
61.7498
61.734
61.7182
61.7024
61.6865
61.6706
61.6546
61.6387
61.6227
61.6067
61.5907
61.5747
61.5587
61.5427
61.5267
61.5107
61.4947
61.4788
61.4629
61.4472
61.4317
61.4166
61.402
61.3883
61.3761
61.3663
61.36
61.3592
61.3662
61.3842
61.4164
61.4655
61.5285
61.5994
61.6138
61.9381
61.9188
61.8996
61.8851
61.8717
61.8572
61.8421
61.8268
61.8116
61.7962
61.7807
61.7651
61.7494
61.7336
61.7178
61.7019
61.686
61.67
61.6539
61.6378
61.6216
61.6052
61.5888
61.5723
61.5555
61.5385
61.5212
61.5035
61.4853
61.4664
61.4466
61.4257
61.4034
61.3793
61.353
61.3242
61.2925
61.2578
61.2202
61.1807
61.1413
61.1062
61.0806
61.074
61.0844
61.1139
61.0189
61.9401
61.9204
61.9004
61.8853
61.8717
61.8571
61.8418
61.8265
61.8112
61.7958
61.7803
61.7647
61.749
61.7332
61.7173
61.7014
61.6853
61.6692
61.653
61.6366
61.6201
61.6034
61.5864
61.5692
61.5515
61.5332
61.5142
61.4943
61.4731
61.4503
61.4252
61.3974
61.3658
61.3294
61.2868
61.2362
61.1755
61.102
61.0128
60.9046
60.7741
60.619
60.4352
60.2255
59.9549
59.6139
58.7061
61.9416
61.9217
61.9012
61.8857
61.8718
61.8571
61.8417
61.8262
61.8109
61.7955
61.7799
61.7643
61.7486
61.7327
61.7168
61.7008
61.6846
61.6684
61.652
61.6354
61.6185
61.6013
61.5838
61.5657
61.547
61.5274
61.5065
61.4841
61.4596
61.4324
61.4015
61.3658
61.3237
61.2731
61.2112
61.1343
61.0375
60.9143
60.7558
60.5499
60.2793
59.9209
59.4314
58.7722
57.7391
56.4418
51.6388
61.9426
61.9226
61.9019
61.886
61.8719
61.857
61.8415
61.826
61.8106
61.7952
61.7796
61.7639
61.7482
61.7323
61.7163
61.7002
61.684
61.6676
61.651
61.6342
61.617
61.5994
61.5813
61.5625
61.5427
61.5218
61.4992
61.4745
61.4468
61.4154
61.3789
61.3356
61.2832
61.2186
61.1374
61.0339
60.8998
60.7235
60.4885
60.1701
59.7292
59.1055
58.1718
56.7331
53.9546
48.6434
30.3055
61.9432
61.9232
61.9023
61.8862
61.872
61.857
61.8414
61.8258
61.8104
61.7949
61.7793
61.7636
61.7478
61.7319
61.7159
61.6997
61.6834
61.6669
61.6502
61.6332
61.6157
61.5978
61.5792
61.5598
61.5393
61.5173
61.4934
61.4668
61.4367
61.402
61.3611
61.3117
61.2511
61.1752
61.0784
60.9529
60.7876
60.5662
60.2647
59.8462
59.2506
58.3796
57.0422
54.9092
51.1451
44.5843
32.7507
61.9435
61.9235
61.9024
61.8863
61.8719
61.8569
61.8413
61.8257
61.8102
61.7947
61.7791
61.7634
61.7476
61.7316
61.7156
61.6994
61.683
61.6665
61.6496
61.6325
61.6149
61.5968
61.578
61.5582
61.5373
61.5147
61.49
61.4624
61.4309
61.3944
61.3509
61.2983
61.233
61.1508
61.0451
60.9071
60.7239
60.4764
60.1362
59.6591
58.9742
57.9663
56.4399
54.0752
50.3622
44.5306
36.1771
61.9434
61.9234
61.9023
61.8862
61.8718
61.8568
61.8412
61.8256
61.8101
61.7946
61.779
61.7632
61.7474
61.7315
61.7154
61.6992
61.6828
61.6662
61.6494
61.6323
61.6146
61.5965
61.5776
61.5579
61.5369
61.5143
61.4896
61.4619
61.4304
61.3938
61.3503
61.2975
61.2322
61.1497
61.0439
60.9057
60.7221
60.4742
60.1333
59.655
58.9682
57.957
56.4245
54.0483
50.3154
44.4466
36.0476
61.9429
61.9229
61.902
61.8859
61.8717
61.8567
61.8411
61.8255
61.81
61.7945
61.7789
61.7632
61.7474
61.7315
61.7154
61.6992
61.6828
61.6663
61.6495
61.6324
61.6149
61.5969
61.5783
61.5588
61.5382
61.5161
61.4921
61.4653
61.4351
61.4002
61.359
61.3095
61.2486
61.1722
61.0749
60.9488
60.7825
60.5599
60.2565
59.8349
59.2343
58.3548
57.0015
54.8373
51.0063
44.2981
32.1841
61.9421
61.9222
61.9014
61.8855
61.8714
61.8565
61.841
61.8255
61.8101
61.7946
61.779
61.7633
61.7475
61.7316
61.7155
61.6994
61.6831
61.6666
61.6499
61.633
61.6157
61.598
61.5798
61.5608
61.5409
61.5198
61.4971
61.4721
61.4442
61.4125
61.3757
61.332
61.2791
61.2139
61.132
61.0275
60.8921
60.7141
60.4765
60.1542
59.7073
59.0738
58.1224
56.6523
53.7958
48.3078
29.2087
61.9409
61.9211
61.9006
61.8851
61.8711
61.8564
61.841
61.8255
61.8102
61.7947
61.7791
61.7634
61.7477
61.7318
61.7158
61.6996
61.6834
61.6671
61.6506
61.6338
61.6168
61.5995
61.5818
61.5636
61.5446
61.5248
61.5037
61.481
61.4562
61.4286
61.3973
61.3611
61.3184
61.2671
61.2043
61.1264
61.0282
60.9031
60.742
60.5325
60.2566
59.8903
59.3885
58.7107
57.6435
56.3053
51.3153
61.9393
61.9197
61.8997
61.8846
61.8709
61.8563
61.841
61.8256
61.8103
61.7949
61.7793
61.7637
61.7479
61.732
61.7161
61.7
61.6839
61.6676
61.6513
61.6348
61.6181
61.6012
61.584
61.5665
61.5486
61.5301
61.5108
61.4905
61.469
61.4457
61.4202
61.3918
61.3596
61.3225
61.279
61.2274
61.1653
61.0901
60.9988
60.8879
60.7537
60.5936
60.4033
60.1851
59.9021
59.5452
58.5982
61.9373
61.918
61.8987
61.8842
61.8708
61.8563
61.8411
61.8259
61.8106
61.7952
61.7796
61.7639
61.7482
61.7323
61.7164
61.7004
61.6843
61.6682
61.652
61.6357
61.6193
61.6028
61.5861
61.5693
61.5523
61.535
61.5174
61.4993
61.4807
61.4613
61.441
61.4195
61.3966
61.3718
61.3447
61.3149
61.2821
61.246
61.2069
61.1656
61.1241
61.0865
61.0583
61.0491
61.0569
61.0845
60.9846
61.9346
61.916
61.8979
61.8841
61.8708
61.8564
61.8414
61.8262
61.8109
61.7955
61.7799
61.7642
61.7484
61.7326
61.7167
61.7007
61.6847
61.6686
61.6525
61.6364
61.6202
61.604
61.5878
61.5715
61.5552
61.5389
61.5226
61.5062
61.4898
61.4734
61.457
61.4408
61.4246
61.4088
61.3935
61.379
61.3659
61.3551
61.3478
61.3459
61.3519
61.369
61.4005
61.4494
61.5127
61.5844
61.5984
61.9314
61.9141
61.8975
61.8842
61.871
61.8566
61.8417
61.8265
61.8112
61.7958
61.7801
61.7644
61.7486
61.7328
61.7169
61.7009
61.685
61.6689
61.6529
61.6369
61.6209
61.6048
61.5889
61.5729
61.5571
61.5414
61.5258
61.5105
61.4955
61.4809
61.467
61.4538
61.4418
61.4311
61.4224
61.4163
61.4136
61.4153
61.4226
61.4369
61.4594
61.4911
61.5321
61.581
61.6339
61.6868
61.7112
61.9267
61.9127
61.8982
61.8849
61.8713
61.8569
61.842
61.8268
61.8114
61.7959
61.7803
61.7646
61.7488
61.7329
61.717
61.7011
61.6851
61.6691
61.6531
61.6371
61.6211
61.6052
61.5893
61.5735
61.5579
61.5424
61.5272
61.5123
61.4978
61.484
61.471
61.459
61.4485
61.4397
61.4333
61.43
61.4303
61.4353
61.4459
61.4627
61.4864
61.5168
61.5529
61.5925
61.6328
61.6699
61.69
61.9196
61.9102
61.898
61.8851
61.8715
61.8571
61.8422
61.827
61.8116
61.7961
61.7804
61.7647
61.7489
61.733
61.7171
61.7011
61.6852
61.6692
61.6532
61.6372
61.6212
61.6053
61.5894
61.5736
61.558
61.5425
61.5273
61.5125
61.4981
61.4843
61.4714
61.4595
61.449
61.4403
61.4339
61.4304
61.4305
61.4348
61.4442
61.4593
61.4805
61.5075
61.5397
61.5751
61.6112
61.6432
61.6603
-10.0725
-9.09255
-1.30724
0.310761
-0.866851
-1.41797
13.413
5.12588
3.96824
2.53308
0.395423
-0.829556
23.0027
10.6872
4.73889
2.39618
0.548127
-0.931846
22.7468
10.2766
4.21256
1.7318
-0.346236
-2.10782
12.2416
3.58693
2.30073
0.614779
-2.08834
-4.0807
-13.284
-12.6904
-4.42272
-2.82593
-4.74104
-6.25649
-0.378034
-0.38148
-0.383862
-0.384046
-0.382532
-0.379512
-0.37504
-0.369207
-0.36214
-0.353974
-0.344826
-0.334785
-0.323917
-0.31228
-0.299952
-0.28705
-0.273733
-0.260203
-0.246684
-0.233401
-0.220553
-0.208321
-0.196849
-0.186247
-0.176577
-0.167858
-0.160076
-0.153186
-0.147111
-0.141744
-0.136955
-0.132616
-0.12858
-0.124692
-0.120805
-0.116776
-0.112466
-0.107737
-0.102458
-0.0964995
-0.0897471
-0.0820997
-0.0734302
-0.0636477
-0.0531019
-0.0410567
-0.0195391
-0.372771
-0.376426
-0.378972
-0.37946
-0.378494
-0.376063
-0.372106
-0.366679
-0.359918
-0.351988
-0.343042
-0.333211
-0.322571
-0.311175
-0.299094
-0.286437
-0.273353
-0.260036
-0.246675
-0.233486
-0.220649
-0.208395
-0.196892
-0.186249
-0.176537
-0.167731
-0.159822
-0.152794
-0.146594
-0.141137
-0.13624
-0.131855
-0.127792
-0.123871
-0.119937
-0.115848
-0.111474
-0.106726
-0.101457
-0.0955077
-0.0887015
-0.0809071
-0.0721603
-0.0625801
-0.0522315
-0.0410191
-0.0214683
-0.373542
-0.376917
-0.379372
-0.37987
-0.379072
-0.37675
-0.37277
-0.367214
-0.36027
-0.352175
-0.343144
-0.333345
-0.322842
-0.311642
-0.299797
-0.287356
-0.274405
-0.261096
-0.247615
-0.234222
-0.221208
-0.208769
-0.197118
-0.186297
-0.176345
-0.167269
-0.159143
-0.151961
-0.145667
-0.140125
-0.135187
-0.130802
-0.126767
-0.122858
-0.118912
-0.114855
-0.110649
-0.106117
-0.10107
-0.0952857
-0.0884764
-0.0804988
-0.07166
-0.0622022
-0.0516924
-0.0404171
-0.0233911
-0.391857
-0.392666
-0.39319
-0.392226
-0.390089
-0.386331
-0.380862
-0.373844
-0.365577
-0.35639
-0.34658
-0.336336
-0.325677
-0.314517
-0.30277
-0.290339
-0.277162
-0.263393
-0.2493
-0.235244
-0.221627
-0.208606
-0.196299
-0.184826
-0.174339
-0.164882
-0.156432
-0.149014
-0.142563
-0.136997
-0.132294
-0.128167
-0.12446
-0.120965
-0.117415
-0.113783
-0.110135
-0.106155
-0.10153
-0.0959731
-0.0892562
-0.0812845
-0.072356
-0.0628558
-0.0522613
-0.0410044
-0.0250704
-0.44395
-0.433036
-0.42482
-0.418494
-0.412298
-0.404933
-0.396175
-0.386233
-0.375474
-0.36429
-0.35305
-0.341976
-0.331031
-0.319922
-0.308245
-0.295612
-0.281843
-0.26722
-0.252148
-0.237142
-0.22261
-0.208592
-0.195108
-0.182647
-0.171496
-0.161535
-0.152403
-0.14431
-0.137659
-0.132376
-0.128137
-0.124343
-0.12101
-0.118189
-0.115578
-0.112856
-0.109988
-0.106736
-0.102809
-0.0979487
-0.0917485
-0.0837456
-0.0744546
-0.0646906
-0.0543836
-0.0429608
-0.0255787
-0.571897
-0.501203
-0.463375
-0.446756
-0.435093
-0.423451
-0.411159
-0.398274
-0.385083
-0.372009
-0.359478
-0.347775
-0.33682
-0.326066
-0.314724
-0.302074
-0.287805
-0.272164
-0.255777
-0.239365
-0.223366
-0.207839
-0.192963
-0.179401
-0.167371
-0.156543
-0.146501
-0.137817
-0.131305
-0.126508
-0.122582
-0.11918
-0.11645
-0.114745
-0.113617
-0.112167
-0.110212
-0.107993
-0.105354
-0.101694
-0.0960576
-0.087986
-0.0783504
-0.0681614
-0.056833
-0.0439289
-0.0250062
-0.830164
-0.546451
-0.448325
-0.436353
-0.426949
-0.415036
-0.40417
-0.393143
-0.381366
-0.369445
-0.358071
-0.347629
-0.337983
-0.328312
-0.31761
-0.305127
-0.290379
-0.273705
-0.256245
-0.23903
-0.222462
-0.206375
-0.190711
-0.175953
-0.162604
-0.150505
-0.139676
-0.13064
-0.123863
-0.119144
-0.115842
-0.113399
-0.111843
-0.111626
-0.112066
-0.112027
-0.111307
-0.110569
-0.109472
-0.106952
-0.102173
-0.0945469
-0.0844212
-0.0732575
-0.0607552
-0.0451555
-0.0232833
-0.994055
-0.59362
-0.50439
-0.512247
-0.498856
-0.474505
-0.454783
-0.43745
-0.419474
-0.401285
-0.383937
-0.367886
-0.35301
-0.338711
-0.323972
-0.307771
-0.289823
-0.271004
-0.252485
-0.234922
-0.218233
-0.201989
-0.186138
-0.170969
-0.15694
-0.144433
-0.133577
-0.124499
-0.117409
-0.112518
-0.109609
-0.108083
-0.107815
-0.108656
-0.11057
-0.112612
-0.113963
-0.114826
-0.114977
-0.113563
-0.109986
-0.10321
-0.092763
-0.0800269
-0.0650943
-0.0457629
-0.020316
-0.870428
-0.548006
-0.428843
-0.42994
-0.421788
-0.398933
-0.381559
-0.369969
-0.358702
-0.346716
-0.335303
-0.325271
-0.316528
-0.308447
-0.300086
-0.290484
-0.279035
-0.265486
-0.250092
-0.23364
-0.216804
-0.199907
-0.183076
-0.166706
-0.151922
-0.139204
-0.128297
-0.119314
-0.112425
-0.107651
-0.10518
-0.105005
-0.106328
-0.108488
-0.111698
-0.115413
-0.118545
-0.120672
-0.121598
-0.120891
-0.118008
-0.112103
-0.102262
-0.0886576
-0.0710089
-0.0475176
-0.0173021
-1.55429
-1.60175
-1.56027
-1.55463
-1.51595
-1.4216
-1.30243
-1.18072
-1.05981
-0.940063
-0.824918
-0.718066
-0.62152
-0.535942
-0.461268
-0.396923
-0.342026
-0.29598
-0.258759
-0.229862
-0.207076
-0.188119
-0.17191
-0.157835
-0.145493
-0.134525
-0.124869
-0.116885
-0.110631
-0.106258
-0.104265
-0.104847
-0.107128
-0.110478
-0.114678
-0.118869
-0.122474
-0.125259
-0.126792
-0.126679
-0.124344
-0.11922
-0.1103
-0.0962789
-0.0761564
-0.0496715
-0.0162554
-2.96354
-3.10395
-3.07643
-3.08644
-3.05964
-2.95435
-2.80472
-2.63882
-2.45831
-2.26089
-2.05083
-1.83479
-1.61817
-1.40537
-1.20068
-1.00834
-0.832038
-0.674687
-0.53794
-0.421602
-0.324646
-0.247366
-0.190398
-0.151745
-0.127084
-0.112178
-0.104257
-0.100993
-0.100061
-0.100086
-0.101169
-0.103405
-0.106529
-0.110529
-0.115161
-0.119721
-0.123992
-0.127522
-0.129664
-0.129916
-0.127589
-0.122248
-0.11309
-0.0987475
-0.0777972
-0.0517169
-0.0148922
-4.77268
-4.61948
-4.49512
-4.51156
-4.4815
-4.37051
-4.23231
-4.08772
-3.92577
-3.73733
-3.52258
-3.28426
-3.0246
-2.74686
-2.45676
-2.16154
-1.86767
-1.57939
-1.29923
-1.03023
-0.778748
-0.554515
-0.36694
-0.221048
-0.117316
-0.0528486
-0.0214793
-0.0135537
-0.0191309
-0.0310494
-0.0454162
-0.0597329
-0.0729864
-0.0851258
-0.0956819
-0.104414
-0.111324
-0.116253
-0.119264
-0.120373
-0.118958
-0.114302
-0.105695
-0.0925434
-0.0727398
-0.05041
-0.00905401
-6.55938
-5.97042
-5.76451
-5.80665
-5.78497
-5.68673
-5.57633
-5.46519
-5.33787
-5.18487
-5.0036
-4.79149
-4.54552
-4.26569
-3.95683
-3.62592
-3.277
-2.90823
-2.5142
-2.09197
-1.64763
-1.19908
-0.772907
-0.397863
-0.0978357
0.114522
0.241098
0.296341
0.300112
0.271466
0.225811
0.174278
0.123938
0.0785779
0.0402912
0.00925316
-0.0154897
-0.0353004
-0.0510378
-0.0627403
-0.0700522
-0.072848
-0.0710557
-0.064961
-0.0518406
-0.0401882
0.00190528
-6.60197
-6.04145
-5.83575
-5.83433
-5.83138
-5.81178
-5.79821
-5.7876
-5.76746
-5.72982
-5.669
-5.57675
-5.44445
-5.26848
-5.05324
-4.80643
-4.52897
-4.20865
-3.82137
-3.34076
-2.75423
-2.07614
-1.34949
-0.63637
-0.00115682
0.506976
0.864244
1.0722
1.151
1.13096
1.04488
0.922279
0.786431
0.653392
0.532278
0.42652
0.336012
0.259365
0.195314
0.142814
0.100664
0.0672863
0.0413778
0.0213836
0.00970728
-0.00506763
0.0164898
-6.03272
-5.91641
-5.85289
-5.82924
-5.8189
-5.81265
-5.81275
-5.81968
-5.82814
-5.83241
-5.82694
-5.80236
-5.74665
-5.65437
-5.53285
-5.39548
-5.2447
-5.05969
-4.79144
-4.37443
-3.75695
-2.92827
-1.92887
-0.844501
0.216896
1.15479
1.89707
2.40809
2.68803
2.76542
2.68543
2.49794
2.2489
1.9751
1.70207
1.44501
1.21148
1.00431
0.823693
0.668019
0.534588
0.420063
0.321316
0.234718
0.159761
0.0862839
0.0414831
-5.81056
-5.79765
-5.79157
-5.79021
-5.79267
-5.79739
-5.80384
-5.81158
-5.8186
-5.8224
-5.82022
-5.80561
-5.76712
-5.69862
-5.61231
-5.5316
-5.46916
-5.40852
-5.2832
-4.9853
-4.41635
-3.52814
-2.33909
-0.938186
0.538146
1.94405
3.154
4.08087
4.68589
4.97729
4.99736
4.80665
4.47075
4.04989
3.59237
3.13275
2.6933
2.28663
1.91847
1.58982
1.29849
1.0404
0.810917
0.604685
0.417256
0.241737
0.0823685
-5.71634
-5.72002
-5.72703
-5.73453
-5.74286
-5.75194
-5.76212
-5.77311
-5.78308
-5.78897
-5.78778
-5.77366
-5.73478
-5.66432
-5.57925
-5.50824
-5.47429
-5.47456
-5.44246
-5.24514
-4.74215
-3.84111
-2.53369
-0.905295
0.89594
2.69886
4.33915
5.68293
6.64941
7.21713
7.41141
7.2891
6.92592
6.40118
5.78456
5.13081
4.47927
3.85553
3.27426
2.74207
2.25966
1.82392
1.42981
1.07124
0.741211
0.43465
0.139832
-5.68535
-5.69174
-5.69951
-5.70691
-5.71446
-5.72179
-5.72887
-5.73538
-5.74015
-5.74114
-5.73603
-5.72085
-5.68758
-5.62853
-5.54924
-5.47295
-5.43119
-5.43168
-5.40302
-5.21455
-4.73977
-3.8446
-2.48181
-0.731778
1.25897
3.31418
5.24816
6.8928
8.13649
8.93514
9.29614
9.26453
8.91684
8.34226
7.62396
6.83124
6.01747
5.22005
4.46252
3.75744
3.10903
2.51654
1.97572
1.48048
1.02309
0.599059
0.189753
-5.68652
-5.69306
-5.70059
-5.70777
-5.71489
-5.72146
-5.72696
-5.73078
-5.73188
-5.72878
-5.71969
-5.70218
-5.67259
-5.62591
-5.55738
-5.46718
-5.36837
-5.28131
-5.18872
-4.98569
-4.49907
-3.5716
-2.16746
-0.368636
1.68117
3.8242
5.87858
7.65894
9.04041
9.96202
10.413
10.4322
10.0986
9.50423
8.73593
7.86927
6.965
6.06745
5.20565
4.39593
3.64404
2.95018
2.31256
1.72753
1.18696
0.692593
0.202632
-5.69632
-5.70255
-5.71041
-5.71833
-5.72641
-5.73423
-5.74111
-5.74624
-5.7486
-5.74693
-5.7396
-5.7244
-5.69836
-5.65741
-5.5954
-5.50365
-5.37208
-5.18819
-4.92867
-4.54503
-3.95415
-3.04729
-1.72851
0.00872075
2.04053
4.17741
6.21705
7.97122
9.34007
10.2864
10.7586
10.781
10.4425
9.8374
9.05225
8.16381
7.23467
6.31069
5.42201
4.58606
3.81121
3.09587
2.43279
1.81881
1.24934
0.730445
0.206655
)
;

boundaryField
{
    inlet
    {
        type            zeroGradient;
    }
    outlet
    {
        type            fixedValue;
        value           uniform 0;
    }
    upperWall
    {
        type            zeroGradient;
    }
    lowerWall
    {
        type            zeroGradient;
    }
    frontAndBack
    {
        type            empty;
    }
}


// ************************************************************************* //
