/*--------------------------------*- C++ -*----------------------------------*\
| =========                 |                                                 |
| \\      /  F ield         | OpenFOAM: The Open Source CFD Toolbox           |
|  \\    /   O peration     | Version:  2406                                  |
|   \\  /    A nd           | Website:  www.openfoam.com                      |
|    \\/     M anipulation  |                                                 |
\*---------------------------------------------------------------------------*/
FoamFile
{
    version     2.0;
    format      ascii;
    arch        "LSB;label=32;scalar=64";
    class       surfaceScalarField;
    location    "92";
    object      phi;
}
// * * * * * * * * * * * * * * * * * * * * * * * * * * * * * * * * * * * * * //

dimensions      [0 3 -1 0 0 0 0];

oriented        oriented;

internalField   nonuniform List<scalar> 
3698
(
0.0393486
-0.000348684
0.0397381
-0.00038979
0.0400204
-0.000282574
0.0402219
-0.000201728
0.0403752
-0.000153572
0.040493
-0.000117997
0.0405821
-8.93072e-05
0.0406499
-6.80006e-05
0.0407027
-5.30973e-05
0.0407449
-4.24066e-05
0.040779
-3.42746e-05
0.0408066
-2.77798e-05
0.0408288
-2.24128e-05
0.0408464
-1.77438e-05
0.0408596
-1.3458e-05
0.0408687
-9.25845e-06
0.0408734
-4.93111e-06
0.0408734
-1.95082e-07
0.040868
5.20948e-06
0.0408561
1.16564e-05
0.0408363
1.95446e-05
0.0408066
2.94478e-05
0.0407643
4.20253e-05
0.0407058
5.82127e-05
0.0406264
7.91502e-05
0.0405196
0.000106405
0.0403774
0.000141918
0.0401887
0.000188271
0.0399397
0.000248665
0.039612
0.000327223
0.0391826
0.000428977
0.038622
0.000560122
0.0378936
0.000727867
0.0369527
0.000940392
0.035746
0.00120614
0.0342126
0.00153288
0.0322866
0.00192552
0.0299028
0.00238322
0.0270076
0.00289464
0.0235747
0.00343228
0.0196283
0.00394583
0.0152723
0.00435542
0.010724
0.00454801
0.00635547
0.00436814
0.00272741
0.00362763
0.000628494
0.00209744
0.000628224
0.110825
-0.000174178
0.110773
-0.000337654
0.110824
-0.000333947
0.110913
-0.000291157
0.111013
-0.000254442
0.111115
-0.000220426
0.111212
-0.000186483
0.111299
-0.000155907
0.111377
-0.000130632
0.111444
-0.000109984
0.111502
-9.26565e-05
0.111552
-7.77511e-05
0.111593
-6.46422e-05
0.111628
-5.27644e-05
0.111656
-4.15357e-05
0.111677
-3.04175e-05
0.11169
-1.88619e-05
0.111696
-6.28715e-06
0.111693
8.02761e-06
0.111679
2.49517e-05
0.111653
4.5595e-05
0.11161
7.13372e-05
0.111548
0.000103981
0.11146
0.000145845
0.111338
0.000199998
0.111174
0.000270425
0.110953
0.000362357
0.110658
0.00048257
0.110266
0.00063986
0.109747
0.000845516
0.109061
0.00111396
0.108157
0.00146336
0.106968
0.00191627
0.105407
0.00249998
0.103366
0.00324655
0.100706
0.00419169
0.0972586
0.00537202
0.0928216
0.00681924
0.0871656
0.00854966
0.0800504
0.0105464
0.0712622
0.0127329
0.0606845
0.0149322
0.0484087
0.0168231
0.0348977
0.0178786
0.0210946
0.0174288
0.00855782
0.0146325
0.00918533
0.174916
-9.07563e-05
0.174802
-0.000223685
0.17473
-0.000261949
0.174694
-0.000255465
0.174681
-0.000242163
0.174687
-0.000226341
0.174706
-0.000205878
0.174733
-0.000183275
0.174764
-0.000161638
0.174795
-0.00014191
0.174826
-0.000123803
0.174855
-0.000106938
0.174881
-9.10304e-05
0.174904
-7.57086e-05
0.174923
-6.04705e-05
0.174937
-4.47237e-05
0.174946
-2.7809e-05
0.174948
-8.92747e-06
0.174943
1.29292e-05
0.174928
3.90696e-05
0.174902
7.1162e-05
0.174862
0.000111361
0.174803
0.000162452
0.174721
0.000228096
0.174607
0.000313099
0.174453
0.000423801
0.174247
0.000568519
0.173971
0.000758169
0.173603
0.00100702
0.173114
0.00133367
0.172465
0.00176225
0.171604
0.00232392
0.170461
0.00305848
0.168944
0.00401626
0.16693
0.0052598
0.164256
0.0068651
0.160706
0.00892121
0.155998
0.0115267
0.149766
0.0147803
0.141553
0.0187591
0.130804
0.0234808
0.116907
0.0288289
0.0992764
0.0344538
0.0775793
0.0395754
0.05202
0.0429874
0.0240046
0.0426443
0.0331898
0.230963
-5.42085e-05
0.230885
-0.000145773
0.230813
-0.000190458
0.230758
-0.000200666
0.230715
-0.000199224
0.230682
-0.00019333
0.230658
-0.000182389
0.230642
-0.000167632
0.230632
-0.000151625
0.230626
-0.000135783
0.230622
-0.000120304
0.23062
-0.000105048
0.230618
-8.986e-05
0.230617
-7.448e-05
0.230615
-5.84599e-05
0.230611
-4.12094e-05
0.230605
-2.2002e-05
0.230596
7.04682e-08
0.230582
2.62077e-05
0.230563
5.79847e-05
0.230537
9.74615e-05
0.2305
0.000147305
0.230452
0.000211009
0.230386
0.000293161
0.230299
0.000399837
0.230183
0.000539062
0.23003
0.000721452
0.229827
0.000961003
0.229557
0.00127618
0.229199
0.0016913
0.228722
0.00223835
0.228087
0.00295928
0.227235
0.00390898
0.226092
0.00515886
0.22455
0.00680132
0.22246
0.00895466
0.219612
0.0117684
0.215711
0.0154276
0.210337
0.0201537
0.202899
0.0261963
0.192569
0.0338103
0.178217
0.0431805
0.158346
0.0543244
0.131196
0.0667255
0.0949227
0.079259
0.0486047
0.0889623
0.0817918
0.27898
-3.46386e-05
0.278932
-9.72424e-05
0.278877
-0.000136307
0.278828
-0.00015201
0.278785
-0.000155879
0.278746
-0.000154415
0.278711
-0.000148377
0.278682
-0.000138461
0.278657
-0.000126438
0.278634
-0.000113651
0.278614
-0.000100536
0.278596
-8.70927e-05
0.278579
-7.32204e-05
0.278563
-5.86953e-05
0.278548
-4.31078e-05
0.278532
-2.58693e-05
0.278516
-6.23304e-06
0.278499
1.67647e-05
0.278481
4.43988e-05
0.27846
7.83685e-05
0.278437
0.000120902
0.278409
0.000174913
0.278375
0.000244213
0.278334
0.000333838
0.278283
0.000450458
0.278219
0.000602931
0.278137
0.00080301
0.278032
0.00106629
0.277894
0.00141349
0.277713
0.0018721
0.277472
0.00247871
0.277149
0.00328199
0.27671
0.00434676
0.276109
0.00575936
0.275275
0.00763484
0.274103
0.0101264
0.272433
0.0134381
0.27002
0.0178401
0.266484
0.0236895
0.26123
0.0314495
0.253321
0.0417189
0.241295
0.0552064
0.22282
0.0727999
0.19446
0.095085
0.150694
0.123025
0.0852719
0.154376
0.167063
0.318988
-2.2767e-05
0.318956
-6.54047e-05
0.318915
-9.55541e-05
0.318874
-0.000110824
0.318834
-0.000116451
0.318796
-0.000116913
0.318761
-0.000113414
0.318729
-0.000106498
0.3187
-9.731e-05
0.318673
-8.69177e-05
0.318648
-7.58117e-05
0.318625
-6.40857e-05
0.318603
-5.16765e-05
0.318582
-3.83938e-05
0.318563
-2.38721e-05
0.318545
-7.57342e-06
0.318527
1.12107e-05
0.31851
3.34015e-05
0.318494
6.02301e-05
0.318479
9.33395e-05
0.318465
0.0001349
0.318452
0.00018775
0.31844
0.000255619
0.31843
0.000343432
0.318422
0.000457735
0.318418
0.000607237
0.318417
0.000803541
0.318421
0.00106211
0.31843
0.0014036
0.318446
0.00185564
0.318469
0.00245531
0.318498
0.00325255
0.31853
0.00431483
0.318555
0.00573378
0.318555
0.00763439
0.318492
0.0101883
0.318297
0.0136327
0.317839
0.0182981
0.316878
0.0246499
0.314984
0.0333433
0.311368
0.0453344
0.304638
0.0619365
0.292147
0.0852906
0.269634
0.117599
0.227878
0.164776
0.154785
0.22747
0.321847
0.350992
-1.46913e-05
0.350969
-4.26557e-05
0.350937
-6.37727e-05
0.350902
-7.57838e-05
0.350866
-8.08918e-05
0.35083
-8.1742e-05
0.350796
-7.93973e-05
0.350764
-7.43282e-05
0.350734
-6.72604e-05
0.350706
-5.89385e-05
0.350679
-4.97821e-05
0.350655
-3.99109e-05
0.350632
-2.92887e-05
0.350612
-1.77566e-05
0.350593
-5.01348e-06
0.350575
9.39279e-06
0.35056
2.60637e-05
0.350548
4.57922e-05
0.350538
6.96373e-05
0.350532
9.90189e-05
0.350531
0.000135813
0.350536
0.000182485
0.350549
0.000242271
0.350573
0.000319454
0.350611
0.000419729
0.350667
0.000550692
0.350748
0.000722488
0.350861
0.000948695
0.351017
0.00124752
0.351228
0.00164347
0.351514
0.00216969
0.351895
0.00287122
0.352399
0.00380966
0.353063
0.00506987
0.353927
0.00676985
0.355039
0.00907528
0.35645
0.0122219
0.358198
0.0165493
0.360291
0.022557
0.362647
0.0309865
0.364987
0.0429947
0.366596
0.0603269
0.365665
0.0862219
0.357988
0.125275
0.330561
0.192204
0.253631
0.304399
0.575479
0.374994
-8.55101e-06
0.374976
-2.49665e-05
0.37495
-3.77186e-05
0.374919
-4.52535e-05
0.374886
-4.84289e-05
0.374853
-4.8636e-05
0.37482
-4.65874e-05
0.374788
-4.26347e-05
0.374758
-3.72083e-05
0.374729
-3.07609e-05
0.374703
-2.35765e-05
0.374679
-1.5753e-05
0.374657
-7.26542e-06
0.374637
2.00546e-06
0.374619
1.22832e-05
0.374605
2.38988e-05
0.374593
3.72976e-05
0.374586
5.30661e-05
0.374583
7.19896e-05
0.374587
9.51173e-05
0.374599
0.000123839
0.374621
0.000159978
0.374657
0.000205932
0.374711
0.00026487
0.37479
0.00034101
0.3749
0.000439982
0.375053
0.000569323
0.375262
0.000739135
0.375546
0.000963018
0.37593
0.00125935
0.376446
0.00165313
0.377139
0.00217854
0.378065
0.00288276
0.379303
0.00383148
0.380955
0.00511721
0.383158
0.006872
0.386092
0.00928716
0.389997
0.0126448
0.395185
0.0173688
0.402061
0.0241103
0.411166
0.0338887
0.423138
0.0483548
0.439167
0.0701925
0.460697
0.103746
0.496884
0.156016
0.575974
0.225312
0.348905
0.80255
0.390995
-3.42631e-06
0.39098
-1.00335e-05
0.390957
-1.50486e-05
0.390929
-1.76588e-05
0.390899
-1.81467e-05
0.390867
-1.71015e-05
0.390835
-1.48622e-05
0.390804
-1.16083e-05
0.390774
-7.53602e-06
0.390746
-2.84791e-06
0.39072
2.3229e-06
0.390696
7.93302e-06
0.390674
1.40041e-05
0.390656
2.06114e-05
0.39064
2.78842e-05
0.390628
3.60112e-05
0.390619
4.52422e-05
0.390616
5.59056e-05
0.39062
6.84343e-05
0.390631
8.34045e-05
0.390653
0.000101573
0.390689
0.000123932
0.390743
0.000151779
0.390821
0.000186828
0.39093
0.000231352
0.391082
0.000288382
0.391289
0.000361974
0.39157
0.00045757
0.39195
0.000582498
0.392462
0.000746689
0.393151
0.000963676
0.394078
0.00125205
0.395322
0.0016376
0.396997
0.00215646
0.399254
0.0028599
0.402303
0.0038218
0.40644
0.00515028
0.412078
0.00700677
0.419811
0.00963502
0.430506
0.013415
0.445479
0.0189158
0.466769
0.0270642
0.498005
0.038956
0.545401
0.0563507
0.621688
0.0797321
0.742519
0.104484
0.156428
0.934997
0.398995
1.25044e-06
0.398981
3.63665e-06
0.39896
5.99209e-06
0.398934
8.41156e-06
0.398905
1.08999e-05
0.398874
1.34495e-05
0.398843
1.60744e-05
0.398812
1.87897e-05
0.398783
2.1613e-05
0.398755
2.45622e-05
0.39873
2.76584e-05
0.398707
3.09241e-05
0.398686
3.43853e-05
0.398668
3.80677e-05
0.398654
4.20006e-05
0.398644
4.62146e-05
0.398638
5.07463e-05
0.398638
5.56335e-05
0.398646
6.09188e-05
0.398662
6.66462e-05
0.398691
7.28668e-05
0.398735
7.96355e-05
0.398799
8.70166e-05
0.398891
9.50796e-05
0.399018
0.000103906
0.399192
0.000113585
0.39943
0.000124229
0.399751
0.000135964
0.400184
0.000148951
0.400767
0.000163386
0.401551
0.000179526
0.402605
0.000197706
0.404024
0.000218383
0.405938
0.000242192
0.408527
0.000270045
0.412045
0.00030328
0.416851
0.000343921
0.423463
0.000395105
0.432636
0.000461848
0.445498
0.000552421
0.463732
0.000680841
0.489924
0.00087206
0.527712
0.0011674
0.582412
0.00165201
0.659737
0.00241087
0.76045
0.00377257
0.0056863
0.911195
0.398995
5.89139e-06
0.398982
1.72169e-05
0.39896
2.68814e-05
0.398934
3.42681e-05
0.398905
3.96685e-05
0.398875
4.36559e-05
0.398844
4.65961e-05
0.398814
4.86999e-05
0.398785
5.0197e-05
0.398759
5.13266e-05
0.398734
5.22615e-05
0.398711
5.30914e-05
0.398692
5.38447e-05
0.398675
5.4499e-05
0.398662
5.498e-05
0.398653
5.51619e-05
0.398649
5.48641e-05
0.39865
5.38354e-05
0.398659
5.17243e-05
0.398678
4.8044e-05
0.398708
4.21351e-05
0.398754
3.31161e-05
0.398821
1.98115e-05
0.398916
6.46535e-07
0.399046
-2.64963e-05
0.399224
-6.44703e-05
0.399465
-0.000117122
0.39979
-0.000189644
0.400228
-0.000289065
0.400816
-0.000424938
0.401605
-0.000610319
0.402665
-0.00086318
0.404092
-0.00120846
0.406015
-0.00168114
0.408615
-0.00233087
0.412147
-0.00322915
0.416972
-0.00448057
0.423608
-0.00624124
0.432816
-0.00874652
0.445731
-0.0123631
0.464049
-0.0176376
0.49038
-0.0254598
0.528401
-0.0368534
0.583497
-0.0534427
0.661412
-0.0755034
0.76278
-0.0975897
-0.146304
0.91477
0.390995
1.0928e-05
0.39098
3.18775e-05
0.390958
4.9099e-05
0.39093
6.1226e-05
0.390901
6.91214e-05
0.39087
7.41615e-05
0.390839
7.70834e-05
0.39081
7.82696e-05
0.390782
7.81818e-05
0.390755
7.73095e-05
0.390732
7.59735e-05
0.39071
7.43179e-05
0.390691
7.23629e-05
0.390676
7.00428e-05
0.390663
6.71843e-05
0.390655
6.35202e-05
0.390651
5.86679e-05
0.390652
5.21176e-05
0.390661
4.31572e-05
0.390678
3.08263e-05
0.390706
1.38232e-05
0.390748
-9.56636e-06
0.39081
-4.16302e-05
0.390895
-8.54042e-05
0.391014
-0.000144969
0.391175
-0.000225786
0.391392
-0.00033521
0.391686
-0.000483122
0.392079
-0.000682867
0.392606
-0.000952506
0.393312
-0.00131664
0.394258
-0.00180898
0.395525
-0.00247605
0.397226
-0.00338271
0.399515
-0.00462034
0.402605
-0.00631943
0.406793
-0.00866915
0.4125
-0.0119486
0.420331
-0.0165775
0.431169
-0.0232014
0.446363
-0.0328317
0.468014
-0.0471117
0.499872
-0.0687117
0.548402
-0.101973
0.626782
-0.153879
0.751338
-0.222146
-0.34526
0.950296
0.374994
1.69102e-05
0.374977
4.9119e-05
0.374951
7.44071e-05
0.374921
9.07034e-05
0.37489
0.000100214
0.374858
0.000105567
0.374828
0.000107847
0.374798
0.000107555
0.374771
0.000105445
0.374745
0.000102297
0.374723
9.85642e-05
0.374702
9.44095e-05
0.374685
8.98393e-05
0.37467
8.4744e-05
0.374658
7.88702e-05
0.37465
7.18244e-05
0.374645
6.30634e-05
0.374645
5.18637e-05
0.374651
3.7234e-05
0.374664
1.78355e-05
0.374685
-8.12733e-06
0.374719
-4.30218e-05
0.374767
-8.99863e-05
0.374834
-0.000153188
0.374927
-0.0002382
0.375054
-0.00035248
0.375224
-0.000506021
0.375453
-0.000712224
0.375759
-0.000989103
0.376167
-0.00136094
0.37671
-0.00186062
0.377434
-0.00253287
0.378396
-0.00343894
0.379676
-0.00466329
0.381379
-0.00632344
0.383644
-0.00858457
0.386656
-0.0116819
0.390663
-0.0159549
0.395988
-0.0219036
0.403058
-0.0302714
0.412448
-0.0422223
0.424851
-0.0595154
0.441578
-0.0854383
0.464257
-0.12465
0.502677
-0.192301
0.586587
-0.306054
-0.584576
0.825904
0.350992
2.47783e-05
0.35097
7.12452e-05
0.350939
0.000105158
0.350905
0.000124289
0.350871
0.000133882
0.350838
0.000138386
0.350807
0.000139039
0.350778
0.000136395
0.350751
0.000131643
0.350728
0.000125864
0.350706
0.000119601
0.350688
0.000112962
0.350671
0.000105948
0.350658
9.83854e-05
0.350646
8.99827e-05
0.350638
8.02218e-05
0.350632
6.84803e-05
0.35063
5.38602e-05
0.350632
3.52293e-05
0.350638
1.09745e-05
0.350651
-2.09602e-05
0.350671
-6.33758e-05
0.350701
-0.000119872
0.350743
-0.000195328
0.3508
-0.000296142
0.350878
-0.000430963
0.350983
-0.000611232
0.351123
-0.000852344
0.351308
-0.00117477
0.351553
-0.00160608
0.351875
-0.00218319
0.352298
-0.00295596
0.35285
-0.00399179
0.353569
-0.00538234
0.354498
-0.00725276
0.355688
-0.00977516
0.357194
-0.0131878
0.359062
-0.017823
0.361308
-0.0241501
0.363867
-0.0328312
0.366481
-0.0448363
0.368467
-0.0615016
0.36805
-0.0850221
0.361054
-0.117655
0.334306
-0.165552
0.257579
-0.229329
-0.326998
0.318988
3.63764e-05
0.318957
0.000102297
0.318917
0.000144604
0.318878
0.000163641
0.318841
0.000170917
0.318806
0.000172922
0.318774
0.000170426
0.318746
0.000164157
0.318722
0.000155896
0.318701
0.000147031
0.318682
0.000138008
0.318666
0.000128878
0.318652
0.000119554
0.31864
0.00010987
0.318631
9.9436e-05
0.318623
8.77282e-05
0.318617
7.40198e-05
0.318613
5.74203e-05
0.318612
3.66808e-05
0.318612
1.01869e-05
0.318615
-2.42581e-05
0.318621
-6.9473e-05
0.31863
-0.000129235
0.318643
-0.000208476
0.318661
-0.000313828
0.318683
-0.000454039
0.318713
-0.000640825
0.31875
-0.000889684
0.318796
-0.0012213
0.318852
-0.00166313
0.318921
-0.00225179
0.319
-0.003036
0.319089
-0.00408081
0.319179
-0.00547289
0.319254
-0.00732801
0.319279
-0.00980051
0.319187
-0.0130963
0.318852
-0.0174887
0.318042
-0.0233401
0.316332
-0.031122
0.312943
-0.0414471
0.306485
-0.0550449
0.294303
-0.0728401
0.272109
-0.09546
0.230516
-0.123961
0.157306
-0.15612
-0.169693
0.278981
5.56264e-05
0.278933
0.000149881
0.27888
0.000197194
0.278833
0.000210106
0.278793
0.000211404
0.278757
0.000208294
0.278727
0.000200167
0.278703
0.000188308
0.278683
0.000175265
0.278667
0.000162518
0.278655
0.000150243
0.278645
0.00013838
0.278638
0.000126743
0.278632
0.000115165
0.278628
0.000103165
0.278626
9.0257e-05
0.278624
7.56721e-05
0.278622
5.86198e-05
0.278621
3.78552e-05
0.278619
1.19388e-05
0.278616
-2.12385e-05
0.27861
-6.41983e-05
0.278601
-0.00012049
0.278587
-0.000194547
0.278565
-0.000292509
0.278533
-0.000422245
0.278486
-0.000594452
0.278419
-0.000822992
0.278324
-0.00112646
0.278189
-0.0015291
0.278
-0.00206312
0.277734
-0.00277059
0.27736
-0.00370685
0.27683
-0.00494381
0.276077
-0.00657489
0.274996
-0.00871975
0.273429
-0.0115303
0.271135
-0.0151946
0.267734
-0.0199396
0.262633
-0.0260216
0.254892
-0.0337063
0.243038
-0.0431916
0.224711
-0.054513
0.196417
-0.0671667
0.152492
-0.0800362
0.086491
-0.0901223
-0.0832028
0.230964
9.17978e-05
0.230887
0.000226702
0.230817
0.000266916
0.230764
0.000262399
0.230724
0.000251101
0.230695
0.000237251
0.230676
0.000218808
0.230666
0.000198217
0.230662
0.000178682
0.230664
0.000161075
0.230668
0.000145231
0.230676
0.000130679
0.230685
0.000117274
0.230695
0.000104541
0.230706
9.21384e-05
0.230717
7.93525e-05
0.230727
6.56997e-05
0.230735
5.02444e-05
0.23074
3.2177e-05
0.230742
1.004e-05
0.230738
-1.76183e-05
0.230726
-5.31178e-05
0.230705
-9.90141e-05
0.230669
-0.000159149
0.230614
-0.000238093
0.230534
-0.000342386
0.230419
-0.000480122
0.230258
-0.000662461
0.230035
-0.000903488
0.229727
-0.00122214
0.229306
-0.00164248
0.228731
-0.00219616
0.227947
-0.00292317
0.226877
-0.00387471
0.225416
-0.00511404
0.223414
-0.00671878
0.220664
-0.0087797
0.216867
-0.0113984
0.211604
-0.014677
0.204279
-0.0186975
0.194056
-0.0234831
0.179787
-0.0289227
0.159943
-0.0346702
0.132718
-0.0399413
0.0961928
-0.0435134
0.0493686
-0.0433009
-0.0338349
0.174917
0.000174804
0.174804
0.000339505
0.174734
0.00033698
0.1747
0.000295395
0.174691
0.000259843
0.174701
0.000226979
0.174726
0.000194159
0.174759
0.00016473
0.174797
0.000140596
0.174836
0.000121146
0.174876
0.00010504
0.174915
9.14442e-05
0.174953
7.96867e-05
0.174988
6.92804e-05
0.17502
5.95892e-05
0.175049
5.0159e-05
0.175074
4.03781e-05
0.175094
2.97599e-05
0.175108
1.7514e-05
0.175115
2.87531e-06
0.175113
-1.53466e-05
0.175098
-3.84217e-05
0.175067
-6.82383e-05
0.175014
-0.000107003
0.174933
-0.000157881
0.174815
-0.000224754
0.174648
-0.00031298
0.174414
-0.000429254
0.174093
-0.00058255
0.173654
-0.000784141
0.17306
-0.00104873
0.172258
-0.00139459
0.171178
-0.00184475
0.16973
-0.0024269
0.167789
-0.00317393
0.165193
-0.00412238
0.161723
-0.00531029
0.157095
-0.00677083
0.15094
-0.00852229
0.142791
-0.0105496
0.132085
-0.0127776
0.118191
-0.0150291
0.1005
-0.01698
0.0786528
-0.0180948
0.0528277
-0.0176908
0.0244289
-0.0149059
-0.00940668
0.110826
0.00034889
0.110775
0.000390484
0.110828
0.000283741
0.110919
0.000203353
0.111023
0.000155603
0.11113
0.000120417
0.111232
9.20918e-05
0.111325
7.11558e-05
0.111409
5.66137e-05
0.111483
4.63085e-05
0.111549
3.85661e-05
0.111608
3.24979e-05
0.11166
2.75673e-05
0.111706
2.33829e-05
0.111745
1.95984e-05
0.111779
1.59596e-05
0.111807
1.22178e-05
0.111829
8.14512e-06
0.111842
3.43554e-06
0.111847
-2.24628e-06
0.111841
-9.34304e-06
0.111821
-1.83671e-05
0.111782
-3.00261e-05
0.11172
-4.52002e-05
0.111627
-6.50882e-05
0.111493
-9.12071e-05
0.111305
-0.000125572
0.111046
-0.00017073
0.110693
-0.000229982
0.110215
-0.000307447
0.109574
-0.000408303
0.108718
-0.000538805
0.107579
-0.000706393
0.106071
-0.000919412
0.104083
-0.00118667
0.101476
-0.00151624
0.0980793
-0.00191353
0.0936861
-0.00237806
0.0880622
-0.0028989
0.0809605
-0.0034485
0.0721583
-0.00397613
0.0615291
-0.00440051
0.049155
-0.00460642
0.0354942
-0.00443536
0.0214963
-0.00369603
0.00874151
-0.00215467
-0.000665688
0.0393489
0.0397393
0.040023
0.0402263
0.0403818
0.0405022
0.0405942
0.0406653
0.0407219
0.0407681
0.0408066
0.0408391
0.0408666
0.0408899
0.0409095
0.0409254
0.0409375
0.0409456
0.040949
0.0409467
0.0409373
0.0409188
0.0408887
0.0408434
0.0407783
0.0406869
0.0405613
0.0403904
0.0401603
0.0398527
0.0394443
0.0389053
0.0381988
0.0372792
0.0360924
0.0345761
0.0326625
0.0302843
0.0273853
0.0239366
0.0199603
0.0155597
0.0109532
0.00651751
0.00282088
0.000665688
0.584563
0.217987
0.473991
0.110573
0.405919
0.0680728
0.361137
0.0447815
0.330769
0.0303706
0.0218974
0.308867
1.01697
0.136018
1.04175
0.0857916
1.04416
0.0656623
1.03272
0.0562235
1.01371
0.0493764
0.0476534
0.987951
1.03778
0.00943009
1.10842
0.0151528
1.15252
0.0215617
1.18053
0.0282167
1.19424
0.0356562
0.044569
1.19733
1.04156
-0.117361
1.11128
-0.0545649
1.15502
-0.0221786
1.18473
-0.00149891
1.20264
0.0177452
0.0350962
1.21211
1.03786
-0.204924
1.07304
-0.0897415
1.094
-0.0431384
1.107
-0.0145024
1.11594
0.00880278
0.0291372
1.1219
0.62098
0.531239
0.488103
0.473599
0.4824
0.511533
-0.000728112
0.000727126
-0.00235616
0.00162515
-0.00423417
0.00187517
-0.00602576
0.00178888
-0.00764503
0.00161674
-0.00907933
0.00143179
-0.0103356
0.00125389
-0.0114293
0.00109124
-0.0123802
0.000948633
-0.0132097
0.000827214
-0.0139359
0.00072431
-0.0145712
0.000633571
-0.015119
0.000546579
-0.0155755
0.000455703
-0.0159324
0.000356454
-0.0161812
0.00024858
-0.0163168
0.000135707
-0.0163403
2.40538e-05
-0.0162594
-7.99677e-05
-0.0160877
-0.000170194
-0.0158419
-0.000243677
-0.0155417
-0.000297394
-0.015208
-0.000330489
-0.0148617
-0.000342858
-0.0145227
-0.000335615
-0.014208
-0.000311409
-0.0139327
-0.000271909
-0.0137109
-0.000218581
-0.0135536
-0.000154337
-0.0134683
-8.27327e-05
-0.0134577
-8.24238e-06
-0.0135238
6.82405e-05
-0.0136647
0.000143076
-0.0138754
0.000213059
-0.0141498
0.000276845
-0.0144816
0.000334509
-0.0148647
0.000385625
-0.0152925
0.000430636
-0.0157587
0.000468937
-0.0162574
0.000501706
-0.0167886
0.000532749
-0.0173653
0.000578597
-0.0180216
0.000666643
-0.0188155
0.000814312
-0.0198219
0.00102631
-0.0210281
0.00123052
0.0014165
-0.00284066
0.00356486
-0.00756789
0.00634534
-0.012505
0.00680529
-0.0170709
0.00634824
-0.0211254
0.00566499
-0.0246668
0.00496729
-0.0277366
0.00431791
-0.0303903
0.00373947
-0.0326861
0.00323906
-0.0346763
0.00281269
-0.0364012
0.00244497
-0.0378837
0.00211295
-0.03913
0.00179045
-0.0401325
0.00145702
-0.0408788
0.0011021
-0.0413592
0.000729029
-0.041575
0.000352171
-0.0415406
-8.70652e-06
-0.0412839
-0.000333948
-0.040842
-0.000607988
-0.0402573
-0.00082288
-0.0395745
-0.000973476
-0.0388399
-0.00105747
-0.0380993
-0.00107547
-0.0373944
-0.00103256
-0.0367621
-0.000935424
-0.0362356
-0.000790481
-0.0358421
-0.000604294
-0.0356028
-0.000386744
-0.035531
-0.000148305
-0.0356341
0.000100303
-0.0359115
0.000350953
-0.0363577
0.000594377
-0.0369618
0.000822626
-0.0377089
0.00102975
-0.0385823
0.00121388
-0.0395647
0.00137382
-0.0406386
0.00151026
-0.0417881
0.0016248
-0.0430031
0.00172216
-0.0442792
0.00181335
-0.0456132
0.00192017
-0.0469954
0.00206887
-0.0484113
0.00227121
-0.0498372
0.0025016
-0.0512086
0.00262476
0.00253056
-0.00527297
0.00883555
-0.0128991
0.0139655
-0.0202049
0.0141053
-0.0266568
0.0127946
-0.0322366
0.0112396
-0.0370298
0.00975562
-0.0411443
0.008428
-0.0446867
0.00727733
-0.0477513
0.00629966
-0.0504159
0.00547342
-0.0527358
0.00476197
-0.0547424
0.00411701
-0.0564432
0.00349011
-0.0578306
0.00284343
-0.0588899
0.00216133
-0.0596132
0.00145264
-0.0600073
0.000747181
-0.0600963
8.20069e-05
-0.0599195
-0.000508255
-0.0595262
-0.000997861
-0.0589703
-0.00137416
-0.0583082
-0.00162991
-0.0575969
-0.00176239
-0.0568912
-0.00177456
-0.0562419
-0.00167498
-0.0556944
-0.00147598
-0.0552888
-0.00118907
-0.0550578
-0.000828542
-0.0550241
-0.000414398
-0.0552014
3.42374e-05
-0.0555926
0.000496335
-0.0561919
0.000954744
-0.0569872
0.00139422
-0.0579606
0.00180054
-0.0590881
0.00216224
-0.060344
0.00247474
-0.0617018
0.00273661
-0.0631351
0.0029486
-0.0646175
0.00311256
-0.0661249
0.00323473
-0.067636
0.00332794
-0.0691241
0.00341474
-0.0705494
0.00351513
-0.0718754
0.00362424
-0.073056
0.00370705
-0.0740821
0.00366961
0.00330733
-0.00775406
0.0165885
-0.0174599
0.0236677
-0.0258189
0.0224592
-0.0328333
0.0198039
-0.0387904
0.0171918
-0.0439003
0.014861
-0.04833
0.0128533
-0.0522112
0.0111546
-0.0556453
0.00973006
-0.0587078
0.00853304
-0.0614507
0.00750245
-0.0638994
0.00656458
-0.0660551
0.00564545
-0.0678995
0.00468837
-0.0694066
0.00366944
-0.0705573
0.00260495
-0.0713526
0.00154455
-0.0718174
0.000549427
-0.0719941
-0.000328481
-0.0719338
-0.00105447
-0.0716922
-0.00161138
-0.0713264
-0.00199066
-0.0708948
-0.00218821
-0.0704567
-0.00220721
-0.0700694
-0.00205641
-0.0697859
-0.00175408
-0.0696499
-0.00131877
-0.0696967
-0.000776532
-0.0699496
-0.000156255
-0.0704224
0.000511039
-0.0711148
0.00119275
-0.0720163
0.00185974
-0.0731091
0.00249081
-0.0743692
0.00306421
-0.0757669
0.00356415
-0.0772699
0.00398177
-0.0788442
0.00431536
-0.0804543
0.00456278
-0.082064
0.00472728
-0.0836407
0.00481593
-0.0851525
0.00484401
-0.0865624
0.00483192
-0.0878326
0.00480059
-0.0889458
0.0047606
-0.0899154
0.00470179
-0.0907907
0.00454943
0.00407208
-0.00993167
0.0265183
-0.019464
0.0331968
-0.0261887
0.0291791
-0.0315991
0.0252089
-0.0363715
0.0219584
-0.0407149
0.0191992
-0.0447528
0.0168858
-0.0485633
0.0149603
-0.0521844
0.0133464
-0.0556323
0.0119774
-0.0589147
0.0107816
-0.062026
0.00967412
-0.0649438
0.00856192
-0.0676258
0.00736995
-0.0700173
0.00606096
-0.0720693
0.00465731
-0.0737597
0.00323603
-0.0751
0.00189093
-0.0761218
0.000695055
-0.0768663
-0.0003081
-0.0773786
-0.00109681
-0.077704
-0.00166193
-0.0778951
-0.00199427
-0.0780113
-0.00208686
-0.0781174
-0.00194714
-0.0782741
-0.00159228
-0.0785368
-0.00105212
-0.0789479
-0.000360337
-0.0795407
0.000439565
-0.0803273
0.00130131
-0.0813097
0.00217745
-0.0824757
0.00302901
-0.0838068
0.00382408
-0.0852753
0.00453622
-0.0868519
0.00514339
-0.0884992
0.00563309
-0.09018
0.00599947
-0.0918532
0.00624054
-0.0934809
0.00635924
-0.0950261
0.00636649
-0.0964543
0.00627645
-0.0977276
0.00611351
-0.0988214
0.00590965
-0.0997343
0.00569407
-0.100511
0.0054834
-0.101215
0.00526538
0.00474028
-0.0096519
0.0361718
-0.012185
0.0357268
-0.0120239
0.0290126
-0.0127524
0.0259312
-0.0146099
0.02381
-0.0172785
0.0218616
-0.0205953
0.0201968
-0.0244341
0.0187927
-0.0286454
0.0175521
-0.033086
0.0164119
-0.0376391
0.0153302
-0.0422195
0.01425
-0.0467575
0.0130965
-0.0511868
0.0117961
-0.0554192
0.0102913
-0.0593618
0.00859869
-0.0629519
0.0068257
-0.0661632
0.00510275
-0.0689934
0.00352601
-0.0714461
0.002146
-0.0735366
0.000995882
-0.075294
9.81744e-05
-0.0767511
-0.000533638
-0.0779565
-0.00087756
-0.0789767
-0.000922445
-0.0798941
-0.000670032
-0.0807904
-0.00015123
-0.0817329
0.000585943
-0.0827657
0.00147485
-0.083916
0.00245334
-0.085198
0.0034607
-0.0866108
0.00444278
-0.0881382
0.00535275
-0.089759
0.00615841
-0.0914457
0.00683251
-0.0931664
0.00735622
-0.0948849
0.00772133
-0.0965652
0.0079241
-0.0981683
0.0079667
-0.0996586
0.0078611
-0.101001
0.00762364
-0.102159
0.00727818
-0.103101
0.00686332
-0.103826
0.00642945
-0.104369
0.00604629
-0.104836
0.00572727
0.00518445
0.024265
0.0119036
0.0424211
0.0175643
0.0515307
0.019898
0.0555368
0.0219209
0.0559298
0.0234129
0.0535693
0.0242181
0.0491454
0.0246165
0.0431748
0.0247589
0.0360736
0.0246486
0.028202
0.024279
0.0198671
0.0236606
0.0113161
0.0227969
0.00273902
0.0216698
-0.00570845
0.0202402
-0.013929
0.0185091
-0.0218639
0.0165315
-0.0294411
0.0144018
-0.0365846
0.0122464
-0.0432263
0.0101691
-0.0492988
0.00822036
-0.0547443
0.00644484
-0.0595252
0.00488184
-0.0636211
0.00356724
-0.0670702
0.00257442
-0.0699525
0.00196533
-0.0723789
0.0017579
-0.0744709
0.00194383
-0.076349
0.00246264
-0.078102
0.00322752
-0.0798012
0.00414913
-0.0814912
0.00514884
-0.0831977
0.00614656
-0.0849224
0.00707703
-0.0866601
0.00789565
-0.0883976
0.00857149
-0.0901214
0.00908148
-0.0918096
0.00941259
-0.093438
0.00955575
-0.0949777
0.00951134
-0.0964011
0.00928885
-0.0976781
0.00890589
-0.0987761
0.00838174
-0.0996568
0.007754
-0.100295
0.00708551
-0.100727
0.00647026
-0.101019
0.00601366
0.00534326
0.299951
0.0208148
0.29285
0.0246614
0.284473
0.0282715
0.274433
0.0319579
0.262365
0.0354791
0.248164
0.0384164
0.232134
0.0406444
0.214691
0.0421992
0.196229
0.0431081
0.177124
0.0433817
0.157737
0.0430459
0.138385
0.0421459
0.119318
0.0407349
0.100685
0.0388693
0.082576
0.0366153
0.0650572
0.0340473
0.0482135
0.0312432
0.0321763
0.0282821
0.0171162
0.0252283
0.00322152
0.0221158
-0.00932989
0.0189969
-0.020432
0.0159876
-0.0300772
0.0132147
-0.0383043
0.0108073
-0.0452087
0.00887181
-0.0509185
0.00747241
-0.0556245
0.00665049
-0.0595274
0.00636711
-0.0628105
0.00650917
-0.0656263
0.00696444
-0.0681015
0.00762272
-0.070324
0.00836918
-0.0723549
0.00910765
-0.0742332
0.00977502
-0.0759866
0.0103257
-0.077631
0.0107283
-0.0791753
0.0109592
-0.0806213
0.0110062
-0.0819698
0.0108642
-0.0832128
0.0105381
-0.084341
0.0100379
-0.0853337
0.00937961
-0.0861557
0.0085837
-0.0867703
0.00770298
-0.0871496
0.00685286
-0.0873185
0.00618195
0.00519084
0.957131
0.0516306
0.923243
0.0585456
0.886001
0.0655107
0.845873
0.0720837
0.803095
0.0782553
0.757795
0.0837147
0.710233
0.0882044
0.660789
0.0916414
0.609907
0.0939886
0.55809
0.0951968
0.505905
0.0952296
0.453965
0.0940833
0.402911
0.0917875
0.353371
0.0884067
0.30594
0.0840445
0.261143
0.0788434
0.219406
0.0729778
0.181045
0.066642
0.146238
0.0600334
0.115015
0.0533384
0.08728
0.0467329
0.0628861
0.0403842
0.0416599
0.0344461
0.0234175
0.0290565
0.00797224
0.0243267
-0.00489968
0.0203552
-0.0154682
0.0172305
-0.0240246
0.0149355
-0.0308832
0.013379
-0.0363623
0.0124547
-0.0407494
0.0120197
-0.0442779
0.0119061
-0.0471262
0.011963
-0.0494382
0.0120916
-0.0513327
0.0122244
-0.0528957
0.0122944
-0.0541847
0.0122527
-0.0552507
0.012077
-0.0561375
0.0117583
-0.0568853
0.0112913
-0.0575252
0.0106823
-0.058081
0.00993508
-0.0585478
0.00905704
-0.0588902
0.00806666
-0.0590368
0.00702024
-0.0588841
0.00605104
0.00480994
1.19384
0.0551096
1.18595
0.0664316
1.17385
0.0776101
1.15735
0.0885815
1.1363
0.0993065
1.11048
0.109528
1.07968
0.11901
1.04372
0.127594
1.00258
0.135125
0.956357
0.141423
0.905275
0.14631
0.849735
0.149622
0.790299
0.151223
0.727692
0.151013
0.662789
0.148947
0.59659
0.145042
0.530183
0.139384
0.464704
0.132119
0.401296
0.123441
0.341046
0.113588
0.284935
0.102844
0.233779
0.091542
0.188167
0.0800625
0.14841
0.0688184
0.114522
0.0582214
0.0862493
0.048638
0.0631479
0.0403454
0.0446195
0.0334796
0.0299878
0.0280286
0.0185947
0.0238661
0.009838
0.0207941
0.00317753