/*--------------------------------*- C++ -*----------------------------------*\
| =========                 |                                                 |
| \\      /  F ield         | OpenFOAM: The Open Source CFD Toolbox           |
|  \\    /   O peration     | Version:  2406                                  |
|   \\  /    A nd           | Website:  www.openfoam.com                      |
|    \\/     M anipulation  |                                                 |
\*---------------------------------------------------------------------------*/
FoamFile
{
    version     2.0;
    format      ascii;
    arch        "LSB;label=32;scalar=64";
    class       volVectorField;
    location    "92";
    object      U;
}
// * * * * * * * * * * * * * * * * * * * * * * * * * * * * * * * * * * * * * //

dimensions      [0 1 -1 0 0 0 0];

internalField   nonuniform List<vector> 
1916
(
(0.39012 -0.00201132 0)
(0.395111 -0.00228443 0)
(0.399024 -0.00135952 0)
(0.401384 -0.000757066 0)
(0.403049 -0.000491224 0)
(0.40438 -0.000330804 0)
(0.405416 -0.000211207 0)
(0.406194 -0.000135771 0)
(0.406788 -9.49513e-05 0)
(0.407256 -7.13345e-05 0)
(0.407634 -5.48054e-05 0)
(0.40794 -4.19424e-05 0)
(0.408187 -3.14098e-05 0)
(0.408385 -2.19199e-05 0)
(0.408539 -1.25843e-05 0)
(0.40865 -2.67558e-06 0)
(0.40872 8.40317e-06 0)
(0.408745 2.15832e-05 0)
(0.408719 3.77464e-05 0)
(0.408635 5.80165e-05 0)
(0.40848 8.36042e-05 0)
(0.408238 0.000116362 0)
(0.407884 0.000158597 0)
(0.407389 0.000213577 0)
(0.40671 0.000285298 0)
(0.405794 0.000379066 0)
(0.404569 0.000501393 0)
(0.40294 0.000660759 0)
(0.400785 0.000867578 0)
(0.397945 0.00113491 0)
(0.394214 0.00147814 0)
(0.389334 0.00191515 0)
(0.382976 0.00246489 0)
(0.374736 0.00314573 0)
(0.364125 0.00397118 0)
(0.350571 0.00494388 0)
(0.333432 0.00604565 0)
(0.312041 0.00722516 0)
(0.28578 0.00838356 0)
(0.254214 0.00936324 0)
(0.217277 0.00994752 0)
(0.175539 0.00987133 0)
(0.130496 0.00885631 0)
(0.0850142 0.00659399 0)
(0.0440235 0.0027382 0)
(0.0150444 -0.00343273 0)
(-0.00248246 -0.00505361 0)
(1.10681 -0.00249528 0)
(1.10693 -0.00442562 0)
(1.10807 -0.00406707 0)
(1.10879 -0.00322566 0)
(1.10958 -0.00256799 0)
(1.1106 -0.00205591 0)
(1.11164 -0.00161912 0)
(1.11258 -0.00126586 0)
(1.1134 -0.00100082 0)
(1.11412 -0.000803898 0)
(1.11475 -0.000651945 0)
(1.11529 -0.000529757 0)
(1.11574 -0.000428237 0)
(1.11612 -0.000340174 0)
(1.11644 -0.000259625 0)
(1.11668 -0.000181374 0)
(1.11685 -0.000101063 0)
(1.11695 -1.3888e-05 0)
(1.11697 8.53282e-05 0)
(1.11689 0.000203116 0)
(1.11669 0.000347114 0)
(1.11636 0.000527333 0)
(1.11584 0.000756228 0)
(1.11511 0.00105047 0)
(1.11408 0.00143139 0)
(1.11267 0.00192726 0)
(1.11078 0.0025743 0)
(1.10825 0.00341982 0)
(1.10487 0.00452407 0)
(1.1004 0.00596435 0)
(1.09448 0.00783747 0)
(1.08667 0.0102638 0)
(1.07638 0.0133883 0)
(1.06285 0.0173811 0)
(1.04514 0.0224305 0)
(1.022 0.0287287 0)
(0.991912 0.036441 0)
(0.95303 0.0456523 0)
(0.90318 0.0562796 0)
(0.839967 0.0679439 0)
(0.761007 0.0797995 0)
(0.664443 0.0903217 0)
(0.549766 0.0971458 0)
(0.419303 0.0968861 0)
(0.279921 0.0857996 0)
(0.147933 0.0605284 0)
(0.0241386 0.0314985 0)
(1.74773 -0.00126705 0)
(1.74771 -0.00268667 0)
(1.74788 -0.00296265 0)
(1.74729 -0.0028011 0)
(1.7468 -0.00260263 0)
(1.74674 -0.00238851 0)
(1.74692 -0.00213127 0)
(1.74719 -0.00186067 0)
(1.74748 -0.00161094 0)
(1.74779 -0.00139085 0)
(1.74811 -0.00119546 0)
(1.74841 -0.00101939 0)
(1.74869 -0.000858731 0)
(1.74894 -0.000709087 0)
(1.74914 -0.000564943 0)
(1.74931 -0.000420359 0)
(1.74943 -0.000268996 0)
(1.74948 -0.000103604 0)
(1.74947 8.48616e-05 0)
(1.74938 0.000307739 0)
(1.74918 0.000579359 0)
(1.74886 0.000917832 0)
(1.74838 0.0013466 0)
(1.74768 0.00189623 0)
(1.74672 0.00260694 0)
(1.74541 0.00353146 0)
(1.74364 0.00473887 0)
(1.74127 0.00631928 0)
(1.73812 0.00838998 0)
(1.73391 0.0111029 0)
(1.72833 0.0146536 0)
(1.72092 0.0192917 0)
(1.71109 0.0253322 0)
(1.69804 0.0331653 0)
(1.68073 0.0432634 0)
(1.65773 0.0561789 0)
(1.62721 0.0725223 0)
(1.5867 0.0929059 0)
(1.53301 0.117827 0)
(1.46207 0.147445 0)
(1.36879 0.181223 0)
(1.24725 0.217309 0)
(1.09107 0.251814 0)
(0.895166 0.277682 0)
(0.657317 0.285538 0)
(0.3914 0.262834 0)
(0.0883674 0.192045 0)
(2.30825 -0.00068354 0)
(2.30844 -0.00171358 0)
(2.30872 -0.00217255 0)
(2.30808 -0.00225984 0)
(2.30733 -0.00222422 0)
(2.3069 -0.00213684 0)
(2.30666 -0.00199554 0)
(2.30649 -0.00181863 0)
(2.30636 -0.00163467 0)
(2.30628 -0.00145769 0)
(2.30623 -0.00128879 0)
(2.3062 -0.00112586 0)
(2.30619 -0.000966961 0)
(2.30618 -0.000809224 0)
(2.30616 -0.000648099 0)
(2.30613 -0.000477743 0)
(2.30609 -0.00029124 0)
(2.30601 -8.00085e-05 0)
(2.3059 0.000167163 0)
(2.30574 0.000465002 0)
(2.30552 0.000832581 0)
(2.30521 0.00129452 0)
(2.3048 0.00188287 0)
(2.30424 0.00263975 0)
(2.30349 0.00362077 0)
(2.30249 0.00489938 0)
(2.30117 0.00657239 0)
(2.29943 0.00876713 0)
(2.29711 0.0116508 0)
(2.29403 0.0154426 0)
(2.28994 0.0204289 0)
(2.28449 0.0269826 0)
(2.27722 0.0355864 0)
(2.26746 0.0468599 0)
(2.25433 0.0615901 0)
(2.23659 0.0807609 0)
(2.21249 0.105574 0)
(2.17957 0.137447 0)
(2.13438 0.177953 0)
(2.072 0.228643 0)
(1.98551 0.290688 0)
(1.86538 0.364038 0)
(1.69847 0.446284 0)
(1.46882 0.529752 0)
(1.15594 0.601373 0)
(0.755413 0.634297 0)
(0.208695 0.547622 0)
(2.78853 -0.000426644 0)
(2.78881 -0.00115695 0)
(2.78923 -0.00158271 0)
(2.78877 -0.00173749 0)
(2.78807 -0.00176441 0)
(2.78758 -0.00173497 0)
(2.78725 -0.0016576 0)
(2.78696 -0.00154156 0)
(2.78669 -0.00140652 0)
(2.78644 -0.00126644 0)
(2.78623 -0.00112536 0)
(2.78605 -0.000982953 0)
(2.78587 -0.000837988 0)
(2.78571 -0.000688075 0)
(2.78555 -0.000528964 0)
(2.7854 -0.000354735 0)
(2.78524 -0.00015795 0)
(2.78508 7.08558e-05 0)
(2.78491 0.000344247 0)
(2.78471 0.000678923 0)
(2.7845 0.0010968 0)
(2.78424 0.00162636 0)
(2.78394 0.00230486 0)
(2.78357 0.00318139 0)
(2.78312 0.00432097 0)
(2.78256 0.00580978 0)
(2.78184 0.00776206 0)
(2.78092 0.010329 0)
(2.77973 0.0137106 0)
(2.77817 0.0181716 0)
(2.77611 0.0240621 0)
(2.77336 0.0318451 0)
(2.76965 0.042132 0)
(2.7646 0.0557288 0)
(2.75763 0.0736947 0)
(2.74791 0.097416 0)
(2.73417 0.128695 0)
(2.71446 0.169849 0)
(2.68582 0.22381 0)
(2.64361 0.294162 0)
(2.58051 0.385121 0)
(2.48527 0.500949 0)
(2.33951 0.645442 0)
(2.11709 0.817708 0)
(1.77173 1.01302 0)
(1.26191 1.20733 0)
(0.410362 1.25604 0)
(3.1887 -0.000280529 0)
(3.18902 -0.000785189 0)
(3.18951 -0.00112534 0)
(3.18918 -0.00128873 0)
(3.18856 -0.00134606 0)
(3.18809 -0.00134772 0)
(3.18776 -0.00130552 0)
(3.18745 -0.00122621 0)
(3.18714 -0.00112349 0)
(3.18686 -0.00100933 0)
(3.1866 -0.000888931 0)
(3.18636 -0.000763204 0)
(3.18613 -0.000631454 0)
(3.18592 -0.000491624 0)
(3.18572 -0.000339825 0)
(3.18554 -0.000170371 0)
(3.18536 2.41118e-05 0)
(3.18518 0.00025318 0)
(3.18502 0.000529567 0)
(3.18486 0.000870309 0)
(3.18472 0.00129787 0)
(3.18458 0.00184163 0)
(3.18446 0.00254007 0)
(3.18435 0.00344397 0)
(3.18426 0.00462071 0)
(3.1842 0.00615991 0)
(3.18418 0.00818076 0)
(3.1842 0.0108419 0)
(3.18427 0.0143544 0)
(3.1844 0.019 0)
(3.1846 0.0251551 0)
(3.18488 0.0333237 0)
(3.18521 0.0441823 0)
(3.18554 0.0586417 0)
(3.18575 0.0779314 0)
(3.18558 0.103716 0)
(3.18454 0.13826 0)
(3.18171 0.184647 0)
(3.17538 0.2471 0)
(3.16251 0.331362 0)
(3.13737 0.445389 0)
(3.09034 0.599502 0)
(3.00208 0.8088 0)
(2.84416 1.08669 0)
(2.54929 1.46379 0)
(2.05644 1.90054 0)
(0.888264 2.3026 0)
(3.50881 -0.00018456 0)
(3.50913 -0.000525254 0)
(3.50966 -0.000775677 0)
(3.50942 -0.000915115 0)
(3.50887 -0.000974881 0)
(3.50843 -0.000986052 0)
(3.50811 -0.000960053 0)
(3.5078 -0.00090285 0)
(3.50749 -0.000823642 0)
(3.50719 -0.000731214 0)
(3.50692 -0.000630251 0)
(3.50667 -0.000522088 0)
(3.50643 -0.000406365 0)
(3.50622 -0.000281355 0)
(3.50602 -0.000143693 0)
(3.50584 1.16366e-05 0)
(3.50568 0.000191271 0)
(3.50554 0.000403894 0)
(3.50542 0.000661123 0)
(3.50534 0.000978541 0)
(3.50531 0.00137679 0)
(3.50533 0.00188294 0)
(3.50541 0.00253254 0)
(3.50559 0.00337252 0)
(3.50589 0.00446527 0)
(3.50635 0.00589393 0)
(3.50703 0.00776947 0)
(3.50798 0.0102401 0)
(3.50931 0.0135043 0)
(3.51112 0.0178284 0)
(3.51357 0.0235715 0)
(3.51686 0.0312192 0)
(3.52124 0.0414325 0)
(3.52702 0.0551159 0)
(3.5346 0.0735168 0)
(3.54442 0.0983694 0)
(3.557 0.132111 0)
(3.57283 0.1782 0)
(3.59223 0.241634 0)
(3.61512 0.329661 0)
(3.63976 0.453303 0)
(3.6635 0.62848 0)
(3.67113 0.883521 0)
(3.65757 1.25397 0)
(3.49212 1.84554 0)
(3.34535 2.8118 0)
(1.16276 4.57701 0)
(3.74888 -0.000114945 0)
(3.7492 -0.000330072 0)
(3.74975 -0.000495378 0)
(3.74956 -0.000593667 0)
(3.74906 -0.000638009 0)
(3.74865 -0.000645966 0)
(3.74834 -0.000625975 0)
(3.74804 -0.000582603 0)
(3.74773 -0.000521602 0)
(3.74743 -0.000448667 0)
(3.74716 -0.000367257 0)
(3.7469 -0.000278614 0)
(3.74667 -0.000182567 0)
(3.74646 -7.77584e-05 0)
(3.74627 3.84752e-05 0)
(3.74611 0.000170112 0)
(3.74598 0.000322459 0)
(3.74588 0.000502495 0)
(3.74583 0.000719561 0)
(3.74583 0.000986204 0)
(3.74591 0.00131907 0)
(3.74607 0.00174004 0)
(3.74636 0.00227785 0)
(3.7468 0.0029705 0)
(3.74745 0.00386849 0)
(3.74838 0.00503925 0)
(3.74967 0.00657296 0)
(3.75146 0.00859049 0)
(3.75388 0.0112543 0)
(3.75717 0.0147835 0)
(3.7616 0.0194753 0)
(3.76755 0.0257353 0)
(3.77552 0.0341208 0)
(3.78618 0.0454044 0)
(3.80043 0.0606682 0)
(3.81943 0.0814461 0)
(3.84478 0.109944 0)
(3.87856 0.149384 0)
(3.92349 0.20457 0)
(3.98345 0.282776 0)
(4.06251 0.39545 0)
(4.17039 0.560466 0)
(4.30554 0.809545 0)
(4.53251 1.19009 0)
(4.74311 1.8225 0)
(5.70228 2.76155 0)
(5.95769 5.11954 0)
(3.90892 -5.93591e-05 0)
(3.90924 -0.000171032 0)
(3.90979 -0.000257511 0)
(3.90964 -0.000308008 0)
(3.90918 -0.000327534 0)
(3.90879 -0.000324742 0)
(3.90849 -0.000304412 0)
(3.9082 -0.000269308 0)
(3.90789 -0.000222579 0)
(3.90759 -0.00016736 0)
(3.90732 -0.000105684 0)
(3.90707 -3.83324e-05 0)
(3.90684 3.48434e-05 0)
(3.90664 0.000114805 0)
(3.90647 0.000203357 0)
(3.90633 0.000303148 0)
(3.90623 0.000417699 0)
(3.90617 0.00055163 0)
(3.90617 0.000711101 0)
(3.90624 0.000904365 0)
(3.9064 0.00114236 0)
(3.90668 0.00143944 0)
(3.90712 0.00181446 0)
(3.90777 0.00229231 0)
(3.90869 0.00290606 0)
(3.90997 0.00369987 0)
(3.91173 0.00473284 0)
(3.91413 0.00608429 0)
(3.91738 0.0078611 0)
(3.92177 0.0102079 0)
(3.92768 0.0133218 0)
(3.93562 0.0174729 0)
(3.9463 0.0230351 0)
(3.96066 0.0305311 0)
(3.97999 0.0407005 0)
(4.00608 0.0546049 0)
(4.04141 0.0737919 0)
(4.08947 0.100564 0)
(4.15518 0.138395 0)
(4.24589 0.192695 0)
(4.37175 0.271809 0)
(4.55156 0.389526 0)
(4.80516 0.565948 0)
(5.20434 0.834783 0)
(5.75688 1.24124 0)
(6.77149 1.74117 0)
(8.11132 2.68735 0)
(3.98894 -1.08089e-05 0)
(3.98926 -3.07662e-05 0)
(3.98981 -4.32036e-05 0)
(3.98968 -4.39177e-05 0)
(3.98923 -3.41487e-05 0)
(3.98886 -1.65124e-05 0)
(3.98856 7.56061e-06 0)
(3.98828 3.72377e-05 0)
(3.98798 7.16067e-05 0)
(3.98769 0.000109775 2.79062e-33)
(3.98742 0.000151204 0)
(3.98718 0.000195769 0)
(3.98696 0.00024369 0)
(3.98676 0.000295476 0)
(3.98661 0.000351938 0)
(3.98648 0.000414193 2.78686e-33)
(3.9864 0.000483684 0)
(3.98637 0.000562258 0)
(3.9864 0.000652317 0)
(3.98652 0.000757005 0)
(3.98674 0.000880433 0)
(3.98709 0.00102794 0)
(3.98762 0.00120646 0)
(3.98839 0.00142509 -2.77879e-33)
(3.98946 0.00169582 0)
(3.99094 0.00203456 0)
(3.99297 0.00246254 0)
(3.99572 0.00300817 0)
(3.99943 0.00370968 0)
(4.00442 0.00461883 0)
(4.01114 0.00580613 0)
(4.02018 0.0073685 0)
(4.03234 0.00944042 0)
(4.04872 0.0122107 0)
(4.07084 0.0159478 0)
(4.10085 0.0210397 0)
(4.14172 0.0280562 0)
(4.19776 0.0378524 0)
(4.27519 0.0517248 0)
(4.38325 0.0717206 0)
(4.53559 0.100903 0)
(4.75316 0.14447 -2.19878e-33)
(5.06628 0.208285 0)
(5.51724 0.302829 0)
(6.16797 0.425158 0)
(7.03276 0.543796 0)
(8.25924 0.638658 0)
(3.98894 3.54017e-05 0)
(3.98926 0.000103105 0)
(3.98982 0.000162642 0)
(3.98968 0.000211734 0)
(3.98924 0.000251718 0)
(3.98886 0.000285058 0)
(3.98858 0.000313462 0)
(3.9883 0.000338069 0)
(3.988 0.000360138 0)
(3.98772 0.000380925 -2.79046e-33)
(3.98745 0.000401383 0)
(3.98722 0.000422093 0)
(3.98701 0.000443353 0)
(3.98683 0.000465176 0)
(3.98668 0.000487323 0)
(3.98657 0.000509299 -2.78676e-33)
(3.9865 0.000530375 0)
(3.98648 0.000549475 0)
(3.98653 0.00056504 0)
(3.98666 0.000574816 0)
(3.9869 0.000575698 0)
(3.98728 0.000563455 0)
(3.98783 0.000532412 0)
(3.98862 0.000474884 2.77919e-33)
(3.98973 0.000380489 0)
(3.99124 0.000235138 0)
(3.9933 1.97695e-05 0)
(3.99608 -0.000291476 0)
(3.99984 -0.000733677 0)
(4.00488 -0.00135466 0)
(4.01165 -0.00221988 0)
(4.02075 -0.00341963 0)
(4.03298 -0.00507942 0)
(4.04944 -0.00737554 0)
(4.07167 -0.0105587 0)
(4.10179 -0.0149907 0)
(4.14282 -0.0212019 0)
(4.19908 -0.0299868 0)
(4.2768 -0.0425454 0)
(4.38528 -0.060767 0)
(4.53828 -0.0874453 0)
(4.75691 -0.127308 2.20037e-33)
(5.07187 -0.185378 0)
(5.52562 -0.270431 0)
(6.1818 -0.37709 0)
(7.05196 -0.466529 0)
(8.29006 -0.516605 0)
(3.90892 8.33408e-05 0)
(3.90925 0.000241564 0)
(3.9098 0.000373931 0)
(3.90965 0.000471567 0)
(3.9092 0.000539559 0)
(3.90882 0.00058641 0)
(3.90853 0.000617155 0)
(3.90825 0.000634873 0)
(3.90796 0.000643041 0)
(3.90768 0.000645161 0)
(3.90743 0.000643647 0)
(3.9072 0.00063975 0)
(3.907 0.000633799 0)
(3.90683 0.000625369 0)
(3.90669 0.000613184 0)
(3.90658 0.00059523 0)
(3.90652 0.000568652 0)
(3.9065 0.000529608 0)
(3.90655 0.000472714 0)
(3.90667 0.000390618 0)
(3.90689 0.000273314 0)
(3.90724 0.000107547 0)
(3.90775 -0.000124366 0)
(3.90847 -0.000445938 0)
(3.90947 -0.000888766 0)
(3.91084 -0.00149524 0)
(3.91271 -0.00232249 0)
(3.91522 -0.00344745 0)
(3.9186 -0.00497418 0)
(3.92313 -0.00704378 0)
(3.9292 -0.00984888 0)
(3.93732 -0.0136539 0)
(3.9482 -0.0188253 0)
(3.9628 -0.0258754 0)
(3.98243 -0.0355295 0)
(4.00888 -0.0488288 0)
(4.04466 -0.0672918 0)
(4.09331 -0.0931767 0)
(4.15983 -0.129893 0)
(4.2517 -0.182752 0)
(4.37932 -0.259934 0)
(4.56195 -0.375002 0)
(4.8202 -0.547591 0)
(5.22784 -0.810747 0)
(5.79552 -1.20858 0)
(6.8362 -1.68935 0)
(8.22823 -2.61155 0)
(3.74888 0.000137714 0)
(3.74921 0.000397014 0)
(3.74976 0.000605807 0)
(3.74958 0.000748771 0)
(3.74909 0.000839024 0)
(3.7487 0.000893967 0)
(3.74841 0.000922273 0)
(3.74813 0.000928814 0)
(3.74785 0.000919643 0)
(3.74758 0.000900818 0)
(3.74733 0.000876148 0)
(3.74712 0.000847334 0)
(3.74693 0.00081464 0)
(3.74677 0.000777233 0)
(3.74663 0.000732931 0)
(3.74653 0.000678379 0)
(3.74646 0.000608872 0)
(3.74644 0.000518179 0)
(3.74647 0.000397658 0)
(3.74655 0.000235628 0)
(3.74672 1.62774e-05 0)
(3.74699 -0.000281218 0)
(3.74739 -0.000684566 0)
(3.74796 -0.00123048 0)
(3.74875 -0.00196819 0)
(3.74983 -0.00296354 0)
(3.75129 -0.00430506 0)
(3.75326 -0.00611155 0)
(3.75589 -0.0085432 0)
(3.75941 -0.0118164 0)
(3.7641 -0.0162251 0)
(3.77034 -0.0221706 0)
(3.77864 -0.0302055 0)
(3.78969 -0.0410956 0)
(3.80439 -0.0559151 0)
(3.82396 -0.0761871 0)
(3.84999 -0.104104 0)
(3.88465 -0.142872 0)
(3.93076 -0.197276 0)
(3.99234 -0.274573 0)
(4.07369 -0.38621 0)
(4.18514 -0.550102 0)
(4.32544 -0.798186 0)
(4.5628 -1.17821 0)
(4.78629 -1.81318 0)
(5.79366 -2.75401 0)
(6.09057 -5.15928 0)
(3.50881 0.000205529 0)
(3.50914 0.000586859 0)
(3.50968 0.000877227 0)
(3.50944 0.00105767 0)
(3.50891 0.00115957 0)
(3.5085 0.00121376 0)
(3.5082 0.00123196 0)
(3.50792 0.00122033 0)
(3.50765 0.00118843 0)
(3.50739 0.00114529 0)
(3.50716 0.00109603 0)
(3.50696 0.00104227 0)
(3.50679 0.000984206 0)
(3.50664 0.000920423 0)
(3.50651 0.000848175 0)
(3.50641 0.000762833 0)
(3.50634 0.0006585 0)
(3.5063 0.000526951 0)
(3.5063 0.000357415 0)
(3.50634 0.000134853 0)
(3.50643 -0.000160385 0)
(3.50659 -0.0005547 0)
(3.50684 -0.00108247 0)
(3.50719 -0.00178983 0)
(3.50768 -0.00273781 0)
(3.50835 -0.00400855 0)
(3.50926 -0.00571142 0)
(3.51046 -0.00799342 0)
(3.51207 -0.0110511 0)
(3.51419 -0.0151494 0)
(3.51699 -0.0206451 0)
(3.52068 -0.0280221 0)
(3.5255 -0.0379391 0)
(3.53179 -0.0512989 0)
(3.53996 -0.0693472 0)
(3.55049 -0.0938184 0)
(3.56392 -0.127152 0)
(3.58081 -0.172818 0)
(3.60155 -0.235837 0)
(3.62619 -0.323506 0)
(3.65316 -0.446966 0)
(3.68013 -0.622336 0)
(3.69201 -0.878528 0)
(3.68503 -1.25177 0)
(3.52523 -1.8513 0)
(3.3948 -2.83517 0)
(1.17619 -4.66212 0)
(3.1887 0.000299139 0)
(3.18902 0.000839781 0)
(3.18953 0.00121523 0)
(3.18921 0.00141484 0)
(3.18861 0.00150931 0)
(3.18817 0.0015488 0)
(3.18787 0.00154536 0)
(3.1876 0.00150594 0)
(3.18734 0.00144455 0)
(3.1871 0.00137338 0)
(3.1869 0.00129802 0)
(3.18673 0.00121966 0)
(3.18658 0.00113803 0)
(3.18646 0.00105142 0)
(3.18635 0.000956423 0)
(3.18626 0.000847761 0)
(3.1862 0.000718637 0)
(3.18615 0.000559934 0)
(3.18612 0.000359588 0)
(3.18612 0.00010109 0)
(3.18613 -0.000237241 0)
(3.18618 -0.000684165 0)
(3.18625 -0.00127728 0)
(3.18636 -0.00206666 0)
(3.18652 -0.00311871 0)
(3.18672 -0.00452226 0)
(3.18698 -0.00639543 0)
(3.18731 -0.00889603 0)
(3.18773 -0.0122342 0)
(3.18825 -0.0166911 0)
(3.18888 -0.0226423 0)
(3.18963 -0.0305919 0)
(3.1905 -0.0412172 0)
(3.19143 -0.0554312 0)
(3.19234 -0.0744677 0)
(3.19297 -0.1 0)
(3.19288 -0.134308 0)
(3.19118 -0.180503 0)
(3.1862 -0.242855 0)
(3.17498 -0.327191 0)
(3.15188 -0.441615 0)
(3.10736 -0.596686 0)
(3.02204 -0.807985 0)
(2.86748 -1.08946 0)
(2.57545 -1.47337 0)
(2.08442 -1.91945 0)
(0.906063 -2.33563 0)
(2.78853 0.000442356 0)
(2.78882 0.00120293 0)
(2.78925 0.00165826 0)
(2.7888 0.00184348 0)
(2.78813 0.00190137 0)
(2.78768 0.00190348 0)
(2.78739 0.00185815 0)
(2.78715 0.00177511 0)
(2.78692 0.00167397 0)
(2.78674 0.00156928 0)
(2.7866 0.00146497 0)
(2.78649 0.00136143 0)
(2.78641 0.00125728 0)
(2.78635 0.00115094 0)
(2.7863 0.00103804 0)
(2.78627 0.00091357 0)
(2.78625 0.000769928 0)
(2.78623 0.000598662 0)
(2.78622 0.000387038 0)
(2.7862 0.000119537 0)
(2.78618 -0.000225905 0)
(2.78614 -0.000676495 0)
(2.78607 -0.00126967 0)
(2.78596 -0.00205315 0)
(2.78578 -0.00309215 0)
(2.78553 -0.00447147 0)
(2.78514 -0.00630563 0)
(2.78459 -0.00874456 0)
(2.78381 -0.011989 0)
(2.78269 -0.0163028 0)
(2.78112 -0.0220379 0)
(2.77892 -0.0296577 0)
(2.77581 -0.0397776 0)
(2.77143 -0.0532075 0)
(2.76522 -0.0710163 0)
(2.75636 -0.0946028 0)
(2.74358 -0.125792 0)
(2.72498 -0.166935 0)
(2.6976 -0.221017 0)
(2.65683 -0.291705 0)
(2.59535 -0.383343 0)
(2.50185 -0.500374 0)
(2.35777 -0.646862 0)
(2.13666 -0.822195 0)
(1.79124 -1.02202 0)
(1.27866 -1.22231 0)
(0.417092 -1.27816 0)
(2.30825 0.000695897 0)
(2.30845 0.00174943 0)
(2.30874 0.00223146 0)
(2.30813 0.0023423 0)
(2.30741 0.00233061 0)
(2.30701 0.00226722 0)
(2.30682 0.0021503 0)
(2.3067 0.00199817 0)
(2.30663 0.00183972 0)
(2.30662 0.00168905 0)
(2.30665 0.00154769 0)
(2.30671 0.0014135 0)
(2.3068 0.00128505 0)
(2.3069 0.00115947 0)
(2.30701 0.0010328 0)
(2.30712 0.000899191 0)
(2.30722 0.000752313 0)
(2.30731 0.000583547 0)
(2.30738 0.000382388 0)
(2.30742 0.000134126 0)
(2.30741 -0.000179537 0)
(2.30734 -0.000583246 0)
(2.30718 -0.00110827 0)
(2.30691 -0.00179679 0)
(2.30647 -0.00270364 0)
(2.30581 -0.00390243 0)
(2.30486 -0.00548933 0)
(2.30352 -0.00759217 0)
(2.30164 -0.010378 0)
(2.29905 -0.0140674 0)
(2.29549 -0.0189476 0)
(2.29062 -0.0253946 0)
(2.28398 -0.0338948 0)
(2.27493 -0.0450746 0)
(2.26257 -0.0597305 0)
(2.24567 -0.0788619 0)
(2.2225 -0.103692 0)
(2.19059 -0.135671 0)
(2.14648 -0.176416 0)
(2.08524 -0.227542 0)
(1.99987 -0.290301 0)
(1.88074 -0.364736 0)
(1.71447 -0.448539 0)
(1.48475 -0.534049 0)
(1.17043 -0.608107 0)
(0.766503 -0.643341 0)
(0.212668 -0.557497 0)
(1.74773 0.00127565 0)
(1.74772 0.00271131 0)
(1.7479 0.00300305 0)
(1.74733 0.00285737 0)
(1.74688 0.00267478 0)
(1.74686 0.00247626 0)
(1.74709 0.00223475 0)
(1.74741 0.00197987 0)
(1.74777 0.00174632 0)
(1.74816 0.00154272 0)
(1.74856 0.00136466 0)
(1.74896 0.00120652 0)
(1.74934 0.00106499 0)
(1.74971 0.000935389 0)
(1.75004 0.000812946 0)
(1.75035 0.000691336 0)
(1.75062 0.000564964 0)
(1.75085 0.000426151 0)
(1.75103 0.000266732 0)
(1.75114 7.49291e-05 0)
(1.75117 -0.000162649 0)
(1.75109 -0.000464664 0)
(1.75087 -0.000853603 0)
(1.75046 -0.00136066 0)
(1.74981 -0.0020251 0)
(1.74885 -0.00290043 0)
(1.74745 -0.00405497 0)
(1.74549 -0.00558 0)
(1.74277 -0.00759257 0)
(1.73905 -0.0102465 0)
(1.73399 -0.0137384 0)
(1.72715 -0.0183213 0)
(1.71793 -0.0243135 0)
(1.70555 -0.032112 0)
(1.68894 -0.0421974 0)
(1.6667 -0.055135 0)
(1.63697 -0.0715518 0)
(1.59727 -0.0920837 0)
(1.54438 -0.117255 0)
(1.47416 -0.147261 0)
(1.38145 -0.181595 0)
(1.26019 -0.218428 0)
(1.1038 -0.253859 0)
(0.906921 -0.280748 0)
(0.667043 -0.289547 0)
(0.397953 -0.267427 0)
(0.0902738 -0.196336 0)
(1.10681 0.00250012 0)
(1.10694 0.0044389 0)
(1.1081 0.00408854 0)
(1.10884 0.00325548 0)
(1.10967 0.00260548 0)
(1.11072 0.00210078 0)
(1.11181 0.00167093 0)
(1.1128 0.00132476 0)
(1.11369 0.00106663 0)
(1.11448 0.000877078 0)
(1.11518 0.000732525 0)
(1.1158 0.000618435 0)
(1.11635 0.000525149 0)
(1.11684 0.000446258 0)
(1.11727 0.000375175 0)
(1.11764 0.00030753 0)
(1.11795 0.000238211 0)
(1.11819 0.000163406 0)
(1.11837 7.71099e-05 0)
(1.11847 -2.6225e-05 0)
(1.11847 -0.00015518 0)
(1.11834 -0.000318641 0)
(1.11806 -0.000530058 0)
(1.11757 -0.00080495 0)
(1.11681 -0.00116578 0)
(1.1157 -0.00163974 0)
(1.11413 -0.00226442 0)
(1.11194 -0.00308629 0)
(1.10894 -0.00416742 0)
(1.10487 -0.00558477 0)
(1.09938 -0.00743776 0)
(1.09203 -0.00984747 0)
(1.08223 -0.0129631 0)
(1.06922 -0.0169573 0)
(1.05204 -0.0220252 0)
(1.02944 -0.0283649 0)
(0.999875 -0.0361517 0)
(0.961473 -0.0454794 0)
(0.912017 -0.0562765 0)
(0.849051 -0.0681698 0)
(0.770113 -0.0803138 0)
(0.67325 -0.0911669 0)
(0.557848 -0.0983259 0)
(0.426153 -0.0983377 0)
(0.285017 -0.0873828 0)
(0.150962 -0.0620075 0)
(0.0247971 -0.0326199 0)
(0.39012 0.00201264 0)
(0.395117 0.00228733 0)
(0.399041 0.00136367 0)
(0.401418 0.000762153 0)
(0.403103 0.000497068 0)
(0.404458 0.000337427 0)
(0.405522 0.000218624 0)
(0.406331 0.000144004 0)
(0.40696 0.000103971 0)
(0.407467 8.11847e-05 0)
(0.407887 6.54883e-05 0)
(0.408239 5.35617e-05 0)
(0.408538 4.40374e-05 0)
(0.408791 3.57001e-05 0)
(0.409005 2.75533e-05 0)
(0.409182 1.89603e-05 0)
(0.409323 9.29273e-06 0)
(0.409425 -2.21839e-06 0)
(0.409484 -1.65823e-05 0)
(0.409492 -3.49193e-05 0)
(0.409436 -5.85829e-05 0)
(0.409302 -8.92687e-05 0)
(0.409065 -0.00012936 0)
(0.408697 -0.000182 0)
(0.408156 -0.000251333 0)
(0.407388 -0.000342612 0)
(0.406323 -0.00046259 0)
(0.404866 -0.00061977 0)
(0.402894 -0.000824899 0)
(0.400249 -0.00109117 0)
(0.396724 -0.00143449 0)
(0.392058 -0.00187309 0)
(0.385918 -0.00242678 0)
(0.377896 -0.00311468 0)
(0.367493 -0.00395148 0)
(0.354127 -0.00494085 0)
(0.337139 -0.00606571 0)
(0.315844 -0.00727507 0)
(0.289597 -0.00846941 0)
(0.257938 -0.00948829 0)
(0.220778 -0.0101098 0)
(0.17867 -0.0100607 0)
(0.133111 -0.00905476 0)
(0.0869929 -0.00677765 0)
(0.0453093 -0.00288434 0)
(0.0157068 0.00335722 0)
(-0.00239661 0.00499808 0)
(7.2344 3.823 0)
(6.0674 2.04046 0)
(4.33946 0.931206 0)
(3.54495 0.366515 0)
(3.36955 0.0885433 0)
(3.20506 -0.0726549 0)
(9.89916 2.20983 0)
(10.5775 1.42341 0)
(10.5328 1.01134 0)
(10.3668 0.815809 0)
(10.2247 0.684609 0)
(10.0376 0.599529 0)
(9.71364 0.396645 0)
(10.8389 0.193446 0)
(11.438 0.17861 0)
(11.7241 0.236574 0)
(11.8908 0.295095 0)
(11.9775 0.361974 0)
(9.75117 -0.189979 0)
(10.8721 0.123442 0)
(11.4647 0.256599 0)
(11.7515 0.325559 0)
(11.9464 0.411569 0)
(12.0868 0.520005 0)
(10.0692 -2.02151 0)
(10.8243 -1.09497 0)
(10.9253 -0.570096 0)
(10.9781 -0.283891 0)
(11.0971 -0.0518287 0)
(11.2009 0.162666 0)
(7.50071 -3.85947 0)
(6.52962 -2.06816 0)
(5.04593 -0.950273 0)
(4.51012 -0.355742 0)
(4.66367 -0.00983342 0)
(4.92635 0.253471 0)
(-0.00151624 0.00117442 0)
(-0.0147612 0.00306422 0)
(-0.0328461 0.00373683 0)
(-0.0516302 0.00358314 0)
(-0.0688127 0.0032627 0)
(-0.0840718 0.00288508 0)
(-0.0974823 0.00247884 0)
(-0.10918 0.00207172 0)
(-0.11935 0.00169224 0)
(-0.128203 0.00136346 0)
(-0.135946 0.00109724 0)
(-0.142735 0.000889728 0)
(-0.148649 0.000718541 0)
(-0.153681 0.000556241 0)
(-0.157763 0.000385736 0)
(-0.160802 0.000199697 0)
(-0.162724 -1.19142e-06 0)
(-0.163508 -0.000209473 0)
(-0.163198 -0.000418369 0)
(-0.161902 -0.000611468 0)
(-0.159775 -0.000773979 0)
(-0.157001 -0.000883438 0)
(-0.153788 -0.00093088 0)
(-0.150347 -0.00092312 0)
(-0.146883 -0.000870085 0)
(-0.143581 -0.000788928 0)
(-0.1406 -0.000677046 0)
(-0.138089 -0.000528047 0)
(-0.136176 -0.000342533 0)
(-0.134953 -0.000130961 0)
(-0.134471 8.50123e-05 0)
(-0.134751 0.00031461 0)
(-0.135796 0.000530724 0)
(-0.137569 0.000713613 0)
(-0.14001 0.000863158 0)
(-0.143056 0.000991683 0)
(-0.146646 0.0011135 0)
(-0.150716 0.00123643 0)
(-0.155202 0.00134845 0)
(-0.160036 0.00143457 0)
(-0.165179 0.0014913 0)
(-0.170672 0.00157689 0)
(-0.176647 0.00179871 0)
(-0.18354 0.00215776 0)
(-0.192895 0.00288917 0)
(-0.205218 0.00480366 0)
(-0.218839 0.00696863 0)
(-0.00795851 0.0178806 0)
(-0.0509832 0.0343811 0)
(-0.100764 0.0384012 0)
(-0.149138 0.0365175 0)
(-0.192372 0.0329757 0)
(-0.230238 0.0291801 0)
(-0.26313 0.0255512 0)
(-0.291578 0.0222524 0)
(-0.316168 0.0193618 0)
(-0.337469 0.0168878 0)
(-0.355957 0.0147633 0)
(-0.371955 0.0128592 0)
(-0.385598 0.0110157 0)
(-0.396862 0.00909878 0)
(-0.405627 0.00702734 0)
(-0.411765 0.00480239 0)
(-0.415225 0.00249543 0)
(-0.416086 0.000223064 0)
(-0.41456 -0.00188363 0)
(-0.410978 -0.00370831 0)
(-0.405745 -0.00518249 0)
(-0.399303 -0.006266 0)
(-0.392113 -0.00694934 0)
(-0.384646 -0.00723215 0)
(-0.377338 -0.00713712 0)
(-0.370577 -0.00668803 0)
(-0.364714 -0.00591991 0)
(-0.360056 -0.0048732 0)
(-0.356859 -0.00361562 0)
(-0.355281 -0.00221238 0)
(-0.355433 -0.00071089 0)
(-0.357357 0.000831356 0)
(-0.361007 0.00235713 0)
(-0.366301 0.00381343 0)
(-0.3731 0.00516119 0)
(-0.38124 0.00639255 0)
(-0.390558 0.00749743 0)
(-0.400884 0.00847004 0)
(-0.412045 0.00930842 0)
(-0.423904 0.0100394 0)
(-0.436364 0.0107551 0)
(-0.449358 0.0117122 0)
(-0.462717 0.0132573 0)
(-0.476451 0.0156439 0)
(-0.491973 0.0188079 0)
(-0.507246 0.0209341 0)
(-0.518662 0.0213509 0)
(-0.0162033 0.0579504 0)
(-0.0910541 0.0965583 0)
(-0.167263 0.100788 0)
(-0.236663 0.0929189 0)
(-0.296661 0.0822991 0)
(-0.348205 0.0717338 0)
(-0.392428 0.0620562 0)
(-0.430432 0.0535418 0)
(-0.463232 0.0462459 0)
(-0.491701 0.0400633 0)
(-0.516512 0.0347467 0)
(-0.538102 0.0299491 0)
(-0.556644 0.0253067 0)
(-0.57211 0.0205331 0)
(-0.584365 0.0154891 0)
(-0.593273 0.0102158 0)
(-0.59882 0.00491647 0)
(-0.60116 -0.00012919 0)
(-0.600615 -0.00464216 0)
(-0.597643 -0.00840508 0)
(-0.592764 -0.0113148 0)
(-0.586543 -0.0133175 0)
(-0.579553 -0.0144039 0)
(-0.572353 -0.0145826 0)
(-0.565472 -0.0139037 0)
(-0.55939 -0.0124536 0)
(-0.554537 -0.0103346 0)
(-0.551288 -0.00766121 0)
(-0.549927 -0.00456785 0)
(-0.550621 -0.00118252 0)
(-0.553482 0.00233819 0)
(-0.558471 0.00585479 0)
(-0.565499 0.00923581 0)
(-0.574404 0.0123837 0)
(-0.584963 0.0152364 0)
(-0.596933 0.017767 0)
(-0.610064 0.0199427 0)
(-0.624095 0.0217604 0)
(-0.638759 0.0232402 0)
(-0.653786 0.0244628 0)
(-0.668909 0.0255685 0)
(-0.683884 0.0267635 0)
(-0.698359 0.0282374 0)
(-0.712022 0.02995 0)
(-0.72585 0.0315205 0)
(-0.739046 0.0317193 0)
(-0.743479 0.0290154 0)
(-0.0258411 0.124412 0)
(-0.129587 0.185607 0)
(-0.220019 0.182233 0)
(-0.296381 0.163061 0)
(-0.360576 0.142198 0)
(-0.41538 0.122889 0)
(-0.462661 0.105914 0)
(-0.503897 0.091381 0)
(-0.540238 0.0791333 0)
(-0.572556 0.068832 0)
(-0.601491 0.0599772 0)
(-0.62743 0.0519528 0)
(-0.650486 0.0441485 0)
(-0.670542 0.0360937 0)
(-0.68735 0.0275891 0)
(-0.70065 0.0187535 0)
(-0.710336 0.00998051 0)
(-0.716546 0.0017507 0)
(-0.71963 -0.00550622 0)
(-0.720087 -0.0114904 0)
(-0.718459 -0.0160714 0)
(-0.715295 -0.0191723 0)
(-0.711167 -0.0207416 0)
(-0.706681 -0.0208102 0)
(-0.702438 -0.019481 0)
(-0.698981 -0.0169288 0)
(-0.696788 -0.0132982 0)
(-0.696263 -0.00876888 0)
(-0.697701 -0.00356376 0)
(-0.701336 0.00206488 0)
(-0.707202 0.00781841 0)
(-0.715214 0.0134751 0)
(-0.725253 0.0188615 0)
(-0.737093 0.0238087 0)
(-0.750443 0.0281877 0)
(-0.765014 0.0319201 0)
(-0.780491 0.0349745 0)
(-0.796518 0.0373507 0)
(-0.812728 0.0390995 0)
(-0.828758 0.0402978 0)
(-0.84425 0.0410615 0)
(-0.858844 0.0415834 0)
(-0.872151 0.042048 0)
(-0.883926 0.0424441 0)
(-0.895355 0.0424439 0)
(-0.906787 0.0411996 0)
(-0.910154 0.0369176 0)
(-0.037313 0.220992 0)
(-0.156368 0.287786 0)
(-0.233262 0.262598 0)
(-0.291322 0.228541 0)
(-0.341287 0.197675 0)
(-0.386379 0.170893 0)
(-0.427966 0.148257 0)
(-0.46704 0.129334 0)
(-0.504119 0.113545 0)
(-0.539432 0.100287 0)
(-0.573093 0.0888446 0)
(-0.605121 0.0783775 0)
(-0.635372 0.0680326 0)
(-0.663501 0.0571554 0)
(-0.688986 0.0454577 0)
(-0.711258 0.0331456 0)
(-0.72995 0.02083 0)
(-0.74503 0.00925557 0)
(-0.756745 -0.000963556 0)
(-0.765476 -0.00942824 0)
(-0.771709 -0.0159384 0)
(-0.775791 -0.0203932 0)
(-0.778209 -0.0227317 0)
(-0.779593 -0.0229862 0)
(-0.780599 -0.0212795 0)
(-0.781811 -0.0178087 0)
(-0.783764 -0.01277 0)
(-0.786995 -0.00643744 0)
(-0.791959 0.000797032 0)
(-0.7989 0.00852146 0)
(-0.807796 0.016353 0)
(-0.818563 0.0239848 0)
(-0.831095 0.0311812 0)
(-0.845177 0.037692 0)
(-0.860493 0.0432927 0)
(-0.876694 0.0478786 0)
(-0.893424 0.0514389 0)
(-0.910294 0.0539708 0)
(-0.926921 0.0554909 0)
(-0.942921 0.0560573 0)
(-0.95785 0.0558293 0)
(-0.971299 0.0550575 0)
(-0.982966 0.0539851 0)
(-0.992851 0.0527811 0)
(-1.00225 0.0514425 0)
(-1.0115 0.0494982 0)
(-1.01378 0.0445288 0)
(-0.0351886 0.325137 0)
(-0.123243 0.358104 0)
(-0.124321 0.299048 0)
(-0.122249 0.260363 0)
(-0.134872 0.229458 0)
(-0.157794 0.202829 0)
(-0.187918 0.181251 0)
(-0.223977 0.163589 0)
(-0.264571 0.14862 0)
(-0.308153 0.135677 0)
(-0.353396 0.124136 0)
(-0.399303 0.113147 0)
(-0.445115 0.101744 0)
(-0.490167 0.0890921 0)
(-0.53366 0.0748254 0)
(-0.574645 0.05928 0)
(-0.612354 0.0434085 0)
(-0.646365 0.0283302 0)
(-0.676572 0.0148697 0)
(-0.70302 0.00347593 0)
(-0.725736 -0.00558006 0)
(-0.744915 -0.012207 0)
(-0.76085 -0.0163476 0)
(-0.774033 -0.0178868 0)
(-0.785046 -0.01684 0)
(-0.794581 -0.0132938 0)
(-0.803402 -0.00755401 0)
(-0.812414 -3.23685e-05 0)
(-0.822232 0.00871411 0)