/*--------------------------------*- C++ -*----------------------------------*\
| =========                 |                                                 |
| \\      /  F ield         | OpenFOAM: The Open Source CFD Toolbox           |
|  \\    /   O peration     | Version:  2406                                  |
|   \\  /    A nd           | Website:  www.openfoam.com                      |
|    \\/     M anipulation  |                                                 |
\*---------------------------------------------------------------------------*/
FoamFile
{
    version     2.0;
    format      ascii;
    arch        "LSB;label=32;scalar=64";
    class       volScalarField;
    location    "79";
    object      p;
}
// * * * * * * * * * * * * * * * * * * * * * * * * * * * * * * * * * * * * * //

dimensions      [0 2 -2 0 0 0 0];

internalField   nonuniform List<scalar> 
2000
(
0.186347
0.185856
0.184793
0.18342
0.181888
0.180249
0.178539
0.176783
0.174997
0.17319
0.187666
0.186293
0.184835
0.183398
0.181861
0.180214
0.178502
0.176751
0.174971
0.173168
0.188457
0.186538
0.184788
0.183335
0.181822
0.180173
0.178458
0.176712
0.174939
0.173141
0.188958
0.186808
0.184836
0.183316
0.181797
0.180138
0.178412
0.176666
0.174899
0.173107
0.189346
0.187093
0.184953
0.183339
0.181791
0.180115
0.178373
0.17662
0.174854
0.173066
0.18965
0.18734
0.185086
0.183389
0.181806
0.180109
0.178349
0.176584
0.174815
0.173027
0.18988
0.187538
0.185212
0.183451
0.181834
0.180115
0.178337
0.17656
0.174785
0.172995
0.190046
0.187686
0.185315
0.18351
0.181864
0.180127
0.178333
0.176544
0.174763
0.17297
0.190155
0.187785
0.185387
0.183555
0.181889
0.180138
0.178332
0.176536
0.17475
0.172954
0.190209
0.187835
0.185424
0.183578
0.181903
0.180144
0.178333
0.176533
0.174743
0.172947
0.190209
0.187835
0.185424
0.183578
0.181903
0.180144
0.178333
0.176533
0.174743
0.172947
0.190155
0.187785
0.185387
0.183555
0.181889
0.180138
0.178332
0.176536
0.17475
0.172954
0.190046
0.187686
0.185315
0.18351
0.181864
0.180127
0.178333
0.176544
0.174763
0.17297
0.18988
0.187538
0.185212
0.183451
0.181834
0.180115
0.178337
0.17656
0.174785
0.172995
0.18965
0.187339
0.185086
0.183389
0.181806
0.180109
0.178349
0.176584
0.174815
0.173027
0.189346
0.187093
0.184953
0.183339
0.181791
0.180115
0.178373
0.17662
0.174854
0.173066
0.188958
0.186808
0.184836
0.183316
0.181797
0.180138
0.178412
0.176666
0.174899
0.173107
0.188457
0.186538
0.184788
0.183335
0.181821
0.180173
0.178458
0.176712
0.174939
0.173141
0.187665
0.186293
0.184835
0.183398
0.181861
0.180214
0.178502
0.176751
0.174971
0.173168
0.186347
0.185856
0.184793
0.18342
0.181888
0.180249
0.178539
0.176783
0.174997
0.17319
0.171366
0.169529
0.167683
0.165829
0.163967
0.1621
0.160228
0.158352
0.156472
0.154589
0.152703
0.150814
0.148923
0.147029
0.145133
0.143236
0.141337
0.139436
0.137534
0.13563
0.133725
0.131819
0.129911
0.128003
0.126093
0.124183
0.122271
0.120359
0.118446
0.116532
0.114617
0.112702
0.110785
0.108869
0.106951
0.171348
0.169514
0.16767
0.165817
0.163957
0.162091
0.16022
0.158345
0.156466
0.154583
0.152697
0.150809
0.148918
0.147025
0.14513
0.143232
0.141333
0.139433
0.137531
0.135627
0.133722
0.131816
0.129909
0.128001
0.126091
0.124181
0.122269
0.120357
0.118444
0.11653
0.114615
0.1127
0.110784
0.108867
0.10695
0.171325
0.169494
0.167653
0.165803
0.163945
0.16208
0.160211
0.158337
0.156458
0.154576
0.152691
0.150804
0.148913
0.14702
0.145126
0.143229
0.14133
0.13943
0.137528
0.135624
0.13372
0.131814
0.129907
0.127998
0.126089
0.124179
0.122267
0.120355
0.118442
0.116528
0.114614
0.112699
0.110782
0.108866
0.106948
0.171294
0.169468
0.167631
0.165784
0.163928
0.162066
0.160198
0.158326
0.156449
0.154568
0.152684
0.150797
0.148908
0.147015
0.145121
0.143225
0.141326
0.139426
0.137525
0.135622
0.133717
0.131811
0.129905
0.127996
0.126087
0.124177
0.122266
0.120354
0.118441
0.116527
0.114612
0.112697
0.110781
0.108865
0.106947
0.171257
0.169435
0.167602
0.165759
0.163907
0.162047
0.160181
0.158311
0.156436
0.154557
0.152675
0.150789
0.1489
0.147009
0.145115
0.143219
0.141321
0.139422
0.137521
0.135618
0.133714
0.131808
0.129902
0.127994
0.126085
0.124175
0.122264
0.120352
0.118439
0.116525
0.114611
0.112696
0.11078
0.108863
0.106946
0.17122
0.169401
0.167571
0.165732
0.163883
0.162025
0.160162
0.158294
0.156421
0.154545
0.152664
0.150779
0.148891
0.147
0.145107
0.143212
0.141315
0.139416
0.137516
0.135614
0.13371
0.131805
0.129898
0.12799
0.126082
0.124172
0.122261
0.120349
0.118436
0.116523
0.114609
0.112694
0.110778
0.108862
0.106944
0.171188
0.16937
0.167543
0.165706
0.16386
0.162004
0.160143
0.158276
0.156406
0.154532
0.152653
0.150769
0.148882
0.146992
0.145099
0.143205
0.141309
0.139411
0.137511
0.135609
0.133706
0.131801
0.129895
0.127987
0.126078
0.124169
0.122258
0.120346
0.118434
0.116521
0.114607
0.112692
0.110776
0.10886
0.106943
0.171163
0.169345
0.167519
0.165685
0.16384
0.161987
0.160126
0.158262
0.156393
0.15452
0.152643
0.150761
0.148874
0.146985
0.145093
0.143199
0.141303
0.139405
0.137506
0.135605
0.133702
0.131798
0.129892
0.127984
0.126076
0.124166
0.122255
0.120344
0.118432
0.116519
0.114605
0.11269
0.110775
0.108858
0.106941
0.171145
0.169327
0.167503
0.16567
0.163827
0.161974
0.160115
0.158251
0.156383
0.154512
0.152636
0.150754
0.148869
0.14698
0.145088
0.143194
0.141299
0.139402
0.137503
0.135602
0.1337
0.131795
0.129889
0.127982
0.126073
0.124164
0.122253
0.120342
0.11843
0.116517
0.114603
0.112689
0.110773
0.108857
0.10694
0.171137
0.169319
0.167494
0.165662
0.16382
0.161968
0.160109
0.158245
0.156378
0.154508
0.152632
0.150751
0.148866
0.146977
0.145085
0.143192
0.141296
0.1394
0.137501
0.135601
0.133698
0.131794
0.129888
0.127981
0.126072
0.124163
0.122252
0.120341
0.118429
0.116516
0.114603
0.112688
0.110773
0.108856
0.106939
0.171137
0.169319
0.167494
0.165662
0.16382
0.161968
0.160109
0.158245
0.156378
0.154508
0.152632
0.150751
0.148866
0.146977
0.145085
0.143192
0.141296
0.1394
0.137501
0.135601
0.133698
0.131794
0.129888
0.127981
0.126072
0.124163
0.122252
0.120341
0.118429
0.116516
0.114603
0.112688
0.110773
0.108856
0.106939
0.171145
0.169327
0.167503
0.16567
0.163827
0.161974
0.160115
0.158251
0.156384
0.154512
0.152636
0.150754
0.148869
0.146979
0.145088
0.143194
0.141299
0.139402
0.137503
0.135602
0.1337
0.131795
0.129889
0.127982
0.126073
0.124164
0.122253
0.120342
0.11843
0.116517
0.114603
0.112689
0.110773
0.108857
0.10694
0.171163
0.169345
0.167519
0.165685
0.16384
0.161987
0.160127
0.158262
0.156393
0.15452
0.152643
0.150761
0.148874
0.146985
0.145093
0.143199
0.141303
0.139406
0.137506
0.135605
0.133702
0.131798
0.129892
0.127984
0.126075
0.124166
0.122255
0.120344
0.118432
0.116519
0.114605
0.11269
0.110774
0.108858
0.106941
0.171188
0.16937
0.167543
0.165706
0.163859
0.162004
0.160143
0.158277
0.156406
0.154532
0.152652
0.150769
0.148882
0.146992
0.1451
0.143205
0.141309
0.139411
0.137511
0.135609
0.133706
0.131801
0.129895
0.127987
0.126078
0.124169
0.122258
0.120346
0.118434
0.116521
0.114607
0.112692
0.110776
0.10886
0.106943
0.17122
0.169401
0.167571
0.165732
0.163882
0.162025
0.160162
0.158294
0.156421
0.154544
0.152664
0.150779
0.148891
0.147
0.145107
0.143212
0.141315
0.139416
0.137516
0.135614
0.13371
0.131805
0.129898
0.12799
0.126082
0.124172
0.122261
0.120349
0.118436
0.116523
0.114609
0.112694
0.110778
0.108861
0.106944
0.171257
0.169435
0.167602
0.165759
0.163907
0.162047
0.160181
0.158311
0.156436
0.154557
0.152675
0.150789
0.1489
0.147008
0.145115
0.143219
0.141321
0.139422
0.137521
0.135618
0.133714
0.131808
0.129902
0.127994
0.126085
0.124174
0.122263
0.120351
0.118439
0.116525
0.114611
0.112696
0.11078
0.108863
0.106946
0.171295
0.169468
0.167631
0.165784
0.163928
0.162066
0.160198
0.158326
0.156449
0.154568
0.152684
0.150797
0.148908
0.147015
0.145121
0.143224
0.141326
0.139426
0.137525
0.135622
0.133717
0.131811
0.129904
0.127996
0.126087
0.124177
0.122266
0.120354
0.118441
0.116527
0.114612
0.112697
0.110781
0.108864
0.106947
0.171325
0.169494
0.167653
0.165803
0.163945
0.16208
0.160211
0.158337
0.156458
0.154576
0.152691
0.150804
0.148913
0.14702
0.145126
0.143229
0.14133
0.13943
0.137528
0.135624
0.13372
0.131814
0.129907
0.127998
0.126089
0.124179
0.122267
0.120355
0.118442
0.116528
0.114614
0.112698
0.110782
0.108866
0.106948
0.171348
0.169514
0.16767
0.165817
0.163957
0.162091
0.16022
0.158345
0.156466
0.154583
0.152697
0.150809
0.148918
0.147025
0.14513
0.143232
0.141333
0.139433
0.137531
0.135627
0.133722
0.131816
0.129909
0.128001
0.126091
0.124181
0.122269
0.120357
0.118444
0.11653
0.114615
0.1127
0.110784
0.108867
0.10695
0.171366
0.169529
0.167683
0.165829
0.163967
0.1621
0.160228
0.158352
0.156472
0.154589
0.152703
0.150814
0.148923
0.147029
0.145133
0.143236
0.141337
0.139436
0.137534
0.13563
0.133725
0.131819
0.129911
0.128003
0.126093
0.124183
0.122271
0.120359
0.118446
0.116532
0.114617
0.112701
0.110785
0.108868
0.106951
0.105033
0.103114
0.101195
0.0992755
0.0973553
0.0954346
0.0935134
0.0915918
0.0896697
0.0877472
0.105032
0.103113
0.101194
0.0992743
0.0973542
0.0954335
0.0935123
0.0915907
0.0896687
0.0877463
0.105031
0.103112
0.101193
0.0992732
0.0973531
0.0954325
0.0935114
0.0915898
0.0896678
0.0877454
0.105029
0.103111
0.101192
0.0992723
0.0973522
0.0954316
0.0935105
0.091589
0.089667
0.0877447
0.105028
0.10311
0.101191
0.0992712
0.0973511
0.0954306
0.0935095
0.0915881
0.0896661
0.0877438
0.105027
0.103108
0.101189
0.0992699
0.0973499
0.0954294
0.0935084
0.091587
0.0896651
0.0877428
0.105025
0.103107
0.101188
0.0992684
0.0973485
0.0954281
0.0935072
0.0915858
0.089664
0.0877417
0.105024
0.103105
0.101186
0.0992671
0.0973472
0.0954268
0.093506
0.0915847
0.0896629
0.0877408
0.105022
0.103104
0.101185
0.0992661
0.0973462
0.0954259
0.0935051
0.0915838
0.0896621
0.08774
0.105022
0.103104
0.101185
0.0992655
0.0973457
0.0954253
0.0935046
0.0915834
0.0896617
0.0877395
0.105022
0.103104
0.101185
0.0992655
0.0973456
0.0954253
0.0935046
0.0915833
0.0896617
0.0877395
0.105022
0.103104
0.101185
0.099266
0.0973462
0.0954258
0.093505
0.0915838
0.0896621
0.0877399
0.105023
0.103105
0.101186
0.099267
0.0973471
0.0954268
0.0935059
0.0915846
0.0896628
0.0877406
0.105025
0.103107
0.101188
0.0992683
0.0973484
0.0954279
0.093507
0.0915857
0.0896638
0.0877416
0.105027
0.103108
0.101189
0.0992697
0.0973497
0.0954292
0.0935082
0.0915868
0.0896649
0.0877426
0.105028
0.10311
0.101191
0.099271
0.097351
0.0954304
0.0935094
0.0915879
0.0896659
0.0877436
0.105029
0.103111
0.101192
0.0992721
0.097352
0.0954314
0.0935103
0.0915888
0.0896668
0.0877444
0.10503
0.103112
0.101193
0.0992731
0.0973529
0.0954323
0.0935112
0.0915896
0.0896676
0.0877452
0.105032
0.103113
0.101194
0.0992742
0.097354
0.0954333
0.0935121
0.0915905
0.0896685
0.087746
0.105033
0.103114
0.101195
0.0992754
0.0973551
0.0954344
0.0935132
0.0915916
0.0896695
0.087747
0.0858243
0.0839011
0.0819774
0.0800534
0.0781291
0.0762044
0.0742794
0.0723541
0.0704284
0.0685025
0.0665763
0.0646498
0.0627231
0.0607961
0.0588689
0.0569414
0.0550137
0.0530858
0.0511576
0.0492293
0.0473007
0.0453719
0.043443
0.0415138
0.0395845
0.037655
0.0357253
0.0337955
0.0318655
0.0299353
0.028005
0.0260746
0.024144
0.0222132
0.0202823
0.0858234
0.0839002
0.0819766
0.0800526
0.0781283
0.0762036
0.0742786
0.0723533
0.0704277
0.0685018
0.0665757
0.0646492
0.0627225
0.0607955
0.0588683
0.0569408
0.0550132
0.0530852
0.0511571
0.0492288
0.0473002
0.0453715
0.0434425
0.0415134
0.0395841
0.0376546
0.0357249
0.0337951
0.0318651
0.029935
0.0280047
0.0260742
0.0241436
0.0222129
0.020282
0.0858226
0.0838994
0.0819758
0.0800518
0.0781275
0.0762029
0.0742779
0.0723527
0.0704271
0.0685012
0.0665751
0.0646486
0.0627219
0.060795
0.0588678
0.0569403
0.0550127
0.0530848
0.0511566
0.0492283
0.0472998
0.045371
0.0434421
0.041513
0.0395837
0.0376542
0.0357246
0.0337948
0.0318648
0.0299346
0.0280043
0.0260739
0.0241433
0.0222126
0.0202817
0.0858219
0.0838987
0.0819751
0.0800512
0.0781269
0.0762023
0.0742774
0.0723521
0.0704266
0.0685007
0.0665746
0.0646482
0.0627215
0.0607945
0.0588673
0.0569399
0.0550123
0.0530844
0.0511563
0.0492279
0.0472994
0.0453707
0.0434418
0.0415127
0.0395834
0.0376539
0.0357243
0.0337945
0.0318645
0.0299344
0.0280041
0.0260737
0.0241431
0.0222124
0.0202815
0.085821
0.0838979
0.0819744
0.0800505
0.0781263
0.0762017
0.0742767
0.0723515
0.070426
0.0685001
0.066574
0.0646476
0.0627209
0.060794
0.0588669
0.0569394
0.0550118
0.0530839
0.0511558
0.0492275
0.047299
0.0453703
0.0434414
0.0415123
0.039583
0.0376536
0.0357239
0.0337941
0.0318642
0.0299341
0.0280038
0.0260734
0.0241428
0.0222121
0.0202813
0.0858201
0.083897
0.0819735
0.0800497
0.0781254
0.0762009
0.074276
0.0723508
0.0704253
0.0684995
0.0665734
0.064647
0.0627203
0.0607934
0.0588663
0.0569389
0.0550113
0.0530834
0.0511553
0.0492271
0.0472986
0.0453699
0.043441
0.0415119
0.0395826
0.0376532
0.0357236
0.0337938
0.0318638
0.0299337
0.0280035
0.026073
0.0241425
0.0222118
0.020281
0.0858191
0.083896
0.0819726
0.0800488
0.0781246
0.0762
0.0742752
0.07235
0.0704245
0.0684987
0.0665726
0.0646463
0.0627197
0.0607928
0.0588657
0.0569383
0.0550107
0.0530829
0.0511548
0.0492265
0.0472981
0.0453694
0.0434405
0.0415114
0.0395822
0.0376527
0.0357231
0.0337933
0.0318634
0.0299333
0.0280031
0.0260727
0.0241421
0.0222114
0.0202806
0.0858181
0.0838951
0.0819717
0.0800479
0.0781238
0.0761992
0.0742744
0.0723492
0.0704238
0.068498
0.066572
0.0646456
0.062719
0.0607922
0.0588651
0.0569377
0.0550101
0.0530823
0.0511543
0.049226
0.0472976
0.0453689
0.04344
0.041511
0.0395817
0.0376523
0.0357227
0.0337929
0.031863
0.0299329
0.0280027
0.0260723
0.0241418
0.0222111
0.0202803
0.0858174
0.0838944
0.081971
0.0800472
0.0781231
0.0761986
0.0742738
0.0723486
0.0704232
0.0684974
0.0665714
0.0646451
0.0627185
0.0607917
0.0588646
0.0569373
0.0550097
0.0530819
0.0511538
0.0492256
0.0472971
0.0453685
0.0434396
0.0415106
0.0395813
0.0376519
0.0357223
0.0337926
0.0318627
0.0299326
0.0280024
0.026072
0.0241415
0.0222108
0.02028
0.085817
0.083894
0.0819706
0.0800469
0.0781227
0.0761982
0.0742734
0.0723483
0.0704228
0.0684971
0.0665711
0.0646448
0.0627182
0.0607914
0.0588643
0.056937
0.0550094
0.0530816
0.0511536
0.0492253
0.0472969
0.0453682
0.0434394
0.0415103
0.0395811
0.0376517
0.0357221
0.0337924
0.0318624
0.0299324
0.0280021
0.0260718
0.0241412
0.0222106
0.0202798
0.085817
0.083894
0.0819706
0.0800468
0.0781227
0.0761982
0.0742734
0.0723482
0.0704228
0.0684971
0.066571
0.0646448
0.0627182
0.0607914
0.0588643
0.0569369
0.0550094
0.0530816
0.0511535
0.0492253
0.0472968
0.0453682
0.0434393
0.0415103
0.039581
0.0376516
0.035722
0.0337923
0.0318624
0.0299323
0.0280021
0.0260717
0.0241412
0.0222105
0.0202797
0.0858173
0.0838943
0.0819709
0.0800471
0.078123
0.0761985
0.0742737
0.0723485
0.0704231
0.0684973
0.0665713
0.064645
0.0627184
0.0607916
0.0588645
0.0569371
0.0550096
0.0530817
0.0511537
0.0492254
0.047297
0.0453683
0.0434394
0.0415104
0.0395812
0.0376517
0.0357221
0.0337924
0.0318625
0.0299324
0.0280022
0.0260718
0.0241413
0.0222106
0.0202798
0.085818
0.083895
0.0819716
0.0800478
0.0781236
0.0761991
0.0742742
0.0723491
0.0704236
0.0684978
0.0665718
0.0646455
0.0627189
0.060792
0.0588649
0.0569375
0.0550099
0.0530821
0.051154
0.0492258
0.0472973
0.0453686
0.0434397
0.0415107
0.0395814
0.037652
0.0357224
0.0337926
0.0318627
0.0299326
0.0280024
0.026072
0.0241414
0.0222108
0.02028
0.0858189
0.0838959
0.0819724
0.0800486
0.0781244
0.0761998
0.074275
0.0723498
0.0704243
0.0684985
0.0665724
0.0646461
0.0627194
0.0607925
0.0588654
0.056938
0.0550104
0.0530826
0.0511545
0.0492262
0.0472977
0.045369
0.0434401
0.0415111
0.0395818
0.0376524
0.0357227
0.033793
0.031863
0.0299329
0.0280027
0.0260723
0.0241417
0.022211
0.0202802
0.0858199
0.0838968
0.0819733
0.0800494
0.0781252
0.0762007
0.0742758
0.0723505
0.070425
0.0684992
0.0665731
0.0646467
0.06272
0.0607931
0.058866
0.0569386
0.0550109
0.0530831
0.051155
0.0492267
0.0472982
0.0453695
0.0434406
0.0415115
0.0395822
0.0376527
0.0357231
0.0337933
0.0318634
0.0299332
0.028003
0.0260726
0.024142
0.0222113
0.0202805
0.0858208
0.0838977
0.0819742
0.0800503
0.078126
0.0762014
0.0742765
0.0723512
0.0704257
0.0684998
0.0665737
0.0646473
0.0627206
0.0607937
0.0588665
0.0569391
0.0550114
0.0530836
0.0511554
0.0492271
0.0472986
0.0453699
0.043441
0.0415119
0.0395826
0.0376531
0.0357235
0.0337936
0.0318637
0.0299336
0.0280033
0.0260729
0.0241423
0.0222116
0.0202807
0.0858216
0.0838985
0.0819749
0.080051
0.0781267
0.0762021
0.0742771
0.0723518
0.0704263
0.0685004
0.0665742
0.0646478
0.0627211
0.0607942
0.058867
0.0569395
0.0550119
0.053084
0.0511559
0.0492275
0.047299
0.0453703
0.0434413
0.0415122
0.0395829
0.0376534
0.0357238
0.033794
0.031864
0.0299338
0.0280036
0.0260731
0.0241425
0.0222118
0.020281
0.0858224
0.0838991
0.0819755
0.0800516
0.0781273
0.0762026
0.0742777
0.0723524
0.0704268
0.0685009
0.0665747
0.0646483
0.0627216
0.0607946
0.0588674
0.05694
0.0550123
0.0530844
0.0511562
0.0492279
0.0472993
0.0453706
0.0434416
0.0415125
0.0395832
0.0376537
0.0357241
0.0337942
0.0318642
0.0299341
0.0280038
0.0260734
0.0241428
0.0222121
0.0202812
0.0858232
0.0838999
0.0819763
0.0800523
0.078128
0.0762033
0.0742784
0.072353
0.0704274
0.0685015
0.0665753
0.0646489
0.0627222
0.0607952
0.0588679
0.0569405
0.0550128
0.0530848
0.0511567
0.0492283
0.0472998
0.045371
0.0434421
0.0415129
0.0395836
0.0376541
0.0357244
0.0337946
0.0318646
0.0299345
0.0280041
0.0260737
0.0241431
0.0222124
0.0202815
0.0858241
0.0839008
0.0819772
0.0800532
0.0781288
0.0762041
0.0742791
0.0723538
0.0704281
0.0685022
0.066576
0.0646495
0.0627228
0.0607958
0.0588685
0.056941
0.0550133
0.0530854
0.0511572
0.0492289
0.0473003
0.0453715
0.0434425
0.0415134
0.039584
0.0376545
0.0357249
0.033795
0.031865
0.0299348
0.0280045
0.0260741
0.0241435
0.0222127
0.0202818
0.0183513
0.0164201
0.0144889
0.0125575
0.0106259
0.0086943
0.00676253
0.00483065
0.00289862
0.000966491
0.018351
0.0164199
0.0144886
0.0125572
0.0106257
0.00869404
0.00676228
0.00483048
0.00289837
0.00096641
0.0183507
0.0164196
0.0144883
0.012557
0.0106255
0.00869383
0.00676206
0.00483032
0.00289811
0.000966463
0.0183505
0.0164194
0.0144881
0.0125568
0.0106253
0.00869368
0.00676193
0.0048302
0.00289795
0.000966458
0.0183503
0.0164192
0.0144879
0.0125566
0.0106251
0.00869352
0.00676179
0.00483007
0.00289783
0.00096628
0.01835
0.0164189
0.0144877
0.0125563
0.0106249
0.00869333
0.00676163
0.00482993
0.00289775
0.000965926
0.0183497
0.0164186
0.0144874
0.0125561
0.0106247
0.00869311
0.00676146
0.00482976
0.00289772
0.000965425
0.0183493
0.0164183
0.0144871
0.0125558
0.0106244
0.00869289
0.00676128
0.00482961
0.00289772
0.000964886
0.0183491
0.016418
0.0144868
0.0125556
0.0106242
0.0086927
0.00676113
0.00482948
0.00289773
0.000964441
0.0183489
0.0164178
0.0144867
0.0125554
0.010624
0.00869257
0.00676103
0.00482939
0.00289774
0.000964206
0.0183488
0.0164178
0.0144866
0.0125553
0.010624
0.00869252
0.00676098
0.00482937
0.0028977
0.000964254
0.0183489
0.0164178
0.0144867
0.0125554
0.010624
0.00869255
0.00676101
0.00482939
0.00289767
0.000964575
0.018349
0.016418
0.0144868
0.0125555
0.0106241
0.00869266
0.00676109
0.00482949
0.0028976
0.00096509
0.0183493
0.0164182
0.014487
0.0125557
0.0106243
0.00869282
0.00676122
0.0048296
0.00289758
0.000965668
0.0183495
0.0164184
0.0144872
0.0125559
0.0106245
0.008693
0.00676136
0.00482974
0.00289761
0.000966175
0.0183498
0.0164187
0.0144875
0.0125561
0.0106247
0.00869316
0.0067615
0.00482987
0.00289768
0.000966503
0.01835
0.0164189
0.0144877
0.0125563
0.0106249
0.00869333
0.00676165
0.00482999
0.00289782
0.000966633
0.0183502
0.0164191
0.0144879
0.0125565
0.0106251
0.0086935
0.00676178
0.00483013
0.00289799
0.000966576
0.0183505
0.0164194
0.0144882
0.0125568
0.0106253
0.00869373
0.00676203
0.0048303
0.00289827
0.00096646
0.0183508
0.0164197
0.0144885
0.0125571
0.0106256
0.00869402
0.00676231
0.0048305
0.00289855
0.000966501
)
;

boundaryField
{
    inlet
    {
        type            zeroGradient;
    }
    outlet
    {
        type            fixedValue;
        value           uniform 0;
    }
    upperWall
    {
        type            zeroGradient;
    }
    lowerWall
    {
        type            zeroGradient;
    }
    frontAndBack
    {
        type            empty;
    }
}


// ************************************************************************* //
