/*--------------------------------*- C++ -*----------------------------------*\
| =========                 |                                                 |
| \\      /  F ield         | OpenFOAM: The Open Source CFD Toolbox           |
|  \\    /   O peration     | Version:  2406                                  |
|   \\  /    A nd           | Website:  www.openfoam.com                      |
|    \\/     M anipulation  |                                                 |
\*---------------------------------------------------------------------------*/
FoamFile
{
    version     2.0;
    format      ascii;
    arch        "LSB;label=32;scalar=64";
    class       volVectorField;
    location    "53";
    object      U;
}
// * * * * * * * * * * * * * * * * * * * * * * * * * * * * * * * * * * * * * //

dimensions      [0 1 -1 0 0 0 0];

internalField   nonuniform List<vector> 
1900
(
(0.190346 -0.00238436 0)
(0.196269 -0.00308533 0)
(0.201918 -0.0023745 0)
(0.206728 -0.00194707 0)
(0.211564 -0.00193085 0)
(0.216976 -0.00216732 0)
(0.223368 -0.00270286 0)
(0.231265 -0.00377115 0)
(0.242441 -0.00656742 0)
(0.253705 -0.0228391 0)
(0.506837 -0.00334088 0)
(0.507893 -0.00669466 0)
(0.510945 -0.00758034 0)
(0.51459 -0.00799812 0)
(0.519423 -0.00878605 0)
(0.525755 -0.0101075 0)
(0.533658 -0.012191 0)
(0.543315 -0.015571 0)
(0.55521 -0.0210782 0)
(0.567168 -0.0320469 0)
(0.747623 -0.00244655 0)
(0.748256 -0.00605894 0)
(0.749753 -0.00846399 0)
(0.751228 -0.0105631 0)
(0.753708 -0.0129361 0)
(0.757629 -0.0158182 0)
(0.762855 -0.0194938 0)
(0.769162 -0.0244647 0)
(0.776232 -0.0313877 0)
(0.782853 -0.0414215 0)
(0.907997 -0.00203171 0)
(0.908544 -0.00569151 0)
(0.909432 -0.00884708 0)
(0.909675 -0.0118744 0)
(0.910285 -0.015166 0)
(0.911751 -0.0189608 0)
(0.913883 -0.023492 0)
(0.916346 -0.0290659 0)
(0.918753 -0.0359634 0)
(0.920427 -0.0443348 0)
(0.98811 -0.00175893 0)
(0.988418 -0.00515477 0)
(0.988722 -0.00843993 0)
(0.98792 -0.0117907 0)
(0.986945 -0.015418 0)
(0.986279 -0.0194912 0)
(0.985709 -0.0241684 0)
(0.984882 -0.029603 0)
(0.983467 -0.0358734 0)
(0.981051 -0.042898 0)
(0.988069 -0.00137674 0)
(0.988056 -0.0041735 0)
(0.987695 -0.00717189 0)
(0.985855 -0.0104171 0)
(0.983446 -0.0139296 0)
(0.980927 -0.0177893 0)
(0.978063 -0.022096 0)
(0.974511 -0.0269123 0)
(0.970003 -0.0322252 0)
(0.964273 -0.0379069 0)
(0.907877 -0.000767536 0)
(0.907477 -0.00263852 0)
(0.906417 -0.00507588 0)
(0.903609 -0.00789254 0)
(0.900006 -0.0109196 0)
(0.896012 -0.0141805 0)
(0.891362 -0.0177406 0)
(0.885728 -0.0216058 0)
(0.878895 -0.0257194 0)
(0.870683 -0.0299606 0)
(0.747432 0.000283643 0)
(0.746566 -0.000356922 0)
(0.744991 -0.00219146 0)
(0.741665 -0.0044596 0)
(0.737517 -0.00678923 0)
(0.732836 -0.00921305 0)
(0.727307 -0.0117894 0)
(0.720622 -0.0144897 0)
(0.712604 -0.0172457 0)
(0.703133 -0.0199693 0)
(0.506618 0.00197732 0)
(0.505856 0.00275155 0)
(0.505172 0.00120421 0)
(0.503028 -0.000779141 0)
(0.499964 -0.00254018 0)
(0.496108 -0.00414747 0)
(0.491201 -0.00568837 0)
(0.485042 -0.00715414 0)
(0.47756 -0.00852003 0)
(0.468741 -0.0097642 0)
(0.190144 0.00187262 0)
(0.194609 0.00191248 0)
(0.197316 0.000757559 0)
(0.19776 -4.77265e-05 0)
(0.196869 -0.00048697 0)
(0.195055 -0.00080471 0)
(0.192362 -0.00107281 0)
(0.188823 -0.00128599 0)
(0.184517 -0.00144859 0)
(0.179528 -0.00157136 0)
(-7.56062e-05 6.13941e-05 0)
(-0.00156806 0.000465044 0)
(-0.00435136 0.00071681 0)
(-0.00779312 0.000798657 0)
(-0.0113739 0.000808072 0)
(-0.014882 0.000793349 0)
(-0.0182491 0.000773537 0)
(-0.0214576 0.000754324 0)
(-0.0245031 0.000735823 0)
(-0.0273821 0.000716456 0)
(-0.0300871 0.000694736 0)
(-0.0326071 0.000669504 0)
(-0.0349274 0.000639826 0)
(-0.0370309 0.000604878 0)
(-0.0388977 0.000563916 0)
(-0.040506 0.000516225 0)
(-0.0418327 0.000461282 0)
(-0.042854 0.000398678 0)
(-0.0435462 0.000328192 0)
(-0.0438871 0.000249902 0)
(-0.0438566 0.000164527 0)
(-0.0434384 7.30821e-05 0)
(-0.0426213 -2.32977e-05 0)
(-0.0413991 -0.000123183 0)
(-0.0397718 -0.000224954 0)
(-0.0377461 -0.000326717 0)
(-0.0353357 -0.000426481 0)
(-0.0325612 -0.000522133 0)
(-0.0294502 -0.000611611 0)
(-0.0260362 -0.000692921 0)
(-0.0223583 -0.000764226 0)
(-0.0184599 -0.000823998 0)
(-0.0143873 -0.000871332 0)
(-0.010189 -0.00090571 0)
(-0.00591345 -0.000926576 0)
(-0.000627987 0.00166467 0)
(-0.00510309 0.00450279 0)
(-0.0119381 0.00618911 0)
(-0.0198952 0.00681543 0)
(-0.0279907 0.00685711 0)
(-0.0358052 0.00664398 0)
(-0.043175 0.00633909 0)
(-0.0500403 0.00600597 0)
(-0.0563806 0.00566167 0)
(-0.0621857 0.00530577 0)
(-0.0674446 0.00493302 0)
(-0.0721412 0.00453755 0)
(-0.0762543 0.00411397 0)
(-0.079758 0.00365752 0)
(-0.0826225 0.0031642 0)
(-0.0848153 0.00263105 0)
(-0.0863031 0.00205642 0)
(-0.0870535 0.00144013 0)
(-0.0870367 0.00078397 0)
(-0.0862275 9.21884e-05 0)
(-0.0846091 -0.000629382 0)
(-0.0821717 -0.00137274 0)
(-0.0789143 -0.00212848 0)
(-0.074847 -0.00288591 0)
(-0.0699912 -0.00363322 0)
(-0.0643797 -0.00435792 0)
(-0.0580569 -0.00504728 0)
(-0.051078 -0.00568914 0)
(-0.0435082 -0.00627224 0)
(-0.035421 -0.00678653 0)
(-0.0268966 -0.00722385 0)
(-0.0180206 -0.00757804 0)
(-0.00888213 -0.00784442 0)
(0.000427071 -0.00802084 0)
(0.00981847 -0.008108 0)
(-0.00115225 0.00524447 0)
(-0.00822828 0.0118573 0)
(-0.0180442 0.0153179 0)
(-0.0288912 0.0164504 0)
(-0.0395468 0.0163059 0)
(-0.0495392 0.0155776 0)
(-0.0586864 0.014621 0)
(-0.0669244 0.0135865 0)
(-0.0742399 0.0125239 0)
(-0.0806358 0.0114406 0)
(-0.0861156 0.0103294 0)
(-0.0906777 0.00917958 0)
(-0.0943147 0.00798022 0)
(-0.0970135 0.00672199 0)
(-0.0987569 0.00539783 0)
(-0.0995261 0.00400351 0)
(-0.0993026 0.00253841 0)
(-0.0980705 0.00100602 0)
(-0.095819 -0.000585599 0)
(-0.0925483 -0.00222535 0)
(-0.0882639 -0.00389781 0)
(-0.0829818 -0.00558514 0)
(-0.0767286 -0.00726705 0)
(-0.0695422 -0.00892106 0)
(-0.0614714 -0.0105233 0)
(-0.0525764 -0.0120492 0)
(-0.0429275 -0.0134753 0)
(-0.0326048 -0.0147797 0)
(-0.0216962 -0.0159423 0)
(-0.010296 -0.0169464 0)
(0.00149544 -0.0177781 0)
(0.0135769 -0.0184277 0)
(0.0258484 -0.018891 0)
(0.0382098 -0.0191672 0)
(0.0505642 -0.0192599 0)
(-0.00155983 0.0104378 0)
(-0.0104645 0.0216811 0)
(-0.0219319 0.0268056 0)
(-0.0338885 0.0280403 0)
(-0.0450389 0.0272449 0)
(-0.0549891 0.0255387 0)
(-0.0636279 0.0234859 0)
(-0.0709465 0.0213295 0)
(-0.0769772 0.0191535 0)
(-0.081762 0.0169731 0)
(-0.0853389 0.0147784 0)
(-0.0877373 0.0125519 0)
(-0.0889781 0.0102765 0)
(-0.0890753 0.0079378 0)
(-0.0880384 0.00552615 0)
(-0.0858754 0.00303731 0)
(-0.0825946 0.000473885 0)
(-0.0782122 -0.00215558 0)
(-0.072751 -0.00483626 0)
(-0.0662371 -0.00754762 0)
(-0.0587064 -0.0102651 0)
(-0.0502038 -0.0129606 0)
(-0.0407842 -0.0156036 0)
(-0.030511 -0.0181615 0)
(-0.0194567 -0.0206003 0)
(-0.00770233 -0.0228862 0)
(0.00466227 -0.0249868 0)
(0.0175427 -0.0268723 0)
(0.0308416 -0.028518 0)
(0.0444576 -0.0299035 0)
(0.0582887 -0.0310133 0)
(0.0722345 -0.0318381 0)
(0.0861966 -0.0323754 0)
(0.10008 -0.032628 0)
(0.113797 -0.032604 0)
(-0.00188909 0.0166892 0)
(-0.0117333 0.0326727 0)
(-0.0232043 0.0388057 0)
(-0.0341559 0.0393858 0)
(-0.0434926 0.0372877 0)
(-0.0510529 0.0340739 0)
(-0.0568847 0.0304928 0)
(-0.0610864 0.0268564 0)
(-0.0637653 0.0232665 0)
(-0.0650183 0.0197354 0)
(-0.0649256 0.0162428 0)
(-0.063552 0.0127608 0)
(-0.0609492 0.00926327 0)
(-0.05716 0.00573033 0)
(-0.0522219 0.00215029 0)
(-0.0461715 -0.00148051 0)
(-0.0390516 -0.00515806 0)
(-0.0309053 -0.00886773 0)
(-0.0217802 -0.0125888 0)
(-0.0117303 -0.0162948 0)
(-0.000816522 -0.0199536 0)
(0.0108909 -0.0235291 0)
(0.0233156 -0.0269819 0)
(0.0363757 -0.0302713 0)
(0.0499833 -0.0333561 0)
(0.0640448 -0.0361963 0)
(0.0784634 -0.038755 0)
(0.0931402 -0.0409996 0)
(0.107976 -0.0429033 0)
(0.122871 -0.0444456 0)
(0.137731 -0.0456126 0)
(0.152464 -0.046398 0)
(0.166983 -0.0468034 0)
(0.181209 -0.0468375 0)
(0.195068 -0.0465158 0)
(-0.00218379 0.0235612 0)
(-0.012013 0.0434269 0)
(-0.0213934 0.0492361 0)
(-0.0287393 0.048107 0)
(-0.0336269 0.0440041 0)
(-0.0363201 0.0388324 0)
(-0.0370914 0.0334364 0)
(-0.0361654 0.0281403 0)
(-0.0337229 0.0230285 0)
(-0.0299042 0.0180886 0)
(-0.0248181 0.0132785 0)
(-0.0185505 0.00855338 0)
(-0.0111713 0.00387406 0)
(-0.0027419 -0.000787917 0)
(0.00668026 -0.00544895 0)
(0.0170323 -0.0101111 0)
(0.0282546 -0.0147654 0)
(0.0402843 -0.0193942 0)
(0.0530533 -0.0239718 0)
(0.0664884 -0.0284657 0)
(0.0805111 -0.032838 0)
(0.0950374 -0.0370469 0)
(0.109979 -0.0410472 0)
(0.125243 -0.0447926 0)
(0.140735 -0.0482379 0)
(0.156358 -0.0513406 0)
(0.172017 -0.0540629 0)
(0.187617 -0.0563723 0)
(0.203065 -0.058244 0)
(0.218277 -0.0596609 0)
(0.233169 -0.0606142 0)
(0.247667 -0.0611039 0)
(0.261705 -0.0611387 0)
(0.275224 -0.0607353 0)
(0.288174 -0.0599176 0)
(-0.00244603 0.0309612 0)
(-0.0108505 0.0522729 0)
(-0.0150911 0.0554356 0)
(-0.015412 0.0513669 0)
(-0.0127838 0.0447599 0)
(-0.00803668 0.0374928 0)
(-0.00163307 0.0303235 0)
(0.00613302 0.0234979 0)
(0.0150588 0.0170353 0)
(0.0250126 0.0108775 0)
(0.0358964 0.00495071 0)
(0.0476346 -0.000812377 0)
(0.0601697 -0.0064623 0)
(0.0734382 -0.0120308 0)
(0.0873731 -0.017533 0)
(0.101908 -0.0229697 0)
(0.116972 -0.0283285 0)
(0.132493 -0.0335878 0)
(0.148392 -0.0387179 0)
(0.164587 -0.0436816 0)
(0.180995 -0.0484366 0)
(0.197526 -0.0529365 0)
(0.214091 -0.0571336 0)
(0.230598 -0.0609801 0)
(0.246957 -0.0644309 0)
(0.26308 -0.0674448 0)
(0.278882 -0.0699863 0)
(0.294284 -0.0720275 0)
(0.309212 -0.0735486 0)
(0.323601 -0.0745391 0)
(0.337392 -0.074998 0)
(0.350536 -0.0749337 0)
(0.362993 -0.0743637 0)
(0.374734 -0.0733142 0)
(0.385738 -0.0718183 0)
(-0.00252009 0.0388935 0)
(-0.00582838 0.0564082 0)
(0.000369075 0.0535162 0)
(0.0117686 0.0456411 0)
(0.0252935 0.0367157 0)
(0.0398215 0.0278299 0)
(0.0550067 0.0194345 0)
(0.0706791 0.0116269 0)
(0.0867343 0.00432185 0)
(0.10315 -0.00259511 0)
(0.119912 -0.0092161 0)
(0.136991 -0.0156107 0)
(0.154346 -0.0218287 0)
(0.17193 -0.0279003 0)
(0.189695 -0.0338371 0)
(0.207584 -0.0396366 0)
(0.225534 -0.0452839 0)
(0.243477 -0.050754 0)
(0.261342 -0.0560136 0)
(0.279053 -0.0610227 0)
(0.296531 -0.0657364 0)
(0.313699 -0.0701076 0)
(0.330476 -0.0740885 0)
(0.346788 -0.0776331 0)
(0.362562 -0.080699 0)
(0.377729 -0.0832496 0)
(0.392228 -0.0852553 0)
(0.406007 -0.0866951 0)
(0.41902 -0.0875575 0)
(0.431232 -0.0878408 0)
(0.442617 -0.0875535 0)
(0.453159 -0.0867136 0)
(0.462852 -0.0853486 0)
(0.471698 -0.083494 0)
(0.47971 -0.0811922 0)
(0.00239338 0.0395551 0)
(0.0139266 0.0474019 0)
(0.0389626 0.0373967 0)
(0.0670812 0.0268772 0)
(0.0937682 0.0172612 0)
(0.11882 0.00820613 0)
(0.142766 -0.000230484 0)
(0.165868 -0.00803083 0)
(0.188289 -0.0153124 0)
(0.210149 -0.0222107 0)
(0.231541 -0.0288172 0)
(0.252523 -0.0351878 0)
(0.273119 -0.0413579 0)
(0.293332 -0.0473472 0)
(0.313149 -0.0531593 0)
(0.332543 -0.058784 0)
(0.351474 -0.0641995 0)
(0.369898 -0.0693752 0)
(0.38776 -0.0742735 0)
(0.405005 -0.078852 0)
(0.421576 -0.083065 0)
(0.437417 -0.0868662 0)
(0.452473 -0.0902103 0)
(0.466694 -0.0930552 0)
(0.480037 -0.0953644 0)
(0.492465 -0.0971081 0)
(0.50395 -0.098265 0)
(0.514474 -0.0988231 0)
(0.524026 -0.0987807 0)
(0.53261 -0.098146 0)
(0.540235 -0.0969376 0)
(0.546922 -0.0951834 0)
(0.552701 -0.0929201 0)
(0.557609 -0.0901915 0)
(0.561691 -0.0870478 0)
(0.0542518 0.00719322 0)
(0.0928769 0.0062104 0)
(0.136466 -0.001333 0)
(0.178239 -0.00850176 0)
(0.214114 -0.0149156 0)
(0.24557 -0.0212744 0)
(0.274282 -0.0276496 0)
(0.301005 -0.0338929 0)
(0.326097 -0.0399536 0)
(0.349834 -0.0458479 0)
(0.372425 -0.0515924 0)
(0.394004 -0.0571911 0)
(0.414645 -0.0626405 0)
(0.434389 -0.0679308 0)
(0.453253 -0.0730444 0)
(0.471237 -0.0779549 0)
(0.488326 -0.0826291 0)
(0.504497 -0.0870281 0)
(0.519719 -0.0911093 0)
(0.533962 -0.0948276 0)
(0.547194 -0.0981375 0)
(0.559387 -0.100995 0)
(0.570516 -0.103359 0)
(0.580563 -0.105193 0)
(0.589517 -0.106469 0)
(0.597379 -0.107165 0)
(0.604155 -0.107269 0)
(0.609864 -0.10678 0)
(0.614535 -0.105705 0)
(0.618206 -0.104063 0)
(0.620924 -0.101882 0)
(0.622744 -0.0991982 0)
(0.623729 -0.0960558 0)
(0.623946 -0.0925048 0)
(0.623466 -0.0886003 0)
(0.293196 -0.0473456 0)
(0.315217 -0.0483999 0)
(0.341227 -0.0470263 0)
(0.37128 -0.0474575 0)
(0.399958 -0.0493138 0)
(0.426155 -0.0521934 0)
(0.450499 -0.0558144 0)
(0.473331 -0.0598843 0)
(0.494733 -0.0641833 0)
(0.514797 -0.0685846 0)
(0.53363 -0.073013 0)
(0.551305 -0.077413 0)
(0.567864 -0.0817376 0)
(0.583326 -0.0859442 0)
(0.597695 -0.0899918 0)
(0.610968 -0.0938379 0)
(0.623134 -0.0974384 0)
(0.634177 -0.100748 0)
(0.644081 -0.103721 0)
(0.652832 -0.106311 0)
(0.660419 -0.108477 0)
(0.666836 -0.110177 0)
(0.672088 -0.111379 0)
(0.676185 -0.112053 0)
(0.679149 -0.11218 0)
(0.681011 -0.111748 0)
(0.681813 -0.110756 0)
(0.681606 -0.109212 0)
(0.680453 -0.107134 0)
(0.678423 -0.104549 0)
(0.675593 -0.101491 0)
(0.672047 -0.0980053 0)
(0.667871 -0.0941392 0)
(0.663153 -0.0899462 0)
(0.657984 -0.0854826 0)
(0.576313 -0.0485668 0)
(0.580807 -0.0583277 0)
(0.588274 -0.0629531 0)
(0.600326 -0.0661555 0)
(0.614232 -0.0690861 0)
(0.628309 -0.07196 0)
(0.642174 -0.0749388 0)
(0.655642 -0.078088 0)
(0.668476 -0.0813678 0)
(0.680509 -0.0847122 0)
(0.691658 -0.0880663 0)
(0.701872 -0.0913826 0)
(0.711106 -0.094615 0)
(0.719321 -0.097718 0)
(0.726483 -0.100647 0)
(0.732564 -0.103357 0)
(0.737541 -0.105805 0)
(0.741395 -0.107947 0)
(0.744115 -0.109741 0)
(0.745696 -0.111146 0)
(0.746143 -0.112128 0)
(0.745472 -0.112655 0)
(0.74371 -0.112702 0)
(0.740892 -0.112252 0)
(0.737068 -0.111295 0)
(0.732298 -0.109832 0)
(0.726651 -0.10787 0)
(0.720207 -0.105428 0)
(0.713052 -0.102531 0)
(0.705281 -0.0992142 0)
(0.696991 -0.0955175 0)
(0.688281 -0.0914871 0)
(0.679252 -0.0871728 0)
(0.670003 -0.0826274 0)
(0.660627 -0.0779045 0)
(0.786909 -0.0533188 0)
(0.788064 -0.0623425 0)
(0.789055 -0.0681906 0)
(0.791593 -0.0726272 0)
(0.795251 -0.076486 0)
(0.799279 -0.0799252 0)
(0.803356 -0.0830709 0)
(0.807308 -0.0860503 0)
(0.810927 -0.0889162 0)
(0.814019 -0.0916711 0)
(0.816448 -0.0943035 0)
(0.818118 -0.0967976 0)
(0.818952 -0.0991305 0)
(0.81889 -0.101274 0)
(0.817884 -0.103196 0)
(0.815898 -0.104863 0)
(0.812911 -0.106242 0)
(0.808912 -0.1073 0)
(0.8039 -0.108005 0)
(0.797889 -0.108328 0)
(0.790904 -0.108247 0)
(0.782983 -0.107741 0)
(0.774177 -0.106799 0)
(0.764549 -0.105414 0)
(0.754173 -0.10359 0)
(0.743131 -0.101336 0)
(0.731517 -0.098671 0)
(0.719429 -0.0956198 0)
(0.706972 -0.0922145 0)
(0.694251 -0.0884925 0)
(0.681373 -0.084496 0)
(0.668443 -0.0802702 0)
(0.655561 -0.0758624 0)
(0.642822 -0.0713202 0)
(0.630312 -0.0666909 0)
(0.920374 -0.053414 0)
(0.918295 -0.061349 0)
(0.915217 -0.0674549 0)
(0.91219 -0.0722864 0)
(0.909347 -0.0763623 0)
(0.906397 -0.0798657 0)
(0.903159 -0.0829027 0)
(0.899545 -0.0855875 0)
(0.895451 -0.0879996 0)
(0.890761 -0.0901753 0)
(0.885384 -0.0921279 0)
(0.879253 -0.09386 0)
(0.872321 -0.0953659 0)
(0.864552 -0.0966325 0)
(0.855922 -0.0976425 0)
(0.846423 -0.098376 0)
(0.836056 -0.0988128 0)
(0.824837 -0.0989329 0)
(0.812795 -0.0987183 0)
(0.799972 -0.0981538 0)
(0.78642 -0.0972284 0)
(0.772207 -0.0959359 0)
(0.757409 -0.0942762 0)
(0.742112 -0.0922549 0)
(0.726412 -0.0898842 0)
(0.710409 -0.0871823 0)
(0.69421 -0.0841733 0)
(0.677922 -0.0808863 0)
(0.661654 -0.0773546 0)
(0.645511 -0.073615 0)
(0.629595 -0.0697064 0)
(0.614001 -0.0656689 0)
(0.598817 -0.0615426 0)
(0.58412 -0.057367 0)
(0.569979 -0.0531793 0)
(0.977137 -0.0502177 0)
(0.97155 -0.0569356 0)
(0.964719 -0.0624758 0)
(0.957219 -0.066935 0)
(0.949259 -0.070611 0)
(0.940771 -0.0736755 0)
(0.931679 -0.0762224 0)
(0.921954 -0.078343 0)
(0.911565 -0.0801161 0)
(0.900466 -0.0815913 0)
(0.888624 -0.0827954 0)
(0.876022 -0.0837429 0)
(0.862654 -0.0844401 0)
(0.848529 -0.084887 0)
(0.833664 -0.0850792 0)
(0.818087 -0.0850097 0)
(0.801838 -0.0846707 0)
(0.784968 -0.0840547 0)
(0.76754 -0.083156 0)
(0.749625 -0.0819709 0)
(0.731304 -0.0804996 0)
(0.712666 -0.0787459 0)
(0.693807 -0.0767182 0)
(0.674828 -0.0744293 0)
(0.655832 -0.0718965 0)
(0.636926 -0.069141 0)
(0.618212 -0.0661877 0)
(0.599793 -0.0630642 0)
(0.581765 -0.0598004 0)
(0.564219 -0.0564272 0)
(0.547236 -0.0529763 0)
(0.53089 -0.0494787 0)
(0.515243 -0.0459646 0)
(0.500346 -0.0424623 0)
(0.486241 -0.0389981 0)
(0.957051 -0.0436476 0)
(0.948235 -0.0489535 0)
(0.938022 -0.0534427 0)
(0.926736 -0.0570715 0)
(0.91458 -0.059984 0)
(0.901607 -0.0623071 0)
(0.887831 -0.0641237 0)
(0.87328 -0.0655096 0)
(0.857985 -0.0665368 0)
(0.841969 -0.0672599 0)
(0.825258 -0.0677149 0)
(0.807884 -0.067926 0)
(0.789892 -0.0679097 0)
(0.771331 -0.0676768 0)
(0.752259 -0.0672335 0)
(0.732739 -0.0665831 0)
(0.712842 -0.0657274 0)
(0.692647 -0.0646679 0)
(0.672236 -0.0634068 0)
(0.651697 -0.0619481 0)
(0.631125 -0.0602978 0)
(0.610612 -0.0584645 0)
(0.590256 -0.0564597 0)
(0.570151 -0.0542976 0)
(0.550393 -0.0519948 0)
(0.53107 -0.0495703 0)
(0.512269 -0.0470444 0)
(0.494067 -0.0444387 0)
(0.476535 -0.0417754 0)
(0.459736 -0.0390767 0)
(0.443722 -0.0363641 0)
(0.428536 -0.0336583 0)
(0.414209 -0.0309785 0)
(0.400765 -0.0283422 0)
(0.388215 -0.0257649 0)
(0.860933 -0.0341218 0)
(0.849589 -0.0379184 0)
(0.836768 -0.0411132 0)
(0.822692 -0.0436383 0)
(0.807558 -0.0455596 0)
(0.791495 -0.0469697 0)
(0.774596 -0.0479444 0)
(0.756959 -0.0485523 0)
(0.738674 -0.0488579 0)
(0.719826 -0.0489149 0)
(0.700493 -0.0487628 0)
(0.680752 -0.0484301 0)
(0.660682 -0.047938 0)
(0.640359 -0.0473018 0)
(0.619863 -0.0465323 0)
(0.599271 -0.0456368 0)
(0.578661 -0.0446207 0)
(0.558115 -0.0434883 0)
(0.537713 -0.0422444 0)
(0.517535 -0.0408941 0)
(0.49766 -0.039444 0)
(0.478167 -0.0379018 0)
(0.45913 -0.0362772 0)
(0.44062 -0.0345807 0)
(0.422704 -0.0328244 0)
(0.405442 -0.0310209 0)
(0.388888 -0.0291836 0)
(0.373088 -0.0273258 0)
(0.358081 -0.0254608 0)
(0.343897 -0.0236014 0)
(0.330557 -0.0217598 0)
(0.318075 -0.019947 0)
(0.306458 -0.018173 0)
(0.295703 -0.0164465 0)
(0.285802 -0.014775 0)
(0.692129 -0.0225371 0)
(0.679594 -0.0247945 0)
(0.66565 -0.0266111 0)
(0.650507 -0.0279459 0)
(0.634384 -0.0288427 0)
(0.617472 -0.0293759 0)
(0.599931 -0.029613 0)
(0.581908 -0.0296126 0)
(0.563536 -0.0294266 0)
(0.544929 -0.0290982 0)
(0.526185 -0.0286589 0)
(0.507392 -0.0281315 0)
(0.488627 -0.0275317 0)
(0.469961 -0.0268708 0)
(0.451459 -0.0261561 0)
(0.433183 -0.0253921 0)
(0.41519 -0.0245818 0)
(0.397537 -0.0237275 0)
(0.380278 -0.0228318 0)
(0.363465 -0.0218975 0)
(0.347146 -0.0209284 0)
(0.331367 -0.0199288 0)
(0.316172 -0.0189039 0)
(0.301597 -0.0178594 0)
(0.287678 -0.0168015 0)
(0.274441 -0.0157364 0)
(0.261909 -0.0146706 0)
(0.250101 -0.0136102 0)
(0.239025 -0.0125612 0)
(0.228689 -0.0115294 0)
(0.219091 -0.0105197 0)
(0.210227 -0.00953664 0)
(0.202085 -0.00858417 0)
(0.194652 -0.00766539 0)
(0.187909 -0.00678288 0)
(0.458609 -0.0108485 0)
(0.447255 -0.0117176 0)
(0.43485 -0.0123278 0)
(0.421621 -0.0126789 0)
(0.407801 -0.0128128 0)
(0.393594 -0.0127842 0)
(0.379165 -0.0126383 0)
(0.364649 -0.0124091 0)
(0.350156 -0.012123 0)
(0.33577 -0.0118 0)
(0.321556 -0.0114534 0)
(0.307566 -0.0110913 0)
(0.29384 -0.0107184 0)
(0.280414 -0.0103372 0)
(0.267315 -0.0099488 0)
(0.254572 -0.00955348 0)
(0.242207 -0.00915112 0)
(0.230245 -0.00874184 0)
(0.218707 -0.00832601 0)
(0.207614 -0.0079045 0)
(0.196985 -0.00747839 0)
(0.186835 -0.0070492 0)
(0.177181 -0.00661855 0)
(0.168033 -0.00618833 0)
(0.1594 -0.00576042 0)
(0.151289 -0.00533685 0)
(0.143701 -0.0049195 0)
(0.136637 -0.00451028 0)
(0.130093 -0.00411082 0)
(0.124061 -0.00372271 0)
(0.118534 -0.00334717 0)
(0.113499 -0.00298533 0)
(0.108943 -0.00263794 0)
(0.104851 -0.00230565 0)
(0.101204 -0.00198879 0)
(0.173939 -0.00165445 0)
(0.167854 -0.00169019 0)
(0.16141 -0.0016763 0)
(0.154753 -0.0016236 0)
(0.148017 -0.00155035 0)
(0.141298 -0.00147103 0)
(0.134666 -0.00139204 0)
(0.128164 -0.0013151 0)
(0.121826 -0.00124082 0)
(0.115669 -0.00116967 0)
(0.109706 -0.00110188 0)
(0.103943 -0.00103746 0)
(0.0983847 -0.000976321 0)
(0.0930328 -0.000918151 0)
(0.0878893 -0.000862381 0)
(0.0829562 -0.000808347 0)
(0.0782353 -0.00075551 0)
(0.0737287 -0.000703559 0)
(0.0694387 -0.000652432 0)
(0.0653672 -0.000602225 0)
(0.0615158 -0.000553136 0)
(0.0578855 -0.000505361 0)
(0.0544766 -0.000459084 0)
(0.0512885 -0.000414419 0)
(0.0483197 -0.000371462 0)
(0.0455678 -0.000330252 0)
(0.0430295 -0.000290848 0)
(0.0407008 -0.000253273 0)
(0.0385764 -0.00021758 0)
(0.0366509 -0.000183782 0)
(0.0349178 -0.000151906 0)
(0.0333703 -0.000121922 0)
(0.0320011 -9.38116e-05 0)
(0.0308026 -6.74942e-05 0)
(0.029767 -4.29129e-05 0)
(-0.00160976 -0.000933643 0)
(0.00267589 -0.000927012 0)
(0.00690155 -0.000908073 0)
(0.011028 -0.000879059 0)
(0.0150199 -0.000841622 0)
(0.0188475 -0.000797322 0)
(0.0224867 -0.000747779 0)
(0.0259182 -0.000694551 0)
(0.0291282 -0.000639118 0)
(0.0321079 -0.000582804 0)
(0.019208 -0.00810911 0)
(0.0285141 -0.0080284 0)
(0.0376604 -0.00787226 0)
(0.0465785 -0.00764923 0)
(0.0552076 -0.00736807 0)
(0.0634953 -0.00703803 0)
(0.0713982 -0.00666858 0)
(0.0788814 -0.00626916 0)
(0.0859189 -0.00584887 0)
(0.0924931 -0.00541628 0)
(0.0628196 -0.0191772 0)
(0.0748894 -0.0189299 0)
(0.0866942 -0.0185315 0)
(0.0981628 -0.0179973 0)
(0.109233 -0.0173448 0)
(0.119851 -0.016592 0)
(0.129973 -0.0157578 0)
(0.139565 -0.0148606 0)
(0.1486 -0.0139186 0)
(0.15706 -0.0129487 0)
(0.127263 -0.0323169 0)
(0.140405 -0.0317849 0)
(0.153154 -0.0310293 0)
(0.165452 -0.0300747 0)
(0.17725 -0.0289471 0)
(0.188507 -0.0276741 0)
(0.199191 -0.0262833 0)
(0.209278 -0.0248022 0)
(0.218753 -0.0232573 0)
(0.227607 -0.0216735 0)
(0.208498 -0.0458595 0)
(0.221441 -0.0448951 0)
(0.23385 -0.0436528 0)
(0.245688 -0.042166 0)
(0.256925 -0.0404697 0)
(0.267541 -0.0385999 0)
(0.27752 -0.0365926 0)
(0.286859 -0.0344828 0)
(0.295556 -0.032304 0)
(0.303619 -0.0300874 0)
(0.300516 -0.0587159 0)
(0.312217 -0.0571656 0)
(0.323256 -0.0553061 0)
(0.333618 -0.0531793 0)
(0.343297 -0.0508286 0)
(0.352296 -0.0482977 0)
(0.360621 -0.0456295 0)
(0.368286 -0.0428652 0)
(0.37531 -0.0400438 0)
(0.381714 -0.0372012 0)
(0.395992 -0.0699157 0)
(0.405495 -0.0676507 0)
(0.41425 -0.065071 0)
(0.42227 -0.0622265 0)
(0.429573 -0.0591674 0)
(0.436184 -0.0559437 0)
(0.44213 -0.0526035 0)
(0.447444 -0.0491923 0)
(0.452159 -0.0457525 0)
(0.456313 -0.0423226 0)
(0.486906 -0.0784914 0)
(0.493315 -0.0754434 0)
(0.498968 -0.0721028 0)
(0.503903 -0.0685252 0)
(0.508161 -0.0647658 0)
(0.511786 -0.060878 0)
(0.514824 -0.0569128 0)
(0.51732 -0.0529175 0)
(0.519321 -0.0489355 0)
(0.520873 -0.0450053 0)
(0.564996 -0.0835434 0)
(0.567577 -0.0797355 0)
(0.569493 -0.0756827 0)
(0.570801 -0.0714435 0)
(0.57156 -0.0670746 0)
(0.571829 -0.0626303 0)
(0.571665 -0.0581609 0)
(0.571121 -0.0537129 0)
(0.570249 -0.0493275 0)
(0.569098 -0.0450411 0)
(0.622363 -0.0843999 0)
(0.620711 -0.0799629 0)
(0.618585 -0.0753485 0)
(0.616054 -0.0706143 0)
(0.613189 -0.0658153 0)
(0.610053 -0.0610028 0)
(0.606706 -0.0562239 0)
(0.603202 -0.0515206 0)
(0.599591 -0.0469298 0)
(0.595915 -0.042483 0)
(0.652449 -0.0808058 0)
(0.646633 -0.0759734 0)
(0.640617 -0.0710412 0)
(0.634475 -0.0660624 0)
(0.628274 -0.0610869 0)
(0.622075 -0.0561598 0)
(0.615932 -0.0513218 0)
(0.60989 -0.0466083 0)
(0.603989 -0.0420494 0)
(0.598258 -0.0376703 0)
(0.651213 -0.0730574 0)
(0.641845 -0.0681379 0)
(0.632596 -0.0631951 0)
(0.623533 -0.0582747 0)
(0.614712 -0.0534181 0)
(0.606181 -0.0486622 0)
(0.597979 -0.0440391 0)
(0.590136 -0.039576 0)
(0.582674 -0.0352952 0)
(0.575606 -0.0312145 0)
(0.61811 -0.06202 0)
(0.606285 -0.0573503 0)
(0.594895 -0.0527215 0)
(0.583988 -0.0481692 0)
(0.573603 -0.0437249 0)
(0.563765 -0.0394157 0)
(0.554495 -0.0352643 0)
(0.545801 -0.0312894 0)
(0.537685 -0.0275054 0)
(0.530143 -0.0239231 0)
(0.55645 -0.0490147 0)
(0.543579 -0.0449051 0)
(0.531401 -0.040879 0)
(0.51994 -0.0369612 0)
(0.509211 -0.0331731 0)
(0.499217 -0.029532 0)
(0.489957 -0.026052 0)
(0.481418 -0.0227438 0)
(0.473584 -0.0196153 0)
(0.466433 -0.0166715 0)
(0.472957 -0.0355955 0)
(0.460512 -0.0322754 0)
(0.448918 -0.0290556 0)
(0.438172 -0.0259511 0)
(0.428267 -0.0229739 0)
(0.419188 -0.0201337 0)
(0.410912 -0.0174375 0)
(0.403412 -0.01489 0)
(0.396657 -0.0124943 0)
(0.390613 -0.0102516 0)
(0.376564 -0.02326 0)
(0.365807 -0.0208388 0)
(0.355931 -0.0185108 0)
(0.346918 -0.0162832 0)
(0.338743 -0.0141616 0)
(0.331377 -0.0121498 0)
(0.324787 -0.0102506 0)
(0.318937 -0.008465 0)
(0.313788 -0.00679337 0)
(0.309302 -0.00523493 0)
(0.27674 -0.0131644 0)
(0.268498 -0.0116197 0)
(0.261051 -0.0101446 0)
(0.25437 -0.00874167 0)
(0.248425 -0.00741264 0)
(0.243181 -0.00615847 0)
(0.238603 -0.00497938 0)
(0.234656 -0.0038751 0)
(0.2313 -0.00284482 0)
(0.228499 -0.00188746 0)
(0.181835 -0.00593852 0)
(0.176406 -0.0051337 0)
(0.171595 -0.00436924 0)
(0.167375 -0.00364565 0)
(0.163716 -0.00296297 0)
(0.160589 -0.00232109 0)
(0.157963 -0.00171952 0)
(0.155809 -0.00115776 0)
(0.154095 -0.000635008 0)
(0.152793 -0.000150531 0)
(0.0979855 -0.00168763 0)
(0.0951762 -0.00140216 0)
(0.0927566 -0.00113238 0)
(0.0907066 -0.000878067 0)
(0.0890061 -0.000639068 0)
(0.0876351 -0.000415036 0)
(0.0865736 -0.00020575 0)
(0.0858017 -1.08133e-05 0)
(0.0853001 0.000170046 0)
(0.0850497 0.000337284 0)
(0.0288865 -1.99615e-05 0)
(0.0281531 1.42809e-06 0)
(0.0275589 2.13608e-05 0)
(0.0270961 3.98934e-05 0)
(0.026757 5.7115e-05 0)
(0.0265342 7.30606e-05 0)
(0.02642 8.77974e-05 0)
(0.0264073 0.000101354 0)
(0.026489 0.000113802 0)
(0.0266581 0.000125131 0)
(0.0348531 -0.000526792 0)
(0.0373634 -0.000472066 0)
(0.0396423 -0.000419447 0)
(0.0416962 -0.000369554 0)
(0.0435342 -0.000322859 0)
(0.045167 -0.000279657 0)
(0.0466071 -0.000240129 0)
(0.0478677 -0.000204322 0)
(0.0489629 -0.000172205 0)
(0.0499066 -0.000143656 0)
(0.050713 -0.000118514 0)
(0.0513958 -9.65609e-05 0)
(0.0519682 -7.75683e-05 0)
(0.0524428 -6.12794e-05 0)
(0.0528315 -4.74456e-05 0)
(0.0531451 -3.58092e-05 0)
(0.0533937 -2.6132e-05 0)
(0.0535867 -1.81778e-05 0)
(0.0537323 -1.17351e-05 0)
(0.053838 -6.59968e-06 0)
(0.0539106 -2.59211e-06 0)
(0.0539558 4.57793e-07 0)
(0.0539789 2.69599e-06 0)
(0.0539844 4.25218e-06 0)
(0.0539762 5.23161e-06 0)
(0.0539575 5.73655e-06 0)
(0.0539313 5.8602e-06 0)
(0.0538998 5.68708e-06 0)
(0.0538649 5.28734e-06 0)
(0.0538283 4.72348e-06 0)
(0.053791 4.04782e-06 0)
(0.053754 3.30708e-06 0)
(0.0537179 2.54103e-06 0)
(0.0536829 1.78576e-06 0)
(0.0536494 1.07339e-06 0)
(0.0985939 -0.00497921 0)
(0.104219 -0.00454464 0)
(0.109371 -0.00411863 0)
(0.114061 -0.00370626 0)
(0.118301 -0.00331165 0)
(0.122111 -0.00293801 0)
(0.125511 -0.00258768 0)
(0.128525 -0.0022622 0)
(0.131178 -0.00196244 0)
(0.133496 -0.00168865 0)
(0.135507 -0.00144056 0)
(0.137236 -0.00121752 0)
(0.13871 -0.00101853 0)
(0.139955 -0.000842344 0)
(0.140994 -0.000687557 0)
(0.141852 -0.000552636 0)
(0.142549 -0.000435991 0)
(0.143105 -0.000336012 0)
(0.14354 -0.000251109 0)
(0.14387 -0.000179729 0)
(0.144111 -0.00012039 0)
(0.144276 -7.16785e-05 0)
(0.144378 -3.22765e-05 0)
(0.144428 -9.53891e-07 0)
(0.144436 2.33938e-05 0)
(0.14441 4.1779e-05 0)
(0.144357 5.51475e-05 0)
(0.144284 6.43649e-05 0)
(0.144196 7.02098e-05 0)
(0.144097 7.33818e-05 0)
(0.143991 7.45045e-05 0)
(0.14388 7.41332e-05 0)
(0.143767 7.27605e-05 0)
(0.143654 7.0823e-05 0)
(0.143541 6.87101e-05 0)
(0.164937 -0.0119668 0)
(0.172229 -0.010987 0)
(0.178939 -0.0100219 0)
(0.185079 -0.00908229 0)
(0.190664 -0.00817714 0)
(0.195713 -0.00731371 0)
(0.200251 -0.00649756 0)
(0.204303 -0.00573271 0)
(0.207897 -0.00502176 0)
(0.211064 -0.00436604 0)
(0.213834 -0.0037658 0)
(0.216237 -0.00322037 0)
(0.218305 -0.00272829 0)
(0.220067 -0.00228751 0)
(0.221553 -0.0018955 0)
(0.222791 -0.00154939 0)
(0.223808 -0.00124607 0)
(0.224628 -0.000982308 0)
(0.225276 -0.0007548 0)
(0.225774 -0.000560266 0)
(0.226141 -0.000395494 0)
(0.226396 -0.000257376 0)
(0.226556 -0.000142951 0)
(0.226636 -4.94233e-05 0)
(0.226649 2.58126e-05 0)
(0.226608 8.51801e-05 0)
(0.226522 0.000130935 0)
(0.226401 0.000165165 0)
(0.226253 0.00018978 0)
(0.226084 0.000206521 0)
(0.2259 0.000216959 0)
(0.225706 0.000222513 0)
(0.225504 0.000224456 0)
(0.225299 0.00022393 0)
(0.225091 0.000221961 0)
(0.23584 -0.0200738 0)
(0.243454 -0.0184791 0)
(0.250461 -0.0169079 0)
(0.256876 -0.0153761 0)
(0.262716 -0.0138973 0)
(0.268004 -0.0124824 0)
(0.272765 -0.01114 0)
(0.277026 -0.00987656 0)
(0.280815 -0.00869636 0)
(0.284161 -0.00760194 0)
(0.287095 -0.00659421 0)
(0.289648 -0.00567266 0)
(0.291848 -0.00483562 0)
(0.293726 -0.00408045 0)
(0.295311 -0.00340371 0)
(0.29663 -0.00280141 0)
(0.297711 -0.00226909 0)
(0.298578 -0.00180201 0)
(0.299255 -0.00139527 0)
(0.299766 -0.00104391 0)
(0.300131 -0.000742996 0)
(0.300368 -0.000487694 0)
(0.300497 -0.000273336 0)
(0.300532 -9.54686e-05 0)
(0.300489 5.01188e-05 0)
(0.300381 0.00016742 0)
(0.300219 0.000260188 0)
(0.300013 0.000331918 0)
(0.299773 0.000385839 0)
(0.299506 0.000424915 0)
(0.299219 0.000451857 0)
(0.298917 0.000469128 0)
(0.298604 0.000478961 0)
(0.298285 0.000483376 0)
(0.297962 0.000484194 0)
(0.311059 -0.0278618 0)
(0.317892 -0.025653 0)
(0.324137 -0.0234837 0)
(0.329816 -0.0213735 0)
(0.334954 -0.0193387 0)
(0.339578 -0.0173926 0)
(0.343715 -0.0155457 0)
(0.347393 -0.0138057 0)
(0.350642 -0.0121778 0)
(0.35349 -0.0106649 0)
(0.355966 -0.00926822 0)
(0.358099 -0.00798693 0)
(0.359915 -0.00681894 0)
(0.361443 -0.00576095 0)
(0.362707 -0.00480865 0)
(0.363733 -0.003957 0)
(0.364544 -0.00320038 0)
(0.365162 -0.00253277 0)
(0.36561 -0.00194792 0)
(0.365905 -0.00143944 0)
(0.366068 -0.00100095 0)
(0.366115 -0.000626164 0)
(0.366062 -0.000308963 0)
(0.365923 -4.34768e-05 0)
(0.365712 0.00017597 0)
(0.365441 0.000354798 0)
(0.36512 0.000498118 0)
(0.364759 0.00061071 0)
(0.364366 0.000697021 0)
(0.363948 0.00076117 0)
(0.363512 0.000806948 0)
(0.363063 0.000837832 0)
(0.362606 0.000856999 0)
(0.362143 0.000867338 0)
(0.361678 0.000871472 0)
(0.387525 -0.0343698 0)
(0.39277 -0.0315785 0)
(0.397478 -0.0288525 0)
(0.401681 -0.0262129 0)
(0.40541 -0.0236773 0)
(0.408695 -0.0212597 0)
(0.411567 -0.0189708 0)
(0.414058 -0.0168183 0)
(0.416196 -0.0148068 0)