/*--------------------------------*- C++ -*----------------------------------*\
| =========                 |                                                 |
| \\      /  F ield         | OpenFOAM: The Open Source CFD Toolbox           |
|  \\    /   O peration     | Version:  2406                                  |
|   \\  /    A nd           | Website:  www.openfoam.com                      |
|    \\/     M anipulation  |                                                 |
\*---------------------------------------------------------------------------*/
FoamFile
{
    version     2.0;
    format      ascii;
    arch        "LSB;label=32;scalar=64";
    class       volScalarField;
    location    "121";
    object      p;
}
// * * * * * * * * * * * * * * * * * * * * * * * * * * * * * * * * * * * * * //

dimensions      [0 2 -2 0 0 0 0];

internalField   nonuniform List<scalar> 
1900
(
-0.076589
-0.075982
-0.0761808
-0.0772126
-0.078753
-0.0806873
-0.0830131
-0.0857378
-0.0888407
-0.0922538
-0.0739025
-0.0748472
-0.0758782
-0.0770785
-0.0786413
-0.0805967
-0.0829026
-0.0855269
-0.0884314
-0.0914895
-0.0711681
-0.0734744
-0.0754011
-0.0767496
-0.0782193
-0.0800668
-0.0821928
-0.0844636
-0.0867188
-0.0886242
-0.068687
-0.0716013
-0.0740851
-0.0755948
-0.0770026
-0.0787261
-0.0806467
-0.0825742
-0.0843613
-0.0858192
-0.0665484
-0.0696868
-0.0724393
-0.0740474
-0.0753923
-0.0769737
-0.0786918
-0.0803532
-0.0818546
-0.0831032
-0.065011
-0.0681552
-0.0708736
-0.0724065
-0.0736429
-0.0750836
-0.0766318
-0.0781092
-0.0794466
-0.0806041
-0.0643449
-0.0672717
-0.0696623
-0.0709656
-0.072068
-0.0733849
-0.0748017
-0.0761656
-0.0774298
-0.0785754
-0.0647562
-0.0670699
-0.0688677
-0.0699275
-0.0709499
-0.072176
-0.073495
-0.0747964
-0.0760417
-0.0772098
-0.0663923
-0.0673479
-0.0682568
-0.069151
-0.0702078
-0.071428
-0.072732
-0.0740508
-0.0753383
-0.0765602
-0.0687881
-0.0682241
-0.0683376
-0.0690858
-0.0701235
-0.0713042
-0.0725784
-0.0738944
-0.0751983
-0.0764457
-0.0871907
-0.0872495
-0.0873011
-0.0873248
-0.0873232
-0.0872994
-0.0872539
-0.0871854
-0.0870925
-0.0869734
-0.0868265
-0.0866505
-0.0864441
-0.0862065
-0.0859366
-0.0856338
-0.0852971
-0.084926
-0.0845197
-0.0840776
-0.0835989
-0.083083
-0.0825291
-0.0819364
-0.0813039
-0.0806309
-0.0799161
-0.0791585
-0.0783566
-0.0775092
-0.0766147
-0.0756711
-0.0746767
-0.0736293
-0.0725266
-0.0871236
-0.0871859
-0.0872317
-0.0872485
-0.0872445
-0.0872215
-0.0871784
-0.0871131
-0.0870234
-0.0869074
-0.0867635
-0.0865903
-0.0863865
-0.0861514
-0.0858838
-0.0855831
-0.0852486
-0.0848794
-0.084475
-0.0840347
-0.0835577
-0.0830435
-0.0824912
-0.0819001
-0.0812692
-0.0805977
-0.0798846
-0.0791285
-0.0783285
-0.0774829
-0.0765902
-0.0756488
-0.0746568
-0.073612
-0.0725122
-0.0870773
-0.0871523
-0.0871986
-0.0872116
-0.0872068
-0.087186
-0.0871465
-0.0870853
-0.0869995
-0.0868872
-0.0867467
-0.0865765
-0.0863755
-0.0861428
-0.0858776
-0.0855791
-0.0852466
-0.0848794
-0.0844769
-0.0840385
-0.0835634
-0.083051
-0.0825007
-0.0819115
-0.0812827
-0.0806134
-0.0799026
-0.0791492
-0.0783519
-0.0775094
-0.0766202
-0.0756826
-0.0746949
-0.073655
-0.0725607
-0.0871186
-0.0872057
-0.0872544
-0.0872658
-0.0872615
-0.0872427
-0.0872055
-0.0871464
-0.0870625
-0.0869515
-0.0868119
-0.0866424
-0.086442
-0.0862097
-0.0859448
-0.0856467
-0.0853145
-0.0849477
-0.0845457
-0.0841078
-0.0836335
-0.083122
-0.0825727
-0.0819848
-0.0813576
-0.0806902
-0.0799815
-0.0792306
-0.0784363
-0.0775973
-0.0767122
-0.0757793
-0.0747969
-0.073763
-0.0726755
-0.0873078
-0.0873935
-0.0874336
-0.0874365
-0.0874269
-0.0874038
-0.0873624
-0.0872988
-0.0872104
-0.087095
-0.0869511
-0.0867776
-0.0865734
-0.0863377
-0.0860698
-0.0857689
-0.0854344
-0.0850655
-0.0846618
-0.0842226
-0.0837472
-0.0832351
-0.0826855
-0.0820977
-0.081471
-0.0808046
-0.0800974
-0.0793485
-0.0785568
-0.0777209
-0.0768394
-0.0759108
-0.0749333
-0.073905
-0.0728237
-0.0877093
-0.087759
-0.0877582
-0.0877295
-0.0876965
-0.0876539
-0.0875952
-0.0875161
-0.0874139
-0.0872863
-0.0871316
-0.0869485
-0.0867359
-0.0864929
-0.0862186
-0.0859122
-0.0855728
-0.0851996
-0.0847921
-0.0843496
-0.0838716
-0.0833574
-0.0828061
-0.0822171
-0.0815897
-0.080923
-0.0802161
-0.0794679
-0.0786772
-0.0778428
-0.0769633
-0.0760368
-0.075062
-0.074037
-0.0729593
-0.0883986
-0.0883312
-0.0882138
-0.0881043
-0.0880162
-0.0879322
-0.0878403
-0.0877343
-0.0876101
-0.0874644
-0.0872946
-0.0870987
-0.0868753
-0.0866231
-0.0863409
-0.0860276
-0.0856822
-0.0853041
-0.0848926
-0.0844469
-0.0839662
-0.0834497
-0.0828966
-0.0823061
-0.0816778
-0.0810105
-0.0803033
-0.0795551
-0.0787647
-0.0779306
-0.0770514
-0.0761254
-0.0751506
-0.0741251
-0.0730464
-0.089574
-0.0891223
-0.0887092
-0.0884425
-0.088266
-0.0881254
-0.0879955
-0.0878634
-0.0877203
-0.0875604
-0.0873795
-0.0871748
-0.0869443
-0.0866863
-0.0863993
-0.086082
-0.085733
-0.0853513
-0.0849365
-0.0844881
-0.0840049
-0.0834862
-0.082931
-0.0823385
-0.0817078
-0.0810379
-0.0803276
-0.0795758
-0.0787813
-0.0779425
-0.0770578
-0.0761255
-0.0751435
-0.0741098
-0.0730218
-0.0920469
-0.0901363
-0.0890131
-0.0885628
-0.0883183
-0.0881306
-0.0879776
-0.0878376
-0.087691
-0.0875283
-0.0873453
-0.0871393
-0.0869081
-0.0866497
-0.0863622
-0.0860441
-0.0856943
-0.0853119
-0.0848958
-0.084445
-0.0839586
-0.0834358
-0.0828758
-0.0822776
-0.0816402
-0.0809624
-0.0802433
-0.0794814
-0.0786753
-0.0778234
-0.076924
-0.0759752
-0.0749748
-0.0739206
-0.0728102
-0.0963055
-0.0910409
-0.0887777
-0.0883428
-0.0881418
-0.0879214
-0.087759
-0.0876379
-0.0875121
-0.0873637
-0.0871917
-0.0869948
-0.08677
-0.0865151
-0.0862288
-0.0859102
-0.0855583
-0.0851721
-0.0847506
-0.0842928
-0.083798
-0.0832651
-0.0826933
-0.0820814
-0.0814284
-0.080733
-0.0799938
-0.0792096
-0.0783787
-0.0774996
-0.0765703
-0.075589
-0.0745535
-0.0734616
-0.0723111
-0.0938388
-0.0902556
-0.0882435
-0.0879901
-0.0879262
-0.0877135
-0.087527
-0.0874033
-0.0872843
-0.0871391
-0.0869664
-0.0867676
-0.0865398
-0.0862804
-0.0859878
-0.085661
-0.0852988
-0.0849002
-0.084464
-0.0839893
-0.0834749
-0.0829199
-0.0823231
-0.0816836
-0.0809999
-0.0802709
-0.0794952
-0.0786713
-0.0777977
-0.0768729
-0.075895
-0.0748624
-0.0737731
-0.0726252
-0.0714168
-0.0924236
-0.0903031
-0.0884195
-0.0878221
-0.0876396
-0.0874077
-0.0871905
-0.0870417
-0.0869148
-0.0867676
-0.0865914
-0.0863869
-0.0861518
-0.0858825
-0.0855768
-0.0852334
-0.0848514
-0.0844296
-0.0839669
-0.0834622
-0.0829144
-0.0823226
-0.0816858
-0.0810028
-0.0802723
-0.0794932
-0.0786642
-0.0777839
-0.0768512
-0.0758645
-0.0748227
-0.0737241
-0.0725675
-0.0713517
-0.0700753
-0.089327
-0.0885754
-0.087535
-0.0870598
-0.0869233
-0.0867841
-0.0866155
-0.0864718
-0.0863424
-0.0861947
-0.0860149
-0.0858022
-0.085555
-0.0852701
-0.0849447
-0.0845776
-0.0841677
-0.083714
-0.0832154
-0.0826708
-0.0820793
-0.0814401
-0.0807523
-0.0800148
-0.0792267
-0.078387
-0.0774947
-0.0765488
-0.0755485
-0.0744929
-0.0733812
-0.0722126
-0.0709866
-0.0697026
-0.0683605
-0.0866381
-0.0866533
-0.086257
-0.08598
-0.0858913
-0.0858269
-0.0857282
-0.0856215
-0.0855126
-0.0853815
-0.0852134
-0.0850046
-0.0847538
-0.0844587
-0.084117
-0.0837276
-0.0832898
-0.0828028
-0.0822659
-0.0816785
-0.0810401
-0.0803502
-0.0796083
-0.0788137
-0.0779659
-0.0770643
-0.0761085
-0.0750979
-0.0740325
-0.0729119
-0.071736
-0.070505
-0.069219
-0.0678787
-0.0664848
-0.08396
-0.0843411
-0.0844008
-0.0844148
-0.0844885
-0.0845635
-0.0845914
-0.0845775
-0.0845306
-0.0844433
-0.0843061
-0.0841154
-0.0838714
-0.0835735
-0.0832211
-0.0828138
-0.0823517
-0.0818346
-0.0812627
-0.0806359
-0.0799544
-0.0792182
-0.0784273
-0.0775816
-0.076681
-0.0757257
-0.0747157
-0.0736513
-0.0725329
-0.071361
-0.0701361
-0.0688594
-0.0675317
-0.0661545
-0.0647297
-0.0815191
-0.0821526
-0.0825608
-0.0828628
-0.0831281
-0.0833479
-0.0834993
-0.0835822
-0.0836043
-0.0835658
-0.0834631
-0.0832951
-0.0830628
-0.0827675
-0.0824099
-0.0819908
-0.081511
-0.0809713
-0.0803725
-0.0797155
-0.0790009
-0.0782294
-0.0774015
-0.0765177
-0.0755787
-0.0745849
-0.0735372
-0.0724364
-0.0712835
-0.0700796
-0.068826
-0.0675242
-0.066176
-0.0647835
-0.0633489
-0.0795681
-0.0803813
-0.0810272
-0.0815495
-0.0819837
-0.0823355
-0.0825988
-0.0827738
-0.0828662
-0.0828793
-0.0828142
-0.0826725
-0.0824568
-0.0821696
-0.0818134
-0.0813898
-0.0809008
-0.0803482
-0.0797336
-0.0790584
-0.078324
-0.0775314
-0.0766818
-0.0757761
-0.0748155
-0.073801
-0.0727339
-0.0716154
-0.0704469
-0.0692298
-0.0679661
-0.0666575
-0.0653062
-0.0639147
-0.0624857
-0.0782723
-0.0792058
-0.0800043
-0.0806781
-0.0812396
-0.0816943
-0.0820427
-0.0822876
-0.0824341
-0.0824874
-0.0824517
-0.082331
-0.0821293
-0.0818504
-0.0814978
-0.0810743
-0.0805827
-0.0800254
-0.0794046
-0.0787221
-0.0779796
-0.0771787
-0.0763208
-0.0754072
-0.0744394
-0.0734186
-0.0723464
-0.0712241
-0.0700534
-0.0688361
-0.0675739
-0.0662692
-0.064924
-0.0635411
-0.062123
-0.0776881
-0.0787008
-0.0795871
-0.0803447
-0.0809766
-0.0814868
-0.0818795
-0.0821598
-0.0823337
-0.0824076
-0.0823872
-0.0822779
-0.0820845
-0.0818115
-0.0814629
-0.081042
-0.0805521
-0.0799957
-0.0793753
-0.078693
-0.0779506
-0.0771498
-0.0762922
-0.0753794
-0.0744126
-0.0733935
-0.0723235
-0.0712042
-0.0700371
-0.0688242
-0.0675673
-0.0662686
-0.0649304
-0.0635551
-0.0621455
-0.0776045
-0.0786527
-0.0795764
-0.0803692
-0.0810309
-0.081565
-0.0819768
-0.0822721
-0.0824575
-0.0825399
-0.0825257
-0.0824206
-0.0822303
-0.0819593
-0.0816119
-0.081192
-0.0807027
-0.0801468
-0.0795269
-0.0788451
-0.0781033
-0.0773034
-0.0764468
-0.0755352
-0.0745699
-0.0735525
-0.0724845
-0.0713673
-0.0702026
-0.0689921
-0.0677379
-0.0664419
-0.0651064
-0.063734
-0.0623271
-0.071366
-0.0701448
-0.0688601
-0.0675087
-0.0660876
-0.0645932
-0.0630224
-0.0613718
-0.0596383
-0.057819
-0.071355
-0.0701376
-0.0688572
-0.0675109
-0.0660954
-0.0646075
-0.063044
-0.0614016
-0.0596773
-0.057868
-0.0714096
-0.0701991
-0.0689265
-0.0675888
-0.0661829
-0.0647055
-0.0631533
-0.0615233
-0.0598119
-0.0580162
-0.0715321
-0.0703302
-0.069067
-0.0677396
-0.0663447
-0.0648789
-0.0633388
-0.0617207
-0.0600216
-0.0582384
-0.0716869
-0.0704921
-0.0692364
-0.0679166
-0.0665297
-0.0650723
-0.0635406
-0.0619308
-0.0602396
-0.0584645
-0.0718264
-0.0706358
-0.0693844
-0.068069
-0.0666865
-0.0652332
-0.0637055
-0.0620995
-0.0604117
-0.0586389
-0.0719122
-0.0707196
-0.0694655
-0.0681468
-0.0667599
-0.0653013
-0.0637673
-0.0621543
-0.0604588
-0.0586779
-0.0718769
-0.0706723
-0.0694048
-0.0680712
-0.0666682
-0.0651923
-0.06364
-0.0620081
-0.0602938
-0.0584946
-0.0716409
-0.0704098
-0.069114
-0.0677505
-0.0663163
-0.0648084
-0.0632239
-0.0615606
-0.0598163
-0.0579898
-0.0710994
-0.0698241
-0.0684828
-0.0670729
-0.0655922
-0.0640386
-0.0624104
-0.0607064
-0.0589261
-0.0570697
-0.0701462
-0.0688114
-0.0674108
-0.0659429
-0.0644067
-0.0628013
-0.0611265
-0.0593828
-0.0575712
-0.0556938
-0.0687375
-0.0673375
-0.0658747
-0.064349
-0.0627605
-0.0611102
-0.0593994
-0.0576301
-0.0558052
-0.0539284
-0.0669605
-0.0655028
-0.0639882
-0.062418
-0.0607938
-0.0591179
-0.0573931
-0.0556229
-0.0538116
-0.0519641
-0.0650386
-0.0635415
-0.0619955
-0.060403
-0.058767
-0.0570907
-0.0553782
-0.0536338
-0.0518626
-0.0500702
-0.0632591
-0.0617454
-0.0601914
-0.0586003
-0.0569758
-0.0553219
-0.0536431
-0.0519442
-0.0502305
-0.0485074
-0.0618752
-0.0603651
-0.0588221
-0.0572499
-0.0556524
-0.0540339
-0.0523988
-0.050752
-0.0490984
-0.047443
-0.0610221
-0.0595271
-0.0580042
-0.0564572
-0.0548899
-0.0533066
-0.0517115
-0.0501091
-0.0485038
-0.0469002
-0.0606729
-0.0591939
-0.0576895
-0.0561632
-0.0546189
-0.0530606
-0.0514921
-0.0499178
-0.0483417
-0.0467679
-0.0607046
-0.0592354
-0.0577412
-0.0562256
-0.0546923
-0.053145
-0.0515876
-0.050024
-0.0484583
-0.0468944
-0.0608887
-0.0594219
-0.05793
-0.0564163
-0.0548845
-0.0533383
-0.0517816
-0.0502182
-0.048652
-0.047087
-0.0559115
-0.0539139
-0.051825
-0.0496448
-0.0473746
-0.0450167
-0.0425748
-0.0400549
-0.0374648
-0.0348144
-0.0321157
-0.0293824
-0.0266305
-0.0238773
-0.0211417
-0.0184435
-0.015803
-0.0132403
-0.0107752
-0.00842638
-0.00621068
-0.00414302
-0.00223613
-0.000500033
0.00105924
0.00243704
0.00363034
0.0046401
0.00546955
0.00612386
0.00660993
0.00693603
0.00711135
0.0071457
0.00704906
-0.0559716
-0.0539858
-0.0519094
-0.0497419
-0.0474843
-0.045139
-0.0427101
-0.0402029
-0.037625
-0.0349859
-0.0322974
-0.0295731
-0.0268288
-0.0240819
-0.0213511
-0.0186565
-0.0160184
-0.0134572
-0.0109928
-0.00864432
-0.00642772
-0.00435777
-0.00244827
-0.000709316
0.000851799
0.00223064
0.00342547
0.00443716
0.00526892
0.00592597
0.00641527
0.00674509
0.00692465
0.00696374
0.00687235
-0.0561334
-0.0541614
-0.052099
-0.0499456
-0.0477018
-0.0453696
-0.0429524
-0.0404554
-0.0378862
-0.0352543
-0.0325714
-0.0298511
-0.0271094
-0.0243638
-0.0216333
-0.018938
-0.0162987
-0.0137363
-0.0112707
-0.00892073
-0.00670348
-0.00463397
-0.00272504
-0.000986738
0.000573779
0.00195215
0.00314672
0.00415844
0.00499067
0.00564887
0.00614017
0.00647304
0.00665687
0.00670158
0.00661728
-0.0563682
-0.0544085
-0.0523577
-0.0502151
-0.0479809
-0.045657
-0.0432463
-0.0407545
-0.0381898
-0.035562
-0.0328823
-0.0301649
-0.0274258
-0.0246828
-0.0219556
-0.0192645
-0.0166304
-0.0140742
-0.011616
-0.00927468
-0.00706738
-0.00500896
-0.00311189
-0.00138588
0.000162293
0.00152873
0.00271227
0.00371441
0.00453902
0.005192
0.00568091
0.00601456
0.00620265
0.00625532
0.00618285
-0.0566026
-0.0546508
-0.0526074
-0.0504715
-0.0482437
-0.0459257
-0.0435209
-0.041035
-0.0384761
-0.0358542
-0.0331816
-0.0304729
-0.0277446
-0.0250152
-0.0223045
-0.0196331
-0.0170221
-0.0144922
-0.0120633
-0.0097538
-0.00758025
-0.00555682
-0.00369512
-0.00200392
-0.00048904
0.000846609
0.00200286
0.00298209
0.00378896
0.00443004
0.00491345
0.00524841
0.00544489
0.00551323
0.00546377
-0.0567782
-0.0548271
-0.0527841
-0.0506487
-0.0484216
-0.0461052
-0.0437037
-0.0412234
-0.0386731
-0.0360637
-0.0334083
-0.0307219
-0.0280218
-0.0253267
-0.0226565
-0.0200319
-0.0174733
-0.0150009
-0.0126338
-0.0103891
-0.00828222
-0.00632576
-0.00452979
-0.00290145
-0.00144498
-0.000161802
0.000949313
0.00189196
0.00267181
0.00329623
0.00377389
0.00411438
0.00432784
0.00442458
0.00441481
-0.056809
-0.0548503
-0.0528007
-0.0506605
-0.0484313
-0.0461165
-0.0437214
-0.0412534
-0.0387223
-0.0361398
-0.03352
-0.0308785
-0.0282331
-0.0256023
-0.023006
-0.0204639
-0.0179955
-0.0156197
-0.0133536
-0.0112125
-0.00920957
-0.0073552
-0.0056571
-0.00412017
-0.00274652
-0.00153567
-0.000484706
0.000411329
0.00115916
0.00176687
0.00224357
0.00259894
0.00284302
0.00298577
0.00303693
-0.0566087
-0.0546353
-0.0525745
-0.0504276
-0.0481978
-0.0458898
-0.0435104
-0.0410683
-0.0385744
-0.0360415
-0.0334843
-0.0309189
-0.0283629
-0.0258343
-0.0233518
-0.0209338
-0.0185978
-0.0163602
-0.0142356
-0.0122363
-0.0103726
-0.00865193
-0.00707904
-0.00565618
-0.00438307
-0.00325715
-0.00227388
-0.00142703
-0.000709056
-0.000111459
0.000374891
0.000759425
0.00105158
0.00126058
0.00139522
-0.0560807
-0.0540893
-0.0520176
-0.0498685
-0.0476468
-0.045359
-0.0430133
-0.0406198
-0.0381904
-0.0357385
-0.0332789
-0.0308277
-0.0284012
-0.0260163
-0.0236896
-0.021437
-0.0192731
-0.0172111
-0.015262
-0.0134348
-0.0117362
-0.0101701
-0.00873851
-0.00744078
-0.00627439
-0.00523498
-0.0043167
-0.00351254
-0.00281462
-0.00221457
-0.00170373
-0.00127348
-0.000915445
-0.000621625
-0.000384561
-0.0551385
-0.0531347
-0.0510619
-0.0489252
-0.0467308
-0.0444868
-0.0422028
-0.0398896
-0.0375595
-0.0352259
-0.0329031
-0.0306055
-0.028348
-0.026145
-0.0240099
-0.0219555
-0.0199928
-0.0181309
-0.0163772
-0.014737
-0.0132131
-0.0118067
-0.0105166
-0.00934024
-0.00827319
-0.00730996
-0.00644409
-0.00566844
-0.00497547
-0.00435751
-0.00380698
-0.00331653
-0.00287925
-0.00248871
-0.00213903
-0.0537537
-0.051755
-0.0497031
-0.0476043
-0.0454665
-0.0432987
-0.0411108
-0.038914
-0.03672
-0.0345411
-0.0323899
-0.0302788
-0.0282198
-0.026224
-0.0243015
-0.0224611
-0.02071
-0.0190534
-0.0174951
-0.0160367
-0.0146785
-0.0134187
-0.0122545
-0.0111816
-0.0101949
-0.00928849
-0.00845615
-0.00769128
-0.00698732
-0.00633785
-0.00573671
-0.00517815
-0.00465691
-0.0041682
-0.00370779
-0.0520044
-0.0500388
-0.048038
-0.0460096
-0.0439617
-0.0419036
-0.0398449
-0.0377958
-0.0357667
-0.0337678
-0.0318094
-0.0299009
-0.028051
-0.0262675
-0.0245567
-0.0229238
-0.0213723
-0.0199043
-0.0185205
-0.0172201
-0.0160012
-0.0148606
-0.0137945
-0.0127982
-0.0118666
-0.0109943
-0.0101758
-0.00940579
-0.00867893
-0.00799031
-0.00733537
-0.00670994
-0.0061103
-0.00553318
-0.00497575
-0.050086
-0.0481837
-0.0462642
-0.0443351
-0.0424043
-0.0404802
-0.0385714
-0.0366862
-0.0348331
-0.0330198
-0.0312537
-0.0295412
-0.0278879
-0.0262981
-0.0247752
-0.0233213
-0.0219374
-0.0206231
-0.0193774
-0.0181979
-0.0170819
-0.0160258
-0.0150256
-0.014077
-0.0131757
-0.0123173
-0.0114974
-0.0107121
-0.00995732
-0.0092297
-0.00852601
-0.00784343
-0.00717948
-0.00653201
-0.00589922
-0.0482624
-0.0464457
-0.0446267
-0.0428125
-0.04101
-0.0392262
-0.0374678
-0.0357414
-0.0340529
-0.0324077
-0.0308105
-0.0292651
-0.0277744
-0.0263404
-0.0249643
-0.0236462
-0.0223855
-0.0211808
-0.0200301
-0.0189308
-0.01788
-0.0168745
-0.0159109
-0.0149857
-0.0140957
-0.0132374
-0.0124078
-0.0116039
-0.0108231
-0.0100629
-0.00932118
-0.00859604
-0.00788581
-0.00718907
-0.00650464
-0.0467806
-0.0450559
-0.0433393
-0.0416365
-0.0399532
-0.0382949
-0.0366666
-0.0350728
-0.0335175
-0.0320041
-0.0305354
-0.0291132
-0.027739
-0.0264132
-0.0251357
-0.023906
-0.0227227
-0.0215842
-0.0204886
-0.0194335
-0.0184165
-0.017435
-0.0164865
-0.0155683
-0.0146779
-0.0138131
-0.0129715
-0.0121511
-0.01135
-0.0105664
-0.0097988
-0.00904584
-0.00830627
-0.0075791
-0.00686341
-0.0457909
-0.044147
-0.0425164
-0.0409037
-0.0393134
-0.0377494
-0.0362156
-0.0347151
-0.0332506
-0.0318241
-0.0304373
-0.0290913
-0.0277864
-0.0265229
-0.0253001
-0.0241173
-0.0229733
-0.0218667
-0.0207958
-0.019759
-0.0187542
-0.0177795
-0.016833
-0.0159128
-0.015017
-0.0141438
-0.0132915
-0.0124585
-0.0116433
-0.0108445
-0.010061
-0.00929162
-0.0085353
-0.0077912
-0.00705854
-0.0453027
-0.0437155
-0.042143
-0.0405888
-0.0390567
-0.0375499
-0.0360712
-0.0346232
-0.0332078
-0.0318267
-0.030481
-0.0291715
-0.0278984
-0.0266618
-0.0254613
-0.0242962
-0.0231657
-0.0220686
-0.0210038
-0.0199697
-0.018965
-0.017988
-0.0170374
-0.0161114
-0.0152086
-0.0143274
-0.0134664
-0.0126243
-0.0117998
-0.0109915
-0.0101985
-0.00941971
-0.0086542
-0.00790108
-0.0071597
-0.0452004
-0.0436432
-0.0420999
-0.040574
-0.0390688
-0.0375871
-0.0361315
-0.0347043
-0.0333072
-0.0319419
-0.0306092
-0.0293102
-0.028045
-0.026814
-0.0256168
-0.024453
-0.023322
-0.0222229
-0.0211547
-0.0201162
-0.0191061
-0.0181232
-0.0171661
-0.0162333
-0.0153235
-0.0144353
-0.0135673
-0.0127183
-0.0118871
-0.0110725
-0.0102733
-0.00948868
-0.00871761
-0.00795935
-0.00721311
-0.045336
-0.043787
-0.042251
-0.0407313
-0.039231
-0.037753
-0.0362998
-0.0348737
-0.0334765
-0.0321098
-0.0307748
-0.0294723
-0.0282029
-0.0269667
-0.0257638
-0.0245938
-0.0234561
-0.0223501
-0.0212747
-0.020229
-0.0192117
-0.0182216
-0.0172575
-0.0163179
-0.0154015
-0.014507
-0.0136331
-0.0127785
-0.0119419
-0.0111223
-0.0103185
-0.00952955
-0.00875454
-0.00799264
-0.00724311
-0.045527
-0.0439758
-0.0424368
-0.0409135
-0.0394091
-0.0379264
-0.036468
-0.0350363
-0.033633
-0.0322599
-0.0309181
-0.0296087
-0.0283322
-0.0270889
-0.0258788
-0.0247016
-0.0235569
-0.022444
-0.0213619
-0.0203096
-0.0192861
-0.0182901
-0.0173202
-0.0163753
-0.0154538
-0.0145545
-0.0136761
-0.0128172
-0.0119767
-0.0111534
-0.0103462
-0.00955407
-0.00877618
-0.00801164
-0.00725973
0.00683132
0.00650192
0.0060696
0.00554219
0.0049263
0.00422753
0.00344871
0.0025966
0.00165543
0.000722103
0.00666032
0.00633704
0.0059112
0.00539057
0.00478164
0.00409027
0.00331765
0.00247801
0.00152271
0.000734422
0.0064139
0.00610093
0.00568707
0.00518021
0.0045867
0.00391313
0.00315819
0.00234647
0.0013909
0.000771023
0.00599531
0.00570225
0.00531248
0.00483395
0.00427303
0.00363686
0.0029225
0.00216206
0.00124495
0.000758497
0.00530658
0.00505119
0.00470633
0.00427994
0.0037784
0.00320901
0.00256913
0.00189142
0.00106894
0.000667568
0.00430838
0.0041145
0.00384164
0.00349748
0.00308837
0.00262129
0.00209575
0.00153734
0.000871488
0.000506632
0.00300572
0.00290075
0.00272987
0.00250017
0.00221791
0.00188888
0.0015168
0.00111281
0.000657213
0.000296083
0.00146372
0.00147365
0.00143192
0.00134466
0.00121769
0.00105537
0.000865527
0.000642334
0.000428643
6.64004e-05
-0.000197399
-5.39336e-05
5.14544e-05
0.000123668
0.000167775
0.000186276
0.000190477
0.000158827
0.000187927
-0.000147134
-0.00182496
-0.00154181
-0.00128541
-0.00105222
-0.000838282
-0.00064272
-0.000453065
-0.00030069
-5.80323e-05
-0.000313389
-0.00327197
-0.00285753
-0.00246166
-0.00208213
-0.00171622
-0.00136432
-0.00101514
-0.000702364
-0.000295778
-0.000415307
-0.00443559
-0.00391069
-0.00339934
-0.00290036
-0.00241216
-0.00193592
-0.00146309
-0.00102358
-0.000507447
-0.000454484
-0.0052796
-0.00467195
-0.00407532
-0.00348914
-0.00291274
-0.00234745
-0.00178823
-0.00125747
-0.000677621
-0.000447723
-0.00583152
-0.00516897
-0.0045164
-0.00387357
-0.00324026
-0.00261771
-0.0020036
-0.00141277
-0.000799657
-0.000417708
-0.00615848
-0.0054637
-0.00477866
-0.00410314
-0.00343712
-0.00278137
-0.00213546
-0.00150792
-0.000877825
-0.000383796
-0.00633667
-0.00562504
-0.00492323
-0.00423097
-0.00354815
-0.00287518
-0.00221222
-0.00156387
-0.000923948
-0.000357333
-0.00642936
-0.00570956
-0.0049998
-0.00429979
-0.00360925
-0.00292828
-0.00225705
-0.00159793
-0.00095129
-0.000341769
-0.00647831
-0.00575433
-0.00504077
-0.00433719
-0.00364336
-0.00295908
-0.00228442
-0.00162058
-0.000969052
-0.00033511
-0.00650532
-0.00577872
-0.00506284
-0.0043573
-0.00366183
-0.00297624
-0.00230049
-0.00163518
-0.000980598
-0.000333582
-0.0065198
-0.00579131
-0.0050738
-0.00436692
-0.00367042
-0.00298417
-0.00230814
-0.00164267
-0.000987775
-0.000335867
)
;

boundaryField
{
    inlet
    {
        type            zeroGradient;
    }
    outlet
    {
        type            fixedValue;
        value           uniform 0;
    }
    upperWall
    {
        type            zeroGradient;
    }
    lowerWall
    {
        type            zeroGradient;
    }
    frontAndBack
    {
        type            empty;
    }
}


// ************************************************************************* //
