/*--------------------------------*- C++ -*----------------------------------*\
| =========                 |                                                 |
| \\      /  F ield         | OpenFOAM: The Open Source CFD Toolbox           |
|  \\    /   O peration     | Version:  2406                                  |
|   \\  /    A nd           | Website:  www.openfoam.com                      |
|    \\/     M anipulation  |                                                 |
\*---------------------------------------------------------------------------*/
FoamFile
{
    version     2.0;
    format      ascii;
    arch        "LSB;label=32;scalar=64";
    class       volVectorField;
    location    "121";
    object      U;
}
// * * * * * * * * * * * * * * * * * * * * * * * * * * * * * * * * * * * * * //

dimensions      [0 1 -1 0 0 0 0];

internalField   nonuniform List<vector> 
1900
(
(0.192696 -0.00279249 0)
(0.197438 -0.00463787 0)
(0.202881 -0.00430233 0)
(0.208657 -0.00358334 0)
(0.214186 -0.00305578 0)
(0.219462 -0.00273244 0)
(0.224741 -0.00260185 0)
(0.230226 -0.00273684 0)
(0.236409 -0.00291749 0)
(0.241278 -0.0104393 0)
(0.508373 -0.00277707 0)
(0.507368 -0.00596541 0)
(0.507566 -0.00708563 0)
(0.508686 -0.00744589 0)
(0.510763 -0.0076976 0)
(0.513742 -0.00800144 0)
(0.517547 -0.00846728 0)
(0.522166 -0.00930892 0)
(0.527711 -0.0107191 0)
(0.533555 -0.0136505 0)
(0.748828 -0.00185722 0)
(0.748287 -0.00451668 0)
(0.747954 -0.00608418 0)
(0.747594 -0.00719475 0)
(0.747712 -0.0082663 0)
(0.748538 -0.00942743 0)
(0.750028 -0.0107717 0)
(0.752081 -0.0124763 0)
(0.754561 -0.0147477 0)
(0.757065 -0.0180335 0)
(0.909051 -0.00131232 0)
(0.908731 -0.00358389 0)
(0.908334 -0.00537337 0)
(0.90751 -0.00690219 0)
(0.906798 -0.00840608 0)
(0.906501 -0.0100009 0)
(0.906575 -0.0117682 0)
(0.906885 -0.0138152 0)
(0.907302 -0.0162344 0)
(0.907628 -0.0190645 0)
(0.98912 -0.000938346 0)
(0.988783 -0.00272169 0)
(0.988223 -0.00437301 0)
(0.987008 -0.00596565 0)
(0.985647 -0.00759961 0)
(0.984464 -0.00934306 0)
(0.983423 -0.0112466 0)
(0.982395 -0.0133566 0)
(0.981277 -0.0156917 0)
(0.979958 -0.0182161 0)
(0.989102 -0.000545959 0)
(0.988627 -0.00170297 0)
(0.987785 -0.00301801 0)
(0.986131 -0.00448941 0)
(0.984171 -0.00608493 0)
(0.982223 -0.00780381 0)
(0.980246 -0.0096628 0)
(0.978114 -0.0116679 0)
(0.975747 -0.0138014 0)
(0.973077 -0.0160132 0)
(0.908997 -2.53811e-05 0)
(0.908269 -0.0004107 0)
(0.907037 -0.00129945 0)
(0.904914 -0.00252764 0)
(0.902425 -0.00392415 0)
(0.899852 -0.00544646 0)
(0.897127 -0.00709493 0)
(0.894124 -0.00884788 0)
(0.890775 -0.0106645 0)
(0.887033 -0.0124928 0)
(0.74874 0.000802528 0)
(0.747537 0.00136173 0)
(0.745854 0.000824942 0)
(0.7434 -0.000208657 0)
(0.740651 -0.00137858 0)
(0.737788 -0.00263135 0)
(0.734711 -0.00397019 0)
(0.731296 -0.0053594 0)
(0.72748 -0.00675211 0)
(0.723221 -0.00810863 0)
(0.508265 0.00209296 0)
(0.506404 0.00394101 0)
(0.504857 0.00376205 0)
(0.503279 0.00284069 0)
(0.501683 0.00177862 0)
(0.49997 0.000666966 0)
(0.497963 -0.000472968 0)
(0.495547 -0.00158734 0)
(0.49264 -0.00262811 0)
(0.489197 -0.00357058 0)
(0.192596 0.00246191 0)
(0.196525 0.00380853 0)
(0.200308 0.00310376 0)
(0.203602 0.00208203 0)
(0.205879 0.00126299 0)
(0.20711 0.000615661 0)
(0.207442 8.33646e-05 0)
(0.206957 -0.000342374 0)
(0.205746 -0.000666636 0)
(0.203902 -0.0009041 0)
(-5.5831e-05 3.89314e-05 0)
(-0.000817822 0.000262461 0)
(-0.00222775 0.000406875 0)
(-0.00396517 0.000457844 0)
(-0.00578479 0.000469065 0)
(-0.00759768 0.000467884 0)
(-0.009382 0.000464586 0)
(-0.0111355 0.000461761 0)
(-0.0128595 0.000459278 0)
(-0.0145549 0.000456595 0)
(-0.0162217 0.000453425 0)
(-0.0178597 0.00044975 0)
(-0.0194688 0.000445687 0)
(-0.0210494 0.000441395 0)
(-0.0226019 0.00043702 0)
(-0.0241273 0.000432687 0)
(-0.0256266 0.000428497 0)
(-0.0271008 0.000424539 0)
(-0.0285514 0.000420894 0)
(-0.0299798 0.000417629 0)
(-0.0313873 0.0004148 0)
(-0.0327757 0.000412457 0)
(-0.0341465 0.000410653 0)
(-0.0355013 0.00040944 0)
(-0.0368419 0.000408873 0)
(-0.0381698 0.00040899 0)
(-0.0394869 0.000409833 0)
(-0.0407945 0.000411429 0)
(-0.0420942 0.000413811 0)
(-0.0433873 0.000416992 0)
(-0.0446748 0.000420989 0)
(-0.0459576 0.000425786 0)
(-0.0472361 0.000431357 0)
(-0.04851 0.000437611 0)
(-0.0497787 0.000444444 0)
(-0.000415319 0.000888402 0)
(-0.00275437 0.00225469 0)
(-0.00625692 0.00307533 0)
(-0.0102957 0.00339448 0)
(-0.0144335 0.00345784 0)
(-0.0185124 0.00342392 0)
(-0.022484 0.00336273 0)
(-0.0263374 0.00329742 0)
(-0.030073 0.00323281 0)
(-0.0336943 0.0031689 0)
(-0.0372053 0.00310536 0)
(-0.04061 0.00304236 0)
(-0.0439125 0.00298036 0)
(-0.047117 0.00291989 0)
(-0.0502277 0.00286135 0)
(-0.0532487 0.00280506 0)
(-0.056184 0.00275126 0)
(-0.0590374 0.00270014 0)
(-0.0618126 0.00265185 0)
(-0.064513 0.0026065 0)
(-0.0671421 0.00256416 0)
(-0.0697028 0.00252484 0)
(-0.072198 0.00248858 0)
(-0.0746303 0.0024554 0)
(-0.0770019 0.00242525 0)
(-0.0793148 0.00239804 0)
(-0.0815705 0.00237359 0)
(-0.0837698 0.00235166 0)
(-0.0859129 0.00233193 0)
(-0.0879995 0.00231399 0)
(-0.0900282 0.00229727 0)
(-0.0919964 0.00228103 0)
(-0.0939006 0.00226432 0)
(-0.0957356 0.00224594 0)
(-0.0974944 0.0022244 0)
(-0.000830256 0.00296354 0)
(-0.00483698 0.00618109 0)
(-0.0102528 0.00785927 0)
(-0.0161673 0.00844598 0)
(-0.02204 0.00849229 0)
(-0.0277083 0.00832708 0)
(-0.0331275 0.00809842 0)
(-0.0382919 0.00785967 0)
(-0.043211 0.00762574 0)
(-0.0478982 0.00739948 0)
(-0.0523675 0.0071812 0)
(-0.0566322 0.00697104 0)
(-0.0607044 0.00676923 0)
(-0.0645952 0.00657586 0)
(-0.0683142 0.00639088 0)
(-0.07187 0.00621408 0)
(-0.0752702 0.00604521 0)
(-0.0785211 0.00588403 0)
(-0.0816286 0.00573027 0)
(-0.0845976 0.00558361 0)
(-0.0874324 0.00544365 0)
(-0.0901361 0.00530992 0)
(-0.0927115 0.00518198 0)
(-0.0951602 0.00505935 0)
(-0.0974833 0.00494139 0)
(-0.0996809 0.0048273 0)
(-0.101752 0.0047161 0)
(-0.103694 0.00460667 0)
(-0.105505 0.00449766 0)
(-0.107178 0.00438747 0)
(-0.108709 0.00427419 0)
(-0.11009 0.00415551 0)
(-0.11131 0.00402868 0)
(-0.112359 0.00389043 0)
(-0.113222 0.003737 0)
(-0.00124561 0.00626758 0)
(-0.00678856 0.011892 0)
(-0.0137366 0.0143973 0)
(-0.020923 0.0150677 0)
(-0.0277739 0.0148973 0)
(-0.0341774 0.0144143 0)
(-0.0401284 0.0138485 0)
(-0.0456513 0.0132832 0)
(-0.0507801 0.0127426 0)
(-0.0555486 0.012231 0)
(-0.0599874 0.0117476 0)
(-0.064123 0.0112905 0)
(-0.0679779 0.0108577 0)
(-0.0715712 0.0104472 0)
(-0.0749187 0.0100569 0)
(-0.0780334 0.00968471 0)
(-0.0809259 0.00932896 0)
(-0.0836049 0.008988 0)
(-0.0860774 0.0086604 0)
(-0.088349 0.00834473 0)
(-0.0904238 0.00803943 0)
(-0.0923042 0.0077429 0)
(-0.0939916 0.00745363 0)
(-0.0954858 0.00717006 0)
(-0.0967856 0.00689045 0)
(-0.0978882 0.0066127 0)
(-0.0987895 0.00633445 0)
(-0.0994837 0.0060531 0)
(-0.0999636 0.0057658 0)
(-0.10022 0.0054693 0)
(-0.100243 0.00515984 0)
(-0.10002 0.00483325 0)
(-0.0995369 0.00448476 0)
(-0.0987778 0.0041089 0)
(-0.097725 0.00369955 0)
(-0.00166733 0.0106849 0)
(-0.00848629 0.0189711 0)
(-0.0163091 0.0220035 0)
(-0.0238554 0.0223842 0)
(-0.0306479 0.02168 0)
(-0.0366938 0.0206256 0)
(-0.0420643 0.0195183 0)
(-0.0468372 0.0184599 0)
(-0.0510848 0.0174751 0)
(-0.0548681 0.0165627 0)
(-0.0582369 0.0157153 0)
(-0.0612314 0.0149249 0)
(-0.0638838 0.0141841 0)
(-0.0662199 0.0134863 0)
(-0.0682602 0.0128254 0)
(-0.0700208 0.0121959 0)
(-0.0715138 0.0115933 0)
(-0.0727489 0.0110137 0)
(-0.073733 0.0104538 0)
(-0.0744715 0.00991046 0)
(-0.0749674 0.00938021 0)
(-0.0752218 0.00885971 0)
(-0.0752342 0.00834586 0)
(-0.0750022 0.00783569 0)
(-0.0745222 0.00732601 0)
(-0.073789 0.00681309 0)
(-0.0727956 0.00629281 0)
(-0.0715336 0.00576093 0)
(-0.0699929 0.00521298 0)
(-0.0681621 0.00464407 0)
(-0.0660279 0.00404869 0)
(-0.0635759 0.00342117 0)
(-0.0607902 0.00275588 0)
(-0.0576534 0.00204604 0)
(-0.0541471 0.00128399 0)
(-0.00212097 0.0161199 0)
(-0.00985161 0.0268322 0)
(-0.0175059 0.0297158 0)
(-0.0240617 0.029251 0)
(-0.0293914 0.0276314 0)
(-0.0337108 0.0257446 0)
(-0.0371948 0.0239136 0)
(-0.039984 0.0222326 0)
(-0.0421902 0.0207094 0)
(-0.0438982 0.0193254 0)
(-0.0451711 0.0180585 0)
(-0.0460564 0.0168892 0)
(-0.0465908 0.0158016 0)
(-0.0468021 0.0147818 0)
(-0.0467116 0.013818 0)
(-0.0463348 0.0129002 0)
(-0.0456831 0.0120202 0)
(-0.0447642 0.0111719 0)
(-0.0435836 0.0103497 0)
(-0.0421448 0.00954773 0)
(-0.0404491 0.00876015 0)
(-0.0384954 0.00798148 0)
(-0.0362807 0.00720679 0)
(-0.0338007 0.0064317 0)
(-0.0310495 0.00565161 0)
(-0.0280194 0.00486111 0)
(-0.0247015 0.00405451 0)
(-0.0210853 0.00322621 0)
(-0.0171597 0.00237039 0)
(-0.0129122 0.00148077 0)
(-0.00832852 0.000550602 0)
(-0.00339329 -0.000426774 0)
(0.00190833 -0.00145822 0)
(0.00758969 -0.00255128 0)
(0.0136638 -0.0037133 0)
(-0.00264327 0.0226846 0)
(-0.0106536 0.0346068 0)
(-0.0163596 0.0360488 0)
(-0.0198523 0.0340434 0)
(-0.0217987 0.0311863 0)
(-0.0226941 0.0283167 0)
(-0.0227926 0.0257003 0)
(-0.0222685 0.0233842 0)
(-0.0212488 0.0213348 0)
(-0.0198191 0.0195018 0)
(-0.0180366 0.0178418 0)
(-0.0159412 0.0163208 0)
(-0.013562 0.0149124 0)
(-0.0109198 0.0135949 0)
(-0.00802933 0.0123501 0)
(-0.00490019 0.0111628 0)
(-0.00153769 0.010021 0)
(0.00205497 0.00891498 0)
(0.00587488 0.00783741 0)
(0.00992324 0.00678111 0)
(0.0142035 0.00573806 0)
(0.0187202 0.0047009 0)
(0.0234797 0.00366335 0)
(0.0284869 0.00261925 0)
(0.0337507 0.00156166 0)
(0.0392834 0.000483605 0)
(0.0450959 -0.000621358 0)
(0.0511999 -0.00175951 0)
(0.0576074 -0.00293743 0)
(0.064331 -0.0041621 0)
(0.0713824 -0.00544043 0)
(0.0787744 -0.00677928 0)
(0.0865198 -0.0081864 0)
(0.0946314 -0.00966958 0)
(0.103121 -0.0112358 0)
(-0.00321548 0.0307491 0)
(-0.00955809 0.0406334 0)
(-0.00976165 0.038502 0)
(-0.00684982 0.0344527 0)
(-0.00281807 0.0304178 0)
(0.0017291 0.0267201 0)
(0.00663836 0.0234925 0)
(0.0118044 0.0207191 0)
(0.0171544 0.0183076 0)
(0.0226533 0.0161698 0)
(0.0282865 0.014242 0)
(0.0340465 0.0124793 0)
(0.0399301 0.0108475 0)
(0.0459372 0.00931889 0)
(0.0520701 0.00787032 0)
(0.058333 0.00648345 0)
(0.0647308 0.00514384 0)
(0.0712682 0.00383951 0)
(0.0779476 0.00255921 0)
(0.0847831 0.00129315 0)
(0.0917857 3.26452e-05 0)
(0.0989655 -0.00122994 0)
(0.106333 -0.00250153 0)
(0.1139 -0.00378916 0)
(0.121678 -0.00510033 0)
(0.129676 -0.00644241 0)
(0.137905 -0.00782233 0)
(0.146376 -0.00924691 0)
(0.1551 -0.0107231 0)
(0.164088 -0.0122579 0)
(0.173353 -0.0138583 0)
(0.182904 -0.0155311 0)
(0.192753 -0.0172833 0)
(0.202908 -0.0191215 0)
(0.213377 -0.0210521 0)
(-0.000456723 0.0358122 0)
(0.00138671 0.0395821 0)
(0.0134932 0.0326978 0)
(0.0273743 0.0272855 0)
(0.0401033 0.022996 0)
(0.0518047 0.0191962 0)
(0.0628947 0.015896 0)
(0.0735334 0.0130972 0)
(0.0838021 0.0106861 0)
(0.0937841 0.00854743 0)
(0.103553 0.00660814 0)
(0.113156 0.0048205 0)
(0.122638 0.00314864 0)
(0.132037 0.00156498 0)
(0.141383 4.80265e-05 0)
(0.1507 -0.00141899 0)
(0.160009 -0.00284958 0)
(0.16933 -0.004255 0)
(0.178683 -0.00564588 0)
(0.188082 -0.00703282 0)
(0.197539 -0.00842494 0)
(0.207068 -0.0098302 0)
(0.216683 -0.0112561 0)
(0.226397 -0.01271 0)
(0.236223 -0.014199 0)
(0.246174 -0.0157301 0)
(0.256263 -0.01731 0)
(0.266502 -0.0189457 0)
(0.276901 -0.020644 0)
(0.28747 -0.0224113 0)
(0.29822 -0.024254 0)
(0.309157 -0.0261783 0)
(0.320289 -0.0281899 0)
(0.331621 -0.0302939 0)
(0.343155 -0.032495 0)
(0.0419245 0.0171419 0)
(0.0635654 0.0182174 0)
(0.0890583 0.013223 0)
(0.113823 0.0093599 0)
(0.134457 0.00668901 0)
(0.15211 0.00433654 0)
(0.168102 0.00210726 0)
(0.182976 6.61577e-05 0)
(0.196967 -0.0017821 0)
(0.210265 -0.00348377 0)
(0.223024 -0.0050787 0)
(0.235361 -0.00659095 0)
(0.247353 -0.00803988 0)
(0.259054 -0.0094433 0)
(0.270514 -0.0108157 0)
(0.281772 -0.0121689 0)
(0.292862 -0.0135128 0)
(0.303813 -0.0148565 0)
(0.314653 -0.0162083 0)
(0.325404 -0.0175757 0)
(0.336087 -0.0189658 0)
(0.346723 -0.0203855 0)
(0.357328 -0.0218417 0)
(0.36792 -0.0233408 0)
(0.378511 -0.0248891 0)
(0.389117 -0.0264929 0)
(0.399749 -0.0281581 0)
(0.410417 -0.0298905 0)
(0.421131 -0.0316957 0)
(0.431899 -0.0335788 0)
(0.442725 -0.0355446 0)
(0.453614 -0.0375974 0)
(0.464567 -0.0397409 0)
(0.475583 -0.0419779 0)
(0.486658 -0.0443104 0)
(0.258664 -0.0206438 0)
(0.27032 -0.0196035 0)
(0.284652 -0.0172288 0)
(0.301295 -0.0158342 0)
(0.317346 -0.0151991 0)
(0.33221 -0.0151113 0)
(0.346278 -0.0154527 0)
(0.359754 -0.0160726 0)
(0.372673 -0.0168486 0)
(0.385082 -0.0177162 0)
(0.397053 -0.0186453 0)
(0.40865 -0.0196182 0)
(0.41992 -0.0206239 0)
(0.430903 -0.0216569 0)
(0.441631 -0.0227161 0)
(0.452134 -0.0238028 0)
(0.462438 -0.0249194 0)
(0.472565 -0.0260692 0)
(0.482535 -0.0272558 0)
(0.492366 -0.0284834 0)
(0.502074 -0.0297564 0)
(0.511674 -0.0310793 0)
(0.521178 -0.0324565 0)
(0.530598 -0.0338927 0)
(0.539943 -0.0353923 0)
(0.549222 -0.0369595 0)
(0.558442 -0.0385987 0)
(0.567607 -0.0403135 0)
(0.57672 -0.0421076 0)
(0.585783 -0.0439841 0)
(0.594795 -0.0459455 0)
(0.603751 -0.0479935 0)
(0.612647 -0.0501293 0)
(0.621474 -0.052353 0)
(0.63022 -0.0546633 0)
(0.538112 -0.018289 0)
(0.540827 -0.0208729 0)
(0.54464 -0.0220577 0)
(0.550436 -0.0230204 0)
(0.557231 -0.0239329 0)
(0.564359 -0.0247408 0)
(0.571711 -0.0254973 0)
(0.579243 -0.026257 0)
(0.586852 -0.0270302 0)
(0.594457 -0.0278147 0)
(0.602019 -0.0286135 0)
(0.609517 -0.0294313 0)
(0.616936 -0.0302717 0)
(0.624265 -0.0311377 0)
(0.631496 -0.0320333 0)
(0.638625 -0.0329623 0)
(0.645651 -0.0339289 0)
(0.652572 -0.0349369 0)
(0.65939 -0.0359904 0)
(0.666105 -0.0370932 0)
(0.672718 -0.0382494 0)
(0.679229 -0.0394626 0)
(0.685639 -0.0407365 0)
(0.691948 -0.0420747 0)
(0.698155 -0.0434803 0)
(0.704257 -0.0449564 0)
(0.710252 -0.0465056 0)
(0.716136 -0.0481301 0)
(0.721901 -0.0498317 0)
(0.727541 -0.0516114 0)
(0.733045 -0.0534695 0)
(0.738403 -0.0554057 0)
(0.743599 -0.0574183 0)
(0.748618 -0.0595049 0)
(0.75344 -0.0616614 0)
(0.758901 -0.0218224 0)
(0.760014 -0.0245602 0)
(0.76129 -0.0261945 0)
(0.763298 -0.0274044 0)
(0.765841 -0.0284866 0)
(0.768619 -0.0294598 0)
(0.771548 -0.03035 0)
(0.774619 -0.031204 0)
(0.777794 -0.0320444 0)
(0.781023 -0.0328749 0)
(0.78427 -0.0336987 0)
(0.787516 -0.0345218 0)
(0.790743 -0.0353503 0)
(0.793935 -0.0361899 0)
(0.797078 -0.0370464 0)
(0.80016 -0.0379254 0)
(0.803172 -0.0388324 0)
(0.806105 -0.0397728 0)
(0.808951 -0.0407514 0)
(0.811702 -0.041773 0)
(0.814352 -0.0428418 0)
(0.816893 -0.0439617 0)
(0.819317 -0.0451364 0)
(0.821616 -0.0463689 0)
(0.823781 -0.0476618 0)
(0.825803 -0.0490174 0)
(0.827671 -0.0504372 0)
(0.829373 -0.0519222 0)
(0.830897 -0.0534727 0)
(0.832227 -0.0550882 0)
(0.833347 -0.0567672 0)
(0.83424 -0.0585075 0)
(0.834885 -0.0603054 0)
(0.835262 -0.0621562 0)
(0.835348 -0.0640539 0)
(0.907585 -0.0220099 0)
(0.907096 -0.0245056 0)
(0.906476 -0.0263843 0)
(0.906064 -0.0278909 0)
(0.905884 -0.0292204 0)
(0.905813 -0.0304128 0)
(0.905784 -0.0314801 0)
(0.905782 -0.0324545 0)
(0.90579 -0.0333656 0)
(0.905775 -0.0342298 0)
(0.905713 -0.0350584 0)
(0.905588 -0.0358626 0)
(0.905388 -0.0366531 0)
(0.9051 -0.0374395 0)
(0.904714 -0.0382297 0)
(0.904221 -0.0390313 0)
(0.903613 -0.0398509 0)
(0.902882 -0.0406946 0)
(0.902018 -0.0415677 0)
(0.901014 -0.042475 0)
(0.89986 -0.0434205 0)
(0.898547 -0.044408 0)
(0.897066 -0.0454403 0)
(0.895406 -0.0465199 0)
(0.893554 -0.0476486 0)
(0.891499 -0.0488275 0)
(0.889226 -0.0500571 0)
(0.886721 -0.0513371 0)
(0.883968 -0.0526665 0)
(0.88095 -0.0540433 0)
(0.877648 -0.0554646 0)
(0.874043 -0.0569267 0)
(0.870113 -0.0584244 0)
(0.865838 -0.0599515 0)
(0.861193 -0.0615006 0)
(0.9783 -0.0207794 0)
(0.976257 -0.0231158 0)
(0.973969 -0.0250574 0)
(0.971628 -0.0266542 0)
(0.969296 -0.0280194 0)
(0.966931 -0.02921 0)
(0.964491 -0.0302513 0)
(0.961966 -0.0311734 0)
(0.959347 -0.0320083 0)
(0.956622 -0.0327793 0)
(0.953773 -0.0335028 0)
(0.950791 -0.0341921 0)
(0.947668 -0.0348594 0)
(0.944396 -0.035515 0)
(0.940969 -0.0361674 0)
(0.937379 -0.0368243 0)
(0.933619 -0.0374921 0)
(0.929681 -0.0381765 0)
(0.925558 -0.0388824 0)
(0.921242 -0.039614 0)
(0.916723 -0.0403746 0)
(0.911992 -0.0411671 0)
(0.907038 -0.0419937 0)
(0.90185 -0.0428557 0)
(0.896415 -0.043754 0)
(0.890722 -0.0446888 0)
(0.884755 -0.0456594 0)
(0.8785 -0.0466646 0)
(0.871942 -0.0477022 0)
(0.865063 -0.0487692 0)
(0.857847 -0.0498617 0)
(0.850277 -0.050975 0)
(0.842333 -0.0521032 0)
(0.833998 -0.0532395 0)
(0.825254 -0.0543759 0)
(0.970031 -0.0182031 0)
(0.966585 -0.0202208 0)
(0.962803 -0.0219526 0)
(0.95879 -0.0233978 0)
(0.954604 -0.0246197 0)
(0.950248 -0.0256695 0)
(0.945711 -0.026575 0)
(0.940993 -0.0273607 0)
(0.936099 -0.0280531 0)
(0.931027 -0.0286745 0)
(0.925773 -0.0292419 0)
(0.920333 -0.029769 0)
(0.914705 -0.0302675 0)
(0.908886 -0.0307478 0)
(0.902872 -0.0312185 0)
(0.89666 -0.0316868 0)
(0.890244 -0.032159 0)
(0.88362 -0.0326403 0)
(0.87678 -0.0331349 0)
(0.869718 -0.0336465 0)
(0.862426 -0.0341778 0)
(0.854895 -0.0347307 0)
(0.847117 -0.0353068 0)
(0.839081 -0.0359068 0)
(0.830777 -0.0365307 0)
(0.822192 -0.0371779 0)
(0.813316 -0.0378471 0)
(0.804136 -0.0385365 0)
(0.79464 -0.0392433 0)
(0.784813 -0.0399641 0)
(0.774645 -0.0406948 0)
(0.764122 -0.0414304 0)
(0.753231 -0.0421653 0)
(0.741961 -0.042893 0)
(0.730302 -0.0436062 0)
(0.882856 -0.0142629 0)
(0.878229 -0.0158876 0)
(0.873187 -0.0172975 0)
(0.867796 -0.0184794 0)
(0.862111 -0.0194644 0)
(0.856159 -0.0202885 0)
(0.849951 -0.0209775 0)
(0.843502 -0.0215527 0)
(0.836826 -0.0220368 0)
(0.829934 -0.0224505 0)
(0.822833 -0.0228106 0)
(0.815526 -0.0231307 0)
(0.80802 -0.0234219 0)
(0.800315 -0.0236939 0)
(0.792415 -0.0239547 0)
(0.78432 -0.0242107 0)
(0.776027 -0.0244673 0)
(0.767536 -0.0247287 0)
(0.758843 -0.0249984 0)
(0.749944 -0.0252789 0)
(0.740835 -0.0255723 0)
(0.731508 -0.0258797 0)
(0.721957 -0.026202 0)
(0.712176 -0.0265391 0)
(0.702157 -0.0268906 0)
(0.691891 -0.0272555 0)
(0.68137 -0.0276322 0)
(0.670586 -0.0280186 0)
(0.659532 -0.0284119 0)
(0.648198 -0.0288091 0)
(0.636578 -0.0292063 0)
(0.624666 -0.0295994 0)
(0.612456 -0.0299834 0)
(0.599944 -0.0303532 0)
(0.587128 -0.030703 0)
(0.718488 -0.00938755 0)
(0.713271 -0.0105412 0)
(0.707596 -0.0115302 0)
(0.701514 -0.0123437 0)
(0.695077 -0.0129986 0)
(0.688325 -0.013521 0)
(0.681288 -0.0139336 0)
(0.673994 -0.0142551 0)
(0.66647 -0.0145039 0)
(0.658738 -0.0146971 0)
(0.650817 -0.0148486 0)
(0.64272 -0.0149697 0)
(0.63446 -0.0150694 0)
(0.626048 -0.0151553 0)
(0.617489 -0.0152337 0)
(0.60879 -0.0153093 0)
(0.599952 -0.0153861 0)
(0.590978 -0.0154669 0)
(0.581867 -0.0155541 0)
(0.572617 -0.0156492 0)
(0.563226 -0.0157532 0)
(0.553689 -0.0158668 0)
(0.544004 -0.0159899 0)
(0.534164 -0.0161221 0)
(0.524164 -0.0162626 0)
(0.514 -0.0164103 0)
(0.503665 -0.0165636 0)
(0.493156 -0.0167207 0)
(0.482468 -0.0168793 0)
(0.471597 -0.017037 0)
(0.460542 -0.0171909 0)
(0.4493 -0.0173381 0)
(0.437873 -0.0174752 0)
(0.426263 -0.0175988 0)
(0.414473 -0.0177051 0)
(0.485197 -0.00439909 0)
(0.480649 -0.0050976 0)
(0.475594 -0.0056551 0)
(0.470095 -0.00607524 0)
(0.464222 -0.00637679 0)
(0.458037 -0.00658404 0)
(0.451597 -0.00671831 0)
(0.444948 -0.00679672 0)
(0.438133 -0.00683402 0)
(0.431185 -0.00684298 0)
(0.424133 -0.00683367 0)
(0.416996 -0.00681358 0)
(0.40979 -0.00678828 0)
(0.402528 -0.00676192 0)
(0.395216 -0.00673754 0)
(0.387859 -0.00671722 0)
(0.38046 -0.0067023 0)
(0.373017 -0.00669363 0)
(0.365529 -0.00669161 0)
(0.357994 -0.00669633 0)
(0.350407 -0.00670759 0)
(0.342765 -0.00672497 0)
(0.335063 -0.00674788 0)
(0.327297 -0.00677555 0)
(0.319461 -0.00680708 0)
(0.311553 -0.00684146 0)
(0.303568 -0.00687756 0)
(0.295504 -0.00691418 0)
(0.287359 -0.00694998 0)
(0.279133 -0.0069836 0)
(0.270827 -0.00701358 0)
(0.262442 -0.00703844 0)
(0.253982 -0.00705664 0)
(0.245453 -0.00706667 0)
(0.236861 -0.00706703 0)
(0.201518 -0.00106949 0)
(0.198692 -0.00117279 0)
(0.19552 -0.0012228 0)
(0.192096 -0.0012313 0)
(0.188502 -0.00121247 0)
(0.184803 -0.00117887 0)
(0.181045 -0.00113876 0)
(0.177259 -0.00109694 0)
(0.173471 -0.00105654 0)
(0.169695 -0.0010197 0)
(0.165939 -0.000987504 0)
(0.162209 -0.000960182 0)
(0.158505 -0.000937523 0)
(0.154826 -0.000919169 0)
(0.151171 -0.000904653 0)
(0.147535 -0.000893489 0)
(0.143915 -0.000885185 0)
(0.140306 -0.000879317 0)
(0.136706 -0.000875479 0)
(0.133109 -0.000873313 0)
(0.129511 -0.000872461 0)
(0.12591 -0.000872611 0)
(0.122302 -0.000873455 0)
(0.118684 -0.000874734 0)
(0.115055 -0.000876184 0)
(0.111413 -0.000877577 0)
(0.107757 -0.000878667 0)
(0.104086 -0.000879235 0)
(0.100402 -0.000879043 0)
(0.0967049 -0.000877884 0)
(0.0929974 -0.000875537 0)
(0.089282 -0.000871817 0)
(0.0855622 -0.000866538 0)
(0.0818422 -0.00085955 0)
(0.0781271 -0.000850709 0)
(-0.0510403 0.000451683 0)
(-0.0522925 0.000459144 0)
(-0.0535314 0.000466521 0)
(-0.0547518 0.000473452 0)
(-0.0559469 0.000479439 0)
(-0.0571082 0.000483997 0)
(-0.0582251 0.000486516 0)
(-0.059285 0.000486286 0)
(-0.0602728 0.000482328 0)
(-0.0611711 0.000473612 0)
(-0.0991682 0.00219799 0)
(-0.100746 0.00216467 0)
(-0.102214 0.00212202 0)
(-0.103557 0.00206721 0)
(-0.104755 0.00199706 0)
(-0.105787 0.00190826 0)
(-0.106627 0.00179719 0)
(-0.107247 0.00165982 0)
(-0.107617 0.00149161 0)
(-0.107705 0.00128815 0)
(-0.113884 0.00356423 0)
(-0.114326 0.00336746 0)
(-0.114527 0.00314137 0)
(-0.114464 0.00288002 0)
(-0.114112 0.00257702 0)
(-0.113442 0.00222584 0)
(-0.112423 0.00182008 0)
(-0.111024 0.00135381 0)
(-0.109209 0.000821896 0)
(-0.106951 0.00021866 0)
(-0.0963591 0.00325019 0)
(-0.0946587 0.00275382 0)
(-0.0926006 0.00220304 0)
(-0.0901594 0.00159055 0)
(-0.0873109 0.000908986 0)
(-0.0840318 0.00015045 0)
(-0.0802975 -0.000692549 0)
(-0.0760842 -0.00162597 0)
(-0.0713707 -0.00265388 0)
(-0.0661308 -0.00377857 0)
(-0.050254 0.000462099 0)
(-0.0459553 -0.00042756 0)
(-0.0412321 -0.00139292 0)
(-0.0360671 -0.00244136 0)
(-0.0304427 -0.00357979 0)
(-0.0243388 -0.00481513 0)
(-0.0177379 -0.00615359 0)
(-0.0106237 -0.00759983 0)
(-0.00298041 -0.00915764 0)
(0.00520065 -0.0108287 0)
(0.0201478 -0.00495159 0)
(0.0270572 -0.00627374 0)
(0.0344064 -0.00768702 0)
(0.0422092 -0.00919841 0)
(0.0504777 -0.0108148 0)
(0.0592229 -0.0125419 0)
(0.068453 -0.0143842 0)
(0.0781744 -0.016344 0)
(0.0883905 -0.0184219 0)
(0.0991015 -0.0206187 0)
(0.112001 -0.012892 0)
(0.12128 -0.0146449 0)
(0.13097 -0.0165009 0)
(0.141076 -0.0184654 0)
(0.151604 -0.0205432 0)
(0.162556 -0.0227379 0)
(0.173933 -0.025051 0)
(0.18573 -0.0274822 0)
(0.197939 -0.0300286 0)
(0.210549 -0.0326849 0)
(0.224168 -0.023081 0)
(0.235284 -0.0252135 0)
(0.246729 -0.0274541 0)
(0.258501 -0.0298057 0)
(0.270597 -0.0322703 0)
(0.283012 -0.0348479 0)
(0.295733 -0.0375365 0)
(0.308746 -0.0403316 0)
(0.322032 -0.0432259 0)
(0.335566 -0.0462095 0)
(0.354891 -0.0347971 0)
(0.366827 -0.0372027 0)
(0.378958 -0.0397134 0)
(0.391275 -0.042329 0)
(0.403764 -0.0450477 0)
(0.41641 -0.0478654 0)
(0.429192 -0.0507759 0)
(0.442083 -0.05377 0)
(0.455055 -0.0568359 0)
(0.468073 -0.0599586 0)
(0.497785 -0.0467393 0)
(0.508954 -0.0492639 0)
(0.520152 -0.0518824 0)
(0.531361 -0.0545906 0)
(0.542561 -0.0573828 0)
(0.553726 -0.0602507 0)
(0.564828 -0.0631835 0)
(0.575833 -0.0661679 0)
(0.586705 -0.0691876 0)
(0.597402 -0.0722233 0)
(0.638871 -0.0570579 0)
(0.647409 -0.0595329 0)
(0.655814 -0.0620825 0)
(0.664062 -0.0646991 0)
(0.672124 -0.0673731 0)
(0.67997 -0.0700924 0)
(0.687566 -0.0728425 0)
(0.694875 -0.0756065 0)
(0.701857 -0.0783649 0)
(0.708469 -0.0810956 0)
(0.758046 -0.0638825 0)
(0.76241 -0.0661613 0)
(0.766507 -0.0684891 0)
(0.770307 -0.0708552 0)
(0.77378 -0.0732471 0)
(0.776891 -0.0756498 0)
(0.779606 -0.0780466 0)
(0.781888 -0.0804184 0)
(0.783699 -0.0827439 0)
(0.785 -0.085 0)
(0.835117 -0.065991 0)
(0.834543 -0.0679584 0)
(0.833597 -0.0699453 0)
(0.83225 -0.0719392 0)
(0.830472 -0.073926 0)
(0.828231 -0.0758895 0)
(0.825497 -0.0778119 0)
(0.822236 -0.0796738 0)
(0.81842 -0.0814544 0)
(0.814019 -0.0831312 0)
(0.856154 -0.0630629 0)
(0.850699 -0.0646283 0)
(0.844801 -0.066185 0)
(0.838436 -0.0677202 0)
(0.83158 -0.0692193 0)
(0.824208 -0.0706668 0)
(0.816299 -0.0720456 0)
(0.807833 -0.0733377 0)
(0.798792 -0.0745243 0)
(0.789162 -0.0755862 0)
(0.816081 -0.0555036 0)
(0.806463 -0.0566125 0)
(0.796383 -0.0576913 0)
(0.785825 -0.0587281 0)
(0.774776 -0.0597098 0)
(0.763224 -0.0606225 0)
(0.751162 -0.0614518 0)
(0.738584 -0.0621829 0)
(0.725489 -0.0628008 0)
(0.711881 -0.0632905 0)
(0.718244 -0.0442968 0)
(0.705779 -0.0449562 0)
(0.692901 -0.045575 0)
(0.679606 -0.0461432 0)
(0.665896 -0.0466506 0)
(0.651771 -0.0470865 0)
(0.63724 -0.0474402 0)
(0.622311 -0.0477012 0)
(0.607002 -0.047859 0)
(0.591332 -0.0479042 0)
(0.574008 -0.0310267 0)
(0.560586 -0.0313178 0)
(0.546866 -0.0315695 0)
(0.532856 -0.0317751 0)
(0.518567 -0.0319276 0)
(0.504013 -0.0320203 0)
(0.489214 -0.0320466 0)
(0.474191 -0.0320005 0)
(0.458972 -0.0318764 0)
(0.443586 -0.0316698 0)
(0.402511 -0.0177905 0)
(0.390385 -0.0178512 0)
(0.378107 -0.0178834 0)
(0.365691 -0.0178834 0)
(0.353154 -0.0178479 0)
(0.340517 -0.0177735 0)
(0.327803 -0.0176576 0)
(0.315039 -0.0174978 0)
(0.302254 -0.0172922 0)
(0.28948 -0.0170398 0)
(0.228216 -0.00705626 0)
(0.219528 -0.00703297 0)
(0.210811 -0.0069959 0)
(0.202078 -0.00694392 0)
(0.193346 -0.00687607 0)
(0.184633 -0.00679159 0)
(0.17596 -0.00668997 0)
(0.167346 -0.00657094 0)
(0.158815 -0.00643452 0)
(0.150388 -0.00628102 0)
(0.0744225 -0.000839909 0)
(0.070735 -0.000827058 0)
(0.0670716 -0.000812101 0)
(0.0634398 -0.000795009 0)
(0.0598477 -0.000775791 0)
(0.0563036 -0.000754489 0)
(0.0528163 -0.000731183 0)
(0.0493943 -0.000705988 0)
(0.0460463 -0.000679049 0)
(0.0427809 -0.000650548 0)
(-0.0619597 0.000459023 0)
(-0.062616 0.000437136 0)
(-0.0631148 0.000406206 0)
(-0.0634286 0.000364599 0)
(-0.0635266 0.0003118 0)
(-0.0633751 0.000248551 0)
(-0.0629497 0.000174613 0)
(-0.0622219 8.92182e-05 0)
(-0.0611658 -7.60796e-06 0)
(-0.0597578 -0.000115373 0)
(-0.0579783 -0.000233044 0)
(-0.0558119 -0.000359126 0)
(-0.0532491 -0.000491597 0)
(-0.0502865 -0.000628027 0)
(-0.0469278 -0.000765506 0)
(-0.0431838 -0.000900933 0)
(-0.0390728 -0.0010312 0)
(-0.03462 -0.00115331 0)
(-0.0298564 -0.0012646 0)
(-0.0248188 -0.00136326 0)
(-0.0195479 -0.00144977 0)
(-0.014087 -0.00152313 0)
(-0.00848256 -0.00158026 0)
(-0.00278545 -0.00161955 0)
(0.00295919 -0.00163647 0)
(0.0087131 -0.0016319 0)
(0.0144327 -0.00161175 0)
(0.0200742 -0.00157829 0)
(0.0256012 -0.0015331 0)
(0.0309823 -0.00147814 0)
(0.0361912 -0.00141551 0)
(0.0412071 -0.00134742 0)
(0.0460146 -0.00127603 0)
(0.0506041 -0.00120348 0)
(0.0549715 -0.00113179 0)
(-0.107473 0.00104541 0)
(-0.106885 0.00075993 0)
(-0.1059 0.000428518 0)
(-0.104484 4.79584e-05 0)
(-0.102602 -0.000383276 0)
(-0.100222 -0.000864078 0)
(-0.0973057 -0.00139191 0)
(-0.0938251 -0.00196367 0)
(-0.0897581 -0.00257414 0)
(-0.0850893 -0.00321705 0)
(-0.0798106 -0.00388482 0)
(-0.0739212 -0.00456817 0)
(-0.0674288 -0.00525655 0)
(-0.0603499 -0.00593866 0)
(-0.0527094 -0.006603 0)
(-0.0445407 -0.00723867 0)
(-0.0358866 -0.0078343 0)
(-0.0267967 -0.00837867 0)
(-0.0173257 -0.00886412 0)
(-0.00753535 -0.00928409 0)
(0.00251232 -0.00963203 0)
(0.0127625 -0.00990319 0)
(0.023154 -0.0100964 0)
(0.0336178 -0.0102126 0)
(0.0440884 -0.0102485 0)
(0.0545051 -0.0102057 0)
(0.0648105 -0.0100929 0)
(0.0749516 -0.00991728 0)
(0.084881 -0.00968588 0)
(0.0945577 -0.0094068 0)
(0.103947 -0.00908872 0)
(0.113022 -0.0087407 0)
(0.121761 -0.00837195 0)
(0.130152 -0.00799172 0)
(0.138188 -0.00760906 0)
(-0.104217 -0.000461321 0)
(-0.100977 -0.00122179 0)
(-0.0972018 -0.00206433 0)
(-0.0928625 -0.00298915 0)
(-0.0879346 -0.00399512 0)
(-0.0823978 -0.00507867 0)
(-0.0762361 -0.00623254 0)
(-0.0694398 -0.00744594 0)
(-0.0620072 -0.00870497 0)
(-0.0539451 -0.00999559 0)
(-0.0452671 -0.0113034 0)
(-0.0359937 -0.0126112 0)
(-0.0261529 -0.0139006 0)
(-0.0157807 -0.0151526 0)
(-0.00492134 -0.016348 0)
(0.00637064 -0.0174663 0)
(0.0180474 -0.0184905 0)
(0.0300584 -0.0194076 0)
(0.0423397 -0.0202055 0)
(0.0548263 -0.0208749 0)
(0.0674515 -0.0214071 0)
(0.0801496 -0.0217951 0)
(0.0928561 -0.0220387 0)
(0.105507 -0.0221402 0)
(0.118043 -0.0221034 0)
(0.130408 -0.021935 0)
(0.14255 -0.0216441 0)
(0.154426 -0.021242 0)
(0.165995 -0.0207418 0)
(0.177224 -0.0201578 0)
(0.188088 -0.0195056 0)
(0.198566 -0.0188009 0)
(0.208645 -0.0180602 0)
(0.21832 -0.0172997 0)
(0.227591 -0.0165353 0)
(-0.0603444 -0.00500362 0)
(-0.0539929 -0.00633201 0)
(-0.047061 -0.00776301 0)
(-0.0395374 -0.00929314 0)
(-0.0314161 -0.0109162 0)
(-0.0226961 -0.012623 0)
(-0.013382 -0.0144004 0)
(-0.00348402 -0.0162314 0)
(0.00697259 -0.0180958 0)
(0.0179629 -0.0199736 0)
(0.0294628 -0.0218439 0)
(0.0414365 -0.0236824 0)
(0.0538421 -0.0254639 0)
(0.066632 -0.027163 0)
(0.0797537 -0.0287549 0)
(0.0931513 -0.0302158 0)
(0.106765 -0.0315249 0)
(0.120532 -0.032665 0)
(0.134388 -0.0336211 0)
(0.148268 -0.0343822 0)
(0.162108 -0.0349407 0)
(0.175846 -0.0352927 0)
(0.189425 -0.035439 0)
(0.202787 -0.0353842 0)
(0.215884 -0.0351368 0)
(0.22867 -0.0347084 0)
(0.241105 -0.0341139 0)
(0.253156 -0.0333706 0)
(0.264796 -0.0324982 0)
(0.276004 -0.0315178 0)
(0.286767 -0.0304514 0)
(0.297077 -0.0293217 0)
(0.306933 -0.0281516 0)
(0.316339 -0.0269635 0)
(0.325307 -0.0257795 0)
(0.0139241 -0.0126138 0)
(0.0231953 -0.0145114 0)
(0.0330156 -0.0165164 0)
(0.0433803 -0.0186206 0)
(0.0542792 -0.0208129 0)
(0.0656963 -0.0230783 0)
(0.0776104 -0.0253977 0)
(0.0899954 -0.0277485 0)
(0.10282 -0.0301075 0)
(0.116048 -0.0324491 0)
(0.129633 -0.034744 0)
(0.143529 -0.036962 0)
(0.157681 -0.0390726 0)
(0.172034 -0.0410462 0)
(0.186527 -0.0428542 0)
(0.2011 -0.0444707 0)
(0.21569 -0.0458728 0)
(0.230234 -0.0470415 0)
(0.24467 -0.0479619 0)
(0.258936 -0.048624 0)
(0.272976 -0.0490227 0)
(0.286735 -0.0491577 0)
(0.300163 -0.0490337 0)
(0.313216 -0.0486602 0)
(0.325855 -0.0480511 0)
(0.338048 -0.0472242 0)
(0.349768 -0.0462007 0)
(0.360997 -0.0450046 0)
(0.371719 -0.0436619 0)
(0.38193 -0.0422004 0)
(0.391627 -0.0406483 0)
(0.400817 -0.0390346 0)
(0.409509 -0.0373878 0)
(0.417719 -0.0357359 0)
(0.425467 -0.034106 0)
(0.110303 -0.0229318 0)