/*--------------------------------*- C++ -*----------------------------------*\
| =========                 |                                                 |
| \\      /  F ield         | OpenFOAM: The Open Source CFD Toolbox           |
|  \\    /   O peration     | Version:  2406                                  |
|   \\  /    A nd           | Website:  www.openfoam.com                      |
|    \\/     M anipulation  |                                                 |
\*---------------------------------------------------------------------------*/
FoamFile
{
    version     2.0;
    format      ascii;
    arch        "LSB;label=32;scalar=64";
    class       volScalarField;
    location    "80";
    object      p;
}
// * * * * * * * * * * * * * * * * * * * * * * * * * * * * * * * * * * * * * //

dimensions      [0 2 -2 0 0 0 0];

internalField   nonuniform List<scalar> 
2000
(
0.14579
0.145742
0.145155
0.14422
0.143121
0.141915
0.140635
0.139304
0.137941
0.136553
0.147036
0.146164
0.145204
0.144204
0.143094
0.141879
0.140597
0.139271
0.137914
0.136531
0.147823
0.146409
0.145156
0.144136
0.143049
0.141834
0.140549
0.139229
0.137879
0.136502
0.148343
0.146697
0.14522
0.144123
0.143023
0.141795
0.140499
0.139178
0.137833
0.136462
0.148751
0.146999
0.145354
0.144157
0.143021
0.141772
0.140458
0.139129
0.137785
0.136417
0.149071
0.147261
0.145503
0.144218
0.14304
0.141768
0.140434
0.139092
0.137743
0.136375
0.149315
0.147472
0.145642
0.144291
0.143074
0.141776
0.140423
0.139067
0.137711
0.13634
0.149492
0.14763
0.145756
0.144358
0.143109
0.14179
0.14042
0.139052
0.137688
0.136314
0.149608
0.147736
0.145835
0.144408
0.143138
0.141803
0.140421
0.139043
0.137675
0.136297
0.149666
0.147788
0.145875
0.144435
0.143154
0.141811
0.140422
0.13904
0.137668
0.136289
0.149666
0.147788
0.145875
0.144435
0.143154
0.141811
0.140422
0.13904
0.137668
0.136289
0.149608
0.147736
0.145835
0.144408
0.143138
0.141803
0.140421
0.139043
0.137675
0.136297
0.149492
0.14763
0.145756
0.144358
0.143109
0.14179
0.14042
0.139052
0.137688
0.136314
0.149315
0.147472
0.145642
0.144291
0.143074
0.141776
0.140423
0.139067
0.137711
0.13634
0.149071
0.147261
0.145503
0.144218
0.14304
0.141768
0.140434
0.139092
0.137743
0.136375
0.148751
0.146999
0.145354
0.144157
0.143021
0.141772
0.140458
0.139129
0.137785
0.136417
0.148343
0.146696
0.14522
0.144123
0.143023
0.141795
0.140499
0.139178
0.137833
0.136462
0.147823
0.146409
0.145156
0.144136
0.143049
0.141834
0.140549
0.139229
0.137879
0.136502
0.147036
0.146164
0.145204
0.144204
0.143094
0.141879
0.140597
0.139271
0.137914
0.136531
0.14579
0.145742
0.145155
0.14422
0.143121
0.141915
0.140635
0.139304
0.137941
0.136553
0.135148
0.133728
0.132296
0.130856
0.129408
0.127953
0.126492
0.125027
0.123558
0.122084
0.120608
0.119128
0.117645
0.11616
0.114672
0.113183
0.111691
0.110197
0.108702
0.107205
0.105706
0.104207
0.102705
0.101203
0.099699
0.0981942
0.0966882
0.0951812
0.0936732
0.0921643
0.0906545
0.0891439
0.0876325
0.0861203
0.0846074
0.135129
0.133711
0.132282
0.130844
0.129397
0.127943
0.126484
0.12502
0.123551
0.122078
0.120602
0.119122
0.11764
0.116155
0.114668
0.113179
0.111687
0.110194
0.108699
0.107202
0.105704
0.104204
0.102703
0.1012
0.0996967
0.0981919
0.096686
0.0951791
0.0936713
0.0921624
0.0906527
0.0891422
0.0876308
0.0861187
0.0846058
0.135103
0.13369
0.132264
0.130828
0.129383
0.127932
0.126474
0.12501
0.123543
0.122071
0.120595
0.119117
0.117635
0.116151
0.114664
0.113175
0.111683
0.11019
0.108695
0.107199
0.105701
0.104201
0.1027
0.101198
0.0996945
0.0981898
0.096684
0.0951772
0.0936694
0.0921607
0.0906511
0.0891406
0.0876293
0.0861172
0.0846044
0.135069
0.13366
0.132239
0.130806
0.129365
0.127915
0.126459
0.124998
0.123532
0.122061
0.120587
0.119109
0.117628
0.116145
0.114658
0.11317
0.111679
0.110186
0.108692
0.107196
0.105698
0.104198
0.102698
0.101195
0.0996921
0.0981876
0.0966819
0.0951752
0.0936676
0.0921589
0.0906494
0.089139
0.0876278
0.0861159
0.0846031
0.135027
0.133622
0.132206
0.130777
0.129339
0.127893
0.126439
0.12498
0.123517
0.122048
0.120576
0.119099
0.117619
0.116136
0.114651
0.113163
0.111673
0.110181
0.108687
0.107191
0.105694
0.104195
0.102694
0.101192
0.099689
0.0981847
0.0966792
0.0951727
0.0936652
0.0921567
0.0906473
0.0891371
0.087626
0.0861141
0.0846015
0.134987
0.133585
0.132171
0.130747
0.129312
0.127868
0.126417
0.124961
0.123499
0.122033
0.120563
0.119088
0.117609
0.116127
0.114642
0.113155
0.111665
0.110174
0.108681
0.107186
0.105689
0.10419
0.10269
0.101188
0.0996853
0.0981811
0.0966759
0.0951696
0.0936623
0.0921541
0.0906449
0.0891348
0.0876239
0.0861121
0.0845995
0.134952
0.133551
0.13214
0.130719
0.129286
0.127845
0.126396
0.124941
0.123482
0.122018
0.12055
0.119076
0.117598
0.116117
0.114633
0.113146
0.111658
0.110167
0.108675
0.107181
0.105684
0.104186
0.102686
0.101184
0.0996815
0.0981775
0.0966724
0.0951664
0.0936593
0.0921513
0.0906423
0.0891324
0.0876216
0.08611
0.0845975
0.134925
0.133524
0.132114
0.130695
0.129265
0.127825
0.126378
0.124925
0.123467
0.122005
0.120539
0.119066
0.11759
0.116109
0.114625
0.113139
0.111651
0.110161
0.10867
0.107176
0.10568
0.104182
0.102682
0.101181
0.0996781
0.0981742
0.0966693
0.0951634
0.0936566
0.0921488
0.09064
0.0891303
0.0876197
0.0861081
0.0845957
0.134906
0.133505
0.132096
0.130679
0.12925
0.127811
0.126365
0.124913
0.123457
0.121996
0.12053
0.119059
0.117583
0.116103
0.114619
0.113134
0.111646
0.110157
0.108666
0.107172
0.105677
0.104179
0.102679
0.101178
0.0996756
0.0981718
0.096667
0.0951612
0.0936545
0.0921469
0.0906383
0.0891287
0.0876182
0.0861067
0.0845943
0.134897
0.133495
0.132087
0.13067
0.129242
0.127804
0.126358
0.124906
0.123451
0.121991
0.120526
0.119056
0.11758
0.1161
0.114617
0.113131
0.111644
0.110155
0.108664
0.107171
0.105675
0.104178
0.102678
0.101177
0.0996743
0.0981705
0.0966657
0.0951601
0.0936535
0.0921459
0.0906374
0.0891279
0.0876174
0.0861059
0.0845936
0.134897
0.133495
0.132087
0.13067
0.129242
0.127804
0.126358
0.124906
0.123451
0.121991
0.120526
0.119056
0.11758
0.1161
0.114617
0.113131
0.111644
0.110155
0.108664
0.107171
0.105675
0.104178
0.102678
0.101177
0.0996743
0.0981705
0.0966657
0.0951601
0.0936535
0.0921459
0.0906374
0.0891279
0.0876174
0.0861059
0.0845936
0.134906
0.133505
0.132096
0.130679
0.12925
0.127811
0.126365
0.124913
0.123457
0.121996
0.12053
0.119059
0.117583
0.116103
0.114619
0.113134
0.111646
0.110157
0.108666
0.107172
0.105677
0.104179
0.102679
0.101178
0.0996756
0.0981718
0.096667
0.0951612
0.0936545
0.0921469
0.0906383
0.0891287
0.0876181
0.0861066
0.0845943
0.134925
0.133524
0.132114
0.130695
0.129265
0.127825
0.126378
0.124925
0.123467
0.122005
0.120538
0.119066
0.117589
0.116109
0.114625
0.113139
0.111651
0.110161
0.10867
0.107176
0.10568
0.104182
0.102682
0.101181
0.099678
0.0981742
0.0966693
0.0951634
0.0936566
0.0921488
0.09064
0.0891303
0.0876196
0.086108
0.0845956
0.134952
0.133551
0.13214
0.130718
0.129286
0.127845
0.126396
0.124941
0.123482
0.122018
0.12055
0.119076
0.117598
0.116117
0.114633
0.113146
0.111658
0.110167
0.108675
0.10718
0.105684
0.104186
0.102686
0.101184
0.0996814
0.0981775
0.0966724
0.0951663
0.0936593
0.0921513
0.0906423
0.0891324
0.0876216
0.0861099
0.0845974
0.134987
0.133585
0.132171
0.130747
0.129312
0.127868
0.126417
0.124961
0.123499
0.122033
0.120563
0.119088
0.117609
0.116127
0.114642
0.113155
0.111665
0.110174
0.108681
0.107186
0.105689
0.10419
0.10269
0.101188
0.0996853
0.0981811
0.0966759
0.0951696
0.0936623
0.092154
0.0906448
0.0891347
0.0876238
0.086112
0.0845994
0.135027
0.133623
0.132205
0.130777
0.129339
0.127893
0.126439
0.12498
0.123517
0.122048
0.120576
0.119099
0.117619
0.116136
0.114651
0.113163
0.111673
0.110181
0.108687
0.107191
0.105694
0.104195
0.102694
0.101192
0.099689
0.0981846
0.0966791
0.0951726
0.0936651
0.0921566
0.0906473
0.089137
0.0876259
0.086114
0.0846014
0.135069
0.13366
0.132238
0.130806
0.129365
0.127915
0.126459
0.124998
0.123532
0.122061
0.120587
0.119109
0.117628
0.116145
0.114658
0.11317
0.111679
0.110186
0.108692
0.107195
0.105698
0.104198
0.102698
0.101195
0.0996921
0.0981875
0.0966819
0.0951752
0.0936675
0.0921589
0.0906493
0.089139
0.0876278
0.0861158
0.084603
0.135104
0.13369
0.132264
0.130828
0.129383
0.127932
0.126474
0.12501
0.123543
0.122071
0.120595
0.119117
0.117635
0.116151
0.114664
0.113175
0.111683
0.11019
0.108695
0.107199
0.105701
0.104201
0.1027
0.101198
0.0996944
0.0981897
0.0966839
0.0951771
0.0936693
0.0921606
0.090651
0.0891405
0.0876292
0.0861172
0.0846043
0.135129
0.133711
0.132282
0.130844
0.129397
0.127943
0.126484
0.12502
0.123551
0.122078
0.120602
0.119122
0.11764
0.116155
0.114668
0.113179
0.111687
0.110194
0.108699
0.107202
0.105704
0.104204
0.102703
0.1012
0.0996966
0.0981919
0.096686
0.0951791
0.0936712
0.0921624
0.0906527
0.0891421
0.0876308
0.0861186
0.0846058
0.135148
0.133728
0.132296
0.130856
0.129408
0.127953
0.126492
0.125027
0.123558
0.122084
0.120608
0.119128
0.117645
0.11616
0.114672
0.113183
0.111691
0.110197
0.108702
0.107205
0.105706
0.104207
0.102705
0.101203
0.099699
0.0981941
0.0966881
0.0951811
0.0936731
0.0921642
0.0906545
0.0891438
0.0876324
0.0861202
0.0846073
0.0830937
0.0815794
0.0800644
0.0785488
0.0770326
0.0755159
0.0739985
0.0724807
0.0709623
0.0694434
0.0830923
0.081578
0.0800631
0.0785475
0.0770314
0.0755146
0.0739973
0.0724795
0.0709612
0.0694423
0.0830909
0.0815767
0.0800618
0.0785463
0.0770302
0.0755135
0.0739962
0.0724784
0.0709601
0.0694413
0.0830896
0.0815755
0.0800607
0.0785452
0.0770291
0.0755125
0.0739952
0.0724775
0.0709592
0.0694405
0.0830881
0.081574
0.0800592
0.0785438
0.0770278
0.0755112
0.073994
0.0724763
0.0709581
0.0694394
0.0830862
0.0815722
0.0800575
0.0785421
0.0770262
0.0755097
0.0739926
0.072475
0.0709568
0.0694382
0.0830843
0.0815703
0.0800556
0.0785404
0.0770245
0.0755081
0.073991
0.0724735
0.0709554
0.0694368
0.0830825
0.0815686
0.080054
0.0785388
0.0770229
0.0755066
0.0739896
0.0724722
0.0709542
0.0694356
0.0830812
0.0815673
0.0800527
0.0785375
0.0770217
0.0755054
0.0739885
0.0724711
0.0709532
0.0694347
0.0830805
0.0815666
0.080052
0.0785368
0.0770211
0.0755048
0.0739879
0.0724706
0.0709527
0.0694342
0.0830804
0.0815666
0.080052
0.0785368
0.0770211
0.0755048
0.0739879
0.0724706
0.0709526
0.0694342
0.0830811
0.0815672
0.0800527
0.0785375
0.0770217
0.0755054
0.0739885
0.0724711
0.0709532
0.0694347
0.0830824
0.0815685
0.0800539
0.0785387
0.0770229
0.0755065
0.0739896
0.0724721
0.0709541
0.0694356
0.0830842
0.0815702
0.0800556
0.0785403
0.0770244
0.075508
0.073991
0.0724734
0.0709553
0.0694367
0.0830861
0.0815721
0.0800574
0.0785421
0.0770261
0.0755096
0.0739925
0.0724749
0.0709567
0.069438
0.083088
0.0815739
0.0800591
0.0785437
0.0770277
0.0755111
0.0739939
0.0724762
0.070958
0.0694393
0.0830895
0.0815754
0.0800605
0.0785451
0.077029
0.0755123
0.0739951
0.0724774
0.0709591
0.0694403
0.0830908
0.0815766
0.0800617
0.0785462
0.0770301
0.0755134
0.0739961
0.0724783
0.07096
0.0694412
0.0830922
0.0815779
0.0800629
0.0785474
0.0770312
0.0755145
0.0739972
0.0724794
0.070961
0.0694422
0.0830936
0.0815793
0.0800643
0.0785487
0.0770325
0.0755157
0.0739984
0.0724805
0.0709621
0.0694433
0.0679241
0.0664042
0.064884
0.0633633
0.0618422
0.0603207
0.0587988
0.0572765
0.0557539
0.0542309
0.0527075
0.0511839
0.0496599
0.0481356
0.046611
0.0450861
0.0435609
0.0420354
0.0405097
0.0389837
0.0374575
0.035931
0.0344042
0.0328773
0.0313501
0.0298227
0.028295
0.0267672
0.0252391
0.0237109
0.0221824
0.0206538
0.019125
0.017596
0.0160668
0.067923
0.0664032
0.064883
0.0633623
0.0618413
0.0603198
0.0587979
0.0572757
0.055753
0.0542301
0.0527068
0.0511831
0.0496591
0.0481349
0.0466103
0.0450854
0.0435602
0.0420348
0.0405091
0.0389831
0.0374569
0.0359304
0.0344037
0.0328767
0.0313495
0.0298221
0.0282945
0.0267667
0.0252386
0.0237104
0.022182
0.0206533
0.0191245
0.0175955
0.0160664
0.0679221
0.0664023
0.0648821
0.0633615
0.0618404
0.060319
0.0587971
0.0572749
0.0557523
0.0542294
0.0527061
0.0511824
0.0496585
0.0481342
0.0466097
0.0450848
0.0435596
0.0420342
0.0405085
0.0389826
0.0374563
0.0359299
0.0344032
0.0328762
0.0313491
0.0298217
0.0282941
0.0267662
0.0252382
0.02371
0.0221816
0.0206529
0.0191241
0.0175952
0.016066
0.0679212
0.0664015
0.0648813
0.0633607
0.0618397
0.0603183
0.0587965
0.0572743
0.0557517
0.0542287
0.0527055
0.0511819
0.0496579
0.0481337
0.0466091
0.0450843
0.0435591
0.0420337
0.0405081
0.0389821
0.0374559
0.0359295
0.0344028
0.0328758
0.0313487
0.0298213
0.0282937
0.0267659
0.0252379
0.0237096
0.0221812
0.0206526
0.0191238
0.0175949
0.0160657
0.0679202
0.0664005
0.0648804
0.0633598
0.0618389
0.0603175
0.0587957
0.0572735
0.0557509
0.054228
0.0527048
0.0511812
0.0496573
0.048133
0.0466085
0.0450837
0.0435586
0.0420332
0.0405075
0.0389816
0.0374554
0.035929
0.0344023
0.0328754
0.0313482
0.0298209
0.0282933
0.0267655
0.0252375
0.0237093
0.0221809
0.0206523
0.0191235
0.0175945
0.0160654
0.067919
0.0663994
0.0648793
0.0633588
0.0618379
0.0603165
0.0587947
0.0572726
0.05575
0.0542272
0.0527039
0.0511804
0.0496565
0.0481323
0.0466078
0.045083
0.0435579
0.0420325
0.0405069
0.038981
0.0374548
0.0359284
0.0344017
0.0328748
0.0313477
0.0298203
0.0282928
0.026765
0.025237
0.0237088
0.0221804
0.0206518
0.0191231
0.0175941
0.016065
0.0679178
0.0663982
0.0648782
0.0633577
0.0618368
0.0603154
0.0587937
0.0572716
0.0557491
0.0542262
0.0527031
0.0511795
0.0496557
0.0481315
0.046607
0.0450823
0.0435572
0.0420318
0.0405062
0.0389803
0.0374542
0.0359278
0.0344011
0.0328742
0.0313471
0.0298198
0.0282922
0.0267645
0.0252365
0.0237083
0.0221799
0.0206514
0.0191226
0.0175937
0.0160646
0.0679166
0.0663971
0.0648771
0.0633567
0.0618358
0.0603145
0.0587928
0.0572707
0.0557482
0.0542254
0.0527022
0.0511787
0.0496549
0.0481307
0.0466063
0.0450816
0.0435565
0.0420312
0.0405056
0.0389797
0.0374536
0.0359272
0.0344005
0.0328737
0.0313466
0.0298193
0.0282917
0.0267639
0.025236
0.0237078
0.0221795
0.0206509
0.0191222
0.0175933
0.0160642
0.0679157
0.0663963
0.0648763
0.0633559
0.061835
0.0603137
0.058792
0.0572699
0.0557475
0.0542247
0.0527016
0.0511781
0.0496543
0.0481302
0.0466057
0.045081
0.043556
0.0420307
0.0405051
0.0389792
0.0374531
0.0359267
0.0344001
0.0328732
0.0313461
0.0298188
0.0282913
0.0267635
0.0252356
0.0237074
0.0221791
0.0206505
0.0191218
0.0175929
0.0160639
0.0679153
0.0663958
0.0648759
0.0633554
0.0618346
0.0603133
0.0587916
0.0572695
0.0557471
0.0542243
0.0527012
0.0511777
0.0496539
0.0481298
0.0466054
0.0450807
0.0435557
0.0420304
0.0405048
0.0389789
0.0374528
0.0359264
0.0343998
0.032873
0.0313459
0.0298186
0.028291
0.0267633
0.0252353
0.0237072
0.0221789
0.0206503
0.0191216
0.0175927
0.0160636
0.0679153
0.0663958
0.0648758
0.0633554
0.0618346
0.0603133
0.0587916
0.0572695
0.0557471
0.0542243
0.0527012
0.0511777
0.0496539
0.0481298
0.0466054
0.0450807
0.0435556
0.0420303
0.0405047
0.0389789
0.0374528
0.0359264
0.0343998
0.0328729
0.0313458
0.0298185
0.028291
0.0267632
0.0252353
0.0237072
0.0221788
0.0206503
0.0191216
0.0175927
0.0160636
0.0679157
0.0663962
0.0648762
0.0633558
0.0618349
0.0603136
0.0587919
0.0572699
0.0557474
0.0542246
0.0527015
0.051178
0.0496542
0.0481301
0.0466056
0.0450809
0.0435559
0.0420306
0.040505
0.0389791
0.037453
0.0359266
0.0344
0.0328731
0.031346
0.0298187
0.0282912
0.0267634
0.0252355
0.0237073
0.022179
0.0206504
0.0191217
0.0175928
0.0160637
0.0679165
0.066397
0.064877
0.0633566
0.0618357
0.0603144
0.0587926
0.0572706
0.0557481
0.0542253
0.0527021
0.0511786
0.0496548
0.0481306
0.0466062
0.0450814
0.0435564
0.042031
0.0405054
0.0389795
0.0374534
0.035927
0.0344004
0.0328735
0.0313464
0.0298191
0.0282915
0.0267638
0.0252358
0.0237076
0.0221793
0.0206507
0.019122
0.0175931
0.016064
0.0679177
0.0663981
0.064878
0.0633576
0.0618366
0.0603153
0.0587936
0.0572714
0.055749
0.0542261
0.0527029
0.0511794
0.0496555
0.0481313
0.0466069
0.0450821
0.043557
0.0420316
0.040506
0.0389801
0.037454
0.0359276
0.0344009
0.032874
0.0313469
0.0298195
0.028292
0.0267642
0.0252362
0.023708
0.0221797
0.0206511
0.0191224
0.0175934
0.0160643
0.0679189
0.0663993
0.0648792
0.0633586
0.0618377
0.0603163
0.0587946
0.0572724
0.0557499
0.054227
0.0527038
0.0511802
0.0496563
0.0481321
0.0466076
0.0450828
0.0435577
0.0420323
0.0405067
0.0389807
0.0374546
0.0359281
0.0344015
0.0328746
0.0313474
0.0298201
0.0282925
0.0267647
0.0252367
0.0237085
0.0221801
0.0206515
0.0191228
0.0175938
0.0160647
0.0679201
0.0664004
0.0648802
0.0633597
0.0618387
0.0603173
0.0587955
0.0572733
0.0557507
0.0542278
0.0527046
0.051181
0.049657
0.0481328
0.0466083
0.0450834
0.0435583
0.0420329
0.0405073
0.0389813
0.0374551
0.0359287
0.034402
0.0328751
0.0313479
0.0298205
0.0282929
0.0267651
0.0252371
0.0237089
0.0221805
0.0206519
0.0191231
0.0175942
0.0160651
0.0679211
0.0664013
0.0648812
0.0633606
0.0618395
0.0603181
0.0587963
0.0572741
0.0557515
0.0542285
0.0527053
0.0511816
0.0496577
0.0481334
0.0466089
0.045084
0.0435589
0.0420335
0.0405078
0.0389818
0.0374556
0.0359292
0.0344025
0.0328755
0.0313484
0.029821
0.0282934
0.0267655
0.0252375
0.0237093
0.0221809
0.0206523
0.0191235
0.0175945
0.0160654
0.0679219
0.0664021
0.0648819
0.0633613
0.0618403
0.0603188
0.0587969
0.0572747
0.0557521
0.0542291
0.0527058
0.0511822
0.0496583
0.048134
0.0466094
0.0450845
0.0435594
0.0420339
0.0405082
0.0389823
0.0374561
0.0359296
0.0344029
0.0328759
0.0313487
0.0298213
0.0282937
0.0267659
0.0252379
0.0237096
0.0221812
0.0206526
0.0191238
0.0175948
0.0160657
0.0679229
0.0664031
0.0648828
0.0633622
0.0618411
0.0603196
0.0587977
0.0572755
0.0557529
0.0542299
0.0527065
0.0511829
0.0496589
0.0481346
0.04661
0.0450851
0.04356
0.0420345
0.0405088
0.0389828
0.0374566
0.0359301
0.0344034
0.0328764
0.0313492
0.0298218
0.0282942
0.0267663
0.0252383
0.0237101
0.0221816
0.020653
0.0191242
0.0175952
0.016066
0.0679239
0.0664041
0.0648838
0.0633631
0.061842
0.0603205
0.0587986
0.0572763
0.0557537
0.0542307
0.0527073
0.0511837
0.0496597
0.0481353
0.0466107
0.0450858
0.0435606
0.0420352
0.0405094
0.0389834
0.0374572
0.0359307
0.0344039
0.032877
0.0313498
0.0298223
0.0282947
0.0267668
0.0252388
0.0237105
0.0221821
0.0206535
0.0191246
0.0175956
0.0160665
0.0145374
0.0130079
0.0114782
0.00994836
0.00841835
0.00688818
0.00535785
0.00382737
0.0022967
0.000765973
0.014537
0.0130075
0.0114778
0.00994798
0.00841799
0.00688783
0.0053575
0.0038271
0.00229635
0.000765939
0.0145367
0.0130072
0.0114775
0.00994767
0.00841768
0.00688754
0.00535721
0.00382687
0.002296
0.00076606
0.0145364
0.0130069
0.0114772
0.00994743
0.00841746
0.00688734
0.00535704
0.00382672
0.0022958
0.000766094
0.0145361
0.0130066
0.011477
0.00994718
0.00841723
0.00688714
0.00535687
0.00382656
0.00229569
0.000765866
0.0145357
0.0130063
0.0114767
0.00994689
0.00841697
0.00688691
0.00535669
0.00382642
0.00229566
0.000765369
0.0145353
0.0130059
0.0114763
0.00994657
0.00841669
0.00688667
0.00535651
0.00382625
0.00229574
0.000764654
0.0145349
0.0130055
0.011476
0.00994625
0.00841641
0.00688643
0.00535633
0.00382611
0.00229586
0.000763881
0.0145346
0.0130052
0.0114757
0.00994599
0.00841617
0.00688623
0.00535619
0.003826
0.00229599
0.000763239
0.0145344
0.013005
0.0114755
0.00994582
0.00841603
0.0068861
0.00535611
0.00382593
0.00229607
0.000762889
0.0145344
0.013005
0.0114755
0.00994578
0.00841599
0.00688607
0.00535608
0.00382592
0.00229604
0.00076293
0.0145345
0.0130051
0.0114756
0.00994587
0.00841606
0.00688613
0.00535612
0.00382594
0.00229594
0.000763351
0.0145347
0.0130053
0.0114758
0.00994606
0.00841623
0.00688627
0.00535621
0.00382604
0.00229578
0.000764051
0.0145351
0.0130056
0.0114761
0.00994633
0.00841647
0.00688647
0.00535635
0.00382615
0.00229563
0.000764855
0.0145354
0.013006
0.0114764
0.00994662
0.00841672
0.00688669
0.00535651
0.00382629
0.00229556
0.000765573
0.0145358
0.0130063
0.0114767
0.00994689
0.00841697
0.00688691
0.00535668
0.00382644
0.00229557
0.000766046
0.0145361
0.0130066
0.0114769
0.00994714
0.0084172
0.00688711
0.00535686
0.00382658
0.00229571
0.000766231
0.0145363
0.0130069
0.0114772
0.00994739
0.00841743
0.00688732
0.00535702
0.00382675
0.00229591
0.000766144
0.0145367
0.0130072
0.0114775
0.00994772
0.00841775
0.00688762
0.00535733
0.00382698
0.00229627
0.000765968
0.0145371
0.0130076
0.0114779
0.00994811
0.00841813
0.00688799
0.00535769
0.00382726
0.00229664
0.000765973
)
;

boundaryField
{
    inlet
    {
        type            zeroGradient;
    }
    outlet
    {
        type            fixedValue;
        value           uniform 0;
    }
    upperWall
    {
        type            zeroGradient;
    }
    lowerWall
    {
        type            zeroGradient;
    }
    frontAndBack
    {
        type            empty;
    }
}


// ************************************************************************* //
