/*--------------------------------*- C++ -*----------------------------------*\
| =========                 |                                                 |
| \\      /  F ield         | OpenFOAM: The Open Source CFD Toolbox           |
|  \\    /   O peration     | Version:  2406                                  |
|   \\  /    A nd           | Website:  www.openfoam.com                      |
|    \\/     M anipulation  |                                                 |
\*---------------------------------------------------------------------------*/
FoamFile
{
    version     2.0;
    format      ascii;
    arch        "LSB;label=32;scalar=64";
    class       surfaceScalarField;
    location    "62";
    object      phi;
}
// * * * * * * * * * * * * * * * * * * * * * * * * * * * * * * * * * * * * * //

dimensions      [0 3 -1 0 0 0 0];

oriented        oriented;

internalField   nonuniform List<scalar> 
3680
(
0.0194105
-0.000410556
0.0199577
-0.00054714
0.0204703
-0.000512657
0.0209624
-0.000492141
0.0214719
-0.000509504
0.0220319
-0.000560015
0.022687
-0.000655147
0.0235132
-0.000826236
0.0246551
-0.00114188
-0.00229715
0.0269522
0.0508553
-0.000265856
0.0509026
-0.000594446
0.0511388
-0.000748945
0.0515124
-0.000865758
0.0520067
-0.00100388
0.052626
-0.00117933
0.0533865
-0.00141571
0.0543198
-0.00175953
0.055454
-0.00227613
-0.00314068
0.0562975
0.0749402
-0.000206054
0.0748958
-0.000550075
0.0749488
-0.000801944
0.0751068
-0.00102385
0.0753683
-0.00126533
0.0757354
-0.00154651
0.0762066
-0.00188698
0.0767646
-0.00231753
0.077357
-0.00286851
-0.00357653
0.0777928
0.0909701
-0.000176188
0.0909133
-0.000493261
0.0908878
-0.000776504
0.090915
-0.00105102
0.0909956
-0.00134595
0.0911269
-0.00167783
0.0913004
-0.00206046
0.0914931
-0.00251025
0.0916635
-0.00303891
-0.00364758
0.0917345
0.0989675
-0.000143715
0.0988859
-0.000411681
0.0987928
-0.000683371
0.0987095
-0.000967708
0.0986367
-0.00127325
0.0985681
-0.00160921
0.0984926
-0.00198499
0.0983905
-0.0024081
0.0982318
-0.0028802
-0.00339267
0.0979769
0.0989523
-9.59894e-05
0.0988279
-0.000287273
0.098663
-0.000518559
0.0984767
-0.000781342
0.098267
-0.00106356
0.0980255
-0.00136778
0.0977412
-0.00170063
0.0973972
-0.00206414
0.0969718
-0.00245479
-0.00286268
0.0964419
0.0909249
-2.08902e-05
0.0907423
-0.000104724
0.090506
-0.000282268
0.0902295
-0.000504799
0.0899056
-0.000739625
0.089525
-0.000987186
0.0890768
-0.0012524
0.0885462
-0.00153354
0.0879165
-0.00182508
-0.0021189
0.0871727
0.0748676
0.000111509
0.0746244
0.000138516
0.0743428
-7.36286e-07
0.0740189
-0.000180878
0.073638
-0.000358695
0.073189
-0.00053823
0.0726592
-0.000722509
0.0720334
-0.00090775
0.0712979
-0.00108958
-0.00126381
0.0704429
0.0507684
0.000343115
0.0505698
0.00033709
0.0503929
0.000176155
0.0501775
3.45661e-05
0.0498942
-7.53861e-05
0.049527
-0.000170981
0.0490625
-0.000258017
0.0484908
-0.000336021
0.0478063
-0.000405087
-0.000465683
0.0470082
0.0193431
0.0196802
0.0198564
0.0198909
0.0198155
0.0196446
0.0193866
0.0190505
0.0186455
0.0181798
-5.55359e-05
5.55235e-05
-0.00024463
0.000189065
-0.00051472
0.000270061
-0.00081451
0.000299763
-0.00111793
0.000303397
-0.00141477
0.000296811
-0.00170203
0.000287243
-0.00197932
0.000277262
-0.00224678
0.000267445
-0.00250452
0.000257721
-0.00275244
0.000247899
-0.00299029
0.000237821
-0.00321765
0.000227347
-0.003434
0.000216332
-0.00363863
0.000204621
-0.00383068
0.000192032
-0.00400905
0.000178365
-0.00417246
0.00016341
-0.00431941
0.000146954
-0.0044482
0.000128799
-0.00455696
0.000108775
-0.00464369
8.67509e-05
-0.00470631
6.2646e-05
-0.0047427
3.64285e-05
-0.0047508
8.13543e-06
-0.00472867
-2.20798e-05
-0.00467468
-5.3947e-05
-0.00458746
-8.71661e-05
-0.00446602
-0.000121377
-0.00430984
-0.000156118
-0.0041189
-0.000190877
-0.00389375
-0.000225071
-0.00363556
-0.000258116
-0.00334607
-0.00028941
-0.000318385
-0.00302759
-0.000229802
0.000285298
-0.000729339
0.000688525
-0.00137108
0.000911734
-0.00206243
0.00099105
-0.00275269
0.00099359
-0.00341925
0.000963319
-0.00405391
0.000921841
-0.00465448
0.00087778
-0.00522083
0.000833751
-0.00575328
0.000790114
-0.00625199
0.000746562
-0.00671686
0.000702649
-0.00714744
0.000657893
-0.00754293
0.000611786
-0.00790211
0.000563782
-0.0082234
0.000513304
-0.00850481
0.000459764
-0.00874398
0.000402584
-0.00893824
0.000341239
-0.0090847
0.000275285
-0.00918028
0.000204405
-0.00922189
0.000128419
-0.00920651
4.73464e-05
-0.00913133
-3.86683e-05
-0.00899393
-0.000129161
-0.00879235
-0.000223542
-0.00852512
-0.000321051
-0.00819144
-0.000420719
-0.00779131
-0.000521372
-0.00732558
-0.000621694
-0.00679604
-0.000720253
-0.0062054
-0.00081554
-0.00555729
-0.000906036
-0.00485621
-0.000990298
-0.00106696
-0.00410743
-0.000394687
0.00067995
-0.00115624
0.00145
-0.00207009
0.00182552
-0.00301631
0.00193721
-0.00393517
0.00191239
-0.00480074
0.00182883
-0.00560389
0.00172494
-0.00634285
0.00161669
-0.00701852
0.00150938
-0.00763248
0.00140403
-0.00818613
0.00130017
-0.0086804
0.00119689
-0.00911567
0.00109313
-0.00949171
0.000987804
-0.00980776
0.000879812
-0.0100625
0.000768064
-0.0102543
0.000651526
-0.010381
0.000529273
-0.0104402
0.000400518
-0.0104296
0.000264701
-0.0103467
0.000121533
-0.0101892
-2.90398e-05
-0.0099552
-0.000186582
-0.00964337
-0.000350413
-0.00925279
-0.000519657
-0.00878315
-0.000693086
-0.00823489
-0.000869206
-0.00760926
-0.00104624
-0.00690837
-0.00122214
-0.00613525
-0.00139469
-0.00529377
-0.00156159
-0.00438877
-0.0017204
-0.00342589
-0.00186877
-0.00241153
-0.0020045
-0.00212565
-0.00135269
-0.000524375
0.0012043
-0.00146626
0.00239182
-0.00253024
0.00288943
-0.00357796
0.00298487
-0.00455178
0.00288616
-0.00543133
0.00270834
-0.00621252
0.00250608
-0.00689767
0.00230179
-0.00749105
0.00210272
-0.00799699
0.00190993
-0.00841917
0.00172231
-0.00876035
0.00153803
-0.00902241
0.00135516
-0.00920644
0.00117181
-0.0093128
0.000986161
-0.00934132
0.000796572
-0.0092914
0.000601595
-0.00916216
0.000400042
-0.00895262
0.000190999
-0.00866183
-2.60749e-05
-0.00828915
-0.000251102
-0.00783453
-0.000483622
-0.00729808
-0.000722975
-0.00668039
-0.000968049
-0.00598265
-0.00121733
-0.00520682
-0.00146884
-0.00435559
-0.00172036
-0.00343238
-0.00196936
-0.00244142
-0.00221302
-0.00138769
-0.00244833
-0.000276998
-0.00267219
0.000884253
-0.00288156
0.00208919
-0.00307362
0.00333055
-0.00324576
-0.00339563
0.00460062
-0.000616836
0.0018211
-0.00163243
0.00340735
-0.00268936
0.00394631
-0.00365316
0.00394862
-0.00448444
0.0037174
-0.0051782
0.00340206
-0.00574107
0.00306891
-0.00618275
0.00274343
-0.00651261
0.00243254
-0.00673856
0.00213584
-0.00686688
0.00185059
-0.00690239
0.00157351
-0.00684859
0.00130133
-0.00670796
0.00103116
-0.00648223
0.00076041
-0.00617254
0.000486866
-0.00577968
0.000208721
-0.00530431
-7.53289e-05
-0.00474728
-0.000366038
-0.00410976
-0.000663585
-0.0033931
-0.000967751
-0.00259891
-0.0012778
-0.00172934
-0.00159253
-0.000787092
-0.00191027
0.00022447
-0.00222886
0.00130144
-0.00254579
0.0024393
-0.00285818
0.00363284
-0.00316287
0.00487627
-0.00345641
0.00616324
-0.00373527
0.00748695
-0.00399586
0.0088402
-0.00423477
0.0102154
-0.00444882
0.0116049
-0.00463515
-0.00479135
0.0130006
-0.000674447
0.00249553
-0.00162859
0.00436143
-0.00247303
0.0047907
-0.00312384
0.00459938
-0.0035865
0.00418001
-0.00388193
0.00369745
-0.00403102
0.00321795
-0.00405162
0.00276399
-0.00395777
0.00233864
-0.00375995
0.00193798
-0.00346602
0.00155663
-0.00308188
0.00118933
-0.00261187
0.000831282
-0.00205922
0.000478479
-0.00142651
0.000127672
-0.000715812
-0.000223852
7.09063e-05
-0.00057802
0.000931539
-0.000935982
0.00186374
-0.00129826
0.00286493
-0.00166479
0.00393216
-0.002035
0.00506209
-0.00240775
0.00625092
-0.00278137
0.00749433
-0.00315369
0.00878749
-0.00352203
0.010125
-0.00388334
0.0115011
-0.00423422
0.0129092
-0.004571
0.0143426
-0.00488983
0.0157942
-0.00518682
0.0172565
-0.00545818
0.0187221
-0.00570033
0.0201833
-0.00591006
0.0216328
-0.00608457
-0.00622165
0.0230631
-0.000685302
0.0031808
-0.00137339
0.00504947
-0.00171079
0.00512804
-0.0017539
0.00464245
-0.0015878
0.00401387
-0.00126365
0.00337325
-0.000812631
0.00276689
-0.000256191
0.00220751
0.000391189
0.00169122
0.00112
0.00120913
0.00192387
0.000752715
0.00279811
0.000315054
0.00373924
-0.000109882
0.00474474
-0.000527061
0.00581253
-0.000940144
0.00694014
-0.00135149
0.00812477
-0.00176268
0.00936341
-0.00217464
0.0106528
-0.00258765
0.0119893
-0.00300132
0.0133689
-0.00341466
0.0147872
-0.00382609
0.0162393
-0.00423348
0.0177197
-0.00463417
0.0192227
-0.00502506
0.020742
-0.00540267
0.022271
-0.00576323
0.0238028
-0.00610278
0.0253302
-0.00641728
0.0268462
-0.00670277
0.0283434
-0.00695545
0.029815
-0.00717191
0.0312541
-0.00734915
0.0326543
-0.00748477
-0.007577
0.0340096
-0.000574616
0.0037554
-0.00055083
0.00502563
9.62974e-05
0.00448087
0.00103976
0.00369894
0.00211342
0.00294016
0.00326186
0.00222477
0.00446291
0.00156579
0.00570483
0.000965544
0.0069822
0.000413816
0.00829307
-0.000101779
0.00963722
-0.000591471
0.0110151
-0.00106286
0.0124264
-0.00152127
0.0138701
-0.00197072
0.0153441
-0.00241425
0.0168466
-0.00285392
0.0183748
-0.00329097
0.019926
-0.00372588
0.0214968
-0.00415845
0.0230833
-0.00458782
0.0246811
-0.0050125
0.0262854
-0.00543045
0.027891
-0.00583907
0.0294921
-0.00623531
0.0310827
-0.00661572
0.0326566
-0.00697657
0.0342072
-0.00731391
0.0357281
-0.00762371
0.0372129
-0.00790201
0.0386551
-0.008145
0.0400488
-0.0083492
0.0413885
-0.00851159
0.042669
-0.0086297
0.043886
-0.00870174
-0.00872663
0.0450356
0.000199271
0.0035561
0.00205304
0.0031718
0.00435059
0.00218326
0.00661931
0.00143018
0.00877826
0.000781171
0.0108356
0.000167407
0.0128117
-0.000410336
0.0147265
-0.000949298
0.0165964
-0.00145614
0.0184338
-0.00193923
0.020247
-0.00240465
0.0220411
-0.00285702
0.0238197
-0.00329996
0.0255851
-0.00373614
0.0273382
-0.00416733
0.0290787
-0.00459452
0.0308057
-0.005018
0.0325173
-0.00543746
0.0342108
-0.00585197
0.0358829
-0.00626001
0.0375299
-0.00665952
0.0391474
-0.00704794
0.0407306
-0.00742227
0.0422744
-0.00777913
0.0437735
-0.00811489
0.0452226
-0.00842572
0.0466164
-0.0087077
0.0479497
-0.008957
0.0492176
-0.00916991
0.0504156
-0.00934307
0.05154
-0.00947355
0.0525873
-0.00955894
0.0535551
-0.00959751
0.0544416
-0.00958825
-0.00953093
0.0552459
0.00574651
-0.00219046
0.0104713
-0.00155301
0.0142874
-0.00163294
0.0175922
-0.00187468
0.0205281
-0.00215477
0.0231858
-0.00249032
0.0256381
-0.00286266
0.0279366
-0.00324781
0.0301158
-0.00363537
0.0321993
-0.00402277
0.0342038
-0.00440917
0.0361409
-0.00479411
0.0380184
-0.00517747
0.0398414
-0.00555919
0.041613
-0.00593902
0.0433348
-0.00631634
0.045007
-0.00669018
0.0466287
-0.00705917
0.0481982
-0.00742149
0.0497131
-0.00777493
0.0511704
-0.00811685
0.0525667
-0.00844425
0.0538982
-0.00875382
0.0551611
-0.00904205
0.0563514
-0.00930525
0.0574654
-0.00953972
0.0584995
-0.00974181
0.0594506
-0.00990805
0.0603159
-0.0100353
0.0610937
-0.0101208
0.0617824
-0.0101623
0.0623818
-0.0101583
0.0628921
-0.0101079
0.0633147
-0.0100108
-0.00986786
0.0636516
0.0286351
-0.00387339
0.0313192
-0.0042372
0.0339771
-0.00429089
0.0365147
-0.00441224
0.0389339
-0.00457399
0.0412138
-0.00477028
0.0433564
-0.00500526
0.0453781
-0.00526952
0.0472945
-0.00555183
0.0491173
-0.0058456
0.0508553
-0.00614718
0.0525151
-0.00645393
0.0541013
-0.00676369
0.0556168
-0.00707467
0.057063
-0.00738526
0.0584404
-0.00769374
0.0597484
-0.00799824
0.0609859
-0.00829664
0.0621509
-0.00858655
0.0632412
-0.00886529
0.0642543
-0.00912991
0.0651873
-0.00937726
0.0660375
-0.00960399
0.0668021
-0.00980667
0.0674788
-0.00998189
0.0680654
-0.0101263
0.0685603
-0.0102368
0.0689628
-0.0103105
0.0692724
-0.0103449
0.0694899
-0.0103383
0.0696167
-0.0102891
0.0696551
-0.0101968
0.0696085
-0.0100612
0.0694809
-0.00988324
-0.00966421
0.0692772
0.0566256
-0.00420153
0.0572848
-0.00489644
0.0582494
-0.00525549
0.0593711
-0.005534
0.0605888
-0.00579165
0.0618488
-0.00603033
0.0631071
-0.00626358
0.0643385
-0.00650097
0.0655299
-0.00674322
0.066673
-0.00698869
0.0677621
-0.00723625
0.068793
-0.00748492
0.0697628
-0.00773343
0.0706684
-0.00798035
0.0715074
-0.00822417
0.0722768
-0.0084632
0.0729741
-0.00869552
0.0735965
-0.00891899
0.0741411
-0.00913118
0.0746053
-0.00932949
0.0749866
-0.00951112
0.0752825
-0.00967313
0.075491
-0.00981254
0.0756108
-0.00992638
0.0756407
-0.0100118
0.0755805
-0.0100661
0.0754306
-0.0100869
0.0751924
-0.0100722
0.074868
-0.0100205
0.0744605
-0.00993077
0.073974
-0.00980257
0.0734133
-0.00963613
0.0727844
-0.00943228
0.0720936
-0.00919249
-0.00891883
0.0713482
0.0779725
-0.00438122
0.0781298
-0.00505379
0.0783889
-0.00551451
0.0787224
-0.00586755
0.0791071
-0.00617633
0.0795276
-0.00645081
0.0799629
-0.00669894
0.0803935
-0.00693155
0.0808049
-0.00715456
0.0811861
-0.0073699
0.0815283
-0.00757846
0.0818242
-0.0077808
0.0820677
-0.00797693
0.0822537
-0.00816633
0.0823776
-0.0083481
0.0824355
-0.00852106
0.0824237
-0.0086837
0.082339
-0.00883426
0.0821786
-0.00897074
0.0819401
-0.00909096
0.0816217
-0.00919263
0.081222
-0.0092734
0.0807404
-0.00933093
0.0801771
-0.00936299
0.0795329
-0.00936753
0.0788096
-0.00934274
0.0780099
-0.00928716
0.0771375
-0.00919973
0.0761968
-0.00907982
0.0751935
-0.00892735
0.0741337
-0.00874275
0.0730245
-0.00852697
0.0718738
-0.0082815
0.0706896
-0.00800831
-0.00770981
0.0694806
0.0916497
-0.00429636
0.0914775
-0.00488167
0.0913046
-0.00534153
0.0911426
-0.0057056
0.0909811
-0.00601476
0.0908137
-0.00628344
0.0906328
-0.00651798
0.0904281
-0.00672682
0.0901905
-0.00691695
0.0899128
-0.00709221
0.089589
-0.00725464
0.0892138
-0.00740561
0.0887828
-0.00754589
0.0882922
-0.00767562
0.0877386
-0.00779446
0.0871193
-0.00790171
0.086432
-0.00799634
0.0856749
-0.00807712
0.0848468
-0.00814259
0.0839471
-0.00819119
0.0829758
-0.0082213
0.0819338
-0.00823129
0.0808226
-0.00821963
0.0796445
-0.00818492
0.078403
-0.00812597
0.0771022
-0.00804186
0.0757472
-0.00793202
0.0743437
-0.00779621
0.0728985
-0.00763461
0.0714191
-0.00744782
0.0699132
-0.00723687
0.0683894
-0.00700316
0.0668565
-0.00674848
0.0653231
-0.00647494
-0.00618493
0.0637982
0.0975979
-0.00391738
0.0971187
-0.00440247
0.0965854
-0.00480822
0.0960167
-0.00513686
0.0954115
-0.00540948
0.0947675
-0.00563943
0.0940828
-0.00583324
0.0933535
-0.0059975
0.0925752
-0.00613866
0.0917443
-0.00626126
0.0908578
-0.00636809
0.0899133
-0.00646103
0.0889088
-0.00654134
0.0878429
-0.0066097
0.0867148
-0.00666627
0.085524
-0.00671084
0.0842706
-0.00674292
0.0829554
-0.00676181
0.0815795
-0.00676665
0.0801449
-0.00675653
0.0786542
-0.0067305
0.0771106
-0.00668765
0.0755183
-0.0066272
0.0738819
-0.00654848
0.0722071
-0.00645103
0.0704999
-0.00633464
0.0687674
-0.00619935
0.0670167
-0.00604552
0.065256
-0.00587377
0.0634933
-0.00568506
0.0617371
-0.0054806
0.0599958
-0.00526187
0.058278
-0.00503057
0.0565916
-0.00478855
-0.00453782
0.0549445
0.095793
-0.00326851
0.095034
-0.00364345
0.0941888
-0.00396294
0.0932741
-0.00422214
0.0922955
-0.00443087
0.0912554
-0.00459922
0.0901557
-0.00473358
0.0889977
-0.00483946
0.0877815
-0.0049224
0.0865072
-0.00498689
0.0851752
-0.00503608
0.0837864
-0.00507215
0.0823418
-0.00509668
0.0808429
-0.0051107
0.0792915
-0.00511477
0.0776898
-0.00510909
0.0760405
-0.00509358
0.0743468
-0.005068
0.0726122
-0.00503199
0.0708409
-0.00498512
0.0690375
-0.00492698
0.0672071
-0.00485719
0.0653555
-0.00477544
0.0634887
-0.00468159
0.0616133
-0.0045756
0.0597364
-0.00445763
0.0578652
-0.00432803
0.0560071
-0.00418734
0.0541697
-0.00403629
0.0523605
-0.00387578
0.0505869
-0.00370689
0.0488559
-0.00353081
0.0471742
-0.00334884
0.045548
-0.00316232
-0.00297263
0.0439829
0.0863068
-0.00240259
0.085323
-0.00265963
0.0842357
-0.00287559
0.0830596
-0.00304592
0.0818043
-0.00317555
0.0804769
-0.0032718
0.0790839
-0.00334051
0.077631
-0.00338651
0.076123
-0.0034144
0.0745643
-0.00342812
0.072959
-0.00343065
0.071311
-0.00342406
0.0696242
-0.00340986
0.0679026
-0.00338906
0.0661502
-0.00336229
0.0643711
-0.00332983
0.0625694
-0.00329178
0.0607495
-0.00324806
0.0589162
-0.00319855
0.0570742
-0.00314306
0.0552288
-0.00308144
0.0533852
-0.00301354
0.0515492
-0.00293931
0.0497265
-0.00285876
0.047923
-0.00277203
0.0461448
-0.00267934
0.0443979
-0.00258103
0.0426882
-0.00247755
0.0410214
-0.00236945
0.0394031
-0.00225736
0.0378383
-0.002142
0.0363316
-0.0020241
0.0348873
-0.00190446
0.0335089
-0.00178384
-0.00166301
0.0321993
0.0694647
-0.00142435
0.0683683
-0.00156321
0.0671664
-0.00167357
0.0658742
-0.00175368
0.0645057
-0.00180704
0.0630731
-0.00183913
0.0615873
-0.00185462
0.0600581
-0.00185722
0.0584939
-0.00185014
0.056902
-0.00183608
0.0552884
-0.00181701
0.0536587
-0.00179426
0.0520177
-0.00176871
0.0503696
-0.00174091
0.0487186
-0.00171114
0.0470684
-0.0016795
0.0454227
-0.00164598
0.0437852
-0.00161048
0.0421597
-0.0015729
0.0405499
-0.00153314
0.0389597
-0.00149111
0.037393
-0.00144674
0.0358538
-0.00140004
0.0343462
-0.00135105
0.0328741
-0.00129984
0.0314415
-0.00124658
0.030052
-0.00119146
0.0287092
-0.00113472
0.0274165
-0.00107665
0.0261768
-0.00101756
0.0249927
-0.000957794
0.0238663
-0.00089768
0.0227995
-0.000837567
0.0217935
-0.000777778
-0.000718629
0.0208492
0.046101
-0.000517027
0.045095
-0.000557209
0.0440062
-0.000584724
0.0428526
-0.000600013
0.0416511
-0.000605478
0.0404161
-0.000604022
0.0391594
-0.000597874
0.0378908
-0.000588532
0.0366179
-0.000577138
0.0353465
-0.000564578
0.034081
-0.000551438
0.0328249
-0.000538039
0.0315808
-0.000524537
0.030351
-0.000510992
0.0291373
-0.000497392
0.0279416
-0.000483683
0.0267655
-0.000469795
0.0256108
-0.000455656
0.0244792
-0.000441206
0.0233726
-0.000426398
0.0222928
-0.000411198
0.0212417
-0.000395589
0.0202214
-0.00037957
0.0192336
-0.000363157
0.0182802
-0.000346381
0.017363
-0.000329289
0.0164836
-0.000311941
0.0156433
-0.000294409
0.0148435
-0.000276772
0.0140852
-0.000259117
0.013369
-0.000241527
0.0126954
-0.00022409
0.0120648
-0.000206883
0.0114771
-0.000189983
-0.000173452
0.0109319
0.0176628
0.0171056
0.0165209
0.0159209
0.0153154
0.0147114
0.0141135
0.013525
0.0129479
0.0123834
0.0118319
0.0112939
0.0107694
0.0102584
0.00976105
0.00927739
0.00880761
0.00835198
0.00791079
0.00748441
0.00707323
0.00667766
0.00629811
0.00593497
0.0055886
0.00525933
0.0049474
0.004653
0.00437624
0.00411714
0.00387562
0.00365154
0.00344467
0.00325469
0.00308125
-0.002683
-0.0003445
-0.00231562
-0.000367296
-0.00192913
-0.00038639
-0.00152757
-0.000401476
-0.00111512
-0.000412351
-0.000696012
-0.000419006
-0.00027446
-0.000421452
0.000145428
-0.000419786
0.000559811
-0.00041428
-0.000405223
0.000965139
-0.00331693
-0.00113479
-0.00249123
-0.00119278
-0.00163731
-0.0012401
-0.000762427
-0.00127614
0.00012611
-0.00130066
0.00102084
-0.0013135
0.00191449
-0.00131488
0.00280031
-0.00130537
0.00367183
-0.00128556
-0.00125625
0.00452309
-0.000256797
-0.00223052
0.000868221
-0.00231763
0.00201421
-0.00238593
0.00317313
-0.00243489
0.00433689
-0.00246426
0.00549767
-0.00247411
0.00664793
-0.00246496
0.00778046
-0.00243772
0.00888864
-0.00239355
-0.00233389
0.00996647
0.00589143
-0.00352124
0.00719497
-0.00362106
0.00850324
-0.00369408
0.00980829
-0.00373983
0.0111025
-0.00375833
0.0123786
-0.00375013
0.01363
-0.00371621
0.0148505
-0.00365805
0.0160345
-0.00357745
-0.00347653
0.0171773
0.0143949
-0.00491549
0.0157802
-0.00500621
0.0171489
-0.0050628
0.0184943
-0.00508516
0.0198099
-0.00507381
0.0210897
-0.00502986
0.0223286
-0.00495497
0.0235219
-0.00485126
0.0246658
-0.00472126
-0.00456781
0.0257572
0.0244673
-0.00631969
0.0258389
-0.00637778
0.0271719
-0.00639569
0.0284607
-0.00637394
0.0297006
-0.00631371
0.0308876
-0.00621682
0.0320184
-0.00608565
0.0330903
-0.00592308
0.0341014
-0.00573236
-0.00551703
0.0350507
0.0353148
-0.00762482
0.0365649
-0.00762793
0.0377561
-0.00758685
0.038885
-0.00750281
0.039949
-0.00737776
0.0409465
-0.00721428
0.0418764
-0.00701552
0.0427384
-0.00678506
0.0435329
-0.00652681
-0.00624493
0.0442608
0.0461149
-0.0087041
0.0471216
-0.00863466
0.0480543
-0.00851959
0.0489125
-0.00836096
0.0496962
-0.00816148
0.0504064
-0.00792447
0.0510446
-0.00765371
0.0516129
-0.0073534
0.052114
-0.00702795
-0.00668193
0.052551
0.0559679
-0.00942609
0.0566083
-0.00927509
0.0571687
-0.00908002
0.0576514
-0.00884368
0.0580593
-0.00856946
0.0583961
-0.00826125
0.0586656
-0.00792333
0.0588725
-0.00756025
0.0590212
-0.0071767
-0.0067774
0.0591166
0.0639058
-0.00968032
0.064081
-0.00945033
0.0641817
-0.00918069
0.0642127
-0.00887476
0.0641796
-0.00853641
0.0640882
-0.00816988
0.0639445
-0.00777966
0.0637545
-0.00737038
0.0635245
-0.00694671
-0.00651322
0.0632602
0.0690031
-0.00940627
0.0686649
-0.00911212
0.0682692
-0.00878504
0.0678232
-0.00842874
0.067334
-0.00804728
0.066809
-0.00764492
0.0662553
-0.00722606
0.06568
-0.00679512
0.0650896
-0.0063564
-0.00591405
0.0644904
0.0705559
-0.00861391
0.0697245
-0.00828079
0.0688624
-0.00792293
0.0679776
-0.00754406
0.0670784
-0.00714809
0.0661725
-0.00673901
0.0652671
-0.00632079
0.0643693
-0.00589731
0.063485
-0.00547224
-0.00504904
0.0626199
0.0682555
-0.00738879
0.067023
-0.00704832
0.0657917
-0.00669168
0.0645699
-0.00632227
0.0633653
-0.00594353
0.0621851
-0.00555885
0.0610358
-0.0051715
0.059923
-0.00478457
0.0588516
-0.00440092
-0.00402315
0.0578257
0.0622905
-0.00588101
0.0608081
-0.00556591
0.0593588
-0.00524239
0.0579497
-0.00491322
0.0565873
-0.00458109
0.055277
-0.00424857
0.0540235
-0.00391807
0.0528307
-0.00359178
0.0517014
-0.00327167
-0.00295946
0.0506377
0.053344
-0.00428041
0.0517965
-0.00401839
0.0503079
-0.0037538
0.0488833
-0.00348859
0.0475268
-0.0032246
0.0462417
-0.00296353
0.0450306
-0.00270689
0.0438948
-0.00245605
0.0428353
-0.00221215
-0.00197618
0.041852
0.0424836
-0.00278114
0.0410545
-0.00258917
0.0396987
-0.00239798
0.0384188
-0.00220874
0.0372167
-0.00202248
0.0360934
-0.00184016
0.0350491
-0.00166258
0.0340835
-0.00149042
0.0331956
-0.00132423
-0.00116447
0.0323839
0.0309609
-0.00154271
0.0297954
-0.00142361
0.0287038
-0.00130634
0.0276866
-0.00119144
0.0267435
-0.0010794
0.025874
-0.000970624
0.0250769
-0.000865446
0.0243506
-0.000764117
0.0236932
-0.000666851
-0.000573775
0.0231026
0.0199669
-0.000660398
0.0191467
-0.000603347
0.0183881
-0.000547688
0.0176903
-0.000493617
0.0170522
-0.000441276
0.0164724
-0.000390795
0.0159492
-0.000342249
0.0154809
-0.000295713
0.0150652
-0.000251209
-0.000208767
0.0147003
0.0104289
-0.000157353
0.00996735
-0.000141727
0.00954631
-0.000126617
0.00916478
-0.000112047
0.00882158
-9.8043e-05
0.00851543
-8.46105e-05
0.00824497
-7.176e-05
0.00800877
-5.94854e-05
0.00780537
-4.7787e-05
-3.6651e-05
0.00763328
0.0029239
0.00278218
0.00265557
0.00254353
0.00244549
0.00236089
0.00228913
0.00222965
0.00218186
0.00214522
0.00135823
-0.000392988
0.00173633
-0.000377995
0.00209713
-0.00036069
0.00243876
-0.000341528
0.00275983
-0.000320968
0.00305938
-0.000299447
0.00333686
-0.000277381
0.0035921
-0.000255145
0.00382527
-0.000233079
0.00403683
-0.000211471
0.00422749
-0.000190569
0.00439814
-0.000170571
0.00454984
-0.000151632
0.00468378
-0.000133862
0.00480118
-0.000117339
0.00490334
-0.0001021
0.00499155
-8.81593e-05
0.0050671
-7.55014e-05
0.00513124
-6.4094e-05
0.00518516
-5.38869e-05
0.00523001
-4.4819e-05
0.00526686
-3.68195e-05
0.0052967
-2.98126e-05
0.00532044
-2.37188e-05
0.00533892
-1.84579e-05
0.00535288
-1.39497e-05
0.00536301
-1.01167e-05
0.0053699
-6.88361e-06
0.00537409
-4.17925e-06
0.00537603
-1.93561e-06
0.00537612
-9.04408e-08
0.00537472
1.40876e-06
0.00537211
2.61097e-06
0.00536855
3.56644e-06
4.32087e-06
0.00536423
0.00534875
-0.00121841
0.00614412
-0.00117313
0.00690522
-0.00112155
0.00762879
-0.00106487
0.0083123
-0.00100425
0.00895393
-0.000940847
0.00955251
-0.000875743
0.0101075
-0.000809946
0.010619
-0.000744366
0.0110875
-0.000679808
0.0115141
-0.000616963
0.0119001
-0.000556411
0.0122473
-0.000498616
0.0125575
-0.000443939
0.0128329
-0.000392638
0.0130758
-0.000344883
0.0132886
-0.00030076
0.0134734
-0.000260286
0.0136329
-0.000223416
0.0137691
-0.000190057
0.0138844
-0.000160075
0.013981
-0.000133304
0.0140608
-0.000109557
0.0141257
-8.86299e-05
0.0141776
-7.03091e-05
0.0142181
-5.43776e-05
0.0142486
-4.06181e-05
0.0142706
-2.88176e-05
0.0142852
-1.87694e-05
0.0142935
-1.02766e-05
0.0142966
-3.15294e-06
0.0142953
2.77314e-06
0.0142902
7.66202e-06
0.0142821
1.16654e-05
1.49256e-05
0.0142715
0.0110086
-0.00226039
0.0120106
-0.00217485
0.0129683
-0.00207914
0.0138789
-0.0019752
0.0147397
-0.00186493
0.0155492
-0.00175017
0.0163064
-0.0016327
0.0170107
-0.00151412
0.0176624
-0.00139593
0.0182622
-0.00127943
0.0188112
-0.00116578
0.0193108
-0.00105594
0.0197631
-0.000950707
0.0201699
-0.000850703
0.0205338
-0.000756399
0.0208572
-0.000668119
0.0211425
-0.000586054
0.0213926
-0.000510278
0.02161
-0.000440764
0.0217975
-0.0003774
0.0219574
-0.000320001
0.0220925
-0.000268324
0.0222051
-0.000222084
0.0222975
-0.000180961
0.0223718
-0.000144611
0.0224301
-0.000112681
0.0224744
-8.4808e-05
0.0225062
-6.06322e-05
0.0225272
-3.97997e-05
0.0225389
-2.19676e-05
0.0225426
-6.81e-06
0.0225394
5.9804e-06
0.0225304
1.6697e-05
0.0225165
2.56195e-05
3.30109e-05
0.0224984
0.0182747
-0.00335764
0.0193233
-0.00322329
0.0203204
-0.00307606
0.0212639
-0.00291857
0.0221525
-0.00275337
0.0229854
-0.00258292
0.0237623
-0.00240954
0.0244837
-0.00223536
0.0251502
-0.00206234
0.0257631
-0.00189217
0.0263238
-0.00172636
0.0268341
-0.00156616
0.0272961
-0.00141261
0.027712
-0.00126652
0.0280842
-0.00112851
0.0284152
-0.000999011
0.0287075
-0.000878273
0.0289637
-0.000766405
0.0291864
-0.000663382
0.0293781
-0.000569064
0.0295414
-0.000483217
0.0296786
-0.000405527
0.0297922
-0.000335622
0.0298843
-0.000273081
0.0299572
-0.000217449
0.0300128
-0.00016825
0.030053
-0.000124996
0.0300796
-8.71963e-05
0.0300942
-5.43666e-05
0.0300983
-2.60342e-05
0.0300932
-1.74787e-06
0.0300803
1.89298e-05
0.0300606
3.64249e-05
0.0300351
5.11405e-05
6.34557e-05
0.0300046
0.0267936
-0.00439397
0.0277734
-0.00420293
0.0286953
-0.00399792
0.029559
-0.00378217
0.0303645
-0.00355877
0.0311124
-0.00333068
0.0318036
-0.00310065
0.0324395
-0.00287121
0.0330219
-0.00264459
0.0335525
-0.00242277
0.0340337
-0.00220745
0.0344677
-0.00200005
0.0348568
-0.0018017
0.0352037
-0.00161331
0.0355107
-0.00143552
0.0357806
-0.00126878
0.0360157
-0.00111331
0.0362185
-0.000969207
0.0363915
-0.000836373
0.0365371
-0.000714602
0.0366575
-0.000603579
0.0367549
-0.0005029
0.0368314
-0.000412091
0.036889
-0.000330629
0.0369295
-0.000257948
0.0369547
-0.000193462
0.0369663
-0.000136571
0.0369658
-8.66704e-05
0.0369546
-4.31689e-05
0.0369341
-5.49223e-06
0.0369054
2.69289e-05
0.0368697
5.46559e-05
0.0368279
7.82211e-05
0.036781
9.81285e-05
0.000114854
0.0367296
0.0359376
-0.00528081
0.0367623
-0.00502751
0.0375253
-0.00476091
0.0382279
-0.00448471
0.0388716
-0.00420245
0.0394584
-0.00391743
0.0399905
-0.00363268
0.0404703
-0.00335095
0.0409004
-0.00307465
0.0412836
-0.00280586
0.0416225
-0.00254634
0.04192
-0.00229753
0.0421789
-0.00206056
0.0424019
-0.00183628
0.0425917
-0.00162529
0.0427509
-0.00142792
0.0428819
-0.00124433
0.0429872
-0.00107447
0.043069
-0.000918148
0.0431294
-0.00077503
0.0431705
-0.000644679
0.0431942
-0.000526567
0.0432023
-0.0004201
0.0431963
-0.000324633
0.0431778
-0.000239484
0.0431483
-0.000163957
0.0431091
-9.73434e-05
0.0430614
-3.89483e-05
0.0430063
1.19137e-05
0.0429449
5.59394e-05
0.042878
9.38073e-05
0.0428065
0.00012616
0.0427312
0.000153612
0.0426525
0.000176744
0.000196108
0.0425713
0.0449237
-0.00594367
0.0455235
-0.0056273
0.0460626
-0.0053
0.0465436
-0.00496577
0.0469696
-0.00462839
0.0473435
-0.00429133
0.0476685
-0.00395773
0.047948
-0.00363039
0.0481851
-0.00331172
0.048383
-0.00300376
0.0485448
-0.00270821
0.0486737
-0.0024264
0.0487725
-0.00215934
0.0488439
-0.00190773
0.0488907
-0.00167203
0.0489152
-0.00145242
0.0489197
-0.00124889
0.0489065
-0.00106125
0.0488775
-0.000889121
0.0488345
-0.000732038
0.0487792
-0.00058941
0.0487132
-0.000460569
0.0486379
-0.000344787
0.0485545
-0.000241294
0.0484644
-0.000149293
0.0483684
-6.79848e-05
0.0482676
3.41979e-06
0.0481629
6.57371e-05
0.0480551
0.000119781
0.0479447
0.000166322
0.0478324
0.000206101
0.0477187
0.000239828
0.0476042
0.00026818
0.0474891
0.000291803
0.000311301
0.0473739
0.0529272
-0.00631993
0.0532463
-0.00594646
0.0535122
-0.00556585
0.0537286
-0.00518218
0.0538994
-0.00479926
0.0540285
-0.00442049
0.0541197
-0.00404894
0.0541765
-0.00368726
0.0542025
-0.0033377
0.0542008
-0.00300212
0.0541746
-0.002682
0.0541266
-0.00237848
0.0540596
-0.00209235
0.053976
-0.00182412
0.0538779
-0.00157402
0.0537675
-0.00134205
0.0536466
-0.001128
0.0535168
-0.000931509
0.0533797
-0.000752046
0.0532367
-0.000588976
0.0530888
-0.00044157
0.0529372
-0.000309027
0.0527829
-0.000190501
0.0526267
-8.51177e-05
0.0524694
7.9983e-06
0.0523117
8.97603e-05
0.052154
0.000161089
0.0519968
0.000222867
0.0518407
0.000275947
0.0516858
0.000321158
0.0515326
0.000359296
0.0513813
0.000391122
0.0512321
0.000417361
0.0510852
0.000438699
0.000455782
0.0509408
0.0591636
-0.00636701
0.0591671
-0.00594999
0.0591317
-0.00553057
0.0590622
-0.00511267
0.0589627
-0.00469983
0.0588373
-0.00429523
0.05869
-0.00390161
0.058524
-0.00352132
0.0583425
-0.0031563
0.0581484
-0.00280808
0.0579442
-0.00247786
0.0577321
-0.00216648
0.0575142
-0.00187446
0.057292
-0.00160205
0.0570672
-0.00134927
0.0568411
-0.00111592
0.0566146
-0.00090159
0.0563888
-0.00070576
0.0561645
-0.000527759
0.0559423
-0.000366822
0.0557228
-0.000222108
0.0555064
-9.27237e-05
0.0552937
2.22514e-05
0.0550847
0.000123777
0.0548799
0.00021283
0.0546793
0.000290363
0.054483
0.000357312
0.0542913
0.000414596
0.0541041
0.000463108
0.0539215
0.000503707
0.0537436
0.000537218
0.0535703
0.000564427
0.0534015
0.00058608
0.0532373
0.000602883
0.0006155
0.0530776
0.0629675
-0.00607434
0.0626516
-0.0056342
0.0623177
-0.00519668
0.0619702
-0.00476524
0.0616132
-0.004343
0.0612506
-0.00393266
0.0608854
-0.00353651
0.0605205
-0.00315645
0.0601581
-0.00279398
0.0598001
-0.00245026
0.0594483
-0.0021261
0.0591038
-0.00182203
0.0587675
-0.00153829
0.0584403
-0.00127487