/*--------------------------------*- C++ -*----------------------------------*\
| =========                 |                                                 |
| \\      /  F ield         | OpenFOAM: The Open Source CFD Toolbox           |
|  \\    /   O peration     | Version:  2406                                  |
|   \\  /    A nd           | Website:  www.openfoam.com                      |
|    \\/     M anipulation  |                                                 |
\*---------------------------------------------------------------------------*/
FoamFile
{
    version     2.0;
    format      ascii;
    arch        "LSB;label=32;scalar=64";
    class       volVectorField;
    location    "85";
    object      U;
}
// * * * * * * * * * * * * * * * * * * * * * * * * * * * * * * * * * * * * * //

dimensions      [0 1 -1 0 0 0 0];

internalField   nonuniform List<vector> 
2000
(
(0.196272 -0.00158799 0)
(0.199241 -0.00187387 0)
(0.201925 -0.00119182 0)
(0.203959 -0.000694139 0)
(0.205437 -0.000442742 0)
(0.206555 -0.000293373 0)
(0.207417 -0.000192996 0)
(0.20808 -0.000131363 0)
(0.2086 -9.63382e-05 0)
(0.209019 -7.52945e-05 0)
(0.553315 -0.00191977 0)
(0.552991 -0.00341252 0)
(0.553435 -0.00322306 0)
(0.553997 -0.0026409 0)
(0.554735 -0.0021307 0)
(0.555599 -0.00170838 0)
(0.556462 -0.00135455 0)
(0.557253 -0.00107537 0)
(0.55796 -0.00086703 0)
(0.558591 -0.000712808 0)
(0.873791 -0.000994486 0)
(0.873516 -0.00211595 0)
(0.8733 -0.00238684 0)
(0.872815 -0.00231766 0)
(0.872506 -0.00218187 0)
(0.872497 -0.00201069 0)
(0.872663 -0.00180618 0)
(0.872903 -0.00159656 0)
(0.873182 -0.00140537 0)
(0.873486 -0.00123882 0)
(1.15408 -0.000543249 0)
(1.15404 -0.00136406 0)
(1.15397 -0.00175841 0)
(1.15344 -0.00187216 0)
(1.15292 -0.00187435 0)
(1.1526 -0.00181973 0)
(1.15241 -0.00171921 0)
(1.1523 -0.0015931 0)
(1.15222 -0.00146322 0)
(1.1522 -0.00134034 0)
(1.39423 -0.000343969 0)
(1.3943 -0.000934878 0)
(1.39438 -0.00129767 0)
(1.39398 -0.00145695 0)
(1.39349 -0.00150979 0)
(1.39313 -0.00150799 0)
(1.39287 -0.00146467 0)
(1.39264 -0.00139228 0)
(1.39244 -0.0013072 0)
(1.39227 -0.00122053 0)
(1.59432 -0.000230685 0)
(1.59444 -0.000647835 0)
(1.5946 -0.000941209 0)
(1.5943 -0.00110181 0)
(1.59387 -0.001177 0)
(1.59352 -0.00120267 0)
(1.59325 -0.00119122 0)
(1.59301 -0.0011516 0)
(1.59277 -0.00109598 0)
(1.59256 -0.0010343 0)
(1.75438 -0.000155986 0)
(1.75451 -0.000445766 0)
(1.75471 -0.000667298 0)
(1.75449 -0.000805561 0)
(1.75411 -0.000880892 0)
(1.75378 -0.000915156 0)
(1.75352 -0.000918717 0)
(1.75327 -0.000898589 0)
(1.75302 -0.000863423 0)
(1.75279 -0.000820917 0)
(1.87442 -0.000101404 0)
(1.87456 -0.000292648 0)
(1.87478 -0.000446025 0)
(1.8746 -0.00054929 0)
(1.87425 -0.000610491 0)
(1.87394 -0.000641845 0)
(1.87369 -0.000650622 0)
(1.87344 -0.000641844 0)
(1.87319 -0.000621208 0)
(1.87295 -0.000593991 0)
(1.95444 -5.74151e-05 0)
(1.95458 -0.000166543 0)
(1.95481 -0.000256371 0)
(1.95466 -0.000319499 0)
(1.95433 -0.000358818 0)
(1.95404 -0.000380291 0)
(1.95379 -0.000387996 0)
(1.95354 -0.000384903 0)
(1.95329 -0.000374273 0)
(1.95304 -0.000359189 0)
(1.99445 -1.86152e-05 0)
(1.99459 -5.41124e-05 0)
(1.99483 -8.36709e-05 0)
(1.99469 -0.000104859 0)
(1.99437 -0.000118366 0)
(1.99409 -0.000125951 0)
(1.99384 -0.000128907 0)
(1.99359 -0.000128218 0)
(1.99334 -0.000124954 0)
(1.99309 -0.000120131 0)
(1.99445 1.86185e-05 0)
(1.99459 5.41201e-05 0)
(1.99483 8.36871e-05 0)
(1.99469 0.000104882 0)
(1.99437 0.000118393 0)
(1.99409 0.00012598 0)
(1.99384 0.000128936 0)
(1.99359 0.000128246 0)
(1.99334 0.000124985 0)
(1.99309 0.000120167 0)
(1.95444 5.74189e-05 0)
(1.95458 0.000166551 0)
(1.95481 0.000256386 0)
(1.95466 0.000319521 0)
(1.95433 0.000358844 0)
(1.95404 0.000380315 0)
(1.95379 0.000388018 0)
(1.95354 0.000384926 0)
(1.95329 0.000374303 0)
(1.95304 0.000359228 0)
(1.87442 0.000101408 0)
(1.87456 0.000292657 0)
(1.87478 0.000446043 0)
(1.8746 0.000549311 0)
(1.87425 0.000610513 0)
(1.87394 0.000641871 0)
(1.87369 0.000650652 0)
(1.87344 0.000641871 0)
(1.87319 0.000621231 0)
(1.87295 0.000594019 0)
(1.75438 0.000155989 0)
(1.75451 0.000445773 0)
(1.75471 0.000667309 0)
(1.75449 0.000805577 0)
(1.75411 0.000880915 0)
(1.75378 0.000915185 0)
(1.75352 0.000918749 0)
(1.75327 0.00089862 0)
(1.75302 0.000863449 0)
(1.75279 0.000820944 0)
(1.59432 0.000230689 0)
(1.59444 0.000647843 0)
(1.5946 0.000941222 0)
(1.5943 0.00110182 0)
(1.59387 0.00117702 0)
(1.59352 0.0012027 0)
(1.59325 0.00119125 0)
(1.59301 0.00115163 0)
(1.59277 0.00109599 0)
(1.59256 0.00103431 0)
(1.39423 0.000343973 0)
(1.3943 0.000934887 0)
(1.39438 0.00129768 0)
(1.39398 0.00145697 0)
(1.39349 0.00150981 0)
(1.39313 0.00150802 0)
(1.39287 0.0014647 0)
(1.39264 0.00139231 0)
(1.39244 0.00130722 0)
(1.39227 0.00122055 0)
(1.15408 0.000543253 0)
(1.15404 0.00136407 0)
(1.15397 0.00175842 0)
(1.15344 0.00187218 0)
(1.15292 0.00187437 0)
(1.1526 0.00181975 0)
(1.15241 0.00171924 0)
(1.1523 0.00159313 0)
(1.15222 0.00146324 0)
(1.1522 0.00134035 0)
(0.873791 0.000994489 0)
(0.873516 0.00211596 0)
(0.8733 0.00238686 0)
(0.872815 0.00231768 0)
(0.872506 0.00218189 0)
(0.872497 0.0020107 0)
(0.872663 0.0018062 0)
(0.872902 0.00159659 0)
(0.873182 0.00140539 0)
(0.873486 0.00123884 0)
(0.553315 0.00191978 0)
(0.552991 0.00341253 0)
(0.553435 0.00322307 0)
(0.553997 0.00264092 0)
(0.554735 0.00213072 0)
(0.555599 0.0017084 0)
(0.556462 0.00135457 0)
(0.557253 0.00107541 0)
(0.55796 0.000867064 0)
(0.558591 0.000712828 0)
(0.196272 0.00158799 0)
(0.199241 0.00187387 0)
(0.201925 0.00119182 0)
(0.203959 0.000694152 0)
(0.205437 0.000442751 0)
(0.206555 0.000293381 0)
(0.207416 0.00019301 0)
(0.20808 0.000131371 0)
(0.2086 9.63383e-05 0)
(0.209019 7.53047e-05 0)
(0.209366 -6.11284e-05 0)
(0.209658 -5.10101e-05 0)
(0.209907 -4.3609e-05 0)
(0.210123 -3.8005e-05 0)
(0.210312 -3.35833e-05 0)
(0.21048 -2.99787e-05 0)
(0.21063 -2.69627e-05 0)
(0.210765 -2.43829e-05 0)
(0.210887 -2.21515e-05 0)
(0.210998 -2.02336e-05 0)
(0.211099 -1.86077e-05 0)
(0.211193 -1.72347e-05 0)
(0.21128 -1.60561e-05 0)
(0.21136 -1.50074e-05 0)
(0.211436 -1.4042e-05 0)
(0.211506 -1.31392e-05 0)
(0.211572 -1.23006e-05 0)
(0.211634 -1.15394e-05 0)
(0.211692 -1.08656e-05 0)
(0.211747 -1.0279e-05 0)
(0.211799 -9.76848e-06 0)
(0.211848 -9.31431e-06 0)
(0.211896 -8.89684e-06 0)
(0.21194 -8.49966e-06 0)
(0.211983 -8.11427e-06 0)
(0.212024 -7.7392e-06 0)
(0.212063 -7.37819e-06 0)
(0.212101 -7.0374e-06 0)
(0.212136 -6.72223e-06 0)
(0.212171 -6.43557e-06 0)
(0.212204 -6.17733e-06 0)
(0.212235 -5.94409e-06 0)
(0.212266 -5.73122e-06 0)
(0.212295 -5.53289e-06 0)
(0.212323 -5.34447e-06 0)
(0.559151 -0.000596116 0)
(0.559649 -0.000505893 0)
(0.560091 -0.000435219 0)
(0.560487 -0.000379229 0)
(0.560841 -0.000334202 0)
(0.561161 -0.000297324 0)
(0.561452 -0.000266581 0)
(0.561717 -0.00024061 0)
(0.561959 -0.000218505 0)
(0.562182 -0.000199616 0)
(0.562387 -0.000183411 0)
(0.562578 -0.000169413 0)
(0.562755 -0.000157192 0)
(0.562921 -0.000146399 0)
(0.563077 -0.000136764 0)
(0.563223 -0.000128101 0)
(0.56336 -0.000120282 0)
(0.56349 -0.000113218 0)
(0.563613 -0.000106838 0)
(0.563729 -0.000101071 0)
(0.56384 -9.58487e-05 0)
(0.563945 -9.10968e-05 0)
(0.564045 -8.67451e-05 0)
(0.564141 -8.27319e-05 0)
(0.564232 -7.90047e-05 0)
(0.56432 -7.55244e-05 0)
(0.564404 -7.22636e-05 0)
(0.564484 -6.92039e-05 0)
(0.564562 -6.63346e-05 0)
(0.564636 -6.3647e-05 0)
(0.564708 -6.11343e-05 0)
(0.564776 -5.87869e-05 0)
(0.564843 -5.65938e-05 0)
(0.564907 -5.45415e-05 0)
(0.564969 -5.26149e-05 0)
(0.873799 -0.00109474 0)
(0.87411 -0.000970328 0)
(0.87441 -0.0008636 0)
(0.874698 -0.000772631 0)
(0.874972 -0.000695149 0)
(0.875231 -0.000628774 0)
(0.875476 -0.000571424 0)
(0.875707 -0.000521542 0)
(0.875925 -0.000478054 0)
(0.876131 -0.000440147 0)
(0.876326 -0.000407088 0)
(0.87651 -0.000378138 0)
(0.876684 -0.000352581 0)
(0.87685 -0.000329796 0)
(0.877007 -0.000309308 0)
(0.877157 -0.000290778 0)
(0.8773 -0.00027397 0)
(0.877437 -0.000258716 0)
(0.877567 -0.000244869 0)
(0.877691 -0.000232289 0)
(0.877811 -0.000220831 0)
(0.877925 -0.000210347 0)
(0.878035 -0.000200704 0)
(0.878141 -0.00019178 0)
(0.878243 -0.000183479 0)
(0.878341 -0.000175723 0)
(0.878435 -0.000168459 0)
(0.878526 -0.000161644 0)
(0.878614 -0.000155248 0)
(0.878699 -0.000149246 0)
(0.878782 -0.000143614 0)
(0.878861 -0.000138328 0)
(0.878938 -0.000133365 0)
(0.879012 -0.000128697 0)
(0.879085 -0.000124297 0)
(1.1522 -0.00122681 0)
(1.15224 -0.00112285 0)
(1.15229 -0.00102879 0)
(1.15236 -0.000944792 0)
(1.15243 -0.000870279 0)
(1.15252 -0.000804066 0)
(1.1526 -0.000744837 0)
(1.15269 -0.000691581 0)
(1.15278 -0.000643708 0)
(1.15288 -0.000600848 0)
(1.15297 -0.000562613 0)
(1.15306 -0.000528483 0)
(1.15315 -0.000497825 0)
(1.15324 -0.000470022 0)
(1.15333 -0.00044459 0)
(1.15342 -0.000421202 0)
(1.15351 -0.00039966 0)
(1.15359 -0.00037985 0)
(1.15367 -0.000361669 0)
(1.15375 -0.000344998 0)
(1.15383 -0.000329691 0)
(1.15391 -0.000315578 0)
(1.15399 -0.000302492 0)
(1.15406 -0.000290281 0)
(1.15413 -0.000278824 0)
(1.1542 -0.000268035 0)
(1.15427 -0.000257855 0)
(1.15434 -0.000248249 0)
(1.15441 -0.000239191 0)
(1.15447 -0.000230656 0)
(1.15454 -0.000222619 0)
(1.1546 -0.000215047 0)
(1.15466 -0.000207905 0)
(1.15472 -0.000201153 0)
(1.15477 -0.000194754 0)
(1.39214 -0.00113663 0)
(1.39202 -0.00105706 0)
(1.39193 -0.000983017 0)
(1.39185 -0.000915481 0)
(1.39178 -0.000854666 0)
(1.39173 -0.000799982 0)
(1.39169 -0.000750473 0)
(1.39165 -0.000705339 0)
(1.39162 -0.000664182 0)
(1.3916 -0.000626872 0)
(1.39159 -0.000593268 0)
(1.39158 -0.000563053 0)
(1.39157 -0.000535727 0)
(1.39157 -0.000510722 0)
(1.39157 -0.000487569 0)
(1.39158 -0.000465966 0)
(1.39159 -0.000445771 0)
(1.3916 -0.000426946 0)
(1.39161 -0.000409477 0)
(1.39163 -0.00039332 0)
(1.39164 -0.000378377 0)
(1.39166 -0.000364506 0)
(1.39168 -0.000351545 0)
(1.3917 -0.00033934 0)
(1.39172 -0.000327766 0)
(1.39174 -0.000316739 0)
(1.39177 -0.000306217 0)
(1.39179 -0.000296184 0)
(1.39181 -0.00028664 0)
(1.39184 -0.000277585 0)
(1.39186 -0.00026901 0)
(1.39189 -0.000260893 0)
(1.39191 -0.000253201 0)
(1.39194 -0.000245892 0)
(1.39196 -0.000238922 0)
(1.59237 -0.000971649 0)
(1.5922 -0.00091034 0)
(1.59204 -0.000852021 0)
(1.5919 -0.000798055 0)
(1.59177 -0.000749098 0)
(1.59165 -0.000704959 0)
(1.59154 -0.000664949 0)
(1.59144 -0.000628396 0)
(1.59135 -0.000594965 0)
(1.59126 -0.000564607 0)
(1.59118 -0.000537301 0)
(1.59111 -0.000512867 0)
(1.59104 -0.000490907 0)
(1.59098 -0.000470899 0)
(1.59092 -0.000452372 0)
(1.59087 -0.000435013 0)
(1.59081 -0.000418678 0)
(1.59077 -0.000403356 0)
(1.59072 -0.000389078 0)
(1.59068 -0.000375848 0)
(1.59065 -0.000363614 0)
(1.59061 -0.000352261 0)
(1.59058 -0.000341637 0)
(1.59055 -0.000331591 0)
(1.59052 -0.000321999 0)
(1.5905 -0.000312779 0)
(1.59048 -0.000303893 0)
(1.59045 -0.000295338 0)
(1.59043 -0.00028713 0)
(1.59042 -0.00027929 0)
(1.5904 -0.000271827 0)
(1.59039 -0.000264734 0)
(1.59037 -0.000257989 0)
(1.59036 -0.000251557 0)
(1.59035 -0.000245395 0)
(1.75258 -0.000775634 0)
(1.75238 -0.000729932 0)
(1.7522 -0.000685506 0)
(1.75203 -0.000643785 0)
(1.75187 -0.00060561 0)
(1.75173 -0.000571065 0)
(1.75159 -0.000539709 0)
(1.75146 -0.000511014 0)
(1.75134 -0.000484708 0)
(1.75122 -0.000460794 0)
(1.75111 -0.000439331 0)
(1.75101 -0.00042024 0)
(1.75091 -0.000403238 0)
(1.75081 -0.000387892 0)
(1.75072 -0.000373771 0)
(1.75063 -0.000360571 0)
(1.75055 -0.000348145 0)
(1.75047 -0.000336479 0)
(1.7504 -0.000325617 0)
(1.75033 -0.000315589 0)
(1.75026 -0.000306372 0)
(1.75019 -0.000297877 0)
(1.75013 -0.000289974 0)
(1.75007 -0.000282524 0)
(1.75001 -0.000275408 0)
(1.74995 -0.000268545 0)
(1.7499 -0.000261899 0)
(1.74984 -0.000255465 0)
(1.74979 -0.000249263 0)
(1.74974 -0.000243318 0)
(1.7497 -0.000237646 0)
(1.74965 -0.000232249 0)
(1.74961 -0.000227116 0)
(1.74957 -0.000222217 0)
(1.74953 -0.000217519 0)
(1.87272 -0.000563637 0)
(1.87251 -0.000532114 0)
(1.87232 -0.00050087 0)
(1.87213 -0.000471138 0)
(1.87196 -0.000443701 0)
(1.8718 -0.000418753 0)
(1.87164 -0.000396047 0)
(1.8715 -0.00037521 0)
(1.87136 -0.000356042 0)
(1.87123 -0.000338574 0)
(1.87111 -0.000322892 0)
(1.87099 -0.000308978 0)
(1.87088 -0.000296658 0)
(1.87077 -0.00028562 0)
(1.87066 -0.000275528 0)
(1.87056 -0.000266129 0)
(1.87046 -0.00025729 0)
(1.87037 -0.000248992 0)
(1.87028 -0.000241274 0)
(1.87019 -0.000234172 0)
(1.87011 -0.000227684 0)
(1.87003 -0.000221752 0)
(1.86995 -0.00021628 0)
(1.86987 -0.000211156 0)
(1.86979 -0.000206283 0)
(1.86972 -0.000201591 0)
(1.86965 -0.000197045 0)
(1.86958 -0.00019264 0)
(1.86951 -0.00018839 0)
(1.86945 -0.000184314 0)
(1.86938 -0.000180427 0)
(1.86932 -0.000176733 0)
(1.86926 -0.000173226 0)
(1.8692 -0.000169888 0)
(1.86914 -0.000166692 0)
(1.95281 -0.000341778 0)
(1.95259 -0.00032333 0)
(1.95239 -0.000304802 0)
(1.95219 -0.000287007 0)
(1.95201 -0.000270481 0)
(1.95184 -0.000255388 0)
(1.95168 -0.000241616 0)
(1.95153 -0.000228957 0)
(1.95138 -0.000217284 0)
(1.95124 -0.00020661 0)
(1.95111 -0.000197006 0)
(1.95099 -0.000188485 0)
(1.95087 -0.00018096 0)
(1.95075 -0.000174252 0)
(1.95064 -0.00016815 0)
(1.95053 -0.000162488 0)
(1.95043 -0.000157168 0)
(1.95033 -0.000152169 0)
(1.95023 -0.000147514 0)
(1.95014 -0.000143232 0)
(1.95005 -0.000139328 0)
(1.94996 -0.000135775 0)
(1.94987 -0.000132518 0)
(1.94979 -0.00012949 0)
(1.9497 -0.000126625 0)
(1.94962 -0.000123877 0)
(1.94954 -0.00012122 0)
(1.94947 -0.000118649 0)
(1.94939 -0.000116168 0)
(1.94932 -0.00011379 0)
(1.94924 -0.000111524 0)
(1.94917 -0.000109372 0)
(1.9491 -0.000107334 0)
(1.94904 -0.000105397 0)
(1.94897 -0.000103548 0)
(1.99285 -0.000114468 0)
(1.99263 -0.000108411 0)
(1.99242 -0.00010229 0)
(1.99222 -9.63761e-05 0)
(1.99204 -9.08542e-05 0)
(1.99186 -8.5793e-05 0)
(1.9917 -8.11749e-05 0)
(1.99154 -7.69381e-05 0)
(1.99139 -7.30311e-05 0)
(1.99125 -6.94482e-05 0)
(1.99112 -6.62093e-05 0)
(1.99099 -6.33231e-05 0)
(1.99086 -6.07708e-05 0)
(1.99075 -5.85037e-05 0)
(1.99063 -5.64557e-05 0)
(1.99052 -5.45676e-05 0)
(1.99042 -5.28e-05 0)
(1.99031 -5.11373e-05 0)
(1.99021 -4.95818e-05 0)
(1.99011 -4.81421e-05 0)
(1.99002 -4.68236e-05 0)
(1.98993 -4.56223e-05 0)
(1.98984 -4.4524e-05 0)
(1.98975 -4.3509e-05 0)
(1.98967 -4.25563e-05 0)
(1.98958 -4.16489e-05 0)
(1.9895 -4.07756e-05 0)
(1.98942 -3.99318e-05 0)
(1.98934 -3.91172e-05 0)
(1.98926 -3.83342e-05 0)
(1.98919 -3.75854e-05 0)
(1.98912 -3.68722e-05 0)
(1.98904 -3.61942e-05 0)
(1.98897 -3.55492e-05 0)
(1.9889 -3.49336e-05 0)
(1.99285 0.000114499 0)
(1.99263 0.000108421 0)
(1.99242 0.000102278 0)
(1.99222 9.63713e-05 0)
(1.99204 9.08887e-05 0)
(1.99186 8.58728e-05 0)
(1.9917 8.12694e-05 0)
(1.99154 7.70036e-05 0)
(1.99139 7.3045e-05 0)
(1.99125 6.94251e-05 0)
(1.99112 6.61896e-05 0)
(1.99099 6.33451e-05 0)
(1.99086 6.08485e-05 0)
(1.99075 5.86227e-05 0)
(1.99063 5.65845e-05 0)
(1.99052 5.4675e-05 0)
(1.99042 5.287e-05 0)
(1.99031 5.11733e-05 0)
(1.99021 4.96027e-05 0)
(1.99011 4.81724e-05 0)
(1.99002 4.68834e-05 0)
(1.98993 4.57211e-05 0)
(1.98984 4.46597e-05 0)
(1.98975 4.36708e-05 0)
(1.98967 4.27298e-05 0)
(1.98958 4.18214e-05 0)
(1.9895 4.09392e-05 0)
(1.98942 4.00844e-05 0)
(1.98934 3.92625e-05 0)
(1.98926 3.84795e-05 0)
(1.98919 3.77396e-05 0)
(1.98912 3.70442e-05 0)
(1.98904 3.6391e-05 0)
(1.98897 3.57755e-05 0)
(1.9889 3.51909e-05 0)
(1.95281 0.000341817 0)
(1.95259 0.000323352 0)
(1.95239 0.000304804 0)
(1.95219 0.000287012 0)
(1.95201 0.000270515 0)
(1.95184 0.000255457 0)
(1.95168 0.000241693 0)
(1.95153 0.000229005 0)
(1.95138 0.000217288 0)
(1.95124 0.00020659 0)
(1.95111 0.000196999 0)
(1.95099 0.000188519 0)
(1.95087 0.000181042 0)
(1.95075 0.000174366 0)
(1.95064 0.000168268 0)
(1.95053 0.000162584 0)
(1.95043 0.000157232 0)
(1.95033 0.000152208 0)
(1.95023 0.000147544 0)
(1.95014 0.000143272 0)
(1.95005 0.000139394 0)
(1.94996 0.000135873 0)
(1.94987 0.000132645 0)
(1.94979 0.000129636 0)
(1.9497 0.00012678 0)
(1.94962 0.000124033 0)
(1.94954 0.000121372 0)
(1.94947 0.000118795 0)
(1.94939 0.000116313 0)
(1.94932 0.000113939 0)
(1.94924 0.000111683 0)
(1.94917 0.000109549 0)
(1.9491 0.000107532 0)
(1.94904 0.00010562 0)
(1.94897 0.000103797 0)
(1.87272 0.000563667 0)
(1.87251 0.000532134 0)
(1.87232 0.000500875 0)
(1.87213 0.000471144 0)
(1.87196 0.00044373 0)
(1.8718 0.000418807 0)
(1.87164 0.000396101 0)
(1.8715 0.000375244 0)
(1.87136 0.000356054 0)
(1.87123 0.00033858 0)
(1.87111 0.000322914 0)
(1.87099 0.00030903 0)
(1.87088 0.000296738 0)
(1.87077 0.000285711 0)
(1.87066 0.000275612 0)
(1.87056 0.000266196 0)
(1.87046 0.000257341 0)
(1.87037 0.000249036 0)
(1.87028 0.000241323 0)
(1.87019 0.000234236 0)
(1.87011 0.000227767 0)
(1.87003 0.000221853 0)
(1.86995 0.000216394 0)
(1.86987 0.000211278 0)
(1.86979 0.000206408 0)
(1.86972 0.000201717 0)
(1.86965 0.000197173 0)
(1.86958 0.000192772 0)
(1.86951 0.000188529 0)
(1.86945 0.000184464 0)
(1.86938 0.000180591 0)
(1.86932 0.000176915 0)
(1.86926 0.000173425 0)
(1.8692 0.000170103 0)
(1.86914 0.000166924 0)
(1.75258 0.000775661 0)
(1.75238 0.000729953 0)
(1.7522 0.00068552 0)
(1.75203 0.000643804 0)
(1.75187 0.000605642 0)
(1.75173 0.000571102 0)
(1.75159 0.00053974 0)
(1.75146 0.000511034 0)
(1.75134 0.000484725 0)
(1.75122 0.000460825 0)
(1.75111 0.000439382 0)
(1.75101 0.000420305 0)
(1.75091 0.000403304 0)
(1.75081 0.000387945 0)
(1.75072 0.000373809 0)
(1.75063 0.000360604 0)
(1.75055 0.000348184 0)
(1.75047 0.000336534 0)
(1.7504 0.000325692 0)
(1.75033 0.00031568 0)
(1.75026 0.000306472 0)
(1.75019 0.000297978 0)
(1.75013 0.00029007 0)
(1.75007 0.000282615 0)
(1.75001 0.000275496 0)
(1.74995 0.000268636 0)
(1.7499 0.000261997 0)
(1.74984 0.000255577 0)
(1.74979 0.000249392 0)
(1.74974 0.000243465 0)
(1.7497 0.00023781 0)
(1.74965 0.000232428 0)
(1.74961 0.000227306 0)
(1.74957 0.000222415 0)
(1.74953 0.000217723 0)
(1.59237 0.000971667 0)
(1.5922 0.000910366 0)
(1.59204 0.000852056 0)
(1.5919 0.000798094 0)
(1.59177 0.000749129 0)
(1.59165 0.000704969 0)
(1.59154 0.000664945 0)
(1.59144 0.000628401 0)
(1.59135 0.000595 0)
(1.59126 0.000564673 0)
(1.59119 0.000537381 0)
(1.59111 0.000512934 0)
(1.59104 0.000490944 0)
(1.59098 0.000470908 0)
(1.59092 0.000452372 0)
(1.59087 0.000435026 0)
(1.59081 0.000418721 0)
(1.59077 0.000403432 0)
(1.59072 0.000389178 0)
(1.59068 0.000375957 0)
(1.59065 0.000363717 0)
(1.59061 0.000352347 0)
(1.59058 0.000341704 0)
(1.59055 0.000331646 0)
(1.59052 0.00032205 0)
(1.5905 0.000312838 0)
(1.59048 0.000303968 0)
(1.59045 0.000295435 0)
(1.59044 0.00028725 0)
(1.59042 0.00027943 0)
(1.5904 0.000271982 0)
(1.59039 0.000264898 0)
(1.59037 0.000258156 0)
(1.59036 0.000251722 0)
(1.59035 0.000245559 0)
(1.39214 0.00113665 0)
(1.39202 0.00105708 0)
(1.39193 0.000983061 0)
(1.39185 0.000915528 0)
(1.39178 0.000854686 0)
(1.39173 0.000799965 0)
(1.39169 0.000750444 0)
(1.39165 0.000705341 0)
(1.39162 0.000664238 0)
(1.3916 0.000626966 0)
(1.39159 0.000593359 0)
(1.39158 0.000563105 0)
(1.39157 0.000535729 0)
(1.39157 0.000510694 0)
(1.39157 0.000487545 0)
(1.39158 0.000465976 0)
(1.39159 0.000445826 0)
(1.3916 0.000427039 0)
(1.39161 0.000409587 0)
(1.39163 0.000393424 0)
(1.39164 0.00037846 0)
(1.39166 0.000364562 0)
(1.39168 0.000351579 0)
(1.3917 0.000339362 0)
(1.39172 0.000327791 0)
(1.39174 0.00031678 0)
(1.39177 0.000306281 0)
(1.39179 0.000296272 0)
(1.39181 0.00028675 0)
(1.39184 0.000277708 0)
(1.39186 0.00026914 0)
(1.39189 0.000261023 0)
(1.39191 0.000253327 0)
(1.39194 0.000246013 0)
(1.39196 0.00023904 0)
(1.1522 0.00122683 0)
(1.15224 0.00112289 0)
(1.15229 0.00102885 0)
(1.15236 0.000944836 0)
(1.15243 0.000870276 0)
(1.15252 0.000804025 0)
(1.1526 0.000744806 0)
(1.15269 0.000691605 0)
(1.15278 0.00064379 0)
(1.15288 0.000600948 0)
(1.15297 0.000562683 0)
(1.15306 0.000528496 0)
(1.15315 0.00049779 0)
(1.15324 0.000469976 0)
(1.15333 0.000444571 0)
(1.15342 0.000421229 0)
(1.15351 0.000399732 0)
(1.15359 0.000379946 0)
(1.15367 0.000361764 0)
(1.15375 0.000345072 0)
(1.15383 0.000329735 0)
(1.15391 0.000315596 0)
(1.15399 0.000302496 0)
(1.15406 0.000290286 0)
(1.15413 0.000278843 0)
(1.1542 0.000268074 0)
(1.15427 0.000257916 0)
(1.15434 0.000248327 0)
(1.15441 0.000239278 0)
(1.15447 0.000230746 0)
(1.15454 0.000222706 0)
(1.1546 0.00021513 0)
(1.15466 0.000207982 0)
(1.15472 0.000201228 0)
(1.15477 0.000194829 0)
(0.873799 0.00109476 0)
(0.874109 0.000970372 0)
(0.87441 0.000863661 0)
(0.874698 0.000772662 0)
(0.874972 0.000695125 0)
(0.875231 0.000628725 0)
(0.875476 0.000571408 0)
(0.875707 0.000521588 0)
(0.875925 0.00047814 0)
(0.876131 0.000440224 0)
(0.876326 0.000407115 0)
(0.87651 0.000378113 0)
(0.876684 0.000352532 0)
(0.87685 0.00032976 0)
(0.877007 0.000309311 0)
(0.877157 0.000290822 0)
(0.8773 0.00027404 0)
(0.877437 0.00025879 0)
(0.877567 0.000244927 0)
(0.877691 0.000232321 0)
(0.877811 0.000220838 0)
(0.877925 0.000210342 0)
(0.878035 0.000200698 0)
(0.878141 0.000191785 0)
(0.878243 0.000183499 0)
(0.878341 0.00017576 0)
(0.878435 0.000168507 0)
(0.878527 0.000161697 0)
(0.878615 0.0001553 0)
(0.8787 0.000149293 0)
(0.878782 0.000143655 0)
(0.878861 0.000138366 0)
(0.878938 0.0001334 0)
(0.879013 0.000128733 0)
(0.879085 0.000124337 0)
(0.559151 0.000596139 0)
(0.559649 0.000505937 0)
(0.560091 0.000435264 0)
(0.560487 0.000379238 0)
(0.560841 0.000334171 0)
(0.561161 0.000297292 0)
(0.561452 0.000266584 0)
(0.561717 0.000240654 0)
(0.561959 0.000218561 0)
(0.562182 0.00019965 0)
(0.562387 0.000183409 0)
(0.562578 0.000169385 0)
(0.562756 0.000157163 0)
(0.562921 0.000146388 0)
(0.563077 0.00013678 0)
(0.563223 0.000128136 0)
(0.56336 0.000120323 0)
(0.56349 0.000113253 0)
(0.563613 0.000106858 0)
(0.563729 0.000101078 0)
(0.56384 9.58458e-05 0)
(0.563945 9.10916e-05 0)
(0.564045 8.67443e-05 0)
(0.564141 8.27382e-05 0)
(0.564232 7.90185e-05 0)
(0.56432 7.55431e-05 0)
(0.564404 7.22841e-05 0)
(0.564484 6.92235e-05 0)
(0.564562 6.63515e-05 0)
(0.564636 6.36611e-05 0)
(0.564708 6.11463e-05 0)
(0.564777 5.87982e-05 0)
(0.564843 5.6606e-05 0)
(0.564907 5.45551e-05 0)
(0.564969 5.26306e-05 0)
(0.209366 6.1151e-05 0)
(0.209658 5.10237e-05 0)
(0.209907 4.36009e-05 0)
(0.210123 3.79887e-05 0)
(0.210312 3.35788e-05 0)
(0.21048 2.99908e-05 0)
(0.21063 2.69795e-05 0)
(0.210765 2.43906e-05 0)
(0.210887 2.21476e-05 0)
(0.210998 2.02248e-05 0)
(0.211099 1.86028e-05 0)
(0.211193 1.72387e-05 0)
(0.21128 1.60668e-05 0)
(0.21136 1.50199e-05 0)
(0.211436 1.4051e-05 0)
(0.211506 1.31422e-05 0)
(0.211572 1.22984e-05 0)
(0.211634 1.15348e-05 0)
(0.211692 1.08617e-05 0)
(0.211747 1.02785e-05 0)
(0.211799 9.77166e-06 0)
(0.211849 9.32083e-06 0)
(0.211896 8.90449e-06 0)
(0.21194 8.50678e-06 0)
(0.211983 8.11903e-06 0)
(0.212024 7.74099e-06 0)
(0.212063 7.37699e-06 0)
(0.212101 7.0342e-06 0)
(0.212136 6.71806e-06 0)
(0.212171 6.43197e-06 0)
(0.212204 6.17492e-06 0)
(0.212235 5.94376e-06 0)
(0.212266 5.73256e-06 0)
(0.212295 5.53585e-06 0)
(0.212323 5.34796e-06 0)
(0.21235 -5.16218e-06 0)
(0.212377 -4.98431e-06 0)
(0.212402 -4.81036e-06 0)
(0.212427 -4.64128e-06 0)
(0.212451 -4.4783e-06 0)
(0.212474 -4.32307e-06 0)
(0.212496 -4.17653e-06 0)
(0.212518 -4.03947e-06 0)
(0.212538 -3.91154e-06 0)
(0.212559 -3.79235e-06 0)
(0.565028 -5.07994e-05 0)
(0.565086 -4.90809e-05 0)
(0.565142 -4.74475e-05 0)
(0.565196 -4.58903e-05 0)
(0.565248 -4.44022e-05 0)
(0.565299 -4.29795e-05 0)
(0.565348 -4.1619e-05 0)
(0.565396 -4.03196e-05 0)
(0.565442 -3.90797e-05 0)
(0.565487 -3.78982e-05 0)
(0.879155 -0.00012014 0)
(0.879223 -0.000116202 0)
(0.879289 -0.000112459 0)
(0.879353 -0.000108894 0)
(0.879415 -0.000105492 0)
(0.879475 -0.000102241 0)
(0.879534 -9.91326e-05 0)
(0.879591 -9.6159e-05 0)
(0.879647 -9.33151e-05 0)
(0.879701 -9.05965e-05 0)
(1.15483 -0.000188673 0)
(1.15489 -0.00018288 0)
(1.15494 -0.00017735 0)
(1.15499 -0.000172064 0)
(1.15504 -0.000167005 0)
(1.15509 -0.000162161 0)
(1.15514 -0.000157521 0)
(1.15519 -0.000153076 0)
(1.15524 -0.000148818 0)
(1.15529 -0.000144737 0)
(1.39199 -0.000232253 0)
(1.39201 -0.000225851 0)
(1.39204 -0.000219693 0)
(1.39206 -0.000213764 0)
(1.39209 -0.000208052 0)
(1.39211 -0.000202553 0)
(1.39214 -0.000197263 0)
(1.39216 -0.000192177 0)
(1.39219 -0.00018729 0)
(1.39221 -0.000182593 0)
(1.59034 -0.000239464 0)
(1.59033 -0.00023373 0)
(1.59032 -0.000228171 0)
(1.59031 -0.000222772 0)
(1.59031 -0.000217529 0)
(1.5903 -0.000212444 0)
(1.5903 -0.00020752 0)
(1.59029 -0.000202762 0)
(1.59029 -0.000198169 0)
(1.59029 -0.00019374 0)
(1.74949 -0.000212986 0)
(1.74945 -0.000208586 0)
(1.74942 -0.000204295 0)
(1.74938 -0.000200101 0)
(1.74935 -0.000196 0)
(1.74932 -0.000191994 0)
(1.74929 -0.000188091 0)
(1.74926 -0.000184298 0)
(1.74923 -0.000180621 0)
(1.7492 -0.000177063 0)
(1.86909 -0.000163612 0)
(1.86903 -0.000160622 0)
(1.86898 -0.000157703 0)
(1.86893 -0.000154841 0)
(1.86887 -0.000152031 0)
(1.86883 -0.000149275 0)
(1.86878 -0.000146577 0)
(1.86873 -0.000143944 0)
(1.86868 -0.000141384 0)
(1.86864 -0.000138901 0)
(1.9489 -0.000101771 0)
(1.94884 -0.000100051 0)
(1.94878 -9.83738e-05 0)
(1.94872 -9.67307e-05 0)
(1.94866 -9.51168e-05 0)
(1.9486 -9.35312e-05 0)
(1.94854 -9.19759e-05 0)
(1.94848 -9.04548e-05 0)
(1.94842 -8.89723e-05 0)
(1.94837 -8.75316e-05 0)
(1.98883 -3.4343e-05 0)
(1.98877 -3.3773e-05 0)
(1.9887 -3.32196e-05 0)
(1.98863 -3.26795e-05 0)
(1.98857 -3.21504e-05 0)
(1.98851 -3.16312e-05 0)
(1.98844 -3.11216e-05 0)
(1.98838 -3.06221e-05 0)
(1.98832 -3.01336e-05 0)
(1.98826 -2.9657e-05 0)
(1.98883 3.46304e-05 0)
(1.98877 3.40873e-05 0)
(1.9887 3.35565e-05 0)
(1.98863 3.30346e-05 0)
(1.98857 3.25202e-05 0)
(1.98851 3.20139e-05 0)
(1.98844 3.15173e-05 0)
(1.98838 3.10327e-05 0)
(1.98832 3.05626e-05 0)
(1.98826 3.01088e-05 0)
(1.9489 0.000102044 0)
(1.94884 0.000100346 0)
(1.94878 9.86879e-05 0)
(1.94872 9.7062e-05 0)
(1.94866 9.54639e-05 0)
(1.9486 9.38938e-05 0)
(1.94854 9.23548e-05 0)
(1.94848 9.08521e-05 0)
(1.94842 8.93904e-05 0)
(1.94837 8.79735e-05 0)
(1.86909 0.000163858 0)
(1.86903 0.000160883 0)
(1.86898 0.000157978 0)
(1.86893 0.000155131 0)
(1.86888 0.000152339 0)
(1.86883 0.000149602 0)
(1.86878 0.000146925 0)
(1.86873 0.000144315 0)
(1.86868 0.000141778 0)
(1.86864 0.000139319 0)
(1.74949 0.000213195 0)
(1.74945 0.000208802 0)
(1.74942 0.000204522 0)
(1.74938 0.000200343 0)
(1.74935 0.00019626 0)
(1.74932 0.000192276 0)
(1.74929 0.000188396 0)
(1.74926 0.000184628 0)
(1.74923 0.000180975 0)
(1.7492 0.00017744 0)
(1.59034 0.000239628 0)
(1.59033 0.000233899 0)
(1.59032 0.000228348 0)
(1.59031 0.000222964 0)
(1.59031 0.00021774 0)
(1.5903 0.000212676 0)
(1.5903 0.000207775 0)
(1.59029 0.000203039 0)
(1.59029 0.000198467 0)
(1.59029 0.000194056 0)
(1.39199 0.000232371 0)
(1.39201 0.000225974 0)
(1.39204 0.000219826 0)
(1.39206 0.000213909 0)
(1.39209 0.000208213 0)
(1.39211 0.000202732 0)
(1.39214 0.000197458 0)
(1.39216 0.000192389 0)
(1.39219 0.000187516 0)
(1.39221 0.000182833 0)
(1.15483 0.000188752 0)
(1.15489 0.000182965 0)
(1.15494 0.000177443 0)
(1.15499 0.000172166 0)
(1.15504 0.000167117 0)
(1.1551 0.000162282 0)
(1.15514 0.000157652 0)
(1.15519 0.000153217 0)
(1.15524 0.000148967 0)
(1.15529 0.000144895 0)
(0.879155 0.000120185 0)
(0.879223 0.000116251 0)
(0.879289 0.000112514 0)
(0.879353 0.000108953 0)
(0.879416 0.000105555 0)
(0.879476 0.000102307 0)
(0.879535 9.92019e-05 0)
(0.879592 9.6232e-05 0)
(0.879648 9.33933e-05 0)
(0.879702 9.06794e-05 0)
(0.565029 5.08165e-05 0)
(0.565086 4.90992e-05 0)
(0.565142 4.74662e-05 0)
(0.565196 4.59094e-05 0)
(0.565249 4.44216e-05 0)
(0.5653 4.29996e-05 0)
(0.565349 4.16403e-05 0)
(0.565397 4.03429e-05 0)
(0.565443 3.91054e-05 0)
(0.565488 3.79268e-05 0)
(0.212351 5.16577e-06 0)
(0.212377 4.987e-06 0)
(0.212402 4.81205e-06 0)
(0.212427 4.64148e-06 0)
(0.212451 4.47752e-06 0)
(0.212474 4.3213e-06 0)
(0.212496 4.17464e-06 0)
(0.212518 4.03753e-06 0)
(0.212539 3.91038e-06 0)
(0.212559 3.79182e-06 0)
(0.212578 -3.68059e-06 0)
(0.212597 -3.57526e-06 0)
(0.212616 -3.47488e-06 0)
(0.212634 -3.37862e-06 0)
(0.212651 -3.28544e-06 0)
(0.212668 -3.19505e-06 0)
(0.212685 -3.10702e-06 0)
(0.212701 -3.02153e-06 0)
(0.212717 -2.93852e-06 0)
(0.212732 -2.85838e-06 0)
(0.212747 -2.78109e-06 0)
(0.212761 -2.70701e-06 0)
(0.212776 -2.63598e-06 0)
(0.212789 -2.56819e-06 0)
(0.212803 -2.50329e-06 0)
(0.212816 -2.44132e-06 0)
(0.212829 -2.38185e-06 0)
(0.212841 -2.32486e-06 0)
(0.212853 -2.26989e-06 0)
(0.212865 -2.21695e-06 0)
(0.212877 -2.16564e-06 0)
(0.212888 -2.11605e-06 0)
(0.212899 -2.06786e-06 0)
(0.21291 -2.02123e-06 0)
(0.212921 -1.97588e-06 0)
(0.212931 -1.93206e-06 0)
(0.212941 -1.8895e-06 0)
(0.212951 -1.84847e-06 0)
(0.212961 -1.80873e-06 0)
(0.21297 -1.77055e-06 0)
(0.21298 -1.73369e-06 0)
(0.212989 -1.69844e-06 0)
(0.212998 -1.66454e-06 0)
(0.213006 -1.63234e-06 0)
(0.213015 -1.60163e-06 0)
(0.565531 -3.67731e-05 0)
(0.565574 -3.57022e-05 0)
(0.565615 -3.46823e-05 0)
(0.565655 -3.37101e-05 0)
(0.565694 -3.27816e-05 0)
(0.565732 -3.18933e-05 0)
(0.565769 -3.10413e-05 0)
(0.565805 -3.02226e-05 0)
(0.56584 -2.94341e-05 0)
(0.565874 -2.86736e-05 0)
(0.565908 -2.79392e-05 0)
(0.56594 -2.72296e-05 0)
(0.565972 -2.65437e-05 0)
(0.566003 -2.58811e-05 0)
(0.566033 -2.52411e-05 0)
(0.566063 -2.46236e-05 0)
(0.566092 -2.40279e-05 0)
(0.56612 -2.34539e-05 0)
(0.566147 -2.29008e-05 0)
(0.566174 -2.23678e-05 0)
(0.566201 -2.18541e-05 0)
(0.566226 -2.13587e-05 0)
(0.566251 -2.08803e-05 0)
(0.566276 -2.0418e-05 0)
(0.5663 -1.99706e-05 0)
(0.566323 -1.95373e-05 0)
(0.566346 -1.9117e-05 0)
(0.566369 -1.87094e-05 0)
(0.566391 -1.83137e-05 0)
(0.566413 -1.793e-05 0)
(0.566434 -1.7558e-05 0)
(0.566455 -1.71979e-05 0)
(0.566475 -1.685e-05 0)
(0.566495 -1.65148e-05 0)
(0.566514 -1.61928e-05 0)
(0.879754 -8.79983e-05 0)
(0.879805 -8.55158e-05 0)
(0.879856 -8.31434e-05 0)
(0.879904 -8.08754e-05 0)
(0.879952 -7.87049e-05 0)
(0.879998 -7.66256e-05 0)
(0.880044 -7.46302e-05 0)
(0.880088 -7.27124e-05 0)
(0.880131 -7.08659e-05 0)
(0.880173 -6.90855e-05 0)
(0.880214 -6.73665e-05 0)
(0.880255 -6.57053e-05 0)
(0.880294 -6.40989e-05 0)
(0.880332 -6.25455e-05 0)