/*--------------------------------*- C++ -*----------------------------------*\
| =========                 |                                                 |
| \\      /  F ield         | OpenFOAM: The Open Source CFD Toolbox           |
|  \\    /   O peration     | Version:  2406                                  |
|   \\  /    A nd           | Website:  www.openfoam.com                      |
|    \\/     M anipulation  |                                                 |
\*---------------------------------------------------------------------------*/
FoamFile
{
    version     2.0;
    format      ascii;
    arch        "LSB;label=32;scalar=64";
    class       volScalarField;
    location    "53";
    object      p;
}
// * * * * * * * * * * * * * * * * * * * * * * * * * * * * * * * * * * * * * //

dimensions      [0 2 -2 0 0 0 0];

internalField   nonuniform List<scalar> 
1800
(
0.103168
0.102963
0.101683
0.0994466
0.0964868
0.092833
0.0884336
0.0831901
0.0769978
0.0695892
0.106237
0.104337
0.102137
0.0997166
0.0967524
0.0931202
0.0888257
0.0838593
0.0782187
0.0720883
0.109773
0.106462
0.103361
0.100856
0.0981029
0.0947589
0.0909178
0.0867468
0.0824903
0.0786738
0.113757
0.109847
0.106229
0.103675
0.101173
0.0982307
0.0949862
0.0917037
0.0886388
0.0861274
0.117963
0.113834
0.110008
0.1075
0.105283
0.10279
0.100158
0.0976685
0.0955205
0.0938994
0.121779
0.11764
0.113912
0.111617
0.109712
0.107636
0.105533
0.103662
0.102171
0.10115
0.124527
0.120597
0.117246
0.115275
0.113646
0.111893
0.110179
0.108727
0.107639
0.106964
0.125655
0.122336
0.119602
0.117911
0.116426
0.114867
0.113392
0.112169
0.111271
0.110737
0.124816
0.122882
0.12102
0.119453
0.11791
0.116361
0.114933
0.113741
0.11285
0.112301
0.12247
0.122149
0.121114
0.119676
0.118132
0.116603
0.11518
0.11396
0.113019
0.112412
0.0747179
0.0746187
0.0745339
0.0745
0.0745129
0.0745689
0.0746704
0.0748234
0.0750368
0.0753223
0.0756948
0.0761741
0.0767861
0.077565
0.0785557
0.0798163
0.0814188
0.0834499
0.0860081
0.0891967
0.0931123
0.0978266
0.103369
0.109715
0.116758
0.124261
0.131857
0.139028
0.145146
0.14957
0.151613
0.150574
0.145972
0.13759
0.125539
0.0748318
0.0747293
0.0746569
0.0746383
0.0746603
0.0747207
0.0748247
0.0749805
0.075198
0.0754888
0.0758674
0.0763519
0.0769653
0.0777374
0.0787066
0.0799233
0.0814518
0.083371
0.0857738
0.0887629
0.0924443
0.0969155
0.102242
0.10841
0.115303
0.12268
0.130155
0.137234
0.143313
0.147652
0.149523
0.148274
0.143411
0.134701
0.122263
0.0749024
0.0747823
0.07471
0.0746993
0.0747236
0.0747808
0.0748791
0.0750277
0.0752364
0.075516
0.075878
0.0763369
0.0769105
0.0776222
0.0785027
0.0795961
0.0809632
0.082682
0.0848508
0.0875899
0.0910336
0.0952964
0.10043
0.10642
0.113143
0.120343
0.127624
0.134442
0.140151
0.144013
0.14528
0.143272
0.13748
0.127668
0.113995
0.0748128
0.0746767
0.0746009
0.0745905
0.0746092
0.0746567
0.0747433
0.0748781
0.0750698
0.0753264
0.075656
0.0760685
0.076577
0.0771989
0.0779614
0.0789096
0.0801096
0.0816492
0.0836419
0.0862284
0.0895389
0.0936631
0.0986371
0.104443
0.110945
0.117864
0.124765
0.131065
0.136068
0.138993
0.139041
0.13548
0.127769
0.115687
0.0995264
0.0744681
0.0743403
0.0742795
0.0742789
0.0743006
0.0743474
0.0744313
0.074561
0.0747429
0.0749822
0.0752845
0.075657
0.076111
0.0766636
0.077346
0.0782108
0.0793303
0.0807927
0.0827043
0.0852045
0.088427
0.0924624
0.0973446
0.103018
0.109304
0.115876
0.122246
0.127783
0.131733
0.133253
0.131464
0.125524
0.114768
0.0988662
0.0783226
0.0737804
0.0737208
0.0737323
0.0737827
0.0738398
0.0739151
0.0740216
0.0741673
0.0743595
0.0746041
0.0749052
0.0752691
0.0757084
0.0762411
0.076897
0.0777356
0.0788347
0.0802953
0.0822398
0.084801
0.0880953
0.0921951
0.0971028
0.102721
0.108821
0.115024
0.120791
0.125437
0.128144
0.127996
0.124008
0.115184
0.100633
0.0795749
0.0524151
0.0726566
0.0728002
0.0730127
0.0732048
0.073357
0.0735013
0.0736618
0.0738511
0.0740754
0.0743399
0.0746541
0.0750294
0.0754804
0.0760333
0.0767304
0.0776399
0.0788496
0.0804679
0.0826168
0.0854184
0.0889691
0.0933114
0.0984054
0.104103
0.110125
0.116043
0.12128
0.125108
0.126654
0.124907
0.118697
0.106818
0.0880739
0.0612729
0.0267624
0.0708163
0.0715896
0.0722938
0.0727489
0.0730481
0.0732846
0.0735038
0.0737335
0.0739924
0.0742889
0.0746358
0.0750539
0.0755741
0.0762364
0.0770972
0.078233
0.0797402
0.0817284
0.0843123
0.0875923
0.0916313
0.0964262
0.101886
0.107811
0.113882
0.119655
0.124554
0.127869
0.128721
0.126011
0.118224
0.103548
0.0793326
0.0440782
-0.00187536
0.0669577
0.0700308
0.0719009
0.0726514
0.073066
0.0733966
0.0736633
0.0739131
0.0742025
0.0745611
0.0750086
0.0755752
0.0763065
0.0772587
0.0784979
0.0801044
0.0821721
0.0847993
0.0880753
0.0920622
0.0967731
0.102151
0.108056
0.114254
0.120421
0.126144
0.130924
0.134168
0.135139
0.132848
0.125651
0.111032
0.0829902
0.0360843
-0.0457959
0.0600527
0.0682868
0.0720625
0.0728645
0.0732637
0.0737362
0.074137
0.074502
0.0749476
0.0755289
0.0762656
0.0771964
0.0783818
0.0798892
0.0817848
0.0841378
0.0870199
0.0904973
0.0946164
0.0993885
0.104773
0.110667
0.116898
0.123231
0.129373
0.134993
0.13973
0.143198
0.144956
0.144446
0.14068
0.131984
0.112783
0.073668
-0.0462954
0.0643717
0.069486
0.0729954
0.0736888
0.0740481
0.0747227
0.0754413
0.0761578
0.0770025
0.0780535
0.079338
0.0808975
0.0827953
0.0850948
0.0878474
0.0910944
0.0948698
0.099195
0.104069
0.109454
0.11527
0.121384
0.127621
0.133769
0.139599
0.144881
0.149408
0.153006
0.155539
0.156901
0.156951
0.155564
0.151862
0.145148
0.118319
0.0689568
0.071444
0.0744742
0.0758227
0.0766159
0.0776211
0.0787955
0.0800652
0.0815035
0.08319
0.085169
0.0874833
0.0901831
0.0933103
0.0968879
0.100922
0.105406
0.11032
0.115622
0.121241
0.127073
0.13298
0.138803
0.144374
0.149534
0.154152
0.158143
0.161481
0.164209
0.166448
0.168379
0.170268
0.172192
0.17404
0.171787
0.0766901
0.0774371
0.0793335
0.080773
0.0818824
0.0831967
0.0848124
0.0866439
0.0886884
0.0910046
0.0936455
0.0966466
0.100032
0.103809
0.10797
0.112487
0.117323
0.122424
0.127723
0.133132
0.13854
0.143825
0.148863
0.153535
0.157752
0.161457
0.164643
0.167357
0.169702
0.171846
0.174016
0.176481
0.179411
0.182729
0.184381
0.0847276
0.0848915
0.0861483
0.0876141
0.0890819
0.0907782
0.0927968
0.0950854
0.0976226
0.100446
0.103595
0.107086
0.110909
0.115042
0.119447
0.124074
0.128865
0.133748
0.138647
0.143471
0.148129
0.152526
0.156581
0.16023
0.163438
0.1662
0.168544
0.170536
0.172276
0.173908
0.175616
0.177617
0.180052
0.182778
0.184531
0.0930563
0.093202
0.0941905
0.0956179
0.0972785
0.0992132
0.101471
0.104031
0.106874
0.110008
0.11344
0.117154
0.121117
0.125283
0.129597
0.133997
0.138415
0.142782
0.147024
0.151072
0.154859
0.158331
0.16145
0.164196
0.166569
0.168589
0.170293
0.171734
0.172985
0.17415
0.175374
0.176832
0.178635
0.180611
0.181944
0.100709
0.100945
0.101825
0.103188
0.104902
0.106938
0.109303
0.111981
0.114946
0.118178
0.121653
0.125335
0.129174
0.133116
0.137099
0.141063
0.144944
0.148686
0.152233
0.155542
0.158577
0.161317
0.163754
0.165892
0.167747
0.169343
0.170706
0.171867
0.172871
0.173789
0.174734
0.175848
0.177188
0.178559
0.179432
0.106753
0.107056
0.107878
0.109159
0.110825
0.112838
0.115179
0.117821
0.120733
0.123875
0.127208
0.130685
0.134252
0.137853
0.141432
0.144937
0.14832
0.151538
0.154558
0.157355
0.159916
0.162235
0.164316
0.16617
0.167811
0.169254
0.170516
0.17161
0.172564
0.173427
0.174288
0.175241
0.17629
0.177231
0.177716
0.110603
0.110904
0.111649
0.112818
0.114372
0.116276
0.118503
0.121017
0.123782
0.126752
0.129881
0.133121
0.13642
0.139728
0.142999
0.146189
0.149263
0.152189
0.154944
0.157513
0.159887
0.162062
0.164042
0.165834
0.167446
0.168887
0.170168
0.171298
0.1723
0.173214
0.174099
0.175007
0.175898
0.176547
0.176752
0.112132
0.112366
0.113014
0.114066
0.115498
0.117282
0.119387
0.121776
0.12441
0.127245
0.130234
0.13333
0.136488
0.139661
0.142809
0.145892
0.148877
0.151736
0.154446
0.156991
0.15936
0.161547
0.163552
0.165376
0.167027
0.168513
0.169845
0.171037
0.172114
0.173113
0.174074
0.175006
0.175822
0.176309
0.176372
0.112175
0.112333
0.112896
0.113861
0.115212
0.116922
0.118961
0.121292
0.123874
0.126664
0.129616
0.132685
0.135825
0.138991
0.142141
0.145237
0.148243
0.15113
0.153875
0.15646
0.158872
0.161104
0.163154
0.165024
0.166719
0.168249
0.169624
0.170864
0.172
0.173069
0.174102
0.175085
0.175905
0.176356
0.176385
0.110299
0.092686
0.0737323
0.0544917
0.0358476
0.0184271
0.00260065
-0.0115388
-0.024008
-0.0347935
0.106611
0.0886345
0.0694619
0.0501981
0.0316943
0.0145042
-0.00105978
-0.0148099
-0.0266966
-0.0368288
0.0970768
0.0780151
0.0582322
0.0389611
0.0209381
0.00454999
-0.0099772
-0.0225725
-0.0333014
-0.0423138
0.0801401
0.0590911
0.0383844
0.0193437
0.00233803
-0.0125468
-0.0252266
-0.0357804
-0.0444721
-0.0516002
0.0545284
0.0303492
0.00889388
-0.00901338
-0.0240457
-0.0365054
-0.04637
-0.0539091
-0.0596565
-0.0640973
0.0207374
-0.00884094
-0.0305195
-0.0456968
-0.0573424
-0.0661034
-0.0719308
-0.0754122
-0.0773867
-0.0784657
-0.0172443
-0.0560005
-0.077637
-0.0888356
-0.0958634
-0.0993543
-0.0995546
-0.0977847
-0.0952242
-0.0924797
-0.0653528
-0.111629
-0.128019
-0.132281
-0.132492
-0.128802
-0.122381
-0.115174
-0.108372
-0.102304
-0.156781
-0.183157
-0.173717
-0.163214
-0.152999
-0.141817
-0.130965
-0.121344
-0.112991
-0.10568
-0.26556
-0.232618
-0.19299
-0.175008
-0.160117
-0.145444
-0.132525
-0.12179
-0.112857
-0.105216
-0.0439316
-0.0515269
-0.0577192
-0.0626553
-0.0664792
-0.0693277
-0.0713277
-0.0725941
-0.0732285
-0.0733193
-0.0729416
-0.0721588
-0.0710244
-0.0695828
-0.0678716
-0.0659231
-0.0637654
-0.061424
-0.0589226
-0.056284
-0.053531
-0.0506863
-0.047773
-0.0448145
-0.0418343
-0.0388557
-0.0359016
-0.0329936
-0.0301519
-0.0273947
-0.0247378
-0.0221946
-0.0197753
-0.0174874
-0.0153357
-0.0453497
-0.0524088
-0.0581599
-0.0627524
-0.0663233
-0.0689957
-0.0708804
-0.0720771
-0.0726738
-0.0727478
-0.0723655
-0.0715845
-0.070454
-0.0690166
-0.0673087
-0.0653622
-0.0632051
-0.0608627
-0.058359
-0.0557172
-0.0529602
-0.0501116
-0.0471952
-0.044235
-0.0412555
-0.0382806
-0.0353334
-0.0324362
-0.0296092
-0.0268705
-0.0242359
-0.021718
-0.0193269
-0.0170693
-0.0149493
-0.0497933
-0.0559248
-0.0608861
-0.0648369
-0.0679089
-0.0702082
-0.0718242
-0.0728358
-0.0733113
-0.0733092
-0.0728803
-0.0720696
-0.0709172
-0.0694593
-0.0677286
-0.0657547
-0.0635644
-0.0611827
-0.0586334
-0.0559396
-0.0531248
-0.0502133
-0.04723
-0.0442008
-0.0411518
-0.0381092
-0.0350983
-0.0321433
-0.0292663
-0.0264869
-0.0238219
-0.0212845
-0.0188842
-0.0166272
-0.014516
-0.0574059
-0.0620992
-0.065872
-0.0688774
-0.0712182
-0.0729651
-0.074178
-0.0749105
-0.075207
-0.0751033
-0.0746304
-0.0738165
-0.0726878
-0.0712684
-0.0695809
-0.0676465
-0.0654857
-0.063118
-0.0605629
-0.0578405
-0.0549724
-0.0519821
-0.0488951
-0.0457386
-0.0425414
-0.0393333
-0.0361441
-0.0330036
-0.0299398
-0.0269785
-0.0241423
-0.0214495
-0.0189137
-0.0165436
-0.0143431
-0.0675557
-0.0702827
-0.072489
-0.0742917
-0.0757195
-0.0767808
-0.0774986
-0.0778986
-0.0779938
-0.077789
-0.0772899
-0.0765068
-0.0754527
-0.0741404
-0.0725823
-0.0707894
-0.0687711
-0.0665364
-0.0640947
-0.0614571
-0.0586382
-0.0556559
-0.0525318
-0.0492909
-0.045961
-0.0425728
-0.0391593
-0.035755
-0.0323955
-0.029116
-0.0259502
-0.0229279
-0.0200745
-0.017409
-0.0149436
-0.079029
-0.0793989
-0.0798271
-0.0803439
-0.080822
-0.0811651
-0.0813587
-0.08141
-0.0813052
-0.0810157
-0.0805175
-0.0797993
-0.0788597
-0.0777034
-0.0763369
-0.0747646
-0.0729867
-0.0710001
-0.068801
-0.0663875
-0.0637622
-0.060933
-0.0579127
-0.0547186
-0.0513722
-0.0478991
-0.0443289
-0.0406957
-0.0370377
-0.0333966
-0.0298163
-0.0263407
-0.0230115
-0.0198657
-0.0169333
-0.0898533
-0.087758
-0.0864889
-0.0858848
-0.0855784
-0.0853388
-0.0851036
-0.0848621
-0.0845882
-0.0842393
-0.0837731
-0.0831566
-0.082371
-0.0814114
-0.0802807
-0.0789811
-0.0775077
-0.0758489
-0.073989
-0.0719136
-0.0696124
-0.0670811
-0.064321
-0.0613384
-0.0581439
-0.0547526
-0.0511844
-0.0474649
-0.0436268
-0.03971
-0.0357611
-0.0318325
-0.0279797
-0.0242583
-0.0207207
-0.0969033
-0.0928776
-0.0905953
-0.089433
-0.088749
-0.0882599
-0.0878694
-0.0875243
-0.0871879
-0.0868337
-0.08643
-0.0859393
-0.0853314
-0.084593
-0.0837234
-0.0827235
-0.081586
-0.0802944
-0.078826
-0.0771576
-0.0752689
-0.0731447
-0.0707747
-0.0681531
-0.065278
-0.062151
-0.0587781
-0.055171
-0.0513492
-0.0473418
-0.0431883
-0.0389391
-0.034654
-0.0304003
-0.0262483
-0.0988742
-0.0939481
-0.0916056
-0.0905601
-0.0899268
-0.0894964
-0.089201
-0.0889451
-0.0886742
-0.0883825
-0.0880654
-0.0876989
-0.0872562
-0.0867236
-0.0860998
-0.0853837
-0.0845665
-0.0836297
-0.0825485
-0.0812965
-0.0798482
-0.0781808
-0.076275
-0.0741142
-0.0716843
-0.0689734
-0.065972
-0.0626755
-0.0590855
-0.0552136
-0.0510833
-0.0467325
-0.042214
-0.0375948
-0.0329535
-0.0981621
-0.0936558
-0.0916658
-0.0908452
-0.0903377
-0.0899896
-0.0897695
-0.0895863
-0.0893783
-0.0891419
-0.0888828
-0.0885907
-0.08825
-0.0878531
-0.0873996
-0.0868877
-0.0863078
-0.0856425
-0.0848688
-0.0839618
-0.0828957
-0.0816452
-0.0801861
-0.0784948
-0.0765479
-0.0743222
-0.071795
-0.0689452
-0.065756
-0.0622179
-0.0583325
-0.0541169
-0.0496061
-0.0448552
-0.0399383
-0.0957854
-0.0930148
-0.091525
-0.0909244
-0.0905647
-0.0902943
-0.0900916
-0.0899098
-0.0897136
-0.0894949
-0.0892544
-0.0889882
-0.0886904
-0.0883581
-0.0879917
-0.0875885
-0.0871403
-0.0866325
-0.086047
-0.0853624
-0.0845566
-0.0836054
-0.0824852
-0.0811708
-0.0796359
-0.0778515
-0.0757866
-0.0734081
-0.0706834
-0.0675827
-0.0640848
-0.0601812
-0.0558823
-0.0512217
-0.0462581
-0.0929183
-0.0919491
-0.0912401
-0.0908445
-0.0905878
-0.0903864
-0.0902105
-0.0900358
-0.0898459
-0.0896335
-0.0893963
-0.0891333
-0.0888459
-0.0885365
-0.0882046
-0.0878471
-0.0874567
-0.0870217
-0.0865277
-0.0859573
-0.085291
-0.0845087
-0.0835896
-0.0825119
-0.0812518
-0.0797818
-0.0780697
-0.0760779
-0.073764
-0.0710838
-0.067996
-0.0644685
-0.0604855
-0.0560548
-0.0512128
-0.0911853
-0.0909631
-0.0907143
-0.0905148
-0.0903634
-0.0902303
-0.0900955
-0.0899476
-0.0897786
-0.0895837
-0.0893613
-0.0891115
-0.0888364
-0.0885389
-0.088219
-0.0878746
-0.0875011
-0.0870908
-0.0866307
-0.0861052
-0.0854968
-0.0847888
-0.0839628
-0.0830013
-0.0818853
-0.0805924
-0.0790943
-0.0773552
-0.0753302
-0.0729675
-0.0702134
-0.0670172
-0.0633414
-0.0591697
-0.054516
-0.0901957
-0.0902068
-0.0901557
-0.0900787
-0.0900053
-0.0899287
-0.0898374
-0.0897238
-0.0895818
-0.0894086
-0.0892036
-0.0889679
-0.0887046
-0.0884164
-0.0881043
-0.0877666
-0.0873987
-0.086993
-0.0865383
-0.0860193
-0.0854213
-0.0847284
-0.0839251
-0.0829985
-0.0819347
-0.0807147
-0.0793156
-0.0777063
-0.075843
-0.0736725
-0.0711343
-0.0681667
-0.0647159
-0.0607485
-0.0562593
-0.0895752
-0.0896636
-0.0896945
-0.0896775
-0.0896444
-0.0895999
-0.0895352
-0.0894441
-0.0893235
-0.08917
-0.0889822
-0.0887608
-0.0885078
-0.0882251
-0.0879137
-0.0875732
-0.0872009
-0.0867896
-0.0863279
-0.0858017
-0.0851957
-0.0844935
-0.0836812
-0.082748
-0.0816822
-0.0804684
-0.0790892
-0.0775176
-0.0757125
-0.0736225
-0.0711852
-0.0683325
-0.0650003
-0.0611441
-0.056746
-0.0892124
-0.0893227
-0.0893813
-0.0893855
-0.0893685
-0.0893361
-0.0892821
-0.0892021
-0.0890923
-0.0889494
-0.0887718
-0.0885589
-0.0883108
-0.0880285
-0.0877123
-0.0873616
-0.0869741
-0.0865448
-0.0860643
-0.08552
-0.0848962
-0.0841769
-0.0833472
-0.0823908
-0.0812929
-0.0800436
-0.0786313
-0.0770309
-0.0752052
-0.073108
-0.0706807
-0.0678495
-0.0645432
-0.0607111
-0.0563274
-0.0890481
-0.0891537
-0.0892161
-0.0892264
-0.0892135
-0.0891821
-0.0891292
-0.089051
-0.0889437
-0.0888045
-0.0886312
-0.0884219
-0.0881758
-0.0878918
-0.0875688
-0.087205
-0.0867974
-0.0863419
-0.0858311
-0.0852549
-0.0845994
-0.0838499
-0.0829913
-0.0820064
-0.0808764
-0.0795838
-0.0781119
-0.0764412
-0.0745434
-0.0723761
-0.0698787
-0.0669809
-0.063614
-0.0597197
-0.0552771
-0.0890263
-0.0891157
-0.0891742
-0.0891879
-0.089176
-0.0891435
-0.0890886
-0.0890077
-0.0888983
-0.0887581
-0.0885846
-0.0883757
-0.0881296
-0.0878439
-0.0875163
-0.0871434
-0.0867213
-0.0862449
-0.0857078
-0.0851009
-0.0844132
-0.0836308
-0.0827387
-0.0817184
-0.0805494
-0.0792079
-0.0776698
-0.0759096
-0.0738997
-0.0716047
-0.0689795
-0.0659661
-0.0624986
-0.0585179
-0.0539936
-0.0890894
-0.089164
-0.0892213
-0.0892422
-0.0892348
-0.0892026
-0.0891457
-0.0890626
-0.0889513
-0.0888094
-0.0886348
-0.0884256
-0.0881794
-0.0878936
-0.0875649
-0.0871891
-0.0867613
-0.0862756
-0.0857246
-0.0851001
-0.0843913
-0.0835859
-0.0826689
-0.0816223
-0.0804242
-0.0790488
-0.0774657
-0.0756417
-0.073541
-0.0711253
-0.0683526
-0.0651769
-0.0615489
-0.0574222
-0.0527651
-0.0891673
-0.0892384
-0.0893041
-0.089336
-0.0893349
-0.0893048
-0.0892477
-0.0891636
-0.0890512
-0.088909
-0.088735
-0.0885274
-0.0882837
-0.0880013
-0.0876768
-0.0873057
-0.0868823
-0.0863998
-0.08585
-0.0852234
-0.084509
-0.0836943
-0.082765
-0.0817041
-0.0804913
-0.0791017
-0.077505
-0.0756649
-0.0735389
-0.0710795
-0.0682356
-0.0649564
-0.0611954
-0.0569181
-0.0521095
-0.0133221
-0.0114461
-0.00970524
-0.0080956
-0.00661317
-0.00525356
-0.00401364
-0.00290292
-0.00192883
-0.000854178
-0.012968
-0.0111243
-0.00941499
-0.00783537
-0.00637947
-0.00503979
-0.00381698
-0.00272763
-0.00179047
-0.000831838
-0.0125504
-0.0107281
-0.00904387
-0.00749088
-0.00606092
-0.00474603
-0.00354773
-0.00249379
-0.00161793
-0.000816154
-0.0123116
-0.0104445
-0.00873374
-0.00716954
-0.00574183
-0.00444196
-0.00327093
-0.00225816
-0.00145161
-0.000870352
-0.0126835
-0.010627
-0.00876746
-0.00709455
-0.0055961
-0.00426356
-0.00308917
-0.00210889
-0.00133506
-0.00109726
-0.0142357
-0.0117851
-0.00958462
-0.00763037
-0.00591275
-0.00442437
-0.00314853
-0.00213691
-0.0012503
-0.00151377
-0.0174124
-0.0143696
-0.0116172
-0.00916913
-0.00702683
-0.00519439
-0.00363645
-0.00245798
-0.00124287
-0.00217537
-0.0222679
-0.018523
-0.0150677
-0.0119442
-0.00917524
-0.00678714
-0.0047222
-0.00318022
-0.00136453
-0.00301102
-0.0283761
-0.0239503
-0.0197591
-0.0158765
-0.0123529
-0.00924504
-0.00648131
-0.00437031
-0.00172109
-0.00383079
-0.0349462
-0.0299807
-0.0251465
-0.0205464
-0.0162584
-0.0123763
-0.00882089
-0.00600248
-0.00244119
-0.00439649
-0.0410748
-0.0357757
-0.0304778
-0.0253043
-0.0203598
-0.0157669
-0.0114682
-0.0079066
-0.00356561
-0.0045126
-0.0460266
-0.0405921
-0.0350281
-0.02947
-0.0240432
-0.018896
-0.014009
-0.00978511
-0.00497304
-0.00410751
-0.0494275
-0.0439866
-0.038307
-0.0325294
-0.0267976
-0.0212755
-0.0160078
-0.0112835
-0.00638058
-0.00325719
-0.0512784
-0.0458732
-0.04015
-0.0342513
-0.0283383
-0.0225886
-0.0171246
-0.0120904
-0.00743446
-0.00214079
-0.0518235
-0.0464312
-0.0406683
-0.0346783
-0.02864
-0.0227467
-0.0171996
-0.0120287
-0.00782137
-0.000960803
-0.0514004
-0.045974
-0.0401394
-0.0340439
-0.0278819
-0.0218668
-0.0162712
-0.0110789
-0.00736534
0.000135915
-0.0502951
-0.0448022
-0.0388771
-0.0326657
-0.0263694
-0.0202257
-0.0145509
-0.0093857
-0.00605348
0.0011031
-0.048918
-0.0433126
-0.0372579
-0.0309073
-0.0244728
-0.0181931
-0.012397
-0.00723997
-0.00403969
0.00196902
-0.047569
-0.041861
-0.0357127
-0.0292586
-0.0226927
-0.0162642
-0.0102922
-0.00505912
-0.001589
0.00279215
-0.0467772
-0.0409567
-0.0347232
-0.0282035
-0.0215749
-0.0150782
-0.00902769
-0.00377612
0.000219047
0.00317323
)
;

boundaryField
{
    inlet
    {
        type            zeroGradient;
    }
    outlet
    {
        type            fixedValue;
        value           uniform 0;
    }
    upperWall
    {
        type            zeroGradient;
    }
    lowerWall
    {
        type            zeroGradient;
    }
    frontAndBack
    {
        type            empty;
    }
}


// ************************************************************************* //
