/*--------------------------------*- C++ -*----------------------------------*\
| =========                 |                                                 |
| \\      /  F ield         | OpenFOAM: The Open Source CFD Toolbox           |
|  \\    /   O peration     | Version:  2406                                  |
|   \\  /    A nd           | Website:  www.openfoam.com                      |
|    \\/     M anipulation  |                                                 |
\*---------------------------------------------------------------------------*/
FoamFile
{
    version     2.0;
    format      ascii;
    arch        "LSB;label=32;scalar=64";
    class       volVectorField;
    location    "53";
    object      U;
}
// * * * * * * * * * * * * * * * * * * * * * * * * * * * * * * * * * * * * * //

dimensions      [0 1 -1 0 0 0 0];

internalField   nonuniform List<vector> 
1800
(
(0.192186 -0.00291726 0)
(0.19766 -0.00474872 0)
(0.204237 -0.00445031 0)
(0.211296 -0.00391667 0)
(0.218586 -0.00368134 0)
(0.226338 -0.0037334 0)
(0.234966 -0.00408899 0)
(0.244866 -0.00488708 0)
(0.257204 -0.00618826 0)
(0.269161 -0.0171836 0)
(0.508131 -0.00332203 0)
(0.508041 -0.00740921 0)
(0.509972 -0.00931154 0)
(0.513416 -0.0104882 0)
(0.518504 -0.0116891 0)
(0.525297 -0.0131513 0)
(0.533823 -0.0150898 0)
(0.544195 -0.0178973 0)
(0.556735 -0.0220232 0)
(0.570515 -0.0292104 0)
(0.748659 -0.00262606 0)
(0.748755 -0.00678967 0)
(0.749652 -0.00985871 0)
(0.751006 -0.0125503 0)
(0.75343 -0.0153642 0)
(0.75724 -0.0185173 0)
(0.762415 -0.0222262 0)
(0.768858 -0.0268436 0)
(0.77639 -0.0328079 0)
(0.784391 -0.04091 0)
(0.908892 -0.00229145 0)
(0.908986 -0.00651327 0)
(0.909382 -0.0102751 0)
(0.909601 -0.0138705 0)
(0.910262 -0.0176196 0)
(0.911718 -0.0217277 0)
(0.913902 -0.0263854 0)
(0.91663 -0.0318319 0)
(0.919675 -0.0382985 0)
(0.922665 -0.0459401 0)
(0.988947 -0.00203373 0)
(0.988805 -0.00599277 0)
(0.988595 -0.00984456 0)
(0.987735 -0.0137341 0)
(0.986789 -0.0178345 0)
(0.986104 -0.0222899 0)
(0.985588 -0.0272373 0)
(0.985026 -0.0328156 0)
(0.984201 -0.0391255 0)
(0.982845 -0.0461785 0)
(0.988901 -0.00164496 0)
(0.988412 -0.0049816 0)
(0.987483 -0.00849594 0)
(0.985503 -0.0122448 0)
(0.983021 -0.0162491 0)
(0.980357 -0.0205684 0)
(0.977391 -0.0252866 0)
(0.973891 -0.0304737 0)
(0.969652 -0.0361596 0)
(0.964462 -0.0423107 0)
(0.908757 -0.0010171 0)
(0.907819 -0.00337104 0)
(0.906094 -0.00623887 0)
(0.903006 -0.00948984 0)
(0.899125 -0.0129851 0)
(0.894719 -0.0167269 0)
(0.889625 -0.0207636 0)
(0.883605 -0.0251151 0)
(0.876465 -0.0297657 0)
(0.868027 -0.0346635 0)
(0.748441 2.70296e-05 0)
(0.746867 -0.000977344 0)
(0.74436 -0.00307203 0)
(0.74041 -0.00564435 0)
(0.735549 -0.00835518 0)
(0.729955 -0.0111943 0)
(0.72343 -0.0142005 0)
(0.715739 -0.0173635 0)
(0.706702 -0.0206467 0)
(0.69616 -0.024 0)
(0.507868 0.00163851 0)
(0.505654 0.00245003 0)
(0.503251 0.00120202 0)
(0.499987 -0.000721399 0)
(0.495955 -0.00270864 0)
(0.491075 -0.00469636 0)
(0.4851 -0.00668415 0)
(0.477816 -0.00863326 0)
(0.469079 -0.0105074 0)
(0.458793 -0.0122814 0)
(0.191935 0.00213801 0)
(0.19545 0.00284549 0)
(0.198048 0.00174393 0)
(0.199171 0.00055555 0)
(0.198681 -0.000321711 0)
(0.196755 -0.000994133 0)
(0.193544 -0.00153966 0)
(0.189135 -0.00197368 0)
(0.183617 -0.00230864 0)
(0.177087 -0.00256332 0)
(-5.7615e-05 3.8837e-05 0)
(-0.00106778 0.000325477 0)
(-0.00295567 0.000513557 0)
(-0.00531749 0.000587691 0)
(-0.00785336 0.000621466 0)
(-0.0104778 0.000650682 0)
(-0.0131966 0.000687898 0)
(-0.016044 0.000736705 0)
(-0.019065 0.000799081 0)
(-0.0223116 0.000878054 0)
(-0.0258433 0.000978356 0)
(-0.0297256 0.00110637 0)
(-0.0340278 0.00126942 0)
(-0.0388156 0.00147457 0)
(-0.0441394 0.00172629 0)
(-0.0500151 0.00202236 0)
(-0.0563999 0.00235103 0)
(-0.0631615 0.00268712 0)
(-0.0700456 0.0029867 0)
(-0.0766477 0.00318196 0)
(-0.0824021 0.00318104 0)
(-0.0865979 0.00288131 0)
(-0.088404 0.00220771 0)
(-0.0868634 0.00115218 0)
(-0.0812668 -0.000258487 0)
(-0.0709715 -0.00196781 0)
(-0.0555356 -0.00390587 0)
(-0.034793 -0.00602572 0)
(-0.00891531 -0.00822452 0)
(0.0217438 -0.0101864 0)
(0.0567265 -0.0116977 0)
(0.0951837 -0.0127238 0)
(0.135862 -0.0131639 0)
(0.177302 -0.0129029 0)
(0.217864 -0.0118677 0)
(-0.000517652 0.00116975 0)
(-0.00367816 0.00304749 0)
(-0.008451 0.00420535 0)
(-0.0140466 0.00473384 0)
(-0.0199258 0.00497662 0)
(-0.0259324 0.00515056 0)
(-0.0320586 0.00535374 0)
(-0.0383486 0.00562551 0)
(-0.0448664 0.00598414 0)
(-0.0516826 0.00644268 0)
(-0.0588654 0.00701115 0)
(-0.0664702 0.00769371 0)
(-0.0745223 0.00848186 0)
(-0.082995 0.00934648 0)
(-0.0917787 0.0102262 0)
(-0.100648 0.0110179 0)
(-0.109233 0.0115694 0)
(-0.116996 0.011678 0)
(-0.123236 0.0110979 0)
(-0.127108 0.00956883 0)
(-0.127683 0.0068647 0)
(-0.124022 0.00285061 0)
(-0.115345 -0.00248095 0)
(-0.101204 -0.00900662 0)
(-0.0810692 -0.0164796 0)
(-0.0547018 -0.0246278 0)
(-0.0221089 -0.0331545 0)
(0.0164599 -0.041708 0)
(0.0606632 -0.0498626 0)
(0.109996 -0.0571272 0)
(0.163647 -0.0630522 0)
(0.220598 -0.067296 0)
(0.279609 -0.0695058 0)
(0.33922 -0.0693493 0)
(0.397769 -0.0666008 0)
(-0.00102245 0.00390539 0)
(-0.00634496 0.00835249 0)
(-0.0136006 0.0107583 0)
(-0.0216496 0.0117936 0)
(-0.0298122 0.0122189 0)
(-0.0379125 0.0124788 0)
(-0.0459246 0.0127739 0)
(-0.0538669 0.0131824 0)
(-0.061767 0.0137328 0)
(-0.0696411 0.0144317 0)
(-0.0774771 0.0152666 0)
(-0.085216 0.0161989 0)
(-0.0927316 0.0171521 0)
(-0.0998091 0.0179976 0)
(-0.106124 0.0185446 0)
(-0.111227 0.0185384 0)
(-0.11455 0.017669 0)
(-0.11543 0.015593 0)
(-0.113147 0.0119742 0)
(-0.106965 0.00654901 0)
(-0.0961921 -0.0007821 0)
(-0.0805205 -0.00993973 0)
(-0.0596588 -0.0207554 0)
(-0.0333094 -0.033026 0)
(-0.00136454 -0.0464307 0)
(0.0360823 -0.0605321 0)
(0.078843 -0.0748351 0)
(0.126631 -0.0887814 0)
(0.178976 -0.101753 0)
(0.235275 -0.113179 0)
(0.294788 -0.12247 0)
(0.356615 -0.129021 0)
(0.419682 -0.13224 0)
(0.482696 -0.131571 0)
(0.544122 -0.126625 0)
(-0.00148406 0.00814516 0)
(-0.00861539 0.0158703 0)
(-0.017614 0.0194728 0)
(-0.0270167 0.020755 0)
(-0.0360678 0.0210576 0)
(-0.0446088 0.0210766 0)
(-0.0526045 0.0211083 0)
(-0.0600385 0.0212544 0)
(-0.0668816 0.0215316 0)
(-0.0730711 0.0219118 0)
(-0.0784941 0.0223295 0)
(-0.0829738 0.022674 0)
(-0.0862606 0.0227788 0)
(-0.0880277 0.022412 0)
(-0.0878708 0.0212789 0)
(-0.0853173 0.0190372 0)
(-0.0798573 0.0153269 0)
(-0.0709813 0.00981259 0)
(-0.0582159 0.00223805 0)
(-0.0412288 -0.00753586 0)
(-0.0198544 -0.0194912 0)
(0.00619434 -0.0335122 0)
(0.0369708 -0.0494038 0)
(0.0724672 -0.0668381 0)
(0.112617 -0.0853703 0)
(0.157224 -0.104442 0)
(0.20597 -0.123406 0)
(0.258441 -0.141594 0)
(0.314124 -0.158309 0)
(0.372438 -0.172844 0)
(0.432753 -0.184479 0)
(0.494345 -0.19245 0)
(0.556395 -0.195983 0)
(0.617837 -0.194209 0)
(0.677253 -0.186438 0)
(-0.00190691 0.0135947 0)
(-0.010312 0.024821 0)
(-0.0199422 0.0291535 0)
(-0.029187 0.0300903 0)
(-0.0373654 0.0296954 0)
(-0.0444059 0.0289124 0)
(-0.0502993 0.0281036 0)
(-0.0550206 0.0273662 0)
(-0.0585082 0.0266814 0)
(-0.0606496 0.0259694 0)
(-0.0612757 0.0251022 0)
(-0.0601608 0.0239031 0)
(-0.0570266 0.0221434 0)
(-0.0515543 0.0195433 0)
(-0.0433985 0.0157815 0)
(-0.0321951 0.0105101 0)
(-0.0175993 0.00340076 0)
(0.000694884 -0.00582481 0)
(0.0228558 -0.0173596 0)
(0.0490069 -0.0312696 0)
(0.0792408 -0.0475209 0)
(0.113598 -0.0659656 0)
(0.151987 -0.0863094 0)
(0.194203 -0.108089 0)
(0.239928 -0.130721 0)
(0.288734 -0.153533 0)
(0.340116 -0.175792 0)
(0.393524 -0.196756 0)
(0.448408 -0.215688 0)
(0.504264 -0.231874 0)
(0.560678 -0.244587 0)
(0.61726 -0.253039 0)
(0.673748 -0.256368 0)
(0.729463 -0.253282 0)
(0.783333 -0.242623 0)
(-0.0023315 0.0199921 0)
(-0.0113845 0.0342278 0)
(-0.0200913 0.0382791 0)
(-0.0271657 0.0379707 0)
(-0.0323263 0.0361379 0)
(-0.0357156 0.0338989 0)
(-0.0374036 0.0316252 0)
(-0.037393 0.0293776 0)
(-0.0356249 0.0270874 0)
(-0.0319798 0.0246205 0)
(-0.0262849 0.0217928 0)
(-0.0183253 0.0183864 0)
(-0.0078437 0.0141468 0)
(0.00542979 0.00878346 0)
(0.0217267 0.00196834 0)
(0.041324 -0.00662686 0)
(0.0644348 -0.0172869 0)
(0.0912046 -0.0302396 0)
(0.121691 -0.0456423 0)
(0.155866 -0.0635085 0)
(0.193595 -0.083697 0)
(0.234628 -0.105921 0)
(0.278575 -0.129743 0)
(0.32492 -0.154581 0)
(0.373047 -0.179751 0)
(0.422287 -0.204512 0)
(0.471966 -0.228111 0)
(0.521474 -0.249838 0)
(0.570321 -0.269046 0)
(0.618213 -0.285157 0)
(0.665097 -0.297566 0)
(0.711128 -0.305627 0)
(0.756965 -0.308421 0)
(0.802471 -0.304195 0)
(0.8482 -0.291614 0)
(-0.00280845 0.0273874 0)
(-0.0116085 0.0428403 0)
(-0.0169768 0.0447488 0)
(-0.019027 0.0420668 0)
(-0.018469 0.0381081 0)
(-0.0157813 0.0339003 0)
(-0.0111108 0.0297235 0)
(-0.00448023 0.0255583 0)
(0.00415769 0.021262 0)
(0.0149243 0.0166432 0)
(0.0280011 0.0114835 0)
(0.0435638 0.00553134 0)
(0.0618685 -0.00150242 0)
(0.0831727 -0.00992284 0)
(0.107706 -0.0200413 0)
(0.135587 -0.0321311 0)
(0.166861 -0.0464101 0)
(0.201471 -0.0630118 0)
(0.23924 -0.081958 0)
(0.279847 -0.103132 0)
(0.322834 -0.126264 0)
(0.367606 -0.150928 0)
(0.413453 -0.176562 0)
(0.459589 -0.202495 0)
(0.505191 -0.228 0)
(0.549468 -0.252346 0)
(0.591718 -0.274867 0)
(0.631405 -0.295011 0)
(0.668218 -0.312367 0)
(0.702217 -0.326677 0)
(0.73379 -0.337666 0)
(0.763975 -0.345077 0)
(0.79434 -0.347801 0)
(0.825847 -0.343581 0)
(0.863474 -0.331457 0)
(-0.00331667 0.0362598 0)
(-0.00923804 0.0485567 0)
(-0.00662805 0.045292 0)
(0.000803638 0.039267 0)
(0.0106218 0.0329379 0)
(0.022187 0.0266285 0)
(0.0354823 0.0204397 0)
(0.0505761 0.0142649 0)
(0.0675552 0.00785801 0)
(0.0866201 0.000937166 0)
(0.108033 -0.00676104 0)
(0.13204 -0.0154999 0)
(0.158806 -0.0255431 0)
(0.188428 -0.0371433 0)
(0.220931 -0.0505263 0)
(0.25624 -0.0658642 0)
(0.294154 -0.0832542 0)
(0.33434 -0.102695 0)
(0.376325 -0.124063 0)
(0.419495 -0.147099 0)
(0.46312 -0.171402 0)
(0.506377 -0.196442 0)
(0.54839 -0.221588 0)
(0.588273 -0.246151 0)
(0.625183 -0.26944 0)
(0.658368 -0.290823 0)
(0.687227 -0.3098 0)
(0.711377 -0.326063 0)
(0.730714 -0.33956 0)
(0.745649 -0.350538 0)
(0.75698 -0.359462 0)
(0.767171 -0.367055 0)
(0.778101 -0.372963 0)
(0.795937 -0.375255 0)
(0.828535 -0.375176 0)
(0.00023505 0.0409488 0)
(0.00604421 0.044641 0)
(0.0253392 0.0344155 0)
(0.0482071 0.0254007 0)
(0.0709806 0.017461 0)
(0.0937994 0.00961011 0)
(0.11741 0.00169441 0)
(0.142211 -0.00637158 0)
(0.168482 -0.0148422 0)
(0.196461 -0.0240089 0)
(0.226307 -0.0341224 0)
(0.258121 -0.0453956 0)
(0.291924 -0.0580188 0)
(0.327649 -0.0721551 0)
(0.365127 -0.0879229 0)
(0.404069 -0.105375 0)
(0.444059 -0.124476 0)
(0.484556 -0.145092 0)
(0.524901 -0.166973 0)
(0.564344 -0.18975 0)
(0.602061 -0.212943 0)
(0.637198 -0.23598 0)
(0.668904 -0.258232 0)
(0.696374 -0.279055 0)
(0.71888 -0.297847 0)
(0.735816 -0.314112 0)
(0.746731 -0.32753 0)
(0.751378 -0.338041 0)
(0.749755 -0.345952 0)
(0.742358 -0.35206 0)
(0.730014 -0.357877 0)
(0.716246 -0.365849 0)
(0.702362 -0.379481 0)
(0.709317 -0.401947 0)
(0.728463 -0.448742 0)
(0.0522249 0.0127734 0)
(0.0844752 0.0111555 0)
(0.121876 0.00236233 0)
(0.159843 -0.00574775 0)
(0.194309 -0.012971 0)
(0.226571 -0.0204117 0)
(0.258245 -0.0284601 0)
(0.290045 -0.0371739 0)
(0.322271 -0.0466537 0)
(0.355146 -0.0570516 0)
(0.388814 -0.0685089 0)
(0.4233 -0.0811416 0)
(0.458507 -0.0950392 0)
(0.494236 -0.110256 0)
(0.530181 -0.126795 0)
(0.56593 -0.14459 0)
(0.600969 -0.163493 0)
(0.634685 -0.183265 0)
(0.666395 -0.203571 0)
(0.695359 -0.223983 0)
(0.720819 -0.243995 0)
(0.742019 -0.263041 0)
(0.758248 -0.280536 0)
(0.76886 -0.295909 0)
(0.77331 -0.308664 0)
(0.771174 -0.318435 0)
(0.762169 -0.325056 0)
(0.746169 -0.32865 0)
(0.723193 -0.329749 0)
(0.693494 -0.329463 0)
(0.657281 -0.329926 0)
(0.616476 -0.334773 0)
(0.570009 -0.351862 0)
(0.547707 -0.394373 0)
(0.495795 -0.499172 0)
(0.29948 -0.0353905 0)
(0.320513 -0.0391186 0)
(0.345144 -0.0409113 0)
(0.373904 -0.0441584 0)
(0.403061 -0.0488397 0)
(0.431731 -0.0548072 0)
(0.460385 -0.0620152 0)
(0.48926 -0.0703882 0)
(0.518323 -0.0798638 0)
(0.547515 -0.0904237 0)
(0.57676 -0.102074 0)
(0.605912 -0.114819 0)
(0.634734 -0.128643 0)
(0.662909 -0.143493 0)
(0.690044 -0.15927 0)
(0.715667 -0.175814 0)
(0.73924 -0.192894 0)
(0.760165 -0.210203 0)
(0.777804 -0.227363 0)
(0.791504 -0.243924 0)
(0.800619 -0.259388 0)
(0.804541 -0.273228 0)
(0.802728 -0.28492 0)
(0.794731 -0.293988 0)
(0.780221 -0.300048 0)
(0.759006 -0.302864 0)
(0.731039 -0.302406 0)
(0.6964 -0.298913 0)
(0.655233 -0.292983 0)
(0.607648 -0.285684 0)
(0.553312 -0.278864 0)
(0.491375 -0.275459 0)
(0.416793 -0.282171 0)
(0.328164 -0.312743 0)
(0.12755 -0.357528 0)
(0.583134 -0.0404255 0)
(0.593195 -0.049094 0)
(0.604954 -0.0558019 0)
(0.619945 -0.0624973 0)
(0.636855 -0.0696559 0)
(0.654686 -0.077289 0)
(0.673179 -0.085533 0)
(0.692157 -0.0945312 0)
(0.711344 -0.104342 0)
(0.730455 -0.114975 0)
(0.749211 -0.126424 0)
(0.76731 -0.138658 0)
(0.7844 -0.151617 0)
(0.800082 -0.165192 0)
(0.813908 -0.179225 0)
(0.825389 -0.193501 0)
(0.833996 -0.207745 0)
(0.839174 -0.221622 0)
(0.840361 -0.23474 0)
(0.83701 -0.246663 0)
(0.828614 -0.256931 0)
(0.814742 -0.26508 0)
(0.795063 -0.270685 0)
(0.769379 -0.27339 0)
(0.737653 -0.272957 0)
(0.700016 -0.269307 0)
(0.656766 -0.262553 0)
(0.608324 -0.25303 0)
(0.55514 -0.241317 0)
(0.497541 -0.228244 0)
(0.43538 -0.214934 0)
(0.367696 -0.202687 0)
(0.291245 -0.193507 0)
(0.201949 -0.188288 0)
(0.068218 -0.177577 0)
(0.791671 -0.050665 0)
(0.797845 -0.0595484 0)
(0.804156 -0.0672322 0)
(0.811571 -0.0746992 0)
(0.819863 -0.0824505 0)
(0.828525 -0.0905655 0)
(0.837297 -0.0991156 0)
(0.846004 -0.108189 0)
(0.854407 -0.117821 0)
(0.86221 -0.127996 0)
(0.869097 -0.138672 0)
(0.874731 -0.149783 0)
(0.87874 -0.161225 0)
(0.880717 -0.172848 0)
(0.880228 -0.184457 0)
(0.876813 -0.195807 0)
(0.870002 -0.206605 0)
(0.859328 -0.216514 0)
(0.84435 -0.225164 0)
(0.824681 -0.232165 0)
(0.800016 -0.237132 0)
(0.770173 -0.239713 0)
(0.735115 -0.239621 0)
(0.694986 -0.236674 0)
(0.650119 -0.23082 0)
(0.601041 -0.222164 0)
(0.548437 -0.210974 0)
(0.493096 -0.197664 0)
(0.435793 -0.182759 0)
(0.377131 -0.166806 0)
(0.317253 -0.150245 0)
(0.255549 -0.133148 0)
(0.190027 -0.115318 0)
(0.119169 -0.0964543 0)
(0.0330628 -0.0730467 0)
(0.925042 -0.0544312 0)
(0.926512 -0.0628661 0)
(0.927455 -0.0708335 0)
(0.92837 -0.0786235 0)
(0.929266 -0.0865392 0)
(0.929866 -0.0946643 0)
(0.929929 -0.103018 0)
(0.929268 -0.111627 0)
(0.927656 -0.120503 0)
(0.924813 -0.129617 0)
(0.920432 -0.138906 0)
(0.914191 -0.148276 0)
(0.905746 -0.157592 0)
(0.894736 -0.166683 0)
(0.88079 -0.175334 0)
(0.863539 -0.183297 0)
(0.842631 -0.19029 0)
(0.817758 -0.196011 0)
(0.788678 -0.200148 0)
(0.755251 -0.202405 0)
(0.717464 -0.202522 0)
(0.675467 -0.200304 0)
(0.629586 -0.195651 0)
(0.58034 -0.188578 0)
(0.52843 -0.179233 0)
(0.474709 -0.167891 0)
(0.420131 -0.154931 0)
(0.365666 -0.140789 0)
(0.312191 -0.125862 0)
(0.260329 -0.110355 0)
(0.21022 -0.0940568 0)
(0.161349 -0.0761185 0)
(0.112626 -0.0555063 0)
(0.0642138 -0.0330305 0)
(0.0143117 -0.0154676 0)
(0.98063 -0.0537929 0)
(0.97735 -0.0615405 0)
(0.973095 -0.0690868 0)
(0.968065 -0.0764477 0)
(0.962269 -0.0837706 0)
(0.955531 -0.0911231 0)
(0.947645 -0.0985098 0)
(0.938421 -0.105928 0)
(0.927646 -0.113364 0)
(0.915075 -0.120771 0)
(0.900443 -0.128066 0)
(0.883478 -0.135131 0)
(0.863908 -0.14182 0)
(0.841465 -0.147954 0)
(0.8159 -0.153331 0)
(0.787001 -0.15773 0)
(0.754615 -0.160921 0)
(0.718673 -0.162677 0)
(0.679214 -0.162795 0)
(0.636411 -0.161114 0)
(0.590588 -0.157536 0)
(0.542234 -0.152047 0)
(0.491996 -0.144729 0)
(0.440659 -0.135772 0)
(0.389113 -0.125458 0)
(0.338296 -0.114146 0)
(0.28913 -0.102222 0)
(0.242445 -0.0900263 0)
(0.198883 -0.0777258 0)
(0.158768 -0.0651041 0)
(0.121965 -0.0513395 0)
(0.0879414 -0.0350638 0)
(0.0563117 -0.0155299 0)
(0.0281777 0.00402056 0)
(0.00446615 0.0109938 0)
(0.958093 -0.0487945 0)
(0.950375 -0.0553676 0)
(0.941274 -0.061808 0)
(0.93083 -0.0680562 0)
(0.919019 -0.0741581 0)
(0.905719 -0.0801445 0)
(0.890769 -0.086005 0)
(0.874006 -0.0917124 0)
(0.855263 -0.0972269 0)
(0.83436 -0.102485 0)
(0.811115 -0.107397 0)
(0.785359 -0.111846 0)
(0.756946 -0.1157 0)
(0.725768 -0.11881 0)
(0.69177 -0.121023 0)
(0.654967 -0.122185 0)
(0.615467 -0.122157 0)
(0.57348 -0.120829 0)
(0.529341 -0.11813 0)
(0.483508 -0.114045 0)
(0.436558 -0.108627 0)
(0.389175 -0.102002 0)
(0.342115 -0.0943651 0)
(0.296166 -0.0859737 0)
(0.252094 -0.0771255 0)
(0.210597 -0.0681292 0)
(0.172258 -0.0592585 0)
(0.137507 -0.0506687 0)
(0.106568 -0.0422411 0)
(0.0794034 -0.0333624 0)
(0.0557174 -0.0228305 0)
(0.0352644 -0.00932568 0)
(0.0183858 0.00689991 0)
(0.00624104 0.0208996 0)
(-0.000251482 0.0193886 0)
(0.858107 -0.039708 0)
(0.84656 -0.0447488 0)
(0.833311 -0.0496392 0)
(0.818339 -0.0543038 0)
(0.801613 -0.0587333 0)
(0.783059 -0.0629281 0)
(0.762585 -0.0668683 0)
(0.7401 -0.0705187 0)
(0.715527 -0.0738352 0)
(0.688799 -0.076761 0)
(0.659873 -0.079225 0)
(0.628741 -0.081145 0)
(0.595443 -0.0824338 0)
(0.560077 -0.0830055 0)
(0.522814 -0.0827822 0)
(0.483903 -0.0817029 0)
(0.443678 -0.0797322 0)
(0.40256 -0.0768683 0)
(0.361048 -0.0731502 0)
(0.319703 -0.0686601 0)
(0.279124 -0.0635235 0)
(0.239915 -0.0579021 0)
(0.202646 -0.051983 0)
(0.167814 -0.0459653 0)
(0.135816 -0.040045 0)
(0.106926 -0.0343997 0)
(0.0813009 -0.0291541 0)
(0.0589792 -0.024293 0)
(0.0398865 -0.0194988 0)
(0.0238713 -0.0139737 0)
(0.0108552 -0.00654046 0)
(0.00113589 0.00362052 0)
(-0.00453783 0.0154177 0)
(-0.00544392 0.0235896 0)
(-0.00206805 0.017812 0)
(0.683967 -0.0273514 0)
(0.670007 -0.0306054 0)
(0.654223 -0.0336658 0)
(0.636606 -0.0364699 0)
(0.617169 -0.038996 0)
(0.595924 -0.0412379 0)
(0.572886 -0.0431838 0)
(0.548089 -0.0448139 0)
(0.52159 -0.046105 0)
(0.493478 -0.0470306 0)
(0.463872 -0.0475603 0)
(0.432933 -0.0476625 0)
(0.400871 -0.047309 0)
(0.367944 -0.0464801 0)
(0.33446 -0.0451684 0)
(0.300774 -0.0433838 0)
(0.267278 -0.0411553 0)
(0.234388 -0.0385331 0)
(0.202528 -0.0355866 0)
(0.172101 -0.0324013 0)
(0.143474 -0.0290728 0)
(0.11695 -0.0256999 0)
(0.0927532 -0.0223769 0)
(0.0710189 -0.0191915 0)
(0.0517914 -0.0162252 0)
(0.0350361 -0.0135536 0)
(0.0206552 -0.0112171 0)
(0.00850658 -0.00913749 0)
(-0.00154368 -0.00698278 0)
(-0.00949744 -0.00405539 0)
(-0.0150306 0.000497537 0)
(-0.0173933 0.00699604 0)
(-0.0157139 0.01413 0)
(-0.0100855 0.0179375 0)
(-0.0024501 0.0121126 0)
(0.446894 -0.0139263 0)
(0.433363 -0.0154036 0)
(0.418234 -0.0166751 0)
(0.401596 -0.0177196 0)
(0.383566 -0.0185398 0)
(0.364275 -0.0191495 0)
(0.343859 -0.0195604 0)
(0.32247 -0.0197791 0)
(0.300271 -0.0198095 0)
(0.277443 -0.0196544 0)
(0.254183 -0.0193157 0)
(0.230704 -0.0187959 0)
(0.207235 -0.0181007 0)
(0.184021 -0.0172402 0)
(0.161308 -0.0162305 0)
(0.139344 -0.0150933 0)
(0.118364 -0.0138551 0)
(0.0985792 -0.0125465 0)
(0.0801699 -0.0111998 0)
(0.0632747 -0.00984691 0)
(0.0479863 -0.00851779 0)
(0.0343519 -0.00724021 0)
(0.0223723 -0.00603997 0)
(0.0120016 -0.00494182 0)
(0.00315105 -0.00397376 0)
(-0.00430434 -0.00316752 0)
(-0.0105229 -0.00253963 0)
(-0.0156655 -0.00203495 0)
(-0.0198099 -0.00144856 0)
(-0.0227852 -0.000387127 0)
(-0.0240125 0.00160451 0)
(-0.0225426 0.00465397 0)
(-0.0176422 0.00794168 0)
(-0.00999282 0.00929686 0)
(-0.00213843 0.00584304 0)
(0.169644 -0.00275005 0)
(0.161398 -0.00287112 0)
(0.152474 -0.00292608 0)
(0.143013 -0.0029212 0)
(0.133155 -0.00287055 0)
(0.123027 -0.00278899 0)
(0.112741 -0.00268594 0)
(0.1024 -0.00256561 0)
(0.0921006 -0.00242989 0)
(0.0819346 -0.0022803 0)
(0.0719909 -0.00211838 0)
(0.0623544 -0.00194619 0)
(0.0531056 -0.00176627 0)
(0.0443194 -0.0015815 0)
(0.0360629 -0.00139464 0)
(0.0283934 -0.00120829 0)
(0.0213563 -0.00102487 0)
(0.0149837 -0.000846916 0)
(0.00929367 -0.000676786 0)
(0.00428894 -0.000516454 0)
(-4.27383e-05 -0.000367275 0)
(-0.00372646 -0.000231855 0)
(-0.00679861 -0.000113799 0)
(-0.00930712 -1.64115e-05 0)
(-0.0113129 5.5972e-05 0)
(-0.0128922 9.71159e-05 0)
(-0.0141403 0.000101753 0)
(-0.0151564 7.60146e-05 0)
(-0.0159798 5.45212e-05 0)
(-0.0164729 0.000115046 0)
(-0.0162004 0.000366572 0)
(-0.0144747 0.000875969 0)
(-0.0108007 0.00151867 0)
(-0.00576905 0.00181826 0)
(-0.00125021 0.00119192 0)
(0.255812 -0.010062 0)
(0.289465 -0.00760039 0)
(0.317436 -0.00472672 0)
(0.338858 -0.00174706 0)
(0.353458 0.00108206 0)
(0.361453 0.00360756 0)
(0.363355 0.00575811 0)
(0.359622 0.0074001 0)
(0.351501 0.008395 0)
(0.340159 0.00873778 0)
(0.453468 -0.0612193 0)
(0.50454 -0.05346 0)
(0.549499 -0.0439704 0)
(0.587438 -0.033613 0)
(0.618068 -0.0231523 0)
(0.641541 -0.01313 0)
(0.658267 -0.00390763 0)
(0.669055 0.00423629 0)
(0.674198 0.0110354 0)
(0.674204 0.0163746 0)
(0.60221 -0.117298 0)
(0.655115 -0.10401 0)
(0.701372 -0.0879471 0)
(0.740372 -0.0706287 0)
(0.77228 -0.0532902 0)
(0.797612 -0.0367607 0)
(0.816986 -0.0216188 0)
(0.83104 -0.00823363 0)
(0.840594 0.00326741 0)
(0.846242 0.0128813 0)
(0.732807 -0.1723 0)
(0.782369 -0.15247 0)
(0.82442 -0.129115 0)
(0.858776 -0.104648 0)
(0.88617 -0.0806751 0)
(0.907473 -0.0581478 0)
(0.923466 -0.0377184 0)
(0.934938 -0.0197912 0)
(0.942674 -0.00449418 0)
(0.947435 0.00827252 0)
(0.833395 -0.223043 0)
(0.876991 -0.195485 0)
(0.912403 -0.164054 0)
(0.939945 -0.132363 0)
(0.960838 -0.102117 0)
(0.976063 -0.0741888 0)
(0.986443 -0.049243 0)
(0.992941 -0.027652 0)
(0.996547 -0.00944631 0)
(0.998111 0.00557638 0)
(0.892568 -0.267032 0)
(0.930974 -0.231564 0)
(0.959407 -0.192195 0)
(0.978222 -0.153498 0)
(0.989463 -0.117011 0)
(0.994755 -0.0837789 0)
(0.995642 -0.054724 0)
(0.993806 -0.0301967 0)
(0.99067 -0.0100218 0)
(0.987188 0.00623072 0)
(0.907124 -0.302147 0)
(0.942702 -0.258897 0)
(0.958421 -0.211442 0)
(0.957338 -0.164557 0)
(0.946704 -0.120681 0)
(0.931518 -0.0820689 0)
(0.915256 -0.0499205 0)
(0.90044 -0.0241467 0)
(0.888402 -0.00395701 0)
(0.87928 0.0116249 0)
(0.876686 -0.336399 0)
(0.890008 -0.274285 0)
(0.859653 -0.208246 0)
(0.810138 -0.146767 0)
(0.760808 -0.0951922 0)
(0.718458 -0.055483 0)
(0.685268 -0.0263071 0)
(0.661391 -0.00504736 0)
(0.645897 0.01045 0)
(0.63753 0.0216857 0)
(0.768026 -0.375538 0)
(0.682118 -0.248744 0)
(0.554046 -0.143516 0)
(0.453539 -0.0704455 0)
(0.38686 -0.0248804 0)
(0.344362 0.000361902 0)
(0.320091 0.0131416 0)
(0.310279 0.0194227 0)
(0.310766 0.0226762 0)
(0.317631 0.0249407 0)
(0.449642 -0.295869 0)
(0.211248 -0.0823194 0)
(0.0521318 0.00640762 0)
(0.0274983 0.0186034 0)
(0.0264728 0.015793 0)
(0.0285211 0.0121751 0)
(0.0357268 0.00934759 0)
(0.04623 0.00747661 0)
(0.0582026 0.00669938 0)
(0.0710929 0.00933403 0)
(0.32662 0.00854829 0)
(0.311773 0.00799093 0)
(0.29634 0.00722312 0)
(0.280851 0.00637579 0)
(0.265664 0.00554557 0)
(0.250996 0.00479383 0)
(0.23696 0.00415137 0)
(0.223592 0.00362674 0)
(0.210878 0.00321372 0)
(0.198773 0.00289764 0)
(0.187216 0.00265998 0)
(0.176137 0.00248223 0)
(0.165471 0.00234782 0)
(0.155158 0.00224349 0)
(0.145145 0.00215896 0)
(0.13539 0.00208682 0)
(0.125861 0.00202154 0)
(0.116537 0.00195903 0)
(0.107406 0.00189599 0)
(0.0984676 0.00182988 0)
(0.0897288 0.0017587 0)
(0.0812049 0.00168119 0)
(0.0729181 0.00159665 0)
(0.0648956 0.00150506 0)
(0.0571682 0.00140678 0)
(0.0497682 0.00130262 0)
(0.0427283 0.00119366 0)
(0.0360793 0.00108125 0)
(0.0298489 0.00096696 0)
(0.0240598 0.000852499 0)
(0.0187292 0.000739657 0)
(0.0138672 0.000630095 0)
(0.00947704 0.000525558 0)
(0.00555437 0.000427336 0)
(0.00208778 0.00033598 0)
(0.669717 0.0202959 0)
(0.661415 0.0229439 0)
(0.649967 0.02452 0)
(0.635996 0.0252495 0)
(0.620056 0.0253512 0)
(0.602619 0.025018 0)
(0.584077 0.0244084 0)
(0.564747 0.0236469 0)
(0.544877 0.0228268 0)
(0.524652 0.0220137 0)
(0.504205 0.0212492 0)
(0.483628 0.0205567 0)
(0.462978 0.0199454 0)
(0.442286 0.0194149 0)
(0.421567 0.0189576 0)
(0.400824 0.0185617 0)
(0.380053 0.0182127 0)
(0.359253 0.0178944 0)
(0.338426 0.0175899 0)
(0.317582 0.0172821 0)
(0.296745 0.0169543 0)
(0.275951 0.0165912 0)
(0.255255 0.0161793 0)
(0.234724 0.0157077 0)
(0.214444 0.0151684 0)
(0.194513 0.0145573 0)
(0.175038 0.013874 0)
(0.156136 0.013122 0)
(0.137922 0.0123083 0)
(0.120511 0.0114435 0)
(0.104007 0.0105406 0)
(0.0885023 0.00961442 0)
(0.0740706 0.00868059 0)
(0.0607654 0.00775467 0)
(0.0486173 0.00685108 0)
(0.848458 0.0206951 0)
(0.847638 0.0268648 0)
(0.844116 0.0315996 0)
(0.838175 0.0351345 0)
(0.830054 0.0376989 0)
(0.819964 0.0394978 0)
(0.808096 0.0407079 0)
(0.794628 0.0414788 0)
(0.77972 0.0419349 0)
(0.763511 0.0421763 0)
(0.746119 0.0422815 0)
(0.727642 0.0423096 0)
(0.70816 0.0423034 0)
(0.687732 0.0422915 0)
(0.666405 0.0422903 0)
(0.644211 0.0423056 0)
(0.621175 0.0423344 0)
(0.597314 0.0423659 0)
(0.572646 0.0423829 0)
(0.547194 0.0423629 0)
(0.520988 0.0422789 0)
(0.494073 0.0421013 0)
(0.46651 0.0417993 0)
(0.438383 0.0413424 0)
(0.409801 0.0407029 0)
(0.380898 0.0398576 0)
(0.351833 0.0387896 0)
(0.322792 0.0374905 0)
(0.29398 0.0359612 0)
(0.265616 0.0342128 0)
(0.237931 0.032267 0)
(0.211152 0.0301544 0)
(0.185497 0.0279139 0)
(0.161161 0.0255893 0)
(0.138313 0.0232272 0)
(0.949819 0.0187225 0)
(0.950272 0.0271403 0)
(0.94912 0.0338571 0)
(0.946567 0.0392061 0)
(0.94272 0.0434779 0)
(0.937631 0.0469079 0)
(0.931329 0.0496879 0)
(0.923834 0.0519759 0)
(0.915156 0.0539006 0)
(0.905297 0.0555642 0)
(0.894256 0.0570476 0)
(0.882026 0.0584144 0)
(0.868597 0.0597138 0)
(0.853948 0.0609822 0)
(0.838056 0.0622434 0)
(0.82089 0.0635097 0)
(0.802415 0.0647824 0)
(0.782593 0.066052 0)
(0.761384 0.0672987 0)
(0.738751 0.0684931 0)
(0.714666 0.0695969 0)
(0.689109 0.0705646 0)
(0.662079 0.0713444 0)
(0.633598 0.0718808 0)
(0.603713 0.0721167 0)
(0.572509 0.0719968 0)
(0.540103 0.0714706 0)
(0.506659 0.0704962 0)
(0.472379 0.0690438 0)
(0.437511 0.0670991 0)
(0.402339 0.0646659 0)
(0.367181 0.061768 0)
(0.332377 0.0584495 0)
(0.298278 0.0547734 0)
(0.265228 0.0508188 0)
(0.998281 0.0177445 0)
(0.997501 0.0274748 0)
(0.996064 0.035246 0)
(0.994106 0.0415161 0)
(0.991652 0.0466499 0)
(0.988679 0.0509212 0)
(0.98516 0.054546 0)
(0.981062 0.0577014 0)
(0.976343 0.0605298 0)
(0.970954 0.0631423 0)
(0.964845 0.065625 0)
(0.95796 0.0680456 0)
(0.950239 0.0704571 0)
(0.941613 0.0729001 0)
(0.932004 0.0754037 0)
(0.921327 0.0779859 0)
(0.909489 0.0806528 0)
(0.896387 0.0833984 0)
(0.881913 0.0862037 0)
(0.865955 0.0890363 0)
(0.848398 0.0918509 0)
(0.82913 0.0945896 0)
(0.808046 0.0971827 0)
(0.785054 0.0995504 0)
(0.760081 0.101605 0)
(0.733081 0.103254 0)
(0.704045 0.104402 0)
(0.673006 0.104959 0)
(0.640049 0.104843 0)
(0.605315 0.103983 0)
(0.569009 0.102331 0)
(0.531398 0.0998631 0)
(0.492813 0.0965837 0)
(0.453638 0.0925313 0)
(0.414303 0.0877774 0)
(0.983864 0.0190749 0)
(0.981012 0.029121 0)
(0.97877 0.0370573 0)
(0.977061 0.0434784 0)
(0.975688 0.0488006 0)
(0.974473 0.0533108 0)
(0.97329 0.0572269 0)
(0.972041 0.0607245 0)
(0.970635 0.0639449 0)
(0.968994 0.0670023 0)
(0.967045 0.0699889 0)
(0.964724 0.0729793 0)
(0.961967 0.076034 0)
(0.958704 0.0792014 0)
(0.954859 0.0825199 0)
(0.950343 0.0860181 0)
(0.945056 0.0897139 0)
(0.938884 0.0936133 0)
(0.931701 0.0977086 0)
(0.923365 0.101977 0)
(0.913721 0.10638 0)
(0.902606 0.110862 0)
(0.889847 0.115351 0)
(0.875267 0.119759 0)
(0.85869 0.123982 0)
(0.83995 0.127902 0)
(0.818894 0.131391 0)
(0.795401 0.134314 0)
(0.769382 0.136535 0)
(0.740801 0.13792 0)
(0.709683 0.138349 0)
(0.676123 0.137721 0)
(0.640297 0.135964 0)
(0.602467 0.133043 0)
(0.562978 0.128964 0)
(0.87295 0.0233425 0)
(0.869307 0.0320726 0)
(0.868091 0.0388486 0)
(0.868754 0.0443933 0)
(0.870696 0.0490947 0)
(0.873469 0.0531961 0)
(0.876781 0.0568827 0)
(0.880419 0.0602933 0)
(0.884217 0.0635329 0)
(0.888043 0.0666904 0)
(0.891798 0.0698457 0)
(0.895401 0.0730701 0)
(0.898786 0.0764248 0)
(0.901894 0.0799625 0)
(0.904665 0.0837282 0)
(0.907032 0.08776 0)
(0.908919 0.092088 0)
(0.910236 0.0967331 0)
(0.910876 0.101704 0)
(0.910716 0.106995 0)
(0.909614 0.112586 0)
(0.907409 0.118438 0)
(0.903921 0.124494 0)
(0.898953 0.130674 0)
(0.892292 0.136882 0)
(0.883714 0.142999 0)
(0.872988 0.148887 0)
(0.859885 0.154391 0)
(0.844188 0.159343 0)
(0.825704 0.163564 0)
(0.804276 0.166873 0)
(0.779803 0.169094 0)
(0.75225 0.17007 0)
(0.721665 0.16967 0)
(0.688194 0.167802 0)
(0.634802 0.0292352 0)
(0.63698 0.0341183 0)
(0.643248 0.0378209 0)
(0.65221 0.0411315 0)
(0.662706 0.0442644 0)
(0.674078 0.0472953 0)
(0.685946 0.0502933 0)
(0.698046 0.053303 0)
(0.710192 0.0563479 0)
(0.722266 0.059453 0)
(0.734192 0.0626559 0)
(0.745915 0.0660021 0)
(0.757401 0.0695393 0)
(0.768621 0.0733145 0)
(0.779553 0.0773731 0)
(0.790172 0.0817583 0)
(0.800442 0.086509 0)
(0.810313 0.0916585 0)
(0.819718 0.0972312 0)
(0.828571 0.103241 0)
(0.836766 0.109687 0)
(0.844172 0.116553 0)
(0.850636 0.123804 0)
(0.855982 0.131383 0)
(0.860006 0.139215 0)
(0.862481 0.147198 0)
(0.86316 0.155207 0)
(0.861777 0.163095 0)
(0.858054 0.170689 0)
(0.851711 0.177794 0)
(0.842478 0.1842 0)
(0.830108 0.189684 0)
(0.814393 0.194023 0)
(0.795182 0.197005 0)
(0.772402 0.198441 0)
(0.328381 0.0252051 0)
(0.343586 0.0248251 0)
(0.363034 0.0250697 0)
(0.384201 0.0262296 0)
(0.4055 0.0281367 0)
(0.426535 0.0305629 0)
(0.447248 0.033344 0)
(0.467586 0.0363734 0)
(0.487523 0.0395811 0)
(0.507081 0.0429301 0)
(0.5263 0.0464156 0)
(0.545214 0.0500572 0)
(0.563856 0.0538899 0)
(0.582258 0.0579577 0)
(0.600453 0.0623096 0)
(0.618465 0.0669967 0)
(0.636303 0.0720698 0)
(0.653964 0.0775769 0)
(0.671421 0.0835609 0)
(0.68863 0.0900562 0)
(0.705522 0.0970857 0)
(0.722003 0.104658 0)
(0.737952 0.112764 0)
(0.753221 0.121377 0)
(0.76763 0.130447 0)
(0.780966 0.1399 0)
(0.792989 0.14964 0)
(0.803427 0.159538 0)
(0.811982 0.169441 0)
(0.818336 0.179162 0)
(0.822161 0.188488 0)
(0.823126 0.197182 0)
(0.820913 0.204987 0)
(0.815231 0.21164 0)
(0.805837 0.216882 0)
(0.0927922 0.00204126 0)
(0.11845 -0.00272951 0)
(0.145718 -0.00303253 0)
(0.171913 -0.00107755 0)
(0.196272 0.00198127 0)
(0.219326 0.00556503 0)
(0.241601 0.00933426 0)
(0.263357 0.0131378 0)
(0.284723 0.0169483 0)
(0.305823 0.0207753 0)
(0.326767 0.0246392 0)
(0.347641 0.0285736 0)