/*--------------------------------*- C++ -*----------------------------------*\
| =========                 |                                                 |
| \\      /  F ield         | OpenFOAM: The Open Source CFD Toolbox           |
|  \\    /   O peration     | Version:  2406                                  |
|   \\  /    A nd           | Website:  www.openfoam.com                      |
|    \\/     M anipulation  |                                                 |
\*---------------------------------------------------------------------------*/
FoamFile
{
    version     2.0;
    format      ascii;
    arch        "LSB;label=32;scalar=64";
    class       volScalarField;
    location    "898";
    object      p;
}
// * * * * * * * * * * * * * * * * * * * * * * * * * * * * * * * * * * * * * //

dimensions      [0 2 -2 0 0 0 0];

internalField   nonuniform List<scalar> 
190000
(
-0.0503709
-0.0484042
-0.0474194
-0.0470401
-0.0468854
-0.0468425
-0.0468702
-0.0469428
-0.0470447
-0.0471668
-0.0473039
-0.0474524
-0.0476101
-0.0477752
-0.0479467
-0.0481236
-0.0483053
-0.0484912
-0.048681
-0.0488743
-0.0490708
-0.0492703
-0.0494726
-0.0496776
-0.0498851
-0.0500949
-0.0503071
-0.0505215
-0.050738
-0.0509566
-0.0511773
-0.0513999
-0.0516244
-0.0518509
-0.0520793
-0.0523095
-0.0525416
-0.0527755
-0.0530112
-0.0532488
-0.0534881
-0.0537293
-0.0539723
-0.0542171
-0.0544637
-0.0547121
-0.0549624
-0.0552146
-0.0554686
-0.0557245
-0.0559824
-0.0562421
-0.0565039
-0.0567676
-0.0570333
-0.0573011
-0.057571
-0.057843
-0.0581171
-0.0583935
-0.0586721
-0.058953
-0.0592363
-0.059522
-0.0598102
-0.0601009
-0.0603942
-0.0606902
-0.0609889
-0.0612906
-0.0615952
-0.0619028
-0.0622136
-0.0625277
-0.0628453
-0.0631664
-0.0634912
-0.06382
-0.0641529
-0.0644902
-0.064832
-0.0651787
-0.0655305
-0.0658879
-0.0662512
-0.066621
-0.0669976
-0.0673819
-0.0677744
-0.0681761
-0.0685879
-0.0690111
-0.0694472
-0.0698984
-0.0703685
-0.0708672
-0.0714079
-0.0719557
-0.0724234
-0.0738679
-0.0485027
-0.0478013
-0.0473081
-0.0470575
-0.0469392
-0.0469042
-0.0469286
-0.0469945
-0.0470896
-0.0472058
-0.0473381
-0.0474827
-0.0476371
-0.0477997
-0.0479691
-0.0481443
-0.0483246
-0.0485094
-0.0486982
-0.0488907
-0.0490865
-0.0492854
-0.0494872
-0.0496918
-0.0498989
-0.0501085
-0.0503204
-0.0505346
-0.0507509
-0.0509694
-0.0511899
-0.0514125
-0.051637
-0.0518634
-0.0520918
-0.052322
-0.0525541
-0.052788
-0.0530238
-0.0532614
-0.0535008
-0.0537421
-0.0539852
-0.0542301
-0.0544768
-0.0547254
-0.0549759
-0.0552282
-0.0554824
-0.0557385
-0.0559965
-0.0562565
-0.0565184
-0.0567824
-0.0570484
-0.0573164
-0.0575865
-0.0578588
-0.0581333
-0.05841
-0.0586889
-0.0589702
-0.0592538
-0.0595399
-0.0598285
-0.0601196
-0.0604134
-0.0607099
-0.0610092
-0.0613114
-0.0616166
-0.0619249
-0.0622364
-0.0625512
-0.0628696
-0.0631916
-0.0635174
-0.0638472
-0.0641812
-0.0645197
-0.0648629
-0.0652112
-0.0655648
-0.0659242
-0.0662898
-0.0666622
-0.067042
-0.06743
-0.0678271
-0.0682346
-0.0686538
-0.0690869
-0.0695365
-0.070007
-0.0705049
-0.0710424
-0.0716374
-0.0723151
-0.0731893
-0.0746937
-0.0474041
-0.0473034
-0.0471371
-0.0470072
-0.0469399
-0.046928
-0.0469607
-0.047028
-0.0471217
-0.0472357
-0.0473654
-0.0475077
-0.0476601
-0.0478209
-0.0479888
-0.0481627
-0.0483419
-0.0485258
-0.0487138
-0.0489056
-0.0491009
-0.0492993
-0.0495007
-0.0497049
-0.0499117
-0.0501211
-0.0503328
-0.0505468
-0.050763
-0.0509814
-0.0512018
-0.0514243
-0.0516488
-0.0518752
-0.0521035
-0.0523337
-0.0525659
-0.0527998
-0.0530357
-0.0532733
-0.0535129
-0.0537542
-0.0539974
-0.0542424
-0.0544893
-0.054738
-0.0549886
-0.055241
-0.0554954
-0.0557517
-0.0560099
-0.05627
-0.0565322
-0.0567964
-0.0570626
-0.0573309
-0.0576013
-0.0578738
-0.0581485
-0.0584255
-0.0587048
-0.0589863
-0.0592703
-0.0595568
-0.0598457
-0.0601373
-0.0604315
-0.0607284
-0.0610282
-0.0613309
-0.0616366
-0.0619454
-0.0622575
-0.062573
-0.0628921
-0.0632148
-0.0635414
-0.0638721
-0.0642071
-0.0645466
-0.064891
-0.0652405
-0.0655955
-0.0659565
-0.066324
-0.0666984
-0.0670806
-0.0674714
-0.0678719
-0.0682834
-0.0687076
-0.0691468
-0.069604
-0.0700834
-0.0705907
-0.0711334
-0.0717201
-0.0723586
-0.073068
-0.073863
-0.0468747
-0.0469751
-0.0469642
-0.0469192
-0.0469008
-0.0469175
-0.0469654
-0.0470401
-0.0471371
-0.0472521
-0.0473819
-0.0475237
-0.0476754
-0.0478355
-0.0480026
-0.0481759
-0.0483545
-0.0485378
-0.0487253
-0.0489167
-0.0491116
-0.0493097
-0.0495109
-0.0497148
-0.0499215
-0.0501306
-0.0503422
-0.0505561
-0.0507722
-0.0509905
-0.0512109
-0.0514333
-0.0516578
-0.0518842
-0.0521125
-0.0523428
-0.0525749
-0.0528089
-0.0530448
-0.0532825
-0.0535221
-0.0537635
-0.0540068
-0.0542519
-0.0544988
-0.0547477
-0.0549984
-0.0552509
-0.0555054
-0.0557618
-0.0560202
-0.0562805
-0.0565428
-0.0568071
-0.0570735
-0.0573419
-0.0576125
-0.0578852
-0.0581602
-0.0584373
-0.0587168
-0.0589986
-0.0592828
-0.0595695
-0.0598587
-0.0601505
-0.060445
-0.0607422
-0.0610423
-0.0613453
-0.0616514
-0.0619606
-0.062273
-0.0625889
-0.0629084
-0.0632315
-0.0635586
-0.0638898
-0.0642253
-0.0645653
-0.0649103
-0.0652604
-0.065616
-0.0659777
-0.0663458
-0.066721
-0.0671039
-0.0674954
-0.0678965
-0.0683084
-0.0687326
-0.069171
-0.0696256
-0.0700989
-0.0705932
-0.0711094
-0.0716442
-0.0721837
-0.0726951
-0.0731125
-0.0465466
-0.0467328
-0.0468097
-0.046827
-0.0468503
-0.0468938
-0.0469578
-0.0470418
-0.0471438
-0.0472616
-0.0473926
-0.0475348
-0.0476865
-0.0478464
-0.0480131
-0.048186
-0.0483642
-0.0485472
-0.0487344
-0.0489255
-0.0491201
-0.049318
-0.0495189
-0.0497227
-0.0499292
-0.0501382
-0.0503497
-0.0505635
-0.0507795
-0.0509977
-0.0512181
-0.0514405
-0.0516649
-0.0518913
-0.0521196
-0.0523499
-0.052582
-0.052816
-0.053052
-0.0532897
-0.0535293
-0.0537708
-0.0540141
-0.0542593
-0.0545063
-0.0547552
-0.0550059
-0.0552586
-0.0555131
-0.0557696
-0.0560281
-0.0562885
-0.0565509
-0.0568153
-0.0570818
-0.0573503
-0.057621
-0.0578939
-0.0581689
-0.0584462
-0.0587258
-0.0590078
-0.0592921
-0.0595789
-0.0598683
-0.0601602
-0.0604549
-0.0607522
-0.0610525
-0.0613556
-0.0616618
-0.0619711
-0.0622838
-0.0625998
-0.0629194
-0.0632426
-0.0635698
-0.0639011
-0.0642366
-0.0645767
-0.0649216
-0.0652716
-0.0656271
-0.0659884
-0.066356
-0.0667305
-0.0671124
-0.0675024
-0.0679013
-0.0683099
-0.0687293
-0.0691604
-0.0696039
-0.0700599
-0.0705271
-0.0710009
-0.0714701
-0.0719118
-0.0722839
-0.0725202
-0.046314
-0.0465418
-0.046674
-0.046738
-0.0467958
-0.0468635
-0.0469434
-0.0470372
-0.0471453
-0.0472665
-0.0473995
-0.0475427
-0.0476948
-0.0478547
-0.0480214
-0.048194
-0.048372
-0.0485546
-0.0487416
-0.0489324
-0.0491268
-0.0493245
-0.0495252
-0.0497288
-0.0499351
-0.050144
-0.0503554
-0.0505691
-0.050785
-0.0510032
-0.0512234
-0.0514458
-0.0516702
-0.0518965
-0.0521248
-0.0523551
-0.0525872
-0.0528213
-0.0530572
-0.0532949
-0.0535345
-0.053776
-0.0540193
-0.0542645
-0.0545116
-0.0547605
-0.0550113
-0.055264
-0.0555186
-0.0557751
-0.0560336
-0.056294
-0.0565565
-0.0568209
-0.0570875
-0.0573561
-0.0576268
-0.0578997
-0.0581748
-0.0584521
-0.0587317
-0.0590137
-0.0592981
-0.0595849
-0.0598743
-0.0601662
-0.0604608
-0.0607582
-0.0610584
-0.0613615
-0.0616676
-0.0619769
-0.0622894
-0.0626053
-0.0629247
-0.0632477
-0.0635746
-0.0639054
-0.0642405
-0.06458
-0.0649242
-0.0652734
-0.0656277
-0.0659876
-0.0663535
-0.0667257
-0.0671047
-0.0674908
-0.0678847
-0.0682866
-0.0686968
-0.0691152
-0.0695411
-0.0699724
-0.070405
-0.0708305
-0.0712345
-0.0715923
-0.0718661
-0.0720043
-0.0461388
-0.046386
-0.0465533
-0.0466522
-0.0467385
-0.0468277
-0.046923
-0.0470271
-0.047142
-0.0472675
-0.0474031
-0.0475478
-0.0477007
-0.0478609
-0.0480277
-0.0482002
-0.048378
-0.0485605
-0.0487472
-0.0489377
-0.0491319
-0.0493293
-0.0495299
-0.0497333
-0.0499394
-0.0501482
-0.0503594
-0.050573
-0.0507888
-0.0510069
-0.051227
-0.0514493
-0.0516736
-0.0518999
-0.0521282
-0.0523584
-0.0525905
-0.0528244
-0.0530603
-0.053298
-0.0535376
-0.0537791
-0.0540224
-0.0542676
-0.0545146
-0.0547635
-0.0550143
-0.0552669
-0.0555215
-0.055778
-0.0560365
-0.0562969
-0.0565593
-0.0568237
-0.0570902
-0.0573588
-0.0576295
-0.0579023
-0.0581773
-0.0584546
-0.0587341
-0.059016
-0.0593003
-0.059587
-0.0598762
-0.060168
-0.0604625
-0.0607596
-0.0610596
-0.0613625
-0.0616683
-0.0619772
-0.0622893
-0.0626047
-0.0629235
-0.0632459
-0.0635721
-0.0639021
-0.0642361
-0.0645744
-0.0649171
-0.0652645
-0.0656168
-0.0659742
-0.0663369
-0.0667052
-0.0670794
-0.0674595
-0.0678456
-0.0682376
-0.068635
-0.0690366
-0.0694405
-0.0698431
-0.0702381
-0.0706159
-0.070961
-0.071251
-0.0714553
-0.0715373
-0.0459974
-0.0462536
-0.0464438
-0.0465686
-0.0466783
-0.0467868
-0.0468967
-0.0470115
-0.0471337
-0.0472642
-0.047403
-0.0475498
-0.0477039
-0.0478649
-0.0480319
-0.0482046
-0.0483823
-0.0485646
-0.0487511
-0.0489415
-0.0491354
-0.0493326
-0.0495329
-0.0497361
-0.0499421
-0.0501506
-0.0503617
-0.0505751
-0.0507908
-0.0510087
-0.0512288
-0.0514509
-0.0516751
-0.0519013
-0.0521295
-0.0523596
-0.0525916
-0.0528255
-0.0530613
-0.0532989
-0.0535385
-0.0537798
-0.0540231
-0.0542682
-0.0545151
-0.0547639
-0.0550146
-0.0552672
-0.0555217
-0.0557781
-0.0560365
-0.0562968
-0.0565591
-0.0568234
-0.0570898
-0.0573582
-0.0576287
-0.0579014
-0.0581763
-0.0584534
-0.0587327
-0.0590144
-0.0592984
-0.0595849
-0.0598738
-0.0601653
-0.0604593
-0.0607561
-0.0610556
-0.0613579
-0.0616632
-0.0619715
-0.0622828
-0.0625974
-0.0629153
-0.0632366
-0.0635615
-0.0638901
-0.0642225
-0.0645589
-0.0648994
-0.0652442
-0.0655933
-0.065947
-0.0663053
-0.0666683
-0.0670358
-0.0674079
-0.067784
-0.0681636
-0.0685455
-0.0689277
-0.0693073
-0.0696796
-0.0700377
-0.0703713
-0.0706661
-0.0709032
-0.0710592
-0.0711091
-0.0458762
-0.0461369
-0.0463425
-0.0464867
-0.0466155
-0.0467409
-0.0468645
-0.0469898
-0.0471198
-0.0472559
-0.0473987
-0.0475481
-0.047704
-0.0478661
-0.0480338
-0.0482068
-0.0483846
-0.0485669
-0.0487532
-0.0489434
-0.0491372
-0.0493342
-0.0495343
-0.0497373
-0.049943
-0.0501513
-0.0503622
-0.0505754
-0.0507909
-0.0510087
-0.0512285
-0.0514505
-0.0516746
-0.0519006
-0.0521287
-0.0523586
-0.0525905
-0.0528243
-0.0530599
-0.0532975
-0.0535368
-0.0537781
-0.0540212
-0.0542661
-0.054513
-0.0547616
-0.0550122
-0.0552646
-0.055519
-0.0557752
-0.0560334
-0.0562935
-0.0565556
-0.0568198
-0.0570859
-0.0573541
-0.0576244
-0.0578968
-0.0581714
-0.0584481
-0.0587271
-0.0590084
-0.0592921
-0.0595781
-0.0598665
-0.0601575
-0.060451
-0.0607471
-0.0610459
-0.0613475
-0.0616519
-0.0619592
-0.0622695
-0.0625829
-0.0628994
-0.0632192
-0.0635424
-0.063869
-0.0641992
-0.064533
-0.0648705
-0.0652117
-0.0655568
-0.0659057
-0.0662583
-0.0666145
-0.066974
-0.0673363
-0.0677007
-0.0680661
-0.0684308
-0.0687922
-0.0691468
-0.0694894
-0.0698128
-0.0701074
-0.0703607
-0.0705572
-0.0706797
-0.0707114
-0.0457676
-0.0460309
-0.0462474
-0.0464063
-0.0465504
-0.0466903
-0.0468265
-0.046962
-0.0471
-0.0472422
-0.0473894
-0.0475421
-0.0477003
-0.0478638
-0.0480326
-0.0482062
-0.0483843
-0.0485668
-0.0487532
-0.0489433
-0.0491369
-0.0493337
-0.0495336
-0.0497364
-0.0499419
-0.05015
-0.0503607
-0.0505737
-0.050789
-0.0510065
-0.0512262
-0.051448
-0.0516718
-0.0518977
-0.0521255
-0.0523553
-0.052587
-0.0528206
-0.0530561
-0.0532934
-0.0535326
-0.0537737
-0.0540166
-0.0542613
-0.0545079
-0.0547564
-0.0550067
-0.0552589
-0.055513
-0.055769
-0.056027
-0.0562868
-0.0565487
-0.0568125
-0.0570783
-0.0573461
-0.0576161
-0.0578881
-0.0581622
-0.0584385
-0.0587171
-0.0589978
-0.0592809
-0.0595663
-0.0598541
-0.0601443
-0.060437
-0.0607323
-0.0610301
-0.0613307
-0.0616339
-0.0619399
-0.0622488
-0.0625606
-0.0628754
-0.0631932
-0.0635142
-0.0638382
-0.0641655
-0.064496
-0.0648298
-0.0651667
-0.0655068
-0.0658498
-0.0661957
-0.066544
-0.0668941
-0.0672455
-0.067597
-0.0679471
-0.0682938
-0.068634
-0.0689641
-0.0692786
-0.0695707
-0.0698319
-0.0700514
-0.0702171
-0.0703163
-0.0703378
-0.0456672
-0.0459323
-0.046157
-0.046327
-0.0464833
-0.0466356
-0.0467831
-0.0469282
-0.0470741
-0.0472226
-0.0473747
-0.047531
-0.0476919
-0.0478575
-0.0480276
-0.0482022
-0.048381
-0.0485638
-0.0487504
-0.0489406
-0.0491342
-0.0493309
-0.0495307
-0.0497333
-0.0499386
-0.0501465
-0.0503569
-0.0505697
-0.0507847
-0.051002
-0.0512215
-0.051443
-0.0516667
-0.0518923
-0.0521199
-0.0523494
-0.0525809
-0.0528142
-0.0530495
-0.0532866
-0.0535255
-0.0537663
-0.054009
-0.0542535
-0.0544998
-0.054748
-0.054998
-0.0552499
-0.0555037
-0.0557594
-0.0560169
-0.0562764
-0.0565379
-0.0568013
-0.0570667
-0.057334
-0.0576035
-0.057875
-0.0581486
-0.0584243
-0.0587022
-0.0589823
-0.0592646
-0.0595492
-0.0598361
-0.0601254
-0.0604171
-0.0607112
-0.0610079
-0.0613071
-0.0616088
-0.0619133
-0.0622204
-0.0625302
-0.0628428
-0.0631582
-0.0634764
-0.0637974
-0.0641212
-0.0644478
-0.0647771
-0.0651089
-0.0654432
-0.0657796
-0.0661178
-0.0664572
-0.0667972
-0.0671367
-0.0674745
-0.0678088
-0.0681372
-0.0684568
-0.0687635
-0.0690523
-0.0693169
-0.0695497
-0.069742
-0.0698842
-0.0699673
-0.0699835
-0.0455724
-0.045839
-0.04607
-0.0462485
-0.0464147
-0.0465773
-0.0467347
-0.0468887
-0.0470421
-0.0471969
-0.0473541
-0.0475145
-0.0476785
-0.0478465
-0.0480184
-0.0481942
-0.048374
-0.0485574
-0.0487444
-0.0489349
-0.0491285
-0.0493253
-0.049525
-0.0497274
-0.0499326
-0.0501403
-0.0503505
-0.050563
-0.0507779
-0.0509949
-0.0512141
-0.0514354
-0.0516588
-0.0518841
-0.0521115
-0.0523407
-0.0525719
-0.052805
-0.0530399
-0.0532767
-0.0535154
-0.0537559
-0.0539982
-0.0542423
-0.0544883
-0.0547361
-0.0549858
-0.0552373
-0.0554907
-0.0557459
-0.0560031
-0.0562621
-0.056523
-0.0567859
-0.0570507
-0.0573175
-0.0575863
-0.0578572
-0.0581301
-0.058405
-0.0586821
-0.0589614
-0.0592428
-0.0595264
-0.0598122
-0.0601004
-0.0603908
-0.0606836
-0.0609787
-0.0612763
-0.0615763
-0.0618788
-0.0621838
-0.0624913
-0.0628012
-0.0631137
-0.0634287
-0.0637461
-0.064066
-0.064388
-0.0647122
-0.0650384
-0.0653662
-0.0656952
-0.066025
-0.0663549
-0.066684
-0.0670112
-0.067335
-0.0676534
-0.0679641
-0.0682638
-0.0685489
-0.0688145
-0.0690551
-0.0692642
-0.0694347
-0.0695592
-0.0696311
-0.069645
-0.0454814
-0.0457493
-0.0459853
-0.0461705
-0.0463446
-0.0465159
-0.046682
-0.0468439
-0.0470045
-0.0471653
-0.0473277
-0.0474923
-0.0476597
-0.0478303
-0.0480043
-0.0481818
-0.0483627
-0.048547
-0.0487347
-0.0489255
-0.0491194
-0.0493163
-0.0495161
-0.0497185
-0.0499236
-0.0501311
-0.0503412
-0.0505535
-0.0507681
-0.0509849
-0.0512038
-0.0514249
-0.0516479
-0.051873
-0.0521
-0.052329
-0.0525598
-0.0527926
-0.0530272
-0.0532636
-0.0535019
-0.053742
-0.0539839
-0.0542277
-0.0544732
-0.0547206
-0.0549698
-0.0552209
-0.0554737
-0.0557285
-0.055985
-0.0562435
-0.0565038
-0.0567661
-0.0570302
-0.0572963
-0.0575644
-0.0578344
-0.0581065
-0.0583805
-0.0586567
-0.0589349
-0.0592151
-0.0594976
-0.0597821
-0.0600689
-0.0603579
-0.060649
-0.0609424
-0.0612381
-0.0615361
-0.0618363
-0.0621388
-0.0624435
-0.0627505
-0.0630597
-0.063371
-0.0636844
-0.0639997
-0.0643168
-0.0646354
-0.0649552
-0.065276
-0.0655971
-0.0659181
-0.066238
-0.0665559
-0.0668705
-0.0671803
-0.0674832
-0.0677767
-0.068058
-0.0683232
-0.0685683
-0.0687882
-0.0689776
-0.0691306
-0.0692417
-0.0693058
-0.0693195
-0.045393
-0.045662
-0.0459021
-0.0460927
-0.0462732
-0.0464518
-0.0466254
-0.0467944
-0.0469614
-0.0471281
-0.0472954
-0.0474643
-0.0476352
-0.0478087
-0.047985
-0.0481644
-0.0483467
-0.0485322
-0.0487207
-0.0489121
-0.0491065
-0.0493036
-0.0495035
-0.049706
-0.0499111
-0.0501186
-0.0503285
-0.0505406
-0.050755
-0.0509716
-0.0511903
-0.051411
-0.0516338
-0.0518585
-0.0520852
-0.0523138
-0.0525443
-0.0527767
-0.0530109
-0.0532469
-0.0534848
-0.0537244
-0.0539659
-0.0542092
-0.0544543
-0.0547011
-0.0549498
-0.0552003
-0.0554526
-0.0557067
-0.0559626
-0.0562204
-0.05648
-0.0567415
-0.0570049
-0.0572701
-0.0575373
-0.0578064
-0.0580775
-0.0583505
-0.0586255
-0.0589025
-0.0591815
-0.0594625
-0.0597456
-0.0600308
-0.060318
-0.0606073
-0.0608987
-0.0611922
-0.0614878
-0.0617855
-0.0620851
-0.0623868
-0.0626905
-0.062996
-0.0633033
-0.0636122
-0.0639225
-0.0642341
-0.0645467
-0.0648598
-0.0651731
-0.0654859
-0.0657976
-0.0661073
-0.0664139
-0.0667161
-0.0670121
-0.0673
-0.0675775
-0.0678416
-0.068089
-0.0683159
-0.0685181
-0.0686911
-0.0688302
-0.0689311
-0.06899
-0.0690046
-0.0453062
-0.0455762
-0.0458198
-0.0460147
-0.0462004
-0.0463852
-0.0465652
-0.0467405
-0.0469134
-0.0470855
-0.0472576
-0.0474306
-0.0476051
-0.0477816
-0.0479604
-0.0481418
-0.0483258
-0.0485126
-0.0487021
-0.0488943
-0.0490892
-0.0492868
-0.049487
-0.0496897
-0.0498948
-0.0501023
-0.0503121
-0.0505241
-0.0507383
-0.0509547
-0.0511731
-0.0513936
-0.051616
-0.0518405
-0.0520668
-0.052295
-0.0525251
-0.0527571
-0.0529908
-0.0532264
-0.0534638
-0.053703
-0.0539439
-0.0541867
-0.0544312
-0.0546775
-0.0549255
-0.0551754
-0.055427
-0.0556804
-0.0559356
-0.0561926
-0.0564514
-0.056712
-0.0569744
-0.0572387
-0.0575049
-0.0577729
-0.0580428
-0.0583146
-0.0585883
-0.0588639
-0.0591414
-0.0594209
-0.0597023
-0.0599857
-0.060271
-0.0605582
-0.0608473
-0.0611384
-0.0614314
-0.0617261
-0.0620227
-0.062321
-0.062621
-0.0629225
-0.0632253
-0.0635294
-0.0638345
-0.0641402
-0.0644464
-0.0647525
-0.065058
-0.0653623
-0.0656646
-0.065964
-0.0662593
-0.0665492
-0.066832
-0.0671058
-0.0673682
-0.0676166
-0.067848
-0.0680591
-0.0682462
-0.0684056
-0.0685335
-0.0686267
-0.0686822
-0.0686986
-0.0452203
-0.0454912
-0.0457378
-0.0459362
-0.0461262
-0.0463161
-0.0465017
-0.0466825
-0.0468607
-0.0470378
-0.0472144
-0.0473914
-0.0475695
-0.047749
-0.0479304
-0.0481139
-0.0482997
-0.0484879
-0.0486786
-0.0488717
-0.0490674
-0.0492655
-0.0494661
-0.049669
-0.0498743
-0.0500819
-0.0502917
-0.0505036
-0.0507177
-0.0509339
-0.0511521
-0.0513723
-0.0515944
-0.0518185
-0.0520444
-0.0522723
-0.052502
-0.0527334
-0.0529667
-0.0532018
-0.0534387
-0.0536773
-0.0539177
-0.0541598
-0.0544037
-0.0546493
-0.0548967
-0.0551458
-0.0553967
-0.0556493
-0.0559036
-0.0561597
-0.0564176
-0.0566773
-0.0569387
-0.0572019
-0.0574669
-0.0577337
-0.0580023
-0.0582727
-0.058545
-0.058819
-0.0590949
-0.0593726
-0.0596521
-0.0599335
-0.0602166
-0.0605015
-0.0607882
-0.0610766
-0.0613666
-0.0616583
-0.0619515
-0.0622461
-0.0625421
-0.0628392
-0.0631374
-0.0634363
-0.0637358
-0.0640354
-0.0643349
-0.0646337
-0.0649313
-0.0652269
-0.0655198
-0.065809
-0.0660933
-0.0663713
-0.0666415
-0.0669019
-0.0671504
-0.0673846
-0.0676018
-0.0677991
-0.0679733
-0.0681214
-0.0682405
-0.0683277
-0.0683812
-0.0683998
-0.0451346
-0.0454063
-0.0456555
-0.0458569
-0.0460505
-0.0462447
-0.0464351
-0.0466208
-0.0468037
-0.0469853
-0.0471661
-0.047347
-0.0475284
-0.0477109
-0.0478949
-0.0480806
-0.0482683
-0.0484581
-0.04865
-0.0488443
-0.0490408
-0.0492395
-0.0494406
-0.0496439
-0.0498494
-0.0500571
-0.0502669
-0.0504788
-0.0506928
-0.0509088
-0.0511268
-0.0513468
-0.0515686
-0.0517923
-0.0520179
-0.0522453
-0.0524746
-0.0527056
-0.0529384
-0.0531729
-0.0534092
-0.0536472
-0.053887
-0.0541285
-0.0543716
-0.0546165
-0.0548631
-0.0551114
-0.0553614
-0.0556132
-0.0558666
-0.0561217
-0.0563785
-0.0566371
-0.0568974
-0.0571594
-0.0574231
-0.0576885
-0.0579557
-0.0582246
-0.0584952
-0.0587676
-0.0590417
-0.0593174
-0.0595949
-0.059874
-0.0601548
-0.0604372
-0.0607211
-0.0610066
-0.0612935
-0.0615818
-0.0618713
-0.0621621
-0.0624538
-0.0627464
-0.0630395
-0.0633331
-0.0636267
-0.0639201
-0.0642127
-0.0645041
-0.0647936
-0.0650806
-0.0653642
-0.0656433
-0.0659169
-0.0661836
-0.0664418
-0.0666898
-0.0669256
-0.0671469
-0.0673515
-0.0675367
-0.0677
-0.0678388
-0.0679506
-0.0680335
-0.068086
-0.0681071
-0.0450487
-0.0453211
-0.0455725
-0.0457764
-0.045973
-0.046171
-0.0463655
-0.0465554
-0.0467426
-0.0469283
-0.047113
-0.0472974
-0.0474821
-0.0476675
-0.0478541
-0.048042
-0.0482316
-0.048423
-0.0486163
-0.0488117
-0.0490091
-0.0492086
-0.0494103
-0.049614
-0.0498198
-0.0500277
-0.0502376
-0.0504496
-0.0506635
-0.0508794
-0.0510972
-0.0513169
-0.0515384
-0.0517618
-0.051987
-0.052214
-0.0524427
-0.0526733
-0.0529055
-0.0531395
-0.0533752
-0.0536125
-0.0538516
-0.0540924
-0.0543348
-0.0545789
-0.0548246
-0.055072
-0.0553211
-0.0555718
-0.0558242
-0.0560783
-0.056334
-0.0565913
-0.0568503
-0.057111
-0.0573733
-0.0576373
-0.0579029
-0.0581701
-0.058439
-0.0587095
-0.0589815
-0.0592552
-0.0595304
-0.0598072
-0.0600854
-0.060365
-0.0606461
-0.0609284
-0.061212
-0.0614967
-0.0617824
-0.062069
-0.0623563
-0.062644
-0.062932
-0.06322
-0.0635077
-0.0637946
-0.0640802
-0.0643641
-0.0646457
-0.0649241
-0.0651985
-0.0654679
-0.0657312
-0.0659871
-0.0662341
-0.0664706
-0.0666947
-0.0669045
-0.0670979
-0.0672727
-0.0674266
-0.0675576
-0.0676638
-0.0677434
-0.0677955
-0.0678193
-0.0449621
-0.0452351
-0.0454885
-0.0456946
-0.0458936
-0.0460948
-0.0462929
-0.0464867
-0.0466776
-0.046867
-0.0470553
-0.047243
-0.0474308
-0.047619
-0.047808
-0.0479981
-0.0481896
-0.0483827
-0.0485775
-0.048774
-0.0489724
-0.0491727
-0.049375
-0.0495792
-0.0497854
-0.0499935
-0.0502036
-0.0504156
-0.0506295
-0.0508453
-0.0510629
-0.0512824
-0.0515036
-0.0517267
-0.0519515
-0.052178
-0.0524063
-0.0526363
-0.0528679
-0.0531013
-0.0533363
-0.053573
-0.0538113
-0.0540513
-0.0542929
-0.0545361
-0.054781
-0.0550274
-0.0552755
-0.0555252
-0.0557764
-0.0560293
-0.0562838
-0.0565398
-0.0567974
-0.0570567
-0.0573174
-0.0575798
-0.0578437
-0.0581091
-0.0583761
-0.0586446
-0.0589145
-0.0591859
-0.0594587
-0.0597329
-0.0600084
-0.0602851
-0.0605631
-0.0608421
-0.0611221
-0.0614031
-0.0616847
-0.061967
-0.0622496
-0.0625325
-0.0628152
-0.0630975
-0.063379
-0.0636594
-0.063938
-0.0642145
-0.0644881
-0.064758
-0.0650235
-0.0652835
-0.065537
-0.0657828
-0.0660193
-0.0662452
-0.0664587
-0.0666582
-0.0668417
-0.0670074
-0.0671534
-0.067278
-0.0673795
-0.0674568
-0.067509
-0.0675356
-0.0448744
-0.045148
-0.0454032
-0.0456111
-0.0458123
-0.0460162
-0.0462175
-0.0464145
-0.0466089
-0.0468015
-0.0469931
-0.0471839
-0.0473745
-0.0475654
-0.0477568
-0.0479491
-0.0481425
-0.0483372
-0.0485333
-0.0487311
-0.0489305
-0.0491317
-0.0493347
-0.0495395
-0.049746
-0.0499545
-0.0501647
-0.0503768
-0.0505907
-0.0508064
-0.0510239
-0.0512431
-0.051464
-0.0516867
-0.0519111
-0.0521372
-0.052365
-0.0525944
-0.0528255
-0.0530582
-0.0532925
-0.0535285
-0.053766
-0.0540052
-0.0542459
-0.0544882
-0.054732
-0.0549775
-0.0552244
-0.055473
-0.055723
-0.0559746
-0.0562278
-0.0564824
-0.0567386
-0.0569962
-0.0572554
-0.057516
-0.0577781
-0.0580416
-0.0583065
-0.0585728
-0.0588405
-0.0591094
-0.0593797
-0.0596511
-0.0599237
-0.0601974
-0.0604721
-0.0607477
-0.061024
-0.061301
-0.0615785
-0.0618563
-0.0621342
-0.0624119
-0.0626892
-0.0629657
-0.0632411
-0.0635149
-0.0637866
-0.0640557
-0.0643215
-0.0645832
-0.0648401
-0.0650912
-0.0653353
-0.0655715
-0.0657983
-0.0660145
-0.0662184
-0.0664086
-0.0665834
-0.0667412
-0.0668804
-0.0669996
-0.0670975
-0.0671732
-0.0672259
-0.0672554
-0.0447854
-0.0450595
-0.0453163
-0.0455258
-0.0457288
-0.0459351
-0.0461391
-0.0463391
-0.0465364
-0.0467321
-0.0469266
-0.0471203
-0.0473135
-0.0475069
-0.0477006
-0.0478949
-0.0480901
-0.0482865
-0.0484841
-0.0486831
-0.0488836
-0.0490856
-0.0492893
-0.0494946
-0.0497017
-0.0499104
-0.0501209
-0.0503331
-0.050547
-0.0507626
-0.0509799
-0.0511989
-0.0514196
-0.0516419
-0.0518659
-0.0520915
-0.0523188
-0.0525476
-0.0527781
-0.0530101
-0.0532437
-0.0534789
-0.0537156
-0.0539538
-0.0541936
-0.0544349
-0.0546777
-0.054922
-0.0551678
-0.0554151
-0.0556639
-0.0559142
-0.0561659
-0.056419
-0.0566736
-0.0569296
-0.057187
-0.0574458
-0.0577059
-0.0579674
-0.0582301
-0.0584941
-0.0587594
-0.0590258
-0.0592934
-0.059562
-0.0598316
-0.060102
-0.0603733
-0.0606453
-0.0609178
-0.0611908
-0.0614639
-0.0617371
-0.0620102
-0.0622827
-0.0625545
-0.0628252
-0.0630944
-0.0633617
-0.0636266
-0.0638884
-0.0641466
-0.0644004
-0.064649
-0.0648915
-0.0651269
-0.0653541
-0.0655719
-0.0657791
-0.0659744
-0.0661562
-0.0663233
-0.0664743
-0.0666077
-0.0667225
-0.0668175
-0.066892
-0.0669455
-0.0669778
-0.0446949
-0.0449694
-0.0452276
-0.0454385
-0.0456431
-0.0458515
-0.0460579
-0.0462605
-0.0464604
-0.0466588
-0.046856
-0.0470522
-0.047248
-0.0474436
-0.0476395
-0.0478358
-0.0480328
-0.0482307
-0.0484297
-0.0486299
-0.0488315
-0.0490344
-0.0492388
-0.0494447
-0.0496522
-0.0498613
-0.050072
-0.0502843
-0.0504983
-0.0507138
-0.050931
-0.0511498
-0.0513702
-0.0515921
-0.0518157
-0.0520408
-0.0522675
-0.0524958
-0.0527256
-0.0529569
-0.0531897
-0.053424
-0.0536599
-0.0538972
-0.054136
-0.0543762
-0.0546179
-0.0548611
-0.0551056
-0.0553516
-0.0555991
-0.0558479
-0.0560981
-0.0563496
-0.0566025
-0.0568568
-0.0571123
-0.0573691
-0.0576272
-0.0578865
-0.058147
-0.0584086
-0.0586713
-0.0589351
-0.0591998
-0.0594655
-0.0597319
-0.0599991
-0.0602668
-0.0605351
-0.0608037
-0.0610724
-0.0613412
-0.0616098
-0.0618778
-0.0621452
-0.0624115
-0.0626764
-0.0629395
-0.0632003
-0.0634584
-0.0637131
-0.0639639
-0.0642101
-0.0644508
-0.0646852
-0.0649123
-0.0651312
-0.0653407
-0.0655398
-0.0657271
-0.0659016
-0.0660619
-0.0662069
-0.0663354
-0.0664464
-0.0665392
-0.066613
-0.0666674
-0.0667026
-0.0446026
-0.0448775
-0.045137
-0.0453492
-0.0455551
-0.0457653
-0.0459738
-0.0461787
-0.046381
-0.0465818
-0.0467814
-0.04698
-0.0471781
-0.0473758
-0.0475737
-0.0477719
-0.0479706
-0.04817
-0.0483704
-0.0485718
-0.0487743
-0.0489781
-0.0491833
-0.0493898
-0.0495977
-0.0498072
-0.0500181
-0.0502306
-0.0504445
-0.05066
-0.0508771
-0.0510956
-0.0513157
-0.0515373
-0.0517604
-0.0519851
-0.0522112
-0.0524388
-0.0526679
-0.0528985
-0.0531305
-0.0533639
-0.0535988
-0.0538352
-0.0540729
-0.054312
-0.0545526
-0.0547945
-0.0550378
-0.0552824
-0.0555284
-0.0557757
-0.0560243
-0.0562742
-0.0565253
-0.0567777
-0.0570313
-0.0572861
-0.057542
-0.057799
-0.0580571
-0.0583163
-0.0585764
-0.0588373
-0.0590991
-0.0593617
-0.0596249
-0.0598886
-0.0601528
-0.0604172
-0.0606818
-0.0609463
-0.0612106
-0.0614744
-0.0617376
-0.0619997
-0.0622605
-0.0625196
-0.0627766
-0.0630311
-0.0632826
-0.0635305
-0.0637742
-0.064013
-0.0642461
-0.0644729
-0.0646923
-0.0649034
-0.0651053
-0.0652969
-0.0654772
-0.065645
-0.0657993
-0.0659391
-0.0660633
-0.0661713
-0.0662622
-0.0663357
-0.0663913
-0.0664292
-0.0445084
-0.0447837
-0.0450444
-0.0452576
-0.0454647
-0.0456765
-0.0458869
-0.0460937
-0.0462982
-0.0465012
-0.0467029
-0.0469037
-0.0471038
-0.0473036
-0.0475033
-0.0477032
-0.0479035
-0.0481044
-0.0483061
-0.0485086
-0.0487122
-0.0489168
-0.0491227
-0.0493298
-0.0495382
-0.049748
-0.0499592
-0.0501718
-0.0503858
-0.0506012
-0.0508181
-0.0510364
-0.0512562
-0.0514774
-0.0517001
-0.0519242
-0.0521497
-0.0523767
-0.0526051
-0.0528348
-0.053066
-0.0532986
-0.0535325
-0.0537678
-0.0540044
-0.0542424
-0.0544817
-0.0547223
-0.0549642
-0.0552074
-0.0554519
-0.0556976
-0.0559445
-0.0561927
-0.056442
-0.0566924
-0.056944
-0.0571966
-0.0574503
-0.057705
-0.0579607
-0.0582172
-0.0584745
-0.0587326
-0.0589914
-0.0592508
-0.0595107
-0.0597709
-0.0600314
-0.0602919
-0.0605524
-0.0608127
-0.0610724
-0.0613315
-0.0615897
-0.0618466
-0.0621019
-0.0623553
-0.0626064
-0.0628548
-0.0630998
-0.063341
-0.0635779
-0.0638097
-0.0640357
-0.0642552
-0.0644673
-0.0646713
-0.0648662
-0.065051
-0.0652248
-0.0653867
-0.0655357
-0.0656709
-0.0657916
-0.065897
-0.0659866
-0.0660599
-0.0661168
-0.0661573
-0.0444122
-0.0446879
-0.0449496
-0.0451637
-0.0453719
-0.045585
-0.045797
-0.0460057
-0.046212
-0.046417
-0.0466207
-0.0468234
-0.0470255
-0.0472271
-0.0474285
-0.0476301
-0.0478319
-0.0480341
-0.048237
-0.0484406
-0.0486452
-0.0488506
-0.0490572
-0.0492649
-0.0494738
-0.0496839
-0.0498953
-0.050108
-0.050322
-0.0505374
-0.0507541
-0.0509722
-0.0511917
-0.0514125
-0.0516347
-0.0518582
-0.0520832
-0.0523094
-0.0525371
-0.052766
-0.0529963
-0.0532279
-0.0534608
-0.053695
-0.0539305
-0.0541673
-0.0544053
-0.0546446
-0.0548851
-0.0551268
-0.0553696
-0.0556137
-0.0558589
-0.0561052
-0.0563526
-0.056601
-0.0568505
-0.0571009
-0.0573523
-0.0576045
-0.0578576
-0.0581115
-0.058366
-0.0586212
-0.0588769
-0.059133
-0.0593894
-0.0596461
-0.0599028
-0.0601595
-0.0604158
-0.0606718
-0.060927
-0.0611814
-0.0614346
-0.0616863
-0.0619363
-0.0621841
-0.0624293
-0.0626716
-0.0629105
-0.0631453
-0.0633756
-0.0636007
-0.0638199
-0.0640327
-0.0642381
-0.0644354
-0.0646238
-0.0648024
-0.0649704
-0.065127
-0.0652713
-0.0654026
-0.0655201
-0.0656234
-0.0657119
-0.0657854
-0.0658436
-0.0658866
-0.0443139
-0.0445898
-0.0448525
-0.0450675
-0.0452765
-0.0454909
-0.0457044
-0.0459146
-0.0461227
-0.0463293
-0.0465348
-0.0467394
-0.0469431
-0.0471464
-0.0473495
-0.0475525
-0.0477557
-0.0479592
-0.0481633
-0.048368
-0.0485734
-0.0487796
-0.0489869
-0.0491951
-0.0494044
-0.0496148
-0.0498264
-0.0500392
-0.0502533
-0.0504686
-0.0506851
-0.050903
-0.0511221
-0.0513425
-0.0515642
-0.0517872
-0.0520115
-0.052237
-0.0524639
-0.052692
-0.0529213
-0.053152
-0.0533838
-0.0536169
-0.0538512
-0.0540867
-0.0543234
-0.0545613
-0.0548003
-0.0550404
-0.0552816
-0.055524
-0.0557674
-0.0560118
-0.0562572
-0.0565035
-0.0567508
-0.056999
-0.057248
-0.0574977
-0.0577482
-0.0579993
-0.0582509
-0.0585031
-0.0587556
-0.0590085
-0.0592615
-0.0595145
-0.0597674
-0.0600201
-0.0602723
-0.0605239
-0.0607747
-0.0610243
-0.0612726
-0.0615192
-0.0617639
-0.0620062
-0.0622458
-0.0624823
-0.0627151
-0.0629438
-0.0631678
-0.0633866
-0.0635994
-0.0638058
-0.0640049
-0.064196
-0.0643785
-0.0645515
-0.0647142
-0.0648661
-0.0650062
-0.065134
-0.065249
-0.0653505
-0.0654383
-0.065512
-0.0655716
-0.0656171
-0.0442134
-0.0444896
-0.0447532
-0.044969
-0.0451787
-0.0453941
-0.045609
-0.0458206
-0.0460301
-0.0462384
-0.0464455
-0.0466516
-0.0468569
-0.0470618
-0.0472663
-0.0474707
-0.0476752
-0.0478799
-0.048085
-0.0482907
-0.0484969
-0.048704
-0.0489118
-0.0491205
-0.0493302
-0.049541
-0.0497528
-0.0499657
-0.0501797
-0.0503949
-0.0506113
-0.0508288
-0.0510476
-0.0512676
-0.0514887
-0.0517111
-0.0519347
-0.0521596
-0.0523856
-0.0526128
-0.0528412
-0.0530708
-0.0533016
-0.0535335
-0.0537666
-0.0540008
-0.0542361
-0.0544725
-0.0547099
-0.0549485
-0.055188
-0.0554286
-0.0556701
-0.0559126
-0.0561559
-0.0564001
-0.0566452
-0.056891
-0.0571375
-0.0573847
-0.0576325
-0.0578808
-0.0581295
-0.0583786
-0.0586279
-0.0588774
-0.0591269
-0.0593763
-0.0596254
-0.0598741
-0.0601222
-0.0603695