/*--------------------------------*- C++ -*----------------------------------*\
| =========                 |                                                 |
| \\      /  F ield         | OpenFOAM: The Open Source CFD Toolbox           |
|  \\    /   O peration     | Version:  2406                                  |
|   \\  /    A nd           | Website:  www.openfoam.com                      |
|    \\/     M anipulation  |                                                 |
\*---------------------------------------------------------------------------*/
FoamFile
{
    version     2.0;
    format      ascii;
    arch        "LSB;label=32;scalar=64";
    class       surfaceScalarField;
    location    "69";
    object      phi;
}
// * * * * * * * * * * * * * * * * * * * * * * * * * * * * * * * * * * * * * //

dimensions      [0 3 -1 0 0 0 0];

oriented        oriented;

internalField   nonuniform List<scalar> 
3680
(
0.0194133
-0.000413323
0.0199692
-0.000555893
0.0204943
-0.000525146
0.0209951
-0.000500765
0.0215041
-0.000509026
0.0220508
-0.00054677
0.0226745
-0.000623728
0.0234411
-0.000766653
0.0244675
-0.00102638
-0.00203693
0.0265044
0.050846
-0.00025929
0.0508681
-0.000578102
0.0510697
-0.000726754
0.0514035
-0.000834592
0.0518522
-0.000957773
0.0524166
-0.00111115
0.0531082
-0.00131539
0.0539527
-0.0016112
0.05498
-0.00205375
-0.0027952
0.0557382
0.0749365
-0.000195771
0.0748796
-0.000521262
0.074909
-0.000756165
0.0750332
-0.000958784
0.0752512
-0.00117581
0.0755655
-0.00142552
0.0759748
-0.00172467
0.0764633
-0.00209973
0.0769856
-0.00257607
-0.00318421
0.0773746
0.0909679
-0.000163695
0.0909042
-0.000457519
0.0908656
-0.000717604
0.0908735
-0.000966756
0.0909296
-0.0012319
0.0910319
-0.0015278
0.0911733
-0.0018661
0.0913342
-0.00226065
0.0914792
-0.0027211
-0.00324802
0.091543
0.0989668
-0.000130546
0.0988829
-0.000373626
0.0987852
-0.000619923
0.0986955
-0.000877043
0.0986158
-0.00115218
0.098541
-0.00145301
0.0984622
-0.00178734
0.0983629
-0.00216131
0.0982178
-0.00257598
-0.00302369
0.0979934
0.0989532
-8.37861e-05
0.0988311
-0.000251507
0.0986695
-0.000458353
0.0984881
-0.000695632
0.0982867
-0.000950771
0.0980587
-0.00122499
0.0977949
-0.00152362
0.0974817
-0.00184804
0.0971005
-0.00219481
-0.00255519
0.096632
0.0909275
-1.12684e-05
0.0907514
-7.541e-05
0.0905246
-0.000231623
0.090262
-0.000432952
0.0899581
-0.000646881
0.0896055
-0.000872439
0.0891954
-0.00111347
0.0887153
-0.00136796
0.0881512
-0.00163068
-0.00189446
0.0874905
0.0748712
0.000117525
0.074636
0.00015977
0.0743658
3.8645e-05
0.0740586
-0.000125759
0.0737023
-0.000290645
0.0732881
-0.000458222
0.0728051
-0.000630404
0.0722402
-0.000803065
0.0715814
-0.000971873
-0.00113302
0.07082
0.0507669
0.000350622
0.0505666
0.000360028
0.0503943
0.000210974
0.050195
7.35451e-05
0.0499406
-3.62664e-05
0.0496148
-0.000132414
0.049204
-0.000219537
0.0486979
-0.000297007
0.048091
-0.000364933
-0.000423944
0.047382
0.0193506
0.0197106
0.0199216
0.0199952
0.0199589
0.0198265
0.019607
0.01931
0.018945
0.0185211
-5.01752e-05
5.01615e-05
-0.000220981
0.000170773
-0.000465158
0.000244146
-0.000736446
0.000271259
-0.00101158
0.000275111
-0.00128167
0.000270058
-0.00154425
0.000262561
-0.00179912
0.000254853
-0.00204655
0.000247407
-0.00228672
0.00024016
-0.00251971
0.000232975
-0.00274549
0.000225759
-0.00296395
0.000218448
-0.00317495
0.000210983
-0.00337825
0.000203295
-0.00357356
0.000195293
-0.00376043
0.000186857
-0.00393829
0.000177849
-0.00410641
0.000168111
-0.00426388
0.000157465
-0.00440961
0.000145726
-0.00454231
0.000132707
-0.00466054
0.000118232
-0.00476267
0.000102133
-0.00484693
8.42757e-05
-0.00491145
6.45435e-05
-0.00495428
4.28555e-05
-0.00497344
1.91867e-05
-0.00496694
-6.45763e-06
-0.004933
-3.39003e-05
-0.00487001
-6.29364e-05
-0.00477662
-9.33356e-05
-0.00465176
-0.000124796
-0.00449477
-0.000156922
-0.000189263
-0.00430543
-0.000210447
0.000260578
-0.000664576
0.000624818
-0.00124735
0.000826846
-0.00187563
0.000899466
-0.00250453
0.000903959
-0.00311458
0.000880045
-0.00369898
0.000846913
-0.00425622
0.000812046
-0.00478651
0.000777654
-0.00529044
0.000744051
-0.00576855
0.000711048
-0.00622121
0.000678384
-0.00664859
0.000645798
-0.00705064
0.000613006
-0.00742707
0.000579693
-0.00777729
0.000545489
-0.00810043
0.000509975
-0.0083953
0.000472694
-0.00866036
0.000433158
-0.00889377
0.000390868
-0.00909337
0.000345328
-0.00925673
0.000296074
-0.00938119
0.000242708
-0.00946392
0.000184894
-0.00950201
0.000122414
-0.00949256
5.51434e-05
-0.00943269
-1.69402e-05
-0.00931982
-9.35989e-05
-0.00915169
-0.000174478
-0.00892633
-0.00025915
-0.00864217
-0.000346966
-0.00829829
-0.000437083
-0.00789443
-0.000528498
-0.00743111
-0.000620079
-0.00071056
-0.00690962
-0.000366727
0.000627268
-0.0010678
0.00132582
-0.00190759
0.00166656
-0.00277802
0.00176984
-0.00362641
0.00175229
-0.0044306
0.00168418
-0.00518324
0.00159951
-0.00588334
0.00151211
-0.0065322
0.00142647
-0.00713164
0.00134345
-0.0076834
0.00126277
-0.00818886
0.00118381
-0.00864896
0.00110588
-0.00906422
0.00102824
-0.00943468
0.000950127
-0.00975995
0.000870737
-0.0100392
0.000789216
-0.0102712
0.000704702
-0.0104544
0.000616338
-0.0105869
0.000523303
-0.0106663
0.000424827
-0.0106905
0.000320251
-0.0106569
0.000209086
-0.0105629
9.09607e-05
-0.0104062
-3.42702e-05
-0.0101845
-0.00016641
-0.00989631
-0.000305098
-0.00954
-0.00044983
-0.00911457
-0.000599825
-0.00861953
-0.000754081
-0.00805506
-0.000911328
-0.00742202
-0.00107001
-0.00672203
-0.00122836
-0.0059575
-0.00138447
-0.00153629
-0.00513161
-0.000494954
0.00112219
-0.00137492
0.00220571
-0.00236751
0.00265908
-0.00334736
0.00274963
-0.00426375
0.00266863
-0.00509963
0.00252001
-0.00585228
0.00235212
-0.00652448
0.00218426
-0.00712058
0.00202252
-0.00764492
0.00186776
-0.00810121
0.00171903
-0.00849239
0.00157496
-0.00882061
0.00143407
-0.0090873
0.0012949
-0.00929324
0.00115604
-0.00943862
0.0010161
-0.00952314
0.00087373
-0.00954612
0.000727662
-0.0095065
0.000576713
-0.00940302
0.000419827
-0.00923427
0.000256094
-0.00899877
8.47622e-05
-0.00869512
-9.45305e-05
-0.00832233
-0.0002818
-0.00787968
-0.000476877
-0.00736661
-0.000679432
-0.00678287
-0.000888774
-0.00612875
-0.00110388
-0.00540515
-0.00132336
-0.00461354
-0.00154561
-0.00375606
-0.00176872
-0.00283552
-0.00199046
-0.00185543
-0.00220835
-0.000820047
-0.00241974
-0.00262191
0.000265672
-0.000592079
0.00171424
-0.00155778
0.00317134
-0.00256388
0.00366512
-0.00348771
0.0036734
-0.00429485
0.00347572
-0.00498205
0.00320717
-0.00555622
0.00292625
-0.00602677
0.00265477
-0.00640267
0.00239839
-0.00669145
0.00215649
-0.00689904
0.00192659
-0.00703002
0.0017059
-0.00708775
0.00149177
-0.00707459
0.00128172
-0.00699211
0.00107353
-0.00684123
0.000865191
-0.00662237
0.000654851
-0.00633558
0.000440864
-0.00598068
0.000221799
-0.00555736
-3.49729e-06
-0.00506542
-0.000235847
-0.00450497
-0.000475692
-0.00387624
-0.00072325
-0.00317961
-0.000978408
-0.00241575
-0.00124072
-0.00158575
-0.00150941
-0.000691197
-0.0017833
0.000265776
-0.00206082
0.00128256
-0.00234011
0.00235594
-0.00261895
0.00348207
-0.00289481
0.00465654
-0.00316488
0.00587437
-0.00342614
0.00713015
-0.00367547
-0.00390972
0.00841799
-0.000659563
0.00237378
-0.00158915
0.00410086
-0.0024216
0.00449751
-0.00307972
0.00433146
-0.00356957
0.00396552
-0.00391111
0.00354866
-0.004124
0.00313909
-0.00422498
0.00275571
-0.00422725
0.00240061
-0.00414067
0.00206988
-0.00397246
0.00175834
-0.00372794
0.00146134
-0.00341103
0.00117482
-0.00302447
0.000895121
-0.00257014
0.000619169
-0.00204939
0.000344412
-0.00146316
6.85986e-05
-0.000812132
-0.000210188
-9.69476e-05
-0.000493408
0.000681588
-0.000782052
0.00152252
-0.0010768
0.00242474
-0.00137792
0.00338682
-0.00168534
0.00440702
-0.00199862
0.00548321
-0.00231692
0.00661282
-0.00263902
0.0077928
-0.00296328
0.00901962
-0.00328764
0.0102892
-0.0036097
0.011597
-0.00392674
0.0129379
-0.00423572
0.0143064
-0.00453339
0.0156967
-0.00481636
0.0171024
-0.00508116
-0.00532442
0.0185171
-0.00068728
0.00306102
-0.00139256
0.00480607
-0.00177719
0.00488209
-0.00189368
0.0044479
-0.00182084
0.00389264
-0.0016057
0.00333346
-0.00127714
0.00281048
-0.000855052
0.00233357
-0.000353061
0.00189858
0.000219927
0.00149684
0.000857949
0.00112028
0.00155697
0.000762281
0.00231412
0.000417631
0.00312737
8.18325e-05
0.00399539
-0.000248888
0.00491741
-0.00057764
0.00589261
-0.000906639
0.0069199
-0.0012375
0.00799792
-0.00157146
0.00912514
-0.0019093
0.0102998
-0.00225147
0.0115198
-0.00259796
0.0127828
-0.00294834
0.0140859
-0.00330178
0.015426
-0.00365701
0.0167993
-0.00401235
0.0182017
-0.00436569
0.0196285
-0.00471454
0.0210749
-0.00505604
0.0225352
-0.00538705
0.0240036
-0.00570421
0.0254742
-0.00600396
0.0269406
-0.00628272
0.0283963
-0.00653693
-0.00676317
0.0298351
-0.000608683
0.00366968
-0.000672408
0.00486973
-0.000156087
0.00436571
0.000633662
0.0036581
0.001542
0.00298425
0.00251864
0.00235677
0.00354337
0.0017857
0.00460532
0.00127158
0.00569913
0.000804719
0.00682297
0.00037296
0.00797626
-3.30524e-05
0.00915926
-0.000420759
0.010373
-0.000796094
0.0116179
-0.00116319
0.0128942
-0.00152518
0.0142011
-0.00188457
0.0155377
-0.00224332
0.0169031
-0.00260287
0.0182958
-0.00296415
0.019714
-0.00332761
0.0211558
-0.00369329
0.0226186
-0.00406075
0.0240994
-0.00442915
0.0255948
-0.00479719
0.0271009
-0.00516316
0.0286134
-0.00552493
0.0301277
-0.00587998
0.0316386
-0.00622543
0.0331407
-0.00655813
0.0346283
-0.00687468
0.0360956
-0.00717152
0.0375366
-0.00744504
0.0389456
-0.00769168
0.0403167
-0.00790801
-0.00809084
0.0416443
9.00787e-05
0.00357956
0.0017403
0.00321945
0.00381037
0.00229558
0.00585011
0.00161831
0.0077867
0.00104762
0.00963007
0.000513361
0.0113994
1.63454e-05
0.0131123
-0.000441425
0.0147847
-0.000867726
0.0164287
-0.00127106
0.0180533
-0.00165768
0.0196646
-0.00203205
0.0212664
-0.00239798
0.0228618
-0.00275855
0.0244526
-0.00311609
0.0260403
-0.00347232
0.0276254
-0.00382844
0.0292077
-0.00418522
0.0307865
-0.00454298
0.0323605
-0.00490161
0.0339277
-0.00526055
0.0354858
-0.00561884
0.0370317
-0.00597511
0.0385621
-0.00632758
0.040073
-0.0066741
0.0415602
-0.00701216
0.0430191
-0.0073389
0.0444448
-0.0076512
0.0458325
-0.00794575
0.0471768
-0.00821907
0.048473
-0.00846765
0.0497159
-0.00868802
0.0509011
-0.00887685
0.0520242
-0.00903109
-0.00914802
0.0530813
0.00544002
-0.0018605
0.00985248
-0.00119306
0.0133873
-0.0012393
0.0164414
-0.00143584
0.0191504
-0.0016614
0.0215993
-0.0019355
0.0238584
-0.00224283
0.0259776
-0.00256067
0.0279896
-0.00287972
0.0299168
-0.00319828
0.0317753
-0.00351628
0.0335771
-0.00383386
0.0353306
-0.00415146
0.0370417
-0.0044697
0.0387146
-0.00478909
0.0403523
-0.00510996
0.0419562
-0.00543237
0.043527
-0.00575612
0.0450647
-0.0060807
0.0465684
-0.00640525
0.0480363
-0.00672855
0.0494665
-0.00704907
0.0508563
-0.00736491
0.0522026
-0.00767387
0.0535019
-0.00797342
0.0547505
-0.00826078
0.0559445
-0.00853292
0.05708
-0.00878665
0.0581529
-0.00901865
0.0591594
-0.00922559
0.060096
-0.00940422
0.0609594
-0.00955143
0.0617469
-0.00966436
0.0624563
-0.00974051
-0.0097778
0.0630861
0.0280333
-0.00338951
0.0305134
-0.00367311
0.0329683
-0.00369429
0.0353139
-0.00378147
0.0375557
-0.00390318
0.0396741
-0.00405398
0.0416705
-0.00423916
0.0435604
-0.00445067
0.0453593
-0.00467862
0.0470786
-0.00491754
0.048727
-0.00516477
0.0503117
-0.00541855
0.0518378
-0.00567756
0.053309
-0.00594089
0.0547277
-0.00620784
0.0560955
-0.00647773
0.0574129
-0.00674978
0.0586797
-0.00702302
0.0598953
-0.0072963
0.0610582
-0.00756817
0.0621666
-0.00783696
0.0632183
-0.0081007
0.0642105
-0.00835718
0.0651406
-0.00860394
0.0660055
-0.00883829
0.0668021
-0.00905738
0.0675274
-0.00925823
0.0681785
-0.00943778
0.0687529
-0.00959299
0.0692482
-0.0097209
0.0696627
-0.0098187
0.0699951
-0.00988385
0.070245
-0.00991417
0.0704123
-0.00990787
-0.00986365
0.0704982
0.0560443
-0.00369564
0.0566493
-0.00427805
0.0575269
-0.00457198
0.0585474
-0.00480194
0.0596608
-0.00501664
0.0608217
-0.00521483
0.0619905
-0.00540804
0.063145
-0.00560512
0.0642734
-0.00580702
0.0653685
-0.00601272
0.0664256
-0.00622182
0.0674411
-0.00643412
0.0684128
-0.00664919
0.0693384
-0.0068665
0.070216
-0.00708546
0.0710436
-0.00730538
0.0718192
-0.00752539
0.0725406
-0.00774438
0.0732053
-0.00796101
0.0738109
-0.00817373
0.0743546
-0.00838072
0.0748339
-0.00857995
0.0752459
-0.00876919
0.075588
-0.00894604
0.0758577
-0.00910794
0.0760526
-0.00925226
0.0761707
-0.00937633
0.0762105
-0.0094775
0.0761707
-0.00955322
0.076051
-0.00960113
0.0758514
-0.0096191
0.0755729
-0.00960535
0.0752172
-0.00955845
0.0747868
-0.00947745
-0.00936189
0.0742851
0.0775502
-0.00387122
0.0777149
-0.00444278
0.077974
-0.00483113
0.0783007
-0.0051286
0.0786746
-0.00539058
0.0790843
-0.0056245
0.0795129
-0.00583662
0.0799442
-0.00603644
0.0803666
-0.00622936
0.0807711
-0.0064173
0.0811507
-0.0066014
0.0814993
-0.00678267
0.0818118
-0.00696169
0.0820839
-0.00713862
0.0823118
-0.00731333
0.0824919
-0.00748542
0.0826207
-0.00765423
0.0826952
-0.00781882
0.0827122
-0.007978
0.0826689
-0.00813034
0.0825624
-0.00827422
0.0823903
-0.0084078
0.0821503
-0.00852913
0.0818404
-0.00863609
0.081459
-0.00872656
0.0810051
-0.00879834
0.0804782
-0.00884932
0.0798782
-0.00887747
0.079206
-0.00888095
0.078463
-0.00885813
0.0776517
-0.00880769
0.076775
-0.00872865
0.075837
-0.00862041
0.0748424
-0.00848283
-0.00831619
0.0737968
0.0914787
-0.00380695
0.0913457
-0.00430977
0.0912185
-0.00470387
0.091106
-0.00501609
0.0909982
-0.00528277
0.09089
-0.00551626
0.090775
-0.00572168
0.090645
-0.00590635
0.0904922
-0.00607656
0.0903108
-0.00623591
0.0900959
-0.00638649
0.0898431
-0.00652987
0.0895486
-0.00666717
0.089209
-0.00679898
0.0888212
-0.00692547
0.0883823
-0.00704649
0.0878897
-0.00716157
0.0873409
-0.00727001
0.0867338
-0.00737085
0.0860664
-0.00746293
0.0853372
-0.00754493
0.0845448
-0.00761539
0.0836885
-0.00767275
0.0827679
-0.00771542
0.0817832
-0.00774179
0.0807352
-0.00775028
0.0796254
-0.00773946
0.078456
-0.00770799
0.0772299
-0.0076548
0.0759509
-0.00757901
0.0746233
-0.00748006
0.0732524
-0.00735772
0.0718442
-0.0072121
0.0704051
-0.00704366
-0.00685323
0.0689421
0.0976668
-0.00348026
0.0972587
-0.00390172
0.0968094
-0.00425453
0.0963346
-0.00454126
0.0958327
-0.00478084
0.0953015
-0.00498504
0.0947393
-0.00515945
0.0941427
-0.00530978
0.093508
-0.00544181
0.0928318
-0.00555971
0.0921115
-0.00566614
0.0913447
-0.00576301
0.0905293
-0.00585171
0.0896634
-0.00593311
0.0887457
-0.00600765
0.0877746
-0.00607542
0.0867493
-0.0061362
0.0856689
-0.00618956
0.084533
-0.00623484
0.0833414
-0.00627124
0.0820943
-0.00629782
0.0807926
-0.00631356
0.0794373
-0.00631742
0.0780303
-0.00630832
0.0765738
-0.00628523
0.0750708
-0.00624722
0.0735249
-0.00619346
0.0719403
-0.00612329
0.0703218
-0.00603625
0.068675
-0.0059321
0.0670059
-0.00581086
0.065321
-0.00567279
0.0636274
-0.00551843
0.0619324
-0.00534857
-0.00516425
0.0602435
0.0960644
-0.00291267
0.0954056
-0.00324288
0.0946762
-0.00352511
0.0938906
-0.00375562
0.0930531
-0.00394331
0.0921653
-0.00409719
0.0912287
-0.00422282
0.090244
-0.004325
0.0892108
-0.0044086
0.0881288
-0.00447765
0.0869977
-0.00453502
0.0858175
-0.00458276
0.0845882
-0.00462239
0.0833101
-0.00465497
0.0819837
-0.00468113
0.0806095
-0.00470118
0.0791885
-0.00471512
0.0777218
-0.00472278
0.0762108
-0.00472381
0.0746574
-0.00471774
0.0730637
-0.00470401
0.0714322
-0.00468201
0.069766
-0.00465113
0.0680686
-0.00461076
0.0663438
-0.00456036
0.0645961
-0.00449947
0.0628305
-0.00442774
0.0610523
-0.00434497
0.0592673
-0.0042511
0.0574815
-0.00414626
0.0557015
-0.00403074
0.0539338
-0.00390501
0.0521851
-0.00376971
0.0504623
-0.00362565
-0.00347377
0.0487719
0.0867265
-0.00214871
0.0858631
-0.00237942
0.0849125
-0.00257445
0.083887
-0.00273009
0.0827945
-0.00285082
0.0816405
-0.00294313
0.0804298
-0.00301209
0.0791667
-0.00306187
0.0778547
-0.00309648
0.0764965
-0.00311943
0.0750949
-0.00313337
0.0736525
-0.00314023
0.0721715
-0.00314139
0.0706545
-0.00313785
0.0691036
-0.00313021
0.0675213
-0.0031188
0.06591
-0.00310372
0.0642722
-0.0030849
0.0626106
-0.00306217
0.0609282
-0.00303524
0.0592282
-0.00300382
0.0575138
-0.00296756
0.0557889
-0.00292615
0.0540575
-0.00287926
0.0523239
-0.00282668
0.0505928
-0.0027682
0.0488689
-0.00270376
0.0471573
-0.00263335
0.0454634
-0.00255709
0.0437925
-0.0024752
0.0421498
-0.00238801
0.0405408
-0.00229592
0.0389706
-0.00219944
0.0374442
-0.00209917
-0.00199572
0.0359662
0.0699526
-0.00128131
0.0689832
-0.00140998
0.0679221
-0.0015133
0.066782
-0.00158986
0.065574
-0.00164282
0.064308
-0.00167704
0.0629926
-0.00169663
0.0616356
-0.00170486
0.0602438
-0.00170459
0.0588227
-0.00169828
0.0573772
-0.00168776
0.0559113
-0.00167429
0.0544287
-0.00165869
0.0529325
-0.00164152
0.0514255
-0.00162308
0.0499102
-0.00160347
0.0483893
-0.00158269
0.0468651
-0.00156064
0.0453402
-0.00153717
0.0438172
-0.00151212
0.0422988
-0.00148529
0.0407879
-0.0014565
0.0392874
-0.0014256
0.0378007
-0.00139244
0.0363311
-0.00135694
0.0348821
-0.00131906
0.0334572
-0.00127878
0.0320601
-0.00123619
0.0306945
-0.00119137
0.0293639
-0.0011445
0.0280718
-0.00109577
0.0268214
-0.00104543
0.0256157
-0.00099375
0.0244577
-0.000941023
-0.000887563
0.0233496
0.0465744
-0.000473639
0.045677
-0.000512604
0.0447035
-0.00053973
0.0436693
-0.000555562
0.0425889
-0.000562335
0.0414746
-0.000562726
0.0403368
-0.000558796
0.039184
-0.000551944
0.0380227
-0.000543245
0.0368581
-0.000533548
0.0356938
-0.000523423
0.0345328
-0.000513182
0.0333772
-0.000502979
0.0322286
-0.000492871
0.0310885
-0.000482851
0.029958
-0.000472866
0.0288382
-0.000462846
0.0277304
-0.000452708
0.0266357
-0.000442373
0.0255554
-0.000431763
0.0244911
-0.000420809
0.0234441
-0.000409448
0.0224163
-0.000397633
0.0214093
-0.000385328
0.0204249
-0.000372515
0.0194652
-0.000359193
0.0185319
-0.000345376
0.0176269
-0.000331096
0.016752
-0.000316399
0.0159089
-0.000301342
0.0150992
-0.000285991
0.0143243
-0.000270423
0.0135853
-0.000254714
0.0128833
-0.000238949
-0.000223207
0.012219
0.0180475
0.0175349
0.0169952
0.0164396
0.0158773
0.0153146
0.0147558
0.0142039
0.0136606
0.0131271
0.0126037
0.0120905
0.0115876
0.0110947
0.0106119
0.0101391
0.00967623
0.00922355
0.00878119
0.00834945
0.00792867
0.00751924
0.00712163
0.00673632
0.00636382
0.00600465
0.00565929
0.00532821
0.00501183
0.0047105
0.00442452
0.00415411
0.00389941
0.00366047
0.00343727
-0.00408404
-0.0002213
-0.00383144
-0.000252518
-0.00354897
-0.000282371
-0.00323853
-0.00031034
-0.00290251
-0.000335913
-0.00254378
-0.000358634
-0.00216558
-0.000378098
-0.0017715
-0.000393978
-0.00136536
-0.000406034
-0.000414197
-0.000951059
-0.00633212
-0.0007986
-0.00570157
-0.000882854
-0.00502169
-0.000962025
-0.00429694
-0.00103486
-0.00353241
-0.00110021
-0.00273375
-0.00115706
-0.0019071
-0.00120452
-0.00105893
-0.00124191
-0.000195774
-0.00126895
-0.00128538
0.000675651
-0.0042484
-0.00168165
-0.00331266
-0.00181843
-0.00232982
-0.00194469
-0.00130589
-0.00205862
-0.000247336
-0.00215859
0.000838893
-0.00224312
0.00194567
-0.00231113
0.00306595
-0.00236202
0.00419254
-0.00239538
-0.00241106
0.00531839
0.00139628
-0.00281216
0.00256593
-0.00298799
0.00376834
-0.00314701
0.0049968
-0.003287
0.00624437
-0.00340606
0.00750401
-0.00350266
0.00876866
-0.00357567
0.0100312
-0.00362446
0.0112847
-0.00364879
-0.00364888
0.0125227
0.00973168
-0.00412582
0.0110646
-0.0043209
0.01241
-0.00449234
0.0137609
-0.00463782
0.0151103
-0.00475545
0.0164515
-0.00484378
0.0177778
-0.00490192
0.0190829
-0.00492946
0.0203607
-0.00492658
-0.00489394
0.0216059
0.0199342
-0.0055429
0.0213469
-0.00573365
0.0227486
-0.00589406
0.0241328
-0.00602195
0.025493
-0.00611565
0.0268233
-0.00617405
0.0281181
-0.00619665
0.0293722
-0.00618354
0.0305811
-0.00613543
-0.00605357
0.0317407
0.0312505
-0.00695831
0.0326364
-0.00711956
0.0339869
-0.00724458
0.0352965
-0.00733158
0.0365602
-0.00737933
0.0377734
-0.00738727
0.0389323
-0.00735547
0.0400334
-0.00728467
0.0410742
-0.00717622
-0.00703206
0.0420527
0.0429234
-0.00823736
0.044149
-0.00834521
0.045317
-0.00841256
0.0464236
-0.00843821
0.0474658
-0.00842157
0.0484413
-0.00836276
0.0493484
-0.00826257
0.0501862
-0.00812244
0.0509544
-0.00794442
-0.00773113
0.0516534
0.0540693
-0.00922537
0.0549855
-0.0092614
0.0558279
-0.00925499
0.0565953
-0.00920563
0.0572873
-0.00911352
0.057904
-0.00897951
0.0584465
-0.00880513
0.0589166
-0.00859251
0.0593165
-0.00834434
-0.00806381
0.0596491
0.0636354
-0.00977469
0.0641042
-0.0097302
0.0644931
-0.00964396
0.0648038
-0.00951629
0.0650384
-0.00934813
0.0651999
-0.00914106
0.065292
-0.00889726
0.0653189
-0.00861944
0.0652853
-0.00831079
-0.00797484
0.0651963
0.0705043
-0.00978076
0.0704331
-0.00965905
0.0702881
-0.00949895
0.0700733
-0.0093015
0.0697935
-0.00906834
0.069454
-0.00880165
0.0690608
-0.00850409
0.0686201
-0.00817874
0.0681383
-0.00782903
-0.0074586
0.067622
0.0737162
-0.00921182
0.073085
-0.00902786
0.0723972
-0.00881113
0.0716589
-0.0085633
0.0708771
-0.00828649
0.0700587
-0.00798326
0.0692111
-0.0076565
0.0683416
-0.00730938
0.0674578
-0.00694527
-0.00656764
0.0665668
0.0727062
-0.00812126
0.0715776
-0.00789922
0.0704182
-0.0076517
0.0692356
-0.00738072
0.0680377
-0.00708861
0.0668324
-0.00677799
0.0656276
-0.00645168
0.0644308
-0.00611262
0.0632493
-0.00576382
-0.00540826
0.0620899
0.0674629
-0.006642
0.0659752
-0.00641147
0.064487
-0.00616343
0.0630062
-0.00589991
0.0615407
-0.00562314
0.0600982
-0.00533545
0.0586858
-0.00503927
0.0573102
-0.00473703
0.0559774
-0.00443112
-0.00412381
0.054693
0.0585683
-0.00496675
0.0569144
-0.00475753
0.0552892
-0.0045382
0.0536998
-0.00431049
0.0521529
-0.00407619
0.0506546
-0.00383714
0.0492104
-0.00359511
0.0478252
-0.00335186
0.0465032
-0.00310903
-0.00286814
0.0452475
0.0471203
-0.00331511
0.0455136
-0.00315081
0.0439575
-0.00298207
0.0424572
-0.00281011
0.0410172
-0.00263614
0.0396415
-0.00246136
0.0383332
-0.00228687
0.0370951
-0.00211372
0.035929
-0.00194287
-0.00177516
0.034836
0.034541
-0.00188978
0.0331723
-0.00178204
0.0318635
-0.00167321
0.0306174
-0.00156398
0.0294363
-0.001455
0.0283219
-0.00134689
0.0272752
-0.00124022
0.026297
-0.00113547
0.0253873
-0.0010331
-0.000933443
0.0245456
0.0222936
-0.000833679
0.0212913
-0.00077969
0.020344
-0.000725888
0.0194526
-0.000672569
0.0186177
-0.000619979
0.0178392
-0.000568364
0.0171169
-0.000517912
0.0164503
-0.000468805
0.0158384
-0.000421167
-0.000375119
0.0152801
0.011593
-0.00020757
0.0110054
-0.00019211
0.0104565
-0.000176901
0.00994598
-0.000162001
0.0094735
-0.000147468
0.00903852
-0.000133341
0.00864031
-0.000119661
0.00827799
-0.000106448
0.00795058
-9.3725e-05
-8.14972e-05
0.00765699
0.00322971
0.00303761
0.00286072
0.00269872
0.00255126
0.00241793
0.00229827
0.00219183
0.00209811
0.00201662
-0.000532521
-0.000418432
-0.000113691
-0.000418722
0.000301713
-0.000415296
0.000710201
-0.000408379
0.00110854
-0.00039823
0.00149387
-0.00038522
0.00186371
-0.000369732
0.00221599
-0.000352173
0.00254906
-0.000332965
0.00286169
-0.000312523
0.00315305
-0.00029125
0.00342267
-0.000269521
0.00367045
-0.000247684
0.00389658
-0.000226046
0.00410155
-0.000204878
0.00428603
-0.000184406
0.00445092
-0.000164815
0.00459724
-0.000146249
0.00472612
-0.000128817
0.00483877
-0.00011259
0.00493643
-9.76085e-05
0.00502037
-8.38854e-05
0.00509182
-7.14115e-05
0.00515201
-6.0157e-05
0.00520212
-5.00776e-05
0.00524326
-4.1116e-05
0.00527649
-3.32072e-05
0.00530279
-2.62789e-05
0.00532306
-2.0256e-05
0.00533814
-1.50609e-05
0.00534877
-1.06166e-05
0.00535563
-6.84651e-06
0.00535931
-3.67656e-06
0.00536036
-1.03407e-06
1.14334e-06
0.00535922
0.00154867
-0.00129122
0.00241705
-0.00128686
0.00327474
-0.00127275
0.00411604
-0.00124944
0.00493573
-0.00121768
0.00572912
-0.00117837
0.00649212
-0.00113249
0.00722125
-0.00108107
0.00791367
-0.00102516
0.00856719
-0.000965817
0.00918023
-0.000904069
0.00975181
-0.000840888
0.0102815
-0.000777178
0.0107694
-0.000713762
0.0112161
-0.000651367
0.0116225
-0.000590626
0.0119899
-0.000532072
0.0123199
-0.000476137
0.0126144
-0.000423159
0.0128753
-0.000373388
0.0131048
-0.000326988
0.0133051
-0.000284051
0.0134784
-0.000244603
0.0136269
-0.000208615
0.0137529
-0.000176007
0.0138585
-0.000146662
0.0139458
-0.000120433
0.0140167
-9.71488e-05
0.0140731
-7.66198e-05
0.0141167
-5.86474e-05
0.0141492
-4.3026e-05
0.0141719
-2.95489e-05
0.0141862
-1.80113e-05
0.0141934
-8.21447e-06
3.20784e-08
0.0141946
0.00643664
-0.0024093
0.00754064
-0.00239069
0.00862416
-0.00235609
0.0096815
-0.00230659
0.0107075
-0.0022435
0.0116976
-0.00216829
0.0126479
-0.00208258
0.013555
-0.00198804
0.0144164
-0.00188636
0.01523
-0.00177924
0.0159945
-0.00166831
0.0167089
-0.00155513
0.017373
-0.00144114
0.0179871
-0.00132767
0.0185517
-0.0012159
0.0190681
-0.00110686
0.0195376
-0.00100144
0.019962
-0.000900348
0.0203431
-0.000804183
0.0206832
-0.000713383
0.0209846
-0.00062826
0.0212496
-0.000549009
0.0214808
-0.000475717
0.0216806
-0.000408377
0.0218516
-0.000346902
0.0219961
-0.000291137
0.0221166
-0.00024087
0.0222153
-0.000195846
0.0222945
-0.000155774
0.0223562
-0.000120341
0.0224024
-8.92148e-05
0.022435
-6.20573e-05
0.0224555
-3.85268e-05
0.0224656
-1.82874e-05
-1.01421e-06
0.0224667
0.0137388
-0.00362533
0.0149274
-0.00357917
0.0160833
-0.00351178
0.0172016
-0.00342484
0.0182785
-0.00332024
0.0193105
-0.00320009
0.0202946
-0.00306661
0.0212288
-0.00292209
0.0221115
-0.00276883
0.0229414
-0.00260908
0.0237182
-0.00244499
0.0244419
-0.00227863
0.0251128
-0.00211188
0.0257317
-0.00194646
0.0262998
-0.00178389
0.0268185
-0.00162552
0.0272897
-0.00147248
0.0277151
-0.0013257
0.028097
-0.00118595
0.0284374
-0.00105378
0.0287389
-0.000929617
0.0290036
-0.000813704
0.0292341
-0.000706161
0.0294328
-0.000606985
0.029602
-0.000516069
0.0297441
-0.000433215
0.0298614
-0.000358151
0.0299562
-0.000290545
0.0300304
-0.000230017
0.0300863
-0.000176153
0.0301256
-0.000128513
0.0301502
-8.66417e-05
0.0301618
-5.00804e-05
0.0301619
-1.83767e-05
8.91208e-06
0.030152
0.0228133
-0.00483268
0.0239786
-0.0047444
0.025098
-0.00463109
0.0261683
-0.00449505
0.027187
-0.00433881
0.0281521
-0.00416511
0.0290623
-0.00397675
0.029917
-0.00377661
0.0307157
-0.0035675
0.0314589
-0.00335215
0.0321472
-0.00313317
0.0327816
-0.00291297
0.0333636
-0.00269377
0.0338948
-0.00247757
0.0343771
-0.00226612
0.0348125
-0.00206093
0.0352034
-0.00186327
0.0355519
-0.00167417
0.0358605
-0.00149446
0.0361315
-0.00132474
0.0363674
-0.00116541
0.0365704
-0.00101671
0.036743
-0.000878735
0.0368875
-0.000751417
0.037006
-0.000634585
0.0371008
-0.000527966
0.0371739
-0.000431203
0.0372272
-0.000343871
0.0372627
-0.000265493
0.0372821
-0.000195552
0.0372871
-0.000133506
0.0372793
-7.87974e-05
0.0372601
-3.08704e-05
0.0372309
1.0825e-05
4.68552e-05
0.037193
0.0328478
-0.00593974
0.0338997
-0.0057962
0.0348942
-0.00562558
0.03583
-0.0054308
0.0367063
-0.00521504
0.0375229
-0.00498158
0.03828
-0.00473378
0.0389784
-0.00447498
0.0396194
-0.00420843
0.0402045
-0.00393721
0.0407356
-0.00366424
0.0412149
-0.00339219
0.0416446
-0.00312346
0.0420273
-0.00286021
0.0423655
-0.00260426
0.0426618
-0.00235721
0.0429189
-0.00212032
0.0431394
-0.00189464
0.0433259
-0.00168093
0.0434809
-0.00147974
0.0436069
-0.0012914
0.0437063
-0.00111606
0.0437813
-0.000953706
0.0438341
-0.000804165
0.0438666
-0.000667157
0.043881
-0.000542291
0.0438789
-0.000429095
0.043862
-0.000327028
0.043832
-0.000235499
0.0437904
-0.000153884
0.0437384
-8.15359e-05
0.0436774
-1.78172e-05
0.0436086
3.79361e-05
0.0435331
8.64137e-05
0.000128283
0.0434516
0.0429676
-0.00685465
0.0438183
-0.00664687
0.0446047
-0.00641199
0.0453275
-0.00615351
0.0459875
-0.00587511
0.0465865
-0.00558054
0.0471263
-0.00527356
0.0476092
-0.00495783
0.0480376
-0.00463685
0.0484143
-0.00431394
0.0487422
-0.00399213
0.0490242
-0.00367418
0.0492633
-0.00336256
0.0494625
-0.00305939
0.0496248
-0.0027665
0.0497529
-0.00248538
0.0498499
-0.00221724
0.0499182
-0.00196299
0.0499606
-0.0017233
0.0499794
-0.00149857
0.049977
-0.00128901
0.0499556
-0.00109462
0.0499171
-0.000915237
0.0498635
-0.000750565
0.0497965
-0.000600179
0.0497177
-0.000463555
0.0496287
-0.000340092
0.0495308
-0.000229128
0.0494253
-0.000129959
0.0493133
-4.18724e-05
0.0491958
3.58749e-05
0.0490739
0.000104073
0.0489484
0.000163507
0.0488199
0.000214929
0.000259077
0.0486891
0.0522844
-0.00748563
0.0528489
-0.0072114
0.0533491
-0.00691218
0.0537874
-0.0065919
0.0541669
-0.00625459
0.0544906
-0.00590428
0.054762
-0.00554491
0.0549844
-0.00518026
0.0551614
-0.00481389
0.0552965
-0.00444911
0.0553932
-0.0040889
0.055455
-0.00373594
0.0554849
-0.00339256
0.0554862
-0.00306073
0.0554618
-0.00274211
0.0554144
-0.00243803
0.0553467
-0.0021495
0.0552609
-0.00187725
0.0551593
-0.00162177
0.055044
-0.00138328
0.0549168
-0.00116182
0.0547794
-0.00095722
0.0546333
-0.000769184
0.05448
-0.000597258
0.0543206
-0.000440887
0.0541565
-0.000299422
0.0539885
-0.000172149
0.0538177
-5.83169e-05
0.0536449
4.28642e-05
0.0534707
0.000132247
0.0532959
0.000210692
0.0531209
0.000279041
0.0529463
0.000338125
0.0527725
0.000388761
0.000431749
0.0525998
0.0599179
-0.00775447
0.0601266
-0.00742017
0.0602794
-0.00706496
0.0603804
-0.00669298
0.0604341
-0.00630836
0.0604449
-0.00591515
0.0604172
-0.00551724
0.0603552
-0.0051183
0.0602629
-0.00472171
0.0601443
-0.00433055
0.0600029
-0.00394756
0.059842
-0.00357515
0.0596648
-0.00321535
0.0594739
-0.00286987
0.0592718
-0.00254007
0.0590607
-0.00222701
0.0588426
-0.00193145
0.0586192
-0.00165388
0.0583919
-0.00139456
0.0581621
-0.00115354
0.0579309
-0.000930656
0.0576993
-0.000725604
0.057468
-0.00053793
0.0572377
-0.000367065
0.0570092
-0.000212343
0.0567827
-7.30307e-05
0.0565589
5.16594e-05
0.056338
0.000162577
0.0561202
0.000260599
0.0559058
0.000346599
0.0556951
0.000421458
0.055488
0.000486056
0.0552849
0.000541261
0.0550857
0.000587926
0.000626879
0.0548905
0.0650572
-0.00761542
0.0648734
-0.00723652
0.0646506
-0.00684223
0.0643942
-0.00643662
0.0641095
-0.00602367
0.0638014
-0.00560719
0.0634748
-0.00519076
0.0631341
-0.00477768
0.0627833
-0.00437095
0.0624259
-0.00397324
0.0620651
-0.00358687