/*--------------------------------*- C++ -*----------------------------------*\
| =========                 |                                                 |
| \\      /  F ield         | OpenFOAM: The Open Source CFD Toolbox           |
|  \\    /   O peration     | Version:  2406                                  |
|   \\  /    A nd           | Website:  www.openfoam.com                      |
|    \\/     M anipulation  |                                                 |
\*---------------------------------------------------------------------------*/
FoamFile
{
    version     2.0;
    format      ascii;
    arch        "LSB;label=32;scalar=64";
    class       volVectorField;
    location    "69";
    object      U;
}
// * * * * * * * * * * * * * * * * * * * * * * * * * * * * * * * * * * * * * //

dimensions      [0 1 -1 0 0 0 0];

internalField   nonuniform List<vector> 
1900
(
(0.191246 -0.00257497 0)
(0.19665 -0.00367984 0)
(0.202305 -0.00300673 0)
(0.207464 -0.0023912 0)
(0.212439 -0.00216037 0)
(0.217641 -0.00219437 0)
(0.223417 -0.00248779 0)
(0.230103 -0.00317135 0)
(0.23889 -0.00479523 0)
(0.246838 -0.0172725 0)
(0.507517 -0.00310101 0)
(0.507606 -0.00643007 0)
(0.509496 -0.00744032 0)
(0.512193 -0.00780688 0)
(0.515986 -0.00831406 0)
(0.521019 -0.00914416 0)
(0.527284 -0.0104677 0)
(0.534847 -0.0126613 0)
(0.544007 -0.0162038 0)
(0.553269 -0.0232816 0)
(0.748186 -0.00217794 0)
(0.748271 -0.00537719 0)
(0.748983 -0.00744024 0)
(0.74969 -0.00913275 0)
(0.751167 -0.0109556 0)
(0.753777 -0.0130908 0)
(0.757427 -0.0157242 0)
(0.761935 -0.0191949 0)
(0.76705 -0.0239293 0)
(0.771952 -0.0307199 0)
(0.908495 -0.00172001 0)
(0.90864 -0.00479062 0)
(0.908992 -0.00737808 0)
(0.908817 -0.00977631 0)
(0.908887 -0.0123007 0)
(0.909618 -0.0151317 0)
(0.910893 -0.018426 0)
(0.912465 -0.0223868 0)
(0.914069 -0.0271913 0)
(0.91527 -0.0329163 0)
(0.988588 -0.00141539 0)
(0.988593 -0.00414016 0)
(0.988549 -0.00674795 0)
(0.987626 -0.0093626 0)
(0.986537 -0.0121404 0)
(0.985702 -0.0152009 0)
(0.984998 -0.018647 0)
(0.984173 -0.0225746 0)
(0.983008 -0.0270258 0)
(0.981241 -0.0319332 0)
(0.988557 -0.00104001 0)
(0.988322 -0.00317095 0)
(0.987781 -0.00548199 0)
(0.986084 -0.00799607 0)
(0.983931 -0.0107062 0)
(0.981727 -0.0136497 0)
(0.979336 -0.0168835 0)
(0.976514 -0.020441 0)
(0.973083 -0.0243045 0)
(0.968878 -0.0283823 0)
(0.908403 -0.000481604 0)
(0.907836 -0.00177095 0)
(0.906727 -0.00359003 0)
(0.90427 -0.00576748 0)
(0.901199 -0.00813173 0)
(0.897875 -0.010669 0)
(0.894134 -0.0134112 0)
(0.88974 -0.0163512 0)
(0.884548 -0.0194405 0)
(0.878449 -0.0225927 0)
(0.748039 0.000459481 0)
(0.746984 0.000263014 0)
(0.745367 -0.00106708 0)
(0.74244 -0.0028514 0)
(0.738909 -0.00472176 0)
(0.735042 -0.00666972 0)
(0.73063 -0.00873106 0)
(0.725442 -0.010877 0)
(0.719347 -0.0130504 0)
(0.712261 -0.0151862 0)
(0.507343 0.00199665 0)
(0.506013 0.00320802 0)
(0.504989 0.00220078 0)
(0.503169 0.000581212 0)
(0.500801 -0.000983541 0)
(0.49792 -0.00246355 0)
(0.494296 -0.00389002 0)
(0.489745 -0.00523543 0)
(0.48419 -0.00647024 0)
(0.477609 -0.00757808 0)
(0.191079 0.0021071 0)
(0.195249 0.00257913 0)
(0.198411 0.00147275 0)
(0.199859 0.000501248 0)
(0.199979 -0.000101534 0)
(0.1991 -0.000524623 0)
(0.197332 -0.00085703 0)
(0.19474 -0.00110944 0)
(0.191415 -0.00129277 0)
(0.187453 -0.00142288 0)
(-5.37474e-05 3.85291e-05 0)
(-0.00118785 0.000356917 0)
(-0.00332279 0.000560113 0)
(-0.00597229 0.000628265 0)
(-0.00874358 0.000639275 0)
(-0.0114839 0.000632269 0)
(-0.0141509 0.000622483 0)
(-0.0167383 0.000614136 0)
(-0.0192492 0.000607249 0)
(-0.0216867 0.000600945 0)
(-0.0240523 0.00059456 0)
(-0.0263461 0.000587786 0)
(-0.0285674 0.000580553 0)
(-0.030715 0.000572802 0)
(-0.0327871 0.00056451 0)
(-0.034781 0.000555571 0)
(-0.036693 0.000545794 0)
(-0.0385181 0.000534908 0)
(-0.0402498 0.00052258 0)
(-0.04188 0.000508348 0)
(-0.0433986 0.000491715 0)
(-0.0447938 0.000472108 0)
(-0.0460517 0.000448985 0)
(-0.047157 0.000421735 0)
(-0.0480927 0.00038978 0)
(-0.0488405 0.000352442 0)
(-0.0493812 0.000309037 0)
(-0.049695 0.000259047 0)
(-0.0497621 0.000202323 0)
(-0.0495626 0.00013929 0)
(-0.0490804 7.0153e-05 0)
(-0.0483003 -4.77471e-06 0)
(-0.0472101 -8.49822e-05 0)
(-0.0458009 -0.000169575 0)
(-0.0440683 -0.000257343 0)
(-0.000515263 0.00127377 0)
(-0.00401227 0.00344067 0)
(-0.00934803 0.00474798 0)
(-0.0155662 0.0052512 0)
(-0.0219337 0.00532419 0)
(-0.0281581 0.00522194 0)
(-0.0341383 0.00506609 0)
(-0.0398468 0.00490174 0)
(-0.0452827 0.0047405 0)
(-0.0504519 0.00458287 0)
(-0.0553606 0.00442712 0)
(-0.0600135 0.00427173 0)
(-0.0644134 0.00411545 0)
(-0.0685609 0.00395705 0)
(-0.0724543 0.00379503 0)
(-0.0760893 0.00362748 0)
(-0.0794586 0.00345205 0)
(-0.0825519 0.00326603 0)
(-0.0853556 0.00306632 0)
(-0.0878527 0.00284966 0)
(-0.0900232 0.00261262 0)
(-0.091844 0.00235186 0)
(-0.0932895 0.00206425 0)
(-0.094332 0.00174691 0)
(-0.0949427 0.00139743 0)
(-0.0950924 0.00101401 0)
(-0.0947517 0.000595877 0)
(-0.0938927 0.000143557 0)
(-0.0924917 -0.000341898 0)
(-0.0905279 -0.000858012 0)
(-0.0879821 -0.00140097 0)
(-0.0848421 -0.00196598 0)
(-0.0811019 -0.00254694 0)
(-0.0767626 -0.00313648 0)
(-0.0718331 -0.00372624 0)
(-0.000992534 0.00416674 0)
(-0.00673325 0.00927363 0)
(-0.0146611 0.0119764 0)
(-0.0234284 0.0129143 0)
(-0.0321201 0.0129216 0)
(-0.0404149 0.0125332 0)
(-0.0482054 0.0120121 0)
(-0.0554664 0.0114643 0)
(-0.0622059 0.0109234 0)
(-0.0684421 0.0103957 0)
(-0.0741938 0.00987929 0)
(-0.0794768 0.00937054 0)
(-0.0843027 0.00886532 0)
(-0.0886788 0.00835908 0)
(-0.0926078 0.00784685 0)
(-0.096088 0.00732302 0)
(-0.0991132 0.00678143 0)
(-0.101673 0.00621554 0)
(-0.103754 0.00561856 0)
(-0.105337 0.00498368 0)
(-0.106402 0.00430434 0)
(-0.106926 0.00357452 0)
(-0.106884 0.00278918 0)
(-0.106252 0.00194434 0)
(-0.105004 0.00103802 0)
(-0.103115 7.02404e-05 0)
(-0.100569 -0.000957993 0)
(-0.0973487 -0.0020433 0)
(-0.0934406 -0.0031801 0)
(-0.0888375 -0.00436145 0)
(-0.0835374 -0.00557798 0)
(-0.0775453 -0.00681758 0)
(-0.0708737 -0.00806634 0)
(-0.0635427 -0.00930875 0)
(-0.0555802 -0.0105281 0)
(-0.00140678 0.00854041 0)
(-0.00893332 0.0173639 0)
(-0.0185842 0.021417 0)
(-0.0286843 0.0225054 0)
(-0.038253 0.0221206 0)
(-0.0470326 0.0211271 0)
(-0.0549705 0.0199397 0)
(-0.0620832 0.0187276 0)
(-0.0684123 0.0175465 0)
(-0.0740036 0.0164067 0)
(-0.0788981 0.0153038 0)
(-0.083129 0.0142288 0)
(-0.0867215 0.0131719 0)
(-0.0896935 0.0121225 0)
(-0.0920555 0.0110702 0)
(-0.0938123 0.0100041 0)
(-0.0949632 0.00891328 0)
(-0.095503 0.00778689 0)
(-0.0954227 0.00661449 0)
(-0.0947105 0.00538634 0)
(-0.0933529 0.00409371 0)
(-0.0913352 0.00272914 0)
(-0.0886419 0.00128828 0)
(-0.0852608 -0.000231196 0)
(-0.081184 -0.00182955 0)
(-0.0764059 -0.0035042 0)
(-0.0709208 -0.00524966 0)
(-0.0647289 -0.00705805 0)
(-0.0578359 -0.00891818 0)
(-0.0502538 -0.0108171 0)
(-0.0420006 -0.0127392 0)
(-0.0331008 -0.0146653 0)
(-0.0235862 -0.0165741 0)
(-0.0134953 -0.0184424 0)
(-0.00287444 -0.0202458 0)
(-0.00177744 0.0140444 0)
(-0.0104881 0.0268266 0)
(-0.0206643 0.0317662 0)
(-0.0305248 0.0324369 0)
(-0.0392263 0.0311679 0)
(-0.0466858 0.0291681 0)
(-0.0529676 0.0269854 0)
(-0.0581658 0.0248338 0)
(-0.0623764 0.0227775 0)
(-0.0656824 0.0208211 0)
(-0.068151 0.0189497 0)
(-0.069834 0.0171439 0)
(-0.0707705 0.0153837 0)
(-0.0709887 0.01365 0)
(-0.0705077 0.0119248 0)
(-0.0693395 0.0101913 0)
(-0.0674904 0.00843331 0)
(-0.0649627 0.00663631 0)
(-0.0617551 0.00478698 0)
(-0.0578647 0.0028749 0)
(-0.0532878 0.000891723 0)
(-0.0480248 -0.00117015 0)
(-0.0420774 -0.00331393 0)
(-0.0354488 -0.005539 0)
(-0.0281434 -0.00784225 0)
(-0.0201699 -0.0102182 0)
(-0.0115407 -0.0126577 0)
(-0.00227343 -0.0151478 0)
(0.00760636 -0.0176717 0)
(0.0180678 -0.0202105 0)
(0.0290763 -0.0227419 0)
(0.0405913 -0.0252405 0)
(0.0525661 -0.0276786 0)
(0.0649483 -0.0300272 0)
(0.0776812 -0.0322566 0)
(-0.00213868 0.0203884 0)
(-0.0113379 0.0366169 0)
(-0.0203981 0.0414336 0)
(-0.0279493 0.0408637 0)
(-0.0336568 0.0381486 0)
(-0.0377581 0.034766 0)
(-0.040481 0.0313295 0)
(-0.0420112 0.0280561 0)
(-0.0424982 0.0249919 0)
(-0.0420551 0.0221184 0)
(-0.0407655 0.0194004 0)
(-0.0386907 0.0168011 0)
(-0.0358756 0.0142864 0)
(-0.0323526 0.0118254 0)
(-0.0281448 0.00939236 0)
(-0.0232672 0.00696381 0)
(-0.0177302 0.00451881 0)
(-0.0115427 0.00203952 0)
(-0.00470861 -0.000489393 0)
(0.00276612 -0.00307911 0)
(0.0108683 -0.00573737 0)
(0.0195881 -0.00846749 0)
(0.0289141 -0.0112702 0)
(0.038831 -0.014143 0)
(0.0493196 -0.0170796 0)
(0.0603564 -0.0200699 0)
(0.0719134 -0.0231001 0)
(0.0839576 -0.0261522 0)
(0.0964512 -0.0292056 0)
(0.109351 -0.0322354 0)
(0.122608 -0.0352129 0)
(0.13617 -0.0381074 0)
(0.149979 -0.0408864 0)
(0.163975 -0.0435165 0)
(0.178093 -0.0459644 0)
(-0.0025087 0.0275693 0)
(-0.0111355 0.0454047 0)
(-0.0165622 0.0482468 0)
(-0.018923 0.0454394 0)
(-0.0189993 0.0408425 0)
(-0.0174635 0.0359097 0)
(-0.0146807 0.0311831 0)
(-0.0108842 0.0268182 0)
(-0.00623504 0.0228067 0)
(-0.000840225 0.0190875 0)
(0.00522944 0.0155949 0)
(0.0119236 0.0122731 0)
(0.0192107 0.00907401 0)
(0.0270689 0.00595599 0)
(0.0354773 0.0028838 0)
(0.0444295 -0.000172473 0)
(0.0539184 -0.00323601 0)
(0.0639347 -0.00632509 0)
(0.0744653 -0.00945298 0)
(0.085496 -0.0126296 0)
(0.0970105 -0.0158614 0)
(0.10899 -0.0191489 0)
(0.121412 -0.0224895 0)
(0.13425 -0.025877 0)
(0.147475 -0.0293008 0)
(0.161053 -0.0327465 0)
(0.174943 -0.0361952 0)
(0.189102 -0.039624 0)
(0.203482 -0.0430064 0)
(0.21803 -0.0463128 0)
(0.232689 -0.0495107 0)
(0.2474 -0.0525657 0)
(0.262101 -0.0554425 0)
(0.276727 -0.0581055 0)
(0.291216 -0.0605201 0)
(-0.0027972 0.0357912 0)
(-0.0079521 0.0509059 0)
(-0.00515657 0.0488949 0)
(0.00189019 0.0430978 0)
(0.0106144 0.0367146 0)
(0.0201326 0.030525 0)
(0.0301873 0.024844 0)
(0.0406466 0.0197228 0)
(0.0514378 0.0150751 0)
(0.0625318 0.0107889 0)
(0.0739219 0.0067719 0)
(0.0855998 0.00294842 0)
(0.0975822 -0.000739912 0)
(0.109875 -0.00433798 0)
(0.122483 -0.00788149 0)
(0.135401 -0.0113991 0)
(0.148622 -0.0149125 0)
(0.162135 -0.018438 0)
(0.175929 -0.0219868 0)
(0.189988 -0.0255654 0)
(0.204295 -0.0291762 0)
(0.218825 -0.0328176 0)
(0.233551 -0.0364834 0)
(0.248442 -0.0401632 0)
(0.26346 -0.0438423 0)
(0.278565 -0.0475015 0)
(0.293712 -0.0511175 0)
(0.308851 -0.0546635 0)
(0.323931 -0.0581089 0)
(0.338894 -0.0614207 0)
(0.353684 -0.0645639 0)
(0.368241 -0.0675022 0)
(0.382506 -0.0701992 0)
(0.39642 -0.0726195 0)
(0.409927 -0.0747295 0)
(0.0011687 0.0387303 0)
(0.00786766 0.0460451 0)
(0.0267265 0.0379821 0)
(0.0481871 0.0300524 0)
(0.0683841 0.0231268 0)
(0.0872566 0.0167745 0)
(0.105274 0.011016 0)
(0.122657 0.00584043 0)
(0.139562 0.00113172 0)
(0.156122 -0.00324034 0)
(0.172446 -0.00736882 0)
(0.188616 -0.0113206 0)
(0.204674 -0.0151506 0)
(0.220654 -0.0189006 0)
(0.236581 -0.0226019 0)
(0.252472 -0.0262771 0)
(0.268336 -0.0299433 0)
(0.284174 -0.0336125 0)
(0.299982 -0.0372921 0)
(0.31575 -0.0409846 0)
(0.331462 -0.0446878 0)
(0.347095 -0.0483954 0)
(0.362624 -0.0520963 0)
(0.378015 -0.0557756 0)
(0.393232 -0.0594138 0)
(0.408234 -0.0629876 0)
(0.422977 -0.0664702 0)
(0.437413 -0.0698312 0)
(0.451493 -0.0730379 0)
(0.465166 -0.0760554 0)
(0.478381 -0.078848 0)
(0.491089 -0.0813798 0)
(0.503241 -0.0836158 0)
(0.514792 -0.0855228 0)
(0.525702 -0.0870711 0)
(0.0485499 0.0126576 0)
(0.079398 0.0138314 0)
(0.115023 0.00790931 0)
(0.149437 0.00248687 0)
(0.178753 -0.00198326 0)
(0.204297 -0.00626619 0)
(0.227631 -0.0104894 0)
(0.249453 -0.0145389 0)
(0.270067 -0.0184008 0)
(0.289719 -0.0221204 0)
(0.308613 -0.0257398 0)
(0.326891 -0.0292873 0)
(0.34465 -0.0327855 0)
(0.361961 -0.0362543 0)
(0.378872 -0.0397098 0)
(0.39542 -0.0431632 0)
(0.411625 -0.0466218 0)
(0.427499 -0.050089 0)
(0.443043 -0.0535641 0)
(0.458253 -0.0570427 0)
(0.473116 -0.060516 0)
(0.487613 -0.0639715 0)
(0.501721 -0.0673927 0)
(0.51541 -0.0707596 0)
(0.528647 -0.0740485 0)
(0.541397 -0.0772327 0)
(0.55362 -0.0802823 0)
(0.565278 -0.0831655 0)
(0.576329 -0.0858485 0)
(0.586736 -0.088297 0)
(0.59646 -0.0904764 0)
(0.605468 -0.0923534 0)
(0.613729 -0.0938965 0)
(0.621218 -0.0950774 0)
(0.627917 -0.0958718 0)
(0.27683 -0.0345233 0)
(0.294874 -0.0339642 0)
(0.316251 -0.0316454 0)
(0.340983 -0.0308824 0)
(0.364716 -0.0312904 0)
(0.386528 -0.0325378 0)
(0.406971 -0.0344199 0)
(0.426366 -0.0367055 0)
(0.444804 -0.0392173 0)
(0.462376 -0.0418625 0)
(0.479193 -0.0445978 0)
(0.495344 -0.0473984 0)
(0.510888 -0.0502491 0)
(0.525867 -0.0531413 0)
(0.540312 -0.0560695 0)
(0.554242 -0.059029 0)
(0.567668 -0.0620141 0)
(0.58059 -0.0650172 0)
(0.593006 -0.0680288 0)
(0.604902 -0.0710364 0)
(0.616264 -0.0740248 0)
(0.627071 -0.0769755 0)
(0.637298 -0.0798675 0)
(0.646917 -0.0826765 0)
(0.6559 -0.085376 0)
(0.664215 -0.0879371 0)
(0.671832 -0.0903292 0)
(0.678722 -0.0925203 0)
(0.684856 -0.0944782 0)
(0.690209 -0.0961707 0)
(0.694762 -0.097567 0)
(0.698499 -0.0986383 0)
(0.701411 -0.0993589 0)
(0.703496 -0.0997069 0)
(0.704758 -0.0996652 0)
(0.560316 -0.0339657 0)
(0.564083 -0.0402144 0)
(0.570075 -0.0430974 0)
(0.579647 -0.0451003 0)
(0.590847 -0.0469204 0)
(0.602408 -0.0486579 0)
(0.614065 -0.0504418 0)
(0.625705 -0.052349 0)
(0.637158 -0.0543748 0)
(0.648299 -0.0564945 0)
(0.65907 -0.0586919 0)
(0.669439 -0.0609561 0)
(0.679381 -0.0632765 0)
(0.688873 -0.0656432 0)
(0.697894 -0.068047 0)
(0.706425 -0.0704789 0)
(0.714447 -0.072929 0)
(0.721938 -0.0753856 0)
(0.728875 -0.0778349 0)
(0.735233 -0.080261 0)
(0.740986 -0.0826454 0)
(0.746108 -0.0849672 0)
(0.750572 -0.0872034 0)
(0.75435 -0.0893288 0)
(0.757415 -0.0913165 0)
(0.759744 -0.0931383 0)
(0.761314 -0.0947652 0)
(0.762106 -0.0961682 0)
(0.762109 -0.0973186 0)
(0.761312 -0.0981892 0)
(0.759714 -0.098755 0)
(0.75732 -0.0989938 0)
(0.754144 -0.0988873 0)
(0.750206 -0.0984217 0)
(0.745536 -0.097588 0)
(0.77524 -0.0386127 0)
(0.776745 -0.0444595 0)
(0.778294 -0.0481216 0)
(0.781055 -0.0508907 0)
(0.784719 -0.0533589 0)
(0.788753 -0.0556037 0)
(0.792965 -0.0576918 0)
(0.797279 -0.0597118 0)
(0.801579 -0.0617079 0)
(0.805741 -0.0636913 0)
(0.80968 -0.0656677 0)
(0.813333 -0.0676428 0)
(0.81665 -0.069619 0)
(0.819584 -0.0715952 0)
(0.822094 -0.0735679 0)
(0.824143 -0.075532 0)
(0.825696 -0.0774798 0)
(0.826721 -0.0794012 0)
(0.827185 -0.0812834 0)
(0.827061 -0.0831111 0)
(0.826318 -0.0848668 0)
(0.824932 -0.0865306 0)
(0.822877 -0.088081 0)
(0.820132 -0.0894951 0)
(0.816679 -0.0907488 0)
(0.812506 -0.0918176 0)
(0.807602 -0.0926771 0)
(0.801967 -0.0933034 0)
(0.795603 -0.0936742 0)
(0.788522 -0.0937693 0)
(0.780744 -0.0935713 0)
(0.772295 -0.0930662 0)
(0.763211 -0.092244 0)
(0.753535 -0.0910994 0)
(0.743319 -0.0896317 0)
(0.915449 -0.0390068 0)
(0.914431 -0.0442674 0)
(0.912893 -0.0482912 0)
(0.911547 -0.0515026 0)
(0.910473 -0.0542735 0)
(0.909454 -0.0567176 0)
(0.908359 -0.0588951 0)
(0.907142 -0.0608857 0)
(0.905744 -0.0627527 0)
(0.904091 -0.0645303 0)
(0.902123 -0.0662382 0)
(0.899794 -0.0678902 0)
(0.897066 -0.0694957 0)
(0.893905 -0.071059 0)
(0.890276 -0.0725809 0)
(0.88615 -0.0740587 0)
(0.881498 -0.0754873 0)
(0.876297 -0.0768582 0)
(0.870523 -0.0781607 0)
(0.864155 -0.0793816 0)
(0.857176 -0.0805058 0)
(0.849571 -0.0815167 0)
(0.841329 -0.0823964 0)
(0.832445 -0.0831261 0)
(0.822918 -0.0836868 0)
(0.812751 -0.0840597 0)
(0.801958 -0.0842266 0)
(0.790555 -0.0841708 0)
(0.77857 -0.0838775 0)
(0.766033 -0.0833345 0)
(0.752988 -0.0825326 0)
(0.739482 -0.0814659 0)
(0.725571 -0.0801326 0)
(0.711317 -0.0785349 0)
(0.696788 -0.0766789 0)
(0.978567 -0.036985 0)
(0.974885 -0.0416053 0)
(0.970491 -0.045428 0)
(0.965778 -0.0485389 0)
(0.960884 -0.0511596 0)
(0.955744 -0.0534154 0)
(0.950291 -0.0553712 0)
(0.944501 -0.0570927 0)
(0.938351 -0.0586408 0)
(0.931805 -0.0600568 0)
(0.92483 -0.061366 0)
(0.9174 -0.0625861 0)
(0.909493 -0.0637297 0)
(0.901092 -0.0648044 0)
(0.892178 -0.0658138 0)
(0.882738 -0.0667576 0)
(0.872758 -0.0676324 0)
(0.862231 -0.0684323 0)
(0.85115 -0.0691492 0)
(0.839512 -0.0697729 0)
(0.827318 -0.0702922 0)
(0.814572 -0.0706945 0)
(0.801283 -0.0709667 0)
(0.787467 -0.0710957 0)
(0.773143 -0.0710682 0)
(0.758338 -0.070872 0)
(0.743084 -0.0704957 0)
(0.727419 -0.0699299 0)
(0.711391 -0.0691671 0)
(0.69505 -0.0682023 0)
(0.678454 -0.0670333 0)
(0.661667 -0.065661 0)
(0.644757 -0.0640894 0)
(0.627795 -0.0623255 0)
(0.610856 -0.0603796 0)
(0.963736 -0.0324668 0)
(0.9576 -0.0362389 0)
(0.950606 -0.0394559 0)
(0.942975 -0.0421042 0)
(0.934838 -0.0442988 0)
(0.926214 -0.046137 0)
(0.917095 -0.0476777 0)
(0.907487 -0.0489734 0)
(0.897396 -0.0500757 0)
(0.88682 -0.0510254 0)
(0.875756 -0.0518509 0)
(0.864199 -0.0525729 0)
(0.852152 -0.0532064 0)
(0.839615 -0.0537622 0)
(0.826591 -0.0542461 0)
(0.813086 -0.0546604 0)
(0.799107 -0.0550044 0)
(0.784665 -0.0552751 0)
(0.769773 -0.0554677 0)
(0.754446 -0.055576 0)
(0.738705 -0.0555927 0)
(0.722572 -0.0555102 0)
(0.706076 -0.0553202 0)
(0.689249 -0.0550149 0)
(0.672127 -0.0545868 0)
(0.654753 -0.0540292 0)
(0.637174 -0.0533369 0)
(0.619441 -0.0525059 0)
(0.601609 -0.0515344 0)
(0.58374 -0.0504224 0)
(0.565894 -0.0491721 0)
(0.548139 -0.047788 0)
(0.53054 -0.0462768 0)
(0.513166 -0.0446471 0)
(0.496083 -0.0429096 0)
(0.871345 -0.0256693 0)
(0.863203 -0.0284867 0)
(0.854101 -0.0308952 0)
(0.844182 -0.0328591 0)
(0.833567 -0.0344327 0)
(0.822323 -0.0356851 0)
(0.810491 -0.036669 0)
(0.798113 -0.0374297 0)
(0.785228 -0.0380114 0)
(0.771869 -0.038452 0)
(0.758064 -0.0387804 0)
(0.743838 -0.0390181 0)
(0.729215 -0.039181 0)
(0.714219 -0.0392805 0)
(0.698874 -0.0393236 0)
(0.683202 -0.0393142 0)
(0.667228 -0.0392533 0)
(0.650976 -0.0391402 0)
(0.634472 -0.0389727 0)
(0.617745 -0.0387476 0)
(0.600824 -0.0384609 0)
(0.583743 -0.0381084 0)
(0.566537 -0.0376857 0)
(0.549245 -0.0371888 0)
(0.531909 -0.036614 0)
(0.514574 -0.0359586 0)
(0.497286 -0.0352209 0)
(0.480096 -0.0344004 0)
(0.463055 -0.0334979 0)
(0.446217 -0.0325157 0)
(0.429636 -0.0314573 0)
(0.413364 -0.0303277 0)
(0.397456 -0.0291332 0)
(0.38196 -0.027881 0)
(0.366927 -0.0265793 0)
(0.704125 -0.0172008 0)
(0.694931 -0.018992 0)
(0.684751 -0.0204755 0)
(0.67371 -0.0216265 0)
(0.661939 -0.0224781 0)
(0.649547 -0.0230828 0)
(0.63662 -0.0234872 0)
(0.62324 -0.0237305 0)
(0.60948 -0.0238488 0)
(0.595402 -0.0238735 0)
(0.581058 -0.023829 0)
(0.566491 -0.0237329 0)
(0.551741 -0.023598 0)
(0.536839 -0.0234327 0)
(0.521816 -0.0232422 0)
(0.506698 -0.023029 0)
(0.491511 -0.0227939 0)
(0.476279 -0.0225361 0)
(0.461028 -0.0222542 0)
(0.445782 -0.0219461 0)
(0.430568 -0.0216095 0)
(0.415414 -0.0212418 0)
(0.400349 -0.0208408 0)
(0.385405 -0.0204044 0)
(0.370615 -0.0199311 0)
(0.356013 -0.01942 0)
(0.341634 -0.0188711 0)
(0.327515 -0.0182848 0)
(0.313693 -0.0176627 0)
(0.300203 -0.0170068 0)
(0.28708 -0.0163201 0)
(0.274359 -0.0156059 0)
(0.262072 -0.0148682 0)
(0.250247 -0.0141114 0)
(0.23891 -0.0133402 0)
(0.470015 -0.00853727 0)
(0.461467 -0.00931569 0)
(0.452079 -0.00988871 0)
(0.442002 -0.0102605 0)
(0.431395 -0.0104643 0)
(0.420393 -0.0105421 0)
(0.40911 -0.0105291 0)
(0.397639 -0.0104519 0)
(0.386053 -0.0103317 0)
(0.374412 -0.0101855 0)
(0.362759 -0.0100251 0)
(0.351126 -0.00985761 0)
(0.339538 -0.00968713 0)
(0.328013 -0.00951563 0)
(0.316566 -0.00934357 0)
(0.30521 -0.00917047 0)
(0.293956 -0.00899526 0)
(0.282815 -0.00881661 0)
(0.271799 -0.00863306 0)
(0.260921 -0.00844315 0)
(0.250194 -0.00824548 0)
(0.239634 -0.00803882 0)
(0.229256 -0.00782214 0)
(0.219077 -0.00759475 0)
(0.209115 -0.00735622 0)
(0.19939 -0.00710651 0)
(0.18992 -0.00684587 0)
(0.180724 -0.0065749 0)
(0.17182 -0.00629445 0)
(0.163226 -0.00600566 0)
(0.154959 -0.00570983 0)
(0.147032 -0.00540848 0)
(0.13946 -0.00510319 0)
(0.132252 -0.00479566 0)
(0.125419 -0.00448757 0)
(0.182946 -0.00150684 0)
(0.177993 -0.00154432 0)
(0.172707 -0.0015377 0)
(0.167209 -0.00149789 0)
(0.161602 -0.00144051 0)
(0.155964 -0.00137783 0)
(0.150348 -0.00131562 0)
(0.144788 -0.00125599 0)
(0.139308 -0.00120034 0)
(0.133922 -0.00114971 0)
(0.128636 -0.00110425 0)
(0.123453 -0.0010633 0)
(0.118372 -0.00102586 0)
(0.113392 -0.00099097 0)
(0.108514 -0.00095779 0)
(0.103735 -0.000925694 0)
(0.0990564 -0.000894242 0)
(0.0944783 -0.000863153 0)
(0.0900024 -0.000832189 0)
(0.0856311 -0.000801133 0)
(0.0813675 -0.000769762 0)
(0.0772153 -0.000737893 0)
(0.0731788 -0.000705393 0)
(0.0692629 -0.000672209 0)
(0.0654726 -0.000638369 0)
(0.0618128 -0.000603966 0)
(0.0582889 -0.000569148 0)
(0.0549054 -0.000534084 0)
(0.0516669 -0.000498958 0)
(0.0485773 -0.000463944 0)
(0.0456399 -0.000429218 0)
(0.0428573 -0.000394938 0)
(0.0402312 -0.00036127 0)
(0.0377626 -0.000328361 0)
(0.0354518 -0.000296364 0)
(-0.0420125 -0.00034673 0)
(-0.0396394 -0.00043625 0)
(-0.0369598 -0.000524172 0)
(-0.03399 -0.000608707 0)
(-0.0307516 -0.000687993 0)
(-0.027271 -0.000760371 0)
(-0.0235789 -0.000824192 0)
(-0.0197095 -0.000877988 0)
(-0.0157004 -0.000920816 0)
(-0.0115902 -0.000952565 0)
(-0.0663309 -0.00430705 0)
(-0.0602815 -0.00486952 0)
(-0.0537186 -0.00540432 0)
(-0.0466832 -0.00590227 0)
(-0.0392234 -0.00635484 0)
(-0.0313931 -0.00675469 0)
(-0.0232511 -0.00709507 0)
(-0.0148614 -0.00737023 0)
(-0.00629093 -0.00757718 0)
(0.00239244 -0.00771363 0)
(-0.0470225 -0.0117067 0)
(-0.0379137 -0.0128268 0)
(-0.0283056 -0.0138717 0)
(-0.0182555 -0.0148256 0)
(-0.00782653 -0.0156744 0)
(0.00291082 -0.0164045 0)
(0.0138885 -0.0170055 0)
(0.0250391 -0.0174716 0)
(0.0362892 -0.0177989 0)
(0.0475668 -0.0179853 0)
(0.0082212 -0.0219589 0)
(0.0197361 -0.0235585 0)
(0.0316115 -0.0250232 0)
(0.0437815 -0.0263323 0)
(0.0561775 -0.0274677 0)
(0.0687294 -0.0284142 0)
(0.0813668 -0.0291605 0)
(0.0940185 -0.0296997 0)
(0.106614 -0.0300281 0)
(0.119086 -0.0301454 0)
(0.0907044 -0.0343379 0)
(0.103954 -0.0362436 0)
(0.117362 -0.037948 0)
(0.130859 -0.0394278 0)
(0.144377 -0.0406634 0)
(0.157845 -0.0416393 0)
(0.171197 -0.0423446 0)
(0.184368 -0.0427739 0)
(0.197296 -0.0429262 0)
(0.209923 -0.0428054 0)
(0.192268 -0.0481983 0)
(0.206434 -0.0501881 0)
(0.220522 -0.0519072 0)
(0.234467 -0.0533325 0)
(0.248203 -0.0544455 0)
(0.261669 -0.055233 0)
(0.274807 -0.0556874 0)
(0.287562 -0.0558068 0)
(0.299887 -0.0555951 0)
(0.311738 -0.0550615 0)
(0.305502 -0.0626539 0)
(0.319523 -0.0644775 0)
(0.333219 -0.0659655 0)
(0.346532 -0.0670975 0)
(0.35941 -0.0678584 0)
(0.371804 -0.0682393 0)
(0.383673 -0.0682378 0)
(0.394979 -0.0678575 0)
(0.405694 -0.0671085 0)
(0.415793 -0.0660067 0)
(0.422973 -0.0764988 0)
(0.435507 -0.0779012 0)
(0.447485 -0.0789153 0)
(0.458865 -0.0795254 0)
(0.469616 -0.0797223 0)
(0.479709 -0.0795033 0)
(0.489124 -0.0788725 0)
(0.497849 -0.0778405 0)
(0.505878 -0.0764246 0)
(0.513211 -0.0746474 0)
(0.535935 -0.0882346 0)
(0.545462 -0.0889924 0)
(0.554258 -0.0893294 0)
(0.562309 -0.0892366 0)
(0.569605 -0.0887121 0)
(0.576146 -0.0877604 0)
(0.581938 -0.0863931 0)
(0.586996 -0.0846283 0)
(0.591338 -0.0824899 0)
(0.594992 -0.0800071 0)
(0.633813 -0.0962602 0)
(0.638903 -0.0962287 0)
(0.643188 -0.0957697 0)
(0.646681 -0.0948821 0)
(0.6494 -0.0935716 0)
(0.651372 -0.0918506 0)
(0.652629 -0.0897377 0)
(0.653213 -0.0872576 0)
(0.653166 -0.0844401 0)
(0.65254 -0.0813192 0)
(0.705212 -0.099222 0)
(0.704879 -0.0983716 0)
(0.703789 -0.0971144 0)
(0.701978 -0.0954573 0)
(0.699492 -0.0934133 0)
(0.696381 -0.0910017 0)
(0.692702 -0.0882471 0)
(0.688516 -0.0851792 0)
(0.683886 -0.0818313 0)
(0.678879 -0.0782403 0)
(0.740171 -0.0963828 0)
(0.734157 -0.0948086 0)
(0.727547 -0.0928734 0)
(0.7204 -0.0905912 0)
(0.712782 -0.0879813 0)
(0.704762 -0.0850681 0)
(0.696413 -0.0818798 0)
(0.687809 -0.0784487 0)
(0.679024 -0.0748093 0)
(0.670132 -0.070998 0)
(0.732621 -0.0878455 0)
(0.721507 -0.0857502 0)
(0.710048 -0.0833604 0)
(0.698318 -0.080695 0)
(0.686396 -0.0777771 0)
(0.67436 -0.0746335 0)
(0.66229 -0.0712934 0)
(0.650263 -0.0677882 0)
(0.638354 -0.0641507 0)
(0.626633 -0.0604136 0)
(0.682058 -0.0745751 0)
(0.667203 -0.0722378 0)
(0.652303 -0.0696849 0)
(0.637438 -0.0669375 0)
(0.622687 -0.0640192 0)
(0.608128 -0.0609557 0)
(0.593836 -0.0577739 0)
(0.579879 -0.0545013 0)
(0.566323 -0.0511653 0)
(0.553225 -0.0477928 0)
(0.594016 -0.0582648 0)
(0.577352 -0.0559967 0)
(0.560938 -0.0535931 0)
(0.544847 -0.0510737 0)
(0.529149 -0.048459 0)
(0.513908 -0.0457705 0)
(0.499183 -0.0430297 0)
(0.485025 -0.0402577 0)
(0.47148 -0.0374748 0)
(0.458583 -0.0347002 0)
(0.479357 -0.0410764 0)
(0.463051 -0.0391612 0)
(0.447223 -0.0371784 0)
(0.431929 -0.0351431 0)
(0.417216 -0.0330706 0)
(0.403128 -0.030976 0)
(0.389701 -0.0288739 0)
(0.376964 -0.026778 0)
(0.364939 -0.0247011 0)
(0.353641 -0.0226547 0)
(0.3524 -0.0252369 0)
(0.338421 -0.0238632 0)
(0.325026 -0.0224675 0)
(0.312245 -0.0210595 0)
(0.300104 -0.0196481 0)
(0.288623 -0.0182421 0)
(0.277815 -0.0168496 0)
(0.26769 -0.0154777 0)
(0.258251 -0.0141329 0)
(0.249495 -0.0128207 0)
(0.228085 -0.0125592 0)
(0.217789 -0.0117734 0)
(0.208039 -0.0109873 0)
(0.198844 -0.0102056 0)
(0.190211 -0.00943226 0)
(0.182144 -0.00867112 0)
(0.174641 -0.00792547 0)
(0.167698 -0.00719815 0)
(0.161308 -0.00649148 0)
(0.15546 -0.00580736 0)
(0.118966 -0.00418062 0)
(0.112897 -0.00387639 0)
(0.107215 -0.00357637 0)
(0.101918 -0.00328188 0)
(0.0970039 -0.0029941 0)
(0.0924681 -0.00271401 0)
(0.0883039 -0.00244239 0)
(0.0845034 -0.00217986 0)
(0.0810572 -0.00192687 0)
(0.0779549 -0.00168368 0)
(0.033298 -0.0002654 0)
(0.0312999 -0.000235591 0)
(0.0294554 -0.000207011 0)
(0.0277615 -0.000179727 0)
(0.026215 -0.000153759 0)
(0.0248118 -0.00012912 0)
(0.0235478 -0.000105779 0)
(0.0224183 -8.37089e-05 0)
(0.0214186 -6.28466e-05 0)
(0.0205437 -4.31423e-05 0)
(-0.00741799 -0.000972904 0)
(-0.00322428 -0.000981191 0)
(0.00095234 -0.00097689 0)
(0.00507727 -0.000960556 0)
(0.0091173 -0.000934341 0)
(0.0130412 -0.000899879 0)
(0.0168218 -0.000858455 0)
(0.0204363 -0.000811396 0)
(0.0238663 -0.000760072 0)
(0.0270972 -0.000705798 0)
(0.0301187 -0.000649824 0)
(0.0329245 -0.000593277 0)
(0.0355117 -0.00053717 0)
(0.0378809 -0.000482359 0)
(0.0400354 -0.000429567 0)
(0.0419813 -0.000379358 0)
(0.0437264 -0.000332169 0)
(0.0452803 -0.000288294 0)
(0.046654 -0.000247922 0)
(0.0478592 -0.00021113 0)
(0.0489082 -0.000177918 0)
(0.0498135 -0.000148208 0)
(0.0505878 -0.000121872 0)
(0.0512435 -9.87332e-05 0)
(0.0517926 -7.85907e-05 0)
(0.0522465 -6.12187e-05 0)
(0.0526161 -4.63835e-05 0)
(0.0529116 -3.38444e-05 0)
(0.0531426 -2.33656e-05 0)
(0.0533175 -1.47155e-05 0)
(0.0534444 -7.67262e-06 0)
(0.0535304 -2.02435e-06 0)
(0.0535819 2.42546e-06 0)
(0.0536044 5.85149e-06 0)
(0.0536029 8.39827e-06 0)
(0.0111254 -0.00777919 0)
(0.0198456 -0.00777601 0)
(0.0284889 -0.00770629 0)
(0.036996 -0.00757341 0)
(0.0453122 -0.00738316 0)
(0.0533877 -0.00714228 0)
(0.0611785 -0.00685752 0)
(0.0686467 -0.00653598 0)
(0.0757606 -0.00618495 0)
(0.0824951 -0.00581168 0)
(0.0888312 -0.00542319 0)
(0.0947564 -0.0050261 0)
(0.100264 -0.00462652 0)
(0.105351 -0.00422996 0)
(0.110023 -0.00384124 0)
(0.114286 -0.00346448 0)
(0.118152 -0.00310307 0)
(0.121635 -0.00275972 0)
(0.124754 -0.00243647 0)
(0.127526 -0.00213472 0)
(0.129973 -0.00185533 0)
(0.132117 -0.00159867 0)
(0.133979 -0.00136467 0)
(0.135583 -0.00115291 0)
(0.136951 -0.00096266 0)
(0.138104 -0.000792977 0)
(0.139064 -0.000642731 0)
(0.13985 -0.00051067 0)
(0.140482 -0.00039546 0)
(0.140978 -0.000295721 0)
(0.141355 -0.000210064 0)
(0.141627 -0.00013711 0)
(0.14181 -7.55126e-05 0)
(0.141915 -2.39606e-05 0)
(0.141954 1.87405e-05 0)
(0.0588023 -0.0180318 0)
(0.069928 -0.017943 0)
(0.0808791 -0.017725 0)
(0.0915958 -0.0173859 0)
(0.102024 -0.0169357 0)
(0.112114 -0.0163861 0)
(0.121825 -0.0157498 0)
(0.131119 -0.0150404 0)
(0.139967 -0.0142716 0)
(0.148347 -0.0134571 0)
(0.15624 -0.0126105 0)
(0.163635 -0.0117443 0)
(0.170528 -0.0108706 0)
(0.176919 -0.0100001 0)
(0.182811 -0.0091425 0)
(0.188213 -0.0083063 0)
(0.193139 -0.00749864 0)
(0.197604 -0.00672544 0)
(0.201627 -0.00599136 0)
(0.205228 -0.00529992 0)
(0.20843 -0.00465355 0)
(0.211256 -0.00405368 0)
(0.213731 -0.00350089 0)
(0.21588 -0.00299497 0)
(0.217728 -0.00253506 0)
(0.2193 -0.00211976 0)
(0.220619 -0.00174725 0)
(0.22171 -0.00141533 0)
(0.222594 -0.00112158 0)
(0.223294 -0.000863379 0)
(0.223829 -0.000638014 0)
(0.224219 -0.000442723 0)
(0.22448 -0.000274752 0)
(0.22463 -0.000131409 0)
(0.224682 -1.01058e-05 0)
(0.131369 -0.0300553 0)
(0.143406 -0.0297657 0)
(0.155139 -0.0292873 0)
(0.16652 -0.0286338 0)
(0.177505 -0.0278211 0)
(0.188056 -0.0268669 0)
(0.198143 -0.0257904 0)
(0.207739 -0.0246115 0)
(0.216826 -0.02335 0)
(0.225391 -0.0220261 0)
(0.233426 -0.0206587 0)
(0.240928 -0.0192663 0)
(0.247899 -0.0178656 0)
(0.254346 -0.0164723 0)
(0.260278 -0.0151001 0)
(0.265709 -0.0137611 0)
(0.270654 -0.0124658 0)
(0.275132 -0.0112227 0)
(0.279164 -0.0100387 0)
(0.28277 -0.00891915 0)
(0.285974 -0.00786784 0)
(0.288799 -0.00688716 0)
(0.29127 -0.00597829 0)
(0.29341 -0.0051413 0)
(0.295243 -0.0043753 0)
(0.296794 -0.00367859 0)
(0.298086 -0.00304877 0)
(0.299141 -0.00248294 0)
(0.299981 -0.00197774 0)
(0.300627 -0.0015295 0)
(0.301098 -0.00113434 0)
(0.301413 -0.000788258 0)
(0.30159 -0.000487198 0)
(0.301645 -0.000227162 0)
(0.301592 -4.27246e-06 0)
(0.222196 -0.0424202 0)
(0.234069 -0.0417833 0)
(0.2455 -0.0409114 0)
(0.256455 -0.0398241 0)
(0.266905 -0.0385437 0)
(0.276827 -0.0370943 0)
(0.286206 -0.0355012 0)
(0.295031 -0.0337903 0)
(0.303298 -0.0319872 0)
(0.311007 -0.0301172 0)
(0.318162 -0.0282042 0)
(0.324772 -0.026271 0)
(0.330851 -0.0243384 0)
(0.336412 -0.0224251 0)
(0.341475 -0.020548 0)
(0.346059 -0.0187214 0)
(0.350185 -0.0169579 0)
(0.353877 -0.0152675 0)
(0.357157 -0.0136583 0)
(0.360049 -0.0121364 0)
(0.362577 -0.0107062 0)
(0.364766 -0.00937033 0)
(0.366639 -0.00812993 0)
(0.368219 -0.00698491 0)
(0.369529 -0.00593397 0)
(0.37059 -0.00497489 0)
(0.371424 -0.00410459 0)
(0.372052 -0.00331938 0)
(0.372492 -0.00261499 0)
(0.372762 -0.00198682 0)
(0.37288 -0.00142995 0)
(0.372862 -0.000939305 0)
(0.372724 -0.000509793 0)
(0.372478 -0.000136398 0)
(0.37214 0.000185928 0)
(0.323078 -0.0542206 0)
(0.333878 -0.0530913 0)
(0.344114 -0.0516968 0)
(0.353767 -0.0500632 0)
(0.362829 -0.0482192 0)