/*--------------------------------*- C++ -*----------------------------------*\
| =========                 |                                                 |
| \\      /  F ield         | OpenFOAM: The Open Source CFD Toolbox           |
|  \\    /   O peration     | Version:  2406                                  |
|   \\  /    A nd           | Website:  www.openfoam.com                      |
|    \\/     M anipulation  |                                                 |
\*---------------------------------------------------------------------------*/
FoamFile
{
    version     2.0;
    format      ascii;
    arch        "LSB;label=32;scalar=64";
    class       volScalarField;
    location    "127";
    object      p;
}
// * * * * * * * * * * * * * * * * * * * * * * * * * * * * * * * * * * * * * //

dimensions      [0 2 -2 0 0 0 0];

internalField   nonuniform List<scalar> 
1900
(
-0.0687745
-0.0673187
-0.0664575
-0.0664567
-0.0669248
-0.0676844
-0.0687403
-0.0701037
-0.0717528
-0.0735738
-0.0662947
-0.0662668
-0.0661801
-0.0663419
-0.0668399
-0.0676348
-0.0686986
-0.0700223
-0.0715877
-0.0733657
-0.0636841
-0.0649672
-0.0657655
-0.0661151
-0.0665789
-0.0673359
-0.0683151
-0.0694356
-0.0706049
-0.0716136
-0.0614455
-0.0633441
-0.06471
-0.065256
-0.0657177
-0.0664318
-0.0673159
-0.068242
-0.0691234
-0.0698483
-0.0596863
-0.0618148
-0.0634622
-0.064141
-0.0645976
-0.0652474
-0.0660257
-0.0667982
-0.0675067
-0.0681029
-0.0586026
-0.0607364
-0.0623632
-0.0629951
-0.0633848
-0.0639482
-0.0646224
-0.0652822
-0.0658902
-0.0664302
-0.0583828
-0.0602936
-0.0616032
-0.0620212
-0.0622949
-0.0627598
-0.0633351
-0.063915
-0.0644755
-0.0650096
-0.0591564
-0.060448
-0.0611682
-0.06134
-0.061531
-0.0619105
-0.0623979
-0.0629241
-0.0634688
-0.064017
-0.0609857
-0.0609633
-0.0608005
-0.0607742
-0.0609638
-0.0613135
-0.0617718
-0.0623048
-0.0628816
-0.0634732
-0.063263
-0.0618341
-0.0609229
-0.0607514
-0.0609165
-0.0612242
-0.0616524
-0.0621793
-0.0627593
-0.0633573
-0.0704497
-0.0704852
-0.0705183
-0.0705384
-0.0705474
-0.070547
-0.0705371
-0.0705169
-0.0704854
-0.0704416
-0.0703845
-0.0703134
-0.0702276
-0.0701266
-0.0700099
-0.0698771
-0.0697277
-0.0695615
-0.0693782
-0.0691774
-0.0689588
-0.0687222
-0.0684673
-0.0681937
-0.0679012
-0.0675895
-0.0672582
-0.0669069
-0.0665352
-0.0661427
-0.0657289
-0.0652932
-0.0648349
-0.0643532
-0.0638473
-0.0704089
-0.0704471
-0.0704768
-0.0704931
-0.0705008
-0.0705008
-0.0704921
-0.0704735
-0.0704437
-0.0704014
-0.0703458
-0.0702761
-0.0701917
-0.0700918
-0.0699762
-0.0698444
-0.0696961
-0.0695308
-0.0693482
-0.0691482
-0.0689304
-0.0686944
-0.0684401
-0.0681671
-0.0678751
-0.0675638
-0.0672328
-0.0668819
-0.0665105
-0.0661182
-0.0657046
-0.065269
-0.0648107
-0.0643291
-0.0638232
-0.0703789
-0.0704258
-0.0704562
-0.0704705
-0.0704781
-0.0704795
-0.070473
-0.0704566
-0.070429
-0.0703887
-0.0703349
-0.0702667
-0.0701836
-0.070085
-0.0699705
-0.0698397
-0.0696922
-0.0695277
-0.0693459
-0.0691466
-0.0689294
-0.0686941
-0.0684404
-0.068168
-0.0678765
-0.0675658
-0.0672353
-0.0668849
-0.066514
-0.0661222
-0.0657091
-0.0652741
-0.0648165
-0.0643357
-0.0638307
-0.0703995
-0.0704554
-0.0704876
-0.0705015
-0.0705099
-0.0705128
-0.0705079
-0.0704929
-0.0704662
-0.0704266
-0.0703732
-0.0703053
-0.0702222
-0.0701236
-0.070009
-0.0698779
-0.0697303
-0.0695656
-0.0693837
-0.0691843
-0.0689671
-0.0687317
-0.068478
-0.0682056
-0.0679142
-0.0676035
-0.0672732
-0.0669229
-0.0665523
-0.0661608
-0.0657482
-0.0653138
-0.0648572
-0.0643776
-0.0638741
-0.070511
-0.0705683
-0.070596
-0.0706058
-0.0706116
-0.0706123
-0.0706049
-0.0705873
-0.0705578
-0.0705154
-0.0704593
-0.0703887
-0.0703031
-0.0702021
-0.0700852
-0.0699522
-0.0698026
-0.0696362
-0.0694528
-0.0692521
-0.0690337
-0.0687974
-0.0685428
-0.0682696
-0.0679775
-0.0676662
-0.0673355
-0.0669849
-0.0666141
-0.0662228
-0.0658106
-0.065377
-0.0649215
-0.0644434
-0.0639419
-0.0707594
-0.0707975
-0.0708011
-0.0707925
-0.0707847
-0.0707736
-0.0707555
-0.070728
-0.0706897
-0.0706395
-0.0705763
-0.0704995
-0.0704084
-0.0703025
-0.0701812
-0.0700441
-0.069891
-0.0697215
-0.0695354
-0.0693323
-0.0691118
-0.0688737
-0.0686174
-0.0683427
-0.0680492
-0.0677369
-0.0674052
-0.0670541
-0.0666829
-0.0662915
-0.0658795
-0.0654465
-0.0649919
-0.0645151
-0.0640151
-0.0712019
-0.0711691
-0.0711001
-0.0710416
-0.0709995
-0.0709622
-0.0709226
-0.0708773
-0.0708244
-0.0707619
-0.0706886
-0.0706031
-0.0705047
-0.0703923
-0.0702655
-0.0701236
-0.0699662
-0.069793
-0.0696036
-0.0693976
-0.0691747
-0.0689343
-0.068676
-0.0683997
-0.0681051
-0.0677918
-0.0674595
-0.0671078
-0.0667364
-0.0663448
-0.0659329
-0.0655002
-0.0650462
-0.06457
-0.0640709
-0.0719789
-0.0716971
-0.071436
-0.0712759
-0.0711769
-0.0711019
-0.0710358
-0.0709719
-0.0709056
-0.070833
-0.0707517
-0.0706599
-0.0705563
-0.0704397
-0.0703092
-0.0701642
-0.0700042
-0.0698289
-0.0696376
-0.06943
-0.0692056
-0.0689638
-0.0687042
-0.0684265
-0.0681306
-0.0678162
-0.0674828
-0.0671301
-0.0667577
-0.0663651
-0.0659521
-0.065518
-0.0650621
-0.0645837
-0.0640819
-0.0736277
-0.07236
-0.0716334
-0.0713593
-0.0712189
-0.071114
-0.0710336
-0.0709649
-0.0708959
-0.070821
-0.0707381
-0.0706452
-0.0705407
-0.0704231
-0.0702917
-0.0701459
-0.0699854
-0.0698095
-0.0696176
-0.0694093
-0.0691839
-0.0689411
-0.0686805
-0.0684017
-0.0681041
-0.0677874
-0.0674511
-0.0670949
-0.0667183
-0.0663208
-0.0659019
-0.0654608
-0.0649969
-0.0645091
-0.0639964
-0.0764591
-0.0728125
-0.0713613
-0.0711691
-0.0710815
-0.0709577
-0.0708742
-0.0708224
-0.0707702
-0.0707069
-0.0706327
-0.0705473
-0.0704489
-0.0703362
-0.0702088
-0.070066
-0.069907
-0.0697314
-0.0695388
-0.0693288
-0.0691009
-0.0688546
-0.0685896
-0.0683051
-0.0680008
-0.0676762
-0.0673307
-0.0669639
-0.0665751
-0.0661636
-0.0657287
-0.0652694
-0.0647847
-0.0642735
-0.0637344
-0.0743406
-0.0719651
-0.0708637
-0.0708837
-0.0709197
-0.0708129
-0.0707224
-0.0706763
-0.0706333
-0.0705743
-0.0705012
-0.0704161
-0.0703177
-0.0702041
-0.0700744
-0.069928
-0.0697644
-0.0695831
-0.0693837
-0.0691654
-0.0689278
-0.0686703
-0.0683921
-0.0680927
-0.0677715
-0.0674276
-0.0670605
-0.0666694
-0.0662534
-0.0658116
-0.0653429
-0.0648464
-0.0643205
-0.0637639
-0.0631749
-0.073842
-0.072443
-0.0712559
-0.0709003
-0.0707898
-0.0706425
-0.0705167
-0.0704466
-0.0703965
-0.0703372
-0.0702641
-0.0701784
-0.0700786
-0.069962
-0.0698273
-0.0696736
-0.0695005
-0.0693075
-0.0690937
-0.0688584
-0.068601
-0.0683208
-0.0680171
-0.0676892
-0.0673361
-0.066957
-0.066551
-0.0661171
-0.0656543
-0.0651615
-0.0646375
-0.0640808
-0.0634899
-0.0628632
-0.0621989
-0.0718957
-0.071308
-0.0705966
-0.0703013
-0.0702463
-0.0701905
-0.0701153
-0.0700592
-0.0700155
-0.0699625
-0.0698921
-0.0698047
-0.0696998
-0.0695754
-0.0694297
-0.069262
-0.0690718
-0.0688581
-0.0686204
-0.0683576
-0.0680691
-0.0677541
-0.0674118
-0.0670414
-0.0666418
-0.0662119
-0.0657507
-0.0652571
-0.0647301
-0.0641682
-0.0635702
-0.0629346
-0.0622598
-0.0615442
-0.0607862
-0.0702213
-0.0701381
-0.0698404
-0.0696565
-0.0696116
-0.0695856
-0.0695398
-0.0694954
-0.0694572
-0.0694114
-0.0693474
-0.0692628
-0.0691564
-0.0690264
-0.068871
-0.0686892
-0.0684801
-0.0682431
-0.0679772
-0.0676818
-0.067356
-0.0669992
-0.0666107
-0.0661893
-0.0657342
-0.0652443
-0.0647185
-0.0641557
-0.0635548
-0.0629147
-0.0622339
-0.0615112
-0.0607452
-0.0599344
-0.0590775
-0.0685003
-0.0686394
-0.0686111
-0.0685853
-0.068622
-0.068676
-0.0687114
-0.0687306
-0.0687378
-0.0687266
-0.0686888
-0.0686215
-0.0685239
-0.0683953
-0.0682348
-0.0680416
-0.0678151
-0.067555
-0.0672607
-0.0669318
-0.0665677
-0.066168
-0.0657319
-0.0652586
-0.0647472
-0.0641968
-0.0636066
-0.0629755
-0.0623025
-0.0615868
-0.0608271
-0.0600225
-0.0591719
-0.0582744
-0.057329
-0.0668631
-0.0671591
-0.0673482
-0.0675014
-0.0676576
-0.0678042
-0.0679208
-0.0680044
-0.0680579
-0.06808
-0.0680665
-0.0680154
-0.0679266
-0.0678
-0.0676354
-0.0674324
-0.0671907
-0.0669104
-0.0665912
-0.066233
-0.0658355
-0.0653983
-0.064921
-0.0644028
-0.0638432
-0.0632416
-0.0625971
-0.0619091
-0.0611769
-0.0603997
-0.0595768
-0.0587076
-0.0577914
-0.0568278
-0.0558165
-0.0654937
-0.0659057
-0.0662478
-0.0665421
-0.0668058
-0.0670373
-0.0672276
-0.0673736
-0.0674764
-0.067536
-0.067551
-0.0675208
-0.0674457
-0.0673262
-0.0671628
-0.0669557
-0.0667052
-0.0664118
-0.0660758
-0.0656972
-0.0652762
-0.0648125
-0.0643061
-0.0637564
-0.0631632
-0.0625261
-0.0618446
-0.0611182
-0.0603466
-0.0595292
-0.0586657
-0.0577558
-0.0567993
-0.0557962
-0.0547467
-0.0645457
-0.0650351
-0.0654761
-0.0658694
-0.0662174
-0.0665185
-0.0667684
-0.0669649
-0.0671081
-0.0671988
-0.0672373
-0.0672243
-0.0671609
-0.0670482
-0.0668873
-0.0666792
-0.0664247
-0.0661246
-0.0657795
-0.0653898
-0.0649558
-0.0644777
-0.0639553
-0.0633887
-0.0627777
-0.0621221
-0.0614217
-0.0606761
-0.0598851
-0.0590486
-0.0581663
-0.0572383
-0.0562646
-0.0552456
-0.0541817
-0.0640539
-0.0646044
-0.0651111
-0.0655665
-0.0659669
-0.0663098
-0.0665935
-0.0668173
-0.0669819
-0.0670887
-0.0671392
-0.0671351
-0.0670778
-0.066969
-0.0668102
-0.0666027
-0.0663477
-0.066046
-0.0656985
-0.0653058
-0.0648681
-0.0643859
-0.0638592
-0.0632881
-0.0626724
-0.0620122
-0.0613073
-0.0605574
-0.0597625
-0.0589224
-0.0580371
-0.0571067
-0.0561315
-0.0551118
-0.0540482
-0.0639518
-0.0645228
-0.0650533
-0.0655321
-0.0659532
-0.0663137
-0.0666122
-0.0668485
-0.0670235
-0.0671386
-0.0671957
-0.0671967
-0.0671435
-0.0670379
-0.0668815
-0.0666759
-0.0664222
-0.0661216
-0.0657749
-0.0653828
-0.0649457
-0.0644641
-0.063938
-0.0633676
-0.0627529
-0.0620938
-0.0613901
-0.0606418
-0.0598487
-0.0590107
-0.0581278
-0.0572002
-0.056228
-0.0552117
-0.0541518
-0.0633162
-0.0627588
-0.0621738
-0.0615599
-0.0609153
-0.0602383
-0.0595267
-0.0587781
-0.0579897
-0.0571581
-0.063292
-0.0627346
-0.0621495
-0.0615355
-0.0608909
-0.060214
-0.0595025
-0.0587541
-0.0579661
-0.0571353
-0.0633006
-0.0627444
-0.0621608
-0.0615484
-0.0609057
-0.060231
-0.0595222
-0.0587772
-0.0579933
-0.0571676
-0.0633459
-0.0627918
-0.0622107
-0.0616012
-0.0609619
-0.0602911
-0.0595871
-0.0588478
-0.0580708
-0.0572534
-0.063416
-0.0628646
-0.0622866
-0.0616807
-0.0610454
-0.0603795
-0.059681
-0.0589482
-0.0581787
-0.0573698
-0.063491
-0.0629416
-0.062366
-0.0617627
-0.0611305
-0.060468
-0.0597737
-0.0590454
-0.0582806
-0.0574768
-0.0635477
-0.0629995
-0.062425
-0.0618229
-0.0611918
-0.06053
-0.0598358
-0.059107
-0.058341
-0.0575349
-0.0635554
-0.0630032
-0.0624239
-0.0618159
-0.0611778
-0.0605076
-0.0598033
-0.0590624
-0.0582821
-0.0574591
-0.0634574
-0.0628908
-0.0622949
-0.0616681
-0.0610084
-0.0603135
-0.0595812
-0.0588086
-0.0579925
-0.0571291
-0.0631658
-0.0625661
-0.0619333
-0.0612655
-0.0605604
-0.0598155
-0.059028
-0.0581949
-0.0573128
-0.056378
-0.0625518
-0.0618927
-0.0611955
-0.0604579
-0.0596775
-0.0588517
-0.0579777
-0.0570525
-0.056073
-0.0550358
-0.0614952
-0.0607501
-0.0599615
-0.0591273
-0.0582451
-0.0573127
-0.0563276
-0.0552874
-0.0541897
-0.053032
-0.0599839
-0.0591357
-0.0582398
-0.0572944
-0.0562978
-0.0552484
-0.0541446
-0.0529849
-0.0517683
-0.0504937
-0.0581733
-0.0572204
-0.0562177
-0.0551642
-0.054059
-0.0529015
-0.0516911
-0.0504279
-0.0491121
-0.0477443
-0.0563351
-0.0552921
-0.0541996
-0.0530576
-0.051866
-0.0506253
-0.0493364
-0.0480004
-0.046619
-0.0451944
-0.0547574
-0.0536506
-0.0524966
-0.0512961
-0.0500499
-0.0487597
-0.047427
-0.0460543
-0.0446443
-0.0432003
-0.0536513
-0.0525106
-0.0513255
-0.0500974
-0.048828
-0.0475193
-0.0461737
-0.0447941
-0.0433839
-0.0419469
-0.0530737
-0.0519225
-0.0507295
-0.0494962
-0.0482247
-0.0469173
-0.0455767
-0.044206
-0.0428087
-0.0413887
-0.0529416
-0.0517931
-0.050604
-0.049376
-0.0481113
-0.046812
-0.045481
-0.0441213
-0.0427365
-0.0413302
-0.0530492
-0.051905
-0.0507205
-0.0494973
-0.0482374
-0.0469432
-0.0456172
-0.0442626
-0.0428826
-0.0414809
-0.0562795
-0.0553498
-0.0543637
-0.0533158
-0.0521997
-0.0510081
-0.0497335
-0.0483671
-0.0469
-0.0453225
-0.043625
-0.0417983
-0.039834
-0.0377244
-0.0354646
-0.0330532
-0.0304907
-0.0277798
-0.0249289
-0.0219526
-0.018871
-0.0157104
-0.0125027
-0.00928476
-0.00609741
-0.00298431
9.23942e-06
0.00283806
0.00545895
0.00783129
0.00992152
0.0117041
0.0131522
0.0142432
0.0149654
-0.0562579
-0.05533
-0.0543467
-0.0533026
-0.0521916
-0.0510069
-0.049741
-0.0483857
-0.0469323
-0.0453714
-0.0436933
-0.041889
-0.0399497
-0.0378669
-0.0356333
-0.0332455
-0.0307043
-0.0280146
-0.0251843
-0.0222262
-0.0191594
-0.0160096
-0.0128098
-0.00959744
-0.00641405
-0.00330452
-0.00031505
0.00251275
0.00513666
0.0075129
0.00960575
0.0113852
0.012827
0.0139127
0.0146302
-0.0562967
-0.0553767
-0.0544031
-0.0533708
-0.0522738
-0.0511055
-0.0498586
-0.0485252
-0.0470964
-0.0455623
-0.0439125
-0.0421367
-0.0402247
-0.0381681
-0.0359603
-0.0335973
-0.0310787
-0.0284078
-0.0255925
-0.0226459
-0.019587
-0.0164432
-0.013249
-0.0100425
-0.00686542
-0.00376237
-0.000779599
0.00203757
0.00464608
0.00700568
0.00908106
0.0108429
0.0122676
0.0133374
0.0140409
-0.0563926
-0.0554844
-0.0545248
-0.0535084
-0.0524294
-0.0512807
-0.0500547
-0.048743
-0.0473359
-0.0458233
-0.0441953
-0.0424411
-0.0405496
-0.0385109
-0.0363179
-0.0339698
-0.0314671
-0.028811
-0.0260097
-0.0230771
-0.0200338
-0.0169079
-0.0137338
-0.0105506
-0.00740098
-0.00433022
-0.00138465
0.00139062
0.00395315
0.00626397
0.00828906
0.0100006
0.0113769
0.0124027
0.0130693
-0.0565184
-0.0556206
-0.054672
-0.0536669
-0.0525992
-0.0514618
-0.0502476
-0.0489489
-0.0475554
-0.0460564
-0.0444412
-0.0426988
-0.0408186
-0.0387911
-0.0366098
-0.0342717
-0.0317775
-0.0291317
-0.0263439
-0.0234301
-0.0204125
-0.0173207
-0.0141898
-0.0110599
-0.00797395
-0.0049769
-0.00211396
0.00057122
0.00303815
0.00525059
0.00717778
0.00879535
0.0100856
0.0110374
0.011646
-0.0566306
-0.0557383
-0.0547951
-0.0537954
-0.0527328
-0.0516002
-0.0503894
-0.0490916
-0.0476968
-0.0461945
-0.044574
-0.0428249
-0.0409371
-0.0389026
-0.036716
-0.0343761
-0.0318853
-0.0292507
-0.0264841
-0.0236039
-0.0206344
-0.0176064
-0.014556
-0.0115231
-0.00855015
-0.00568049
-0.0029569
-0.000419784
0.00189437
0.00395407
0.00573381
0.00721467
0.00838449
0.00923767
0.00977474
-0.0566853
-0.0557878
-0.0548375
-0.0538284
-0.0527539
-0.0516066
-0.0503782
-0.0490599
-0.0476421
-0.0461148
-0.0444681
-0.0426925
-0.0407801
-0.0387247
-0.0365236
-0.0341777
-0.0316924
-0.0290776
-0.0263486
-0.0235262
-0.020637
-0.017713
-0.01479
-0.0119072
-0.00910488
-0.00642299
-0.00389985
-0.0015704
0.000535076
0.00239186
0.0039815
0.0052921
0.00631825
0.00706064
0.00752542
-0.0565894
-0.0556686
-0.0546912
-0.0536513
-0.0525421
-0.0513562
-0.0500855
-0.0487217
-0.047256
-0.0456797
-0.0439847
-0.0421637
-0.0402116
-0.0381254
-0.0359058
-0.0335572
-0.0310886
-0.0285136
-0.0258505
-0.0231228
-0.0203584
-0.0175892
-0.0148499
-0.0121768
-0.00960571
-0.00717134
-0.00490522
-0.00283476
-0.000982208
0.000635985
0.00200948
0.00313401
0.00401106
0.00464726
0.00505359
-0.0562144
-0.0552436
-0.0542113
-0.0531116
-0.0519379
-0.0506836
-0.0493415
-0.0479044
-0.0463655
-0.0447182
-0.0429573
-0.0410791
-0.0390819
-0.036967
-0.0347392
-0.0324069
-0.0299828
-0.0274837
-0.0249304
-0.0223475
-0.0197628
-0.0172063
-0.0147094
-0.012303
-0.010017
-0.00787816
-0.00590976
-0.0041303
-0.0025531
-0.00118599
-3.13798e-05
0.000913394
0.00165554
0.00220608
0.002579
-0.0553863
-0.0543331
-0.0532136
-0.0520224
-0.0507543
-0.0494038
-0.0479657
-0.046435
-0.0448077
-0.0430805
-0.041252
-0.0393224
-0.0372944
-0.0351735
-0.0329685
-0.0306915
-0.0283578
-0.0259862
-0.0235982
-0.0212174
-0.0188693
-0.0165798
-0.0143747
-0.0122779
-0.0103112
-0.00849267
-0.00683649
-0.00535221
-0.00404472
-0.0029143
-0.001957
-0.00116513
-0.000527974
-3.25096e-05
0.000335838
-0.0539373
-0.0527739
-0.0515418
-0.0502372
-0.0488568
-0.0473972
-0.0458559
-0.0442312
-0.0425222
-0.0407298
-0.0388561
-0.0369055
-0.0348847
-0.0328026
-0.0306709
-0.0285038
-0.0263177
-0.0241311
-0.0219637
-0.0198364
-0.0177697
-0.0157839
-0.0138973
-0.012126
-0.0104832
-0.00897841
-0.00761753
-0.00640252
-0.00533168
-0.00440004
-0.00359976
-0.00292081
-0.00235156
-0.00187946
-0.00149158
-0.0518122
-0.0505279
-0.0491773
-0.0477588
-0.0462714
-0.0447146
-0.0430889
-0.0413957
-0.0396379
-0.0378194
-0.0359461
-0.0340252
-0.0320662
-0.0300799
-0.0280791
-0.0260779
-0.0240918
-0.0221368
-0.020229
-0.0183842
-0.0166172
-0.0149411
-0.0133671
-0.0119035
-0.0105558
-0.00932665
-0.00821562
-0.00721956
-0.00633294
-0.00554826
-0.00485658
-0.00424802
-0.0037123
-0.00323911
-0.00281853
-0.0491604
-0.0477683
-0.0463177
-0.0448092
-0.0432444
-0.0416256
-0.0399561
-0.0382402
-0.0364832
-0.0346918
-0.0328737
-0.031038
-0.0291948
-0.0273552
-0.0255311
-0.0237346
-0.0219784
-0.0202744
-0.0186341
-0.0170675
-0.0155833
-0.0141883
-0.012887
-0.0116819
-0.0105729
-0.00955822
-0.00863381
-0.00779421
-0.00703273
-0.00634187
-0.00571368
-0.00514016
-0.0046135
-0.00412639
-0.00367209
-0.0463258
-0.0448582
-0.0433439
-0.0417858
-0.0401875
-0.0385536
-0.0368893
-0.0352007
-0.0334947
-0.031779
-0.030062
-0.0283527
-0.0266605
-0.0249948
-0.0233653
-0.0217811
-0.0202509
-0.0187823
-0.0173818
-0.0160545
-0.014804
-0.0136321
-0.0125391
-0.0115237
-0.010583
-0.00971308
-0.0089091
-0.00816544
-0.0074762
-0.00683529
-0.0062368
-0.00567505
-0.00514484
-0.0046414
-0.00416054
-0.0437294
-0.0422272
-0.0406916
-0.0391272
-0.0375391
-0.0359328
-0.0343147
-0.0326916
-0.0310705
-0.029459
-0.0278647
-0.0262955
-0.0247587
-0.0232616
-0.0218108
-0.0204122
-0.0190707
-0.0177903
-0.0165738
-0.0154226
-0.0143371
-0.0133165
-0.0123589
-0.0114616
-0.0106209
-0.00983306
-0.00909362
-0.00839816
-0.00774223
-0.00712157
-0.00653213
-0.00597018
-0.00543234
-0.0049156
-0.00441729
-0.0417259
-0.0402254
-0.0387036
-0.0371657
-0.0356172
-0.0340642
-0.032513
-0.0309699
-0.0294414
-0.0279342
-0.0264544
-0.025008
-0.0236004
-0.0222365
-0.0209206
-0.0196558
-0.0184446
-0.0172886
-0.0161885
-0.0151439
-0.0141539
-0.0132168
-0.0123303
-0.0114917
-0.010698
-0.00994608
-0.00923254
-0.00855423
-0.00790799
-0.00729089
-0.00670012
-0.00613313
-0.00558755
-0.00506127
-0.00455233
-0.0404873
-0.0390095
-0.0375187
-0.03602
-0.0345189
-0.0330212
-0.0315325
-0.0300585
-0.0286048
-0.0271767
-0.0257792
-0.0244167
-0.0230933
-0.0218121
-0.020576
-0.0193867
-0.0182456
-0.0171532
-0.0161096
-0.0151139
-0.0141651
-0.0132617
-0.0124016
-0.0115828
-0.010803
-0.0100597
-0.00935061
-0.00867313
-0.00802502
-0.00740397
-0.00680785
-0.00623454
-0.00568216
-0.00514888
-0.00463305
-0.0399502
-0.0384977
-0.0370361
-0.0355703
-0.0341055
-0.0326468
-0.0311994
-0.0297684
-0.0283585
-0.0269743
-0.02562
-0.0242992
-0.0230152
-0.0217706
-0.0205675
-0.0194075
-0.0182915
-0.0172201
-0.0161931
-0.0152101
-0.0142703
-0.0133725
-0.0125151
-0.0116965
-0.0109149
-0.0101682
-0.00945442
-0.0087715
-0.00811737
-0.00749011
-0.00688768
-0.00630824
-0.00574994
-0.00521111
-0.00469014
-0.0399065
-0.0384698
-0.0370246
-0.0355757
-0.0341279
-0.0326862
-0.0312553
-0.0298399
-0.0284447
-0.0270737
-0.025731
-0.0244201
-0.0231439
-0.0219053
-0.0207062
-0.0195482
-0.0184325
-0.0173596
-0.0163298
-0.0153426
-0.0143976
-0.0134938
-0.0126299
-0.0118045
-0.0110159
-0.0102622
-0.00954171
-0.00885226
-0.00819187
-0.0075586
-0.00695053
-0.00636579
-0.00580257
-0.00525918
-0.00473401
-0.0400615
-0.0386287
-0.0371869
-0.0357407
-0.034295
-0.0328545
-0.031424
-0.0300083
-0.0286117
-0.0272385
-0.0258928
-0.024578
-0.0232974
-0.0220535
-0.0208485
-0.0196843
-0.0185619
-0.0174821
-0.0164452
-0.015451
-0.014499
-0.0135883
-0.0127176
-0.0118856
-0.0110905
-0.0103307
-0.00960419
-0.00890912
-0.00824349
-0.00760539
-0.00699291
-0.00640415
-0.0058373
-0.00529062
-0.00476248
0.0153122
0.0152813
0.0148742
0.0140949
0.0129475
0.0114383
0.00956064
0.0073481
0.00465736
0.00214694
0.0149729
0.014939
0.0145303
0.0137514
0.0126061
0.0111033
0.00922541
0.00704155
0.00425974
0.00220961
0.0143726
0.0143321
0.0139226
0.0131503
0.0120202
0.0105448
0.00869894
0.0065893
0.00381172
0.0022511
0.0133739
0.0133186
0.0129094
0.0121553
0.0110638
0.00965205
0.00789543
0.0059207
0.00329907
0.00209558
0.0119125
0.011843
0.0114471
0.0107374
0.00972577
0.00843251
0.00684382
0.00507758
0.00277907
0.00175095
0.0100016
0.0099288
0.00957
0.00894164
0.00806031
0.00694806
0.00560801
0.00412176
0.00229555
0.00125336
0.00772339
0.00766904
0.00737968
0.0068744
0.00617388
0.00529864
0.00427218
0.00311934
0.00185695
0.000673142
0.00524458
0.00523736
0.00505103
0.00470536
0.00422269
0.00362003
0.00293671
0.00213969
0.00144591
0.000110385
0.00279048
0.00285806
0.00280026
0.00263522
0.00238391
0.00205811
0.00170504
0.00124855
0.00103958
-0.000334868
0.000592539
0.000753261
0.000833763
0.000848532
0.000814627
0.000738326
0.000664982
0.000499964
0.000634159
-0.000599617
-0.00117509
-0.000917747
-0.000707887
-0.000535436
-0.000388726
-0.000265679
-0.000131065
-7.29414e-05
0.000252458
-0.000680477
-0.00244126
-0.00209893
-0.00178395
-0.00149037
-0.00121141
-0.000947924
-0.000677201
-0.000466879
-6.82203e-05
-0.000627438
-0.00324462
-0.00283877
-0.00245017
-0.00207562
-0.00171199
-0.00136097
-0.00101173
-0.000707394
-0.000300878
-0.000513116
-0.0036986
-0.00325247
-0.00281959
-0.00239821
-0.00198697
-0.00158759
-0.00119674
-0.000838611
-0.000445094
-0.00039818
-0.00393505
-0.0034668
-0.00301078
-0.00256566
-0.00213066
-0.00170679
-0.00129462
-0.000906859
-0.000524812
-0.000314656
-0.00405895
-0.00357946
-0.00311234
-0.00265626
-0.00221033
-0.00177497
-0.00135177
-0.000948955
-0.000571942
-0.000268463
-0.00413304
-0.00364738
-0.0031746
-0.00271339
-0.00226278
-0.00182263
-0.00139428
-0.000984937
-0.000607611
-0.000251782
-0.00418552
-0.00369576
-0.00321951
-0.00275559
-0.00230318
-0.0018618
-0.00143177
-0.00101892
-0.000637111
-0.00025877
-0.00422555
-0.00373241
-0.00325338
-0.00278751
-0.00233427
-0.00189318
-0.00146402
-0.00105099
-0.000662376
-0.000261395
-0.00425133
-0.00375581
-0.00327475
-0.00280741
-0.00235353
-0.00191298
-0.00148565
-0.00107433
-0.000680976
-0.000262736
)
;

boundaryField
{
    inlet
    {
        type            zeroGradient;
    }
    outlet
    {
        type            fixedValue;
        value           uniform 0;
    }
    upperWall
    {
        type            zeroGradient;
    }
    lowerWall
    {
        type            zeroGradient;
    }
    frontAndBack
    {
        type            empty;
    }
}


// ************************************************************************* //
