/*--------------------------------*- C++ -*----------------------------------*\
| =========                 |                                                 |
| \\      /  F ield         | OpenFOAM: The Open Source CFD Toolbox           |
|  \\    /   O peration     | Version:  2406                                  |
|   \\  /    A nd           | Website:  www.openfoam.com                      |
|    \\/     M anipulation  |                                                 |
\*---------------------------------------------------------------------------*/
FoamFile
{
    version     2.0;
    format      ascii;
    arch        "LSB;label=32;scalar=64";
    class       surfaceScalarField;
    location    "84";
    object      phi;
}
// * * * * * * * * * * * * * * * * * * * * * * * * * * * * * * * * * * * * * //

dimensions      [0 3 -1 0 0 0 0];

oriented        oriented;

internalField   nonuniform List<scalar> 
3698
(
0.0197684
-0.000268375
0.0200725
-0.000303915
0.020303
-0.00023031
0.0204725
-0.000169282
0.020601
-0.000128362
0.0206991
-9.79372e-05
0.0207738
-7.45571e-05
0.0208314
-5.74648e-05
0.0208769
-4.53322e-05
0.0209136
-3.65466e-05
0.0209436
-2.98979e-05
0.0209684
-2.46885e-05
0.020989
-2.04675e-05
0.0210061
-1.69238e-05
0.02102
-1.37894e-05
0.021031
-1.08838e-05
0.0210392
-8.03468e-06
0.0210444
-5.10888e-06
0.0210465
-1.91844e-06
0.0210449
1.71885e-06
0.0210391
6.05117e-06
0.0210279
1.13366e-05
0.0210101
1.79527e-05
0.020984
2.63387e-05
0.0209471
3.7115e-05
0.0208962
5.10378e-05
0.0208273
6.91383e-05
0.0207349
9.26894e-05
0.0206118
0.000123366
0.0204488
0.000163225
0.0202343
0.000214877
0.0199531
0.00028144
0.0195868
0.000366652
0.0191125
0.000474673
0.0185029
0.000609925
0.0177268
0.000776438
0.0167502
0.000976964
0.0155392
0.0012113
0.0140654
0.00147411
0.012314
0.00175181
0.0102951
0.00201929
0.00805924
0.00223624
0.00571423
0.00234521
0.00344669
0.00226777
0.00153756
0.00190949
0.000383436
0.00115522
0.00038364
0.0553675
-0.000135775
0.0553274
-0.000263558
0.0553645
-0.000267104
0.0554347
-0.000239148
0.0555173
-0.000210677
0.0556019
-0.000182276
0.0556822
-0.000154566
0.055755
-0.000130091
0.0558198
-0.000109836
0.0558767
-9.32302e-05
0.0559264
-7.94033e-05
0.0559697
-6.77003e-05
0.0560071
-5.7645e-05
0.0560392
-4.88011e-05
0.0560664
-4.07623e-05
0.0560889
-3.31512e-05
0.0561067
-2.56336e-05
0.0561197
-1.78599e-05
0.0561275
-9.44194e-06
0.0561294
1.03735e-07
0.0561243
1.13576e-05
0.0561109
2.50521e-05
0.0560871
4.20972e-05
0.0560501
6.36805e-05
0.0559962
9.13335e-05
0.0559205
0.000127076
0.0558166
0.000173527
0.0556756
0.000234114
0.0554862
0.000313252
0.0552333
0.000416637
0.0548972
0.00055152
0.0544521
0.000727062
0.0538647
0.000954619
0.053092
0.00124799
0.0520791
0.00162339
0.0507572
0.00209894
0.0490414
0.00269332
0.0468304
0.00342288
0.0440087
0.00429642
0.0404549
0.00530633
0.0360597
0.00641524
0.0307606
0.00753586
0.0245975
0.00850875
0.0177931
0.00907256
0.0108096
0.00889434
0.00441321
0.00755288
0.00479741
0.0874356
-7.12794e-05
0.087348
-0.000175732
0.0872905
-0.000209395
0.0872607
-0.000209103
0.0872509
-0.000200659
0.0872568
-0.000188056
0.0872741
-0.00017162
0.087298
-0.00015383
0.0873252
-0.000136843
0.0873535
-0.00012133
0.0873815
-0.000107201
0.0874082
-9.42764e-05
0.0874331
-8.23883e-05
0.0874558
-7.13035e-05
0.0874759
-6.07e-05
0.0874932
-5.02177e-05
0.0875072
-3.94714e-05
0.0875175
-2.80317e-05
0.0875236
-1.53611e-05
0.0875247
-7.78339e-07
0.0875197
1.65921e-05
0.0875071
3.78561e-05
0.087485
6.44371e-05
0.0874508
9.81752e-05
0.0874009
0.000141489
0.0873307
0.000197553
0.087234
0.000270546
0.0871025
0.000365943
0.0869252
0.00049091
0.0866875
0.00065478
0.0863697
0.00086967
0.085946
0.0011512
0.0853817
0.00151937
0.0846307
0.00199944
0.0836317
0.00262288
0.0823032
0.00342791
0.0805375
0.00445942
0.0781936
0.0057672
0.0750892
0.00740126
0.0709948
0.00940125
0.065633
0.0117775
0.0586952
0.014474
0.0498849
0.0173191
0.0390282
0.0199294
0.026216
0.0217072
0.0121332
0.0216383
0.0169308
0.115472
-4.29147e-05
0.115412
-0.000115585
0.115355
-0.000152963
0.115311
-0.000164393
0.115276
-0.000165514
0.11525
-0.000161628
0.115232
-0.00015334
0.11522
-0.000142178
0.115214
-0.000130088
0.11521
-0.000118106
0.11521
-0.000106486
0.115211
-9.52464e-05
0.115213
-8.43602e-05
0.115216
-7.37065e-05
0.115218
-6.30424e-05
0.11522
-5.20337e-05
0.115221
-4.02924e-05
0.115221
-2.73462e-05
0.115218
-1.2588e-05
0.115213
4.79171e-06
0.115203
2.58466e-05
0.11519
5.19441e-05
0.115169
8.48484e-05
0.115141
0.00012687
0.115102
0.000181046
0.115048
0.000251401
0.114975
0.000343248
0.114878
0.000463609
0.114748
0.00062174
0.114573
0.000829835
0.114339
0.00110392
0.114026
0.00146504
0.113605
0.00194069
0.113038
0.0025667
0.112272
0.00338941
0.111232
0.0044682
0.109813
0.00587814
0.107869
0.00771216
0.105189
0.0100817
0.101478
0.0131124
0.0963221
0.0169333
0.0891569
0.0216394
0.079233
0.0272431
0.065668
0.0334944
0.047536
0.0398405
0.0243603
0.0448138
0.041293
0.139485
-2.76873e-05
0.139447
-7.79332e-05
0.139405
-0.000110314
0.139366
-0.000125108
0.139331
-0.000130187
0.139299
-0.000130166
0.139272
-0.00012613
0.139249
-0.000119062
0.13923
-0.000110399
0.139213
-0.000101161
0.139198
-9.17475e-05
0.139185
-8.22739e-05
0.139174
-7.27647e-05
0.139164
-6.31478e-05
0.139154
-5.32178e-05
0.139145
-4.26625e-05
0.139136
-3.10893e-05
0.139126
-1.80123e-05
0.139117
-2.79044e-06
0.139106
1.54341e-05
0.139094
3.7799e-05
0.139081
6.57843e-05
0.139064
0.000101319
0.139045
0.000146927
0.13902
0.000205951
0.138989
0.000282818
0.138949
0.000383416
0.138897
0.00051556
0.138829
0.000689628
0.13874
0.000919408
0.138621
0.00122323
0.138461
0.00162548
0.138243
0.00215864
0.137944
0.00286598
0.137529
0.00380517
0.136945
0.00505305
0.136111
0.00671184
0.134906
0.00891714
0.13314
0.011848
0.130516
0.015737
0.126565
0.0208847
0.120556
0.0276481
0.111326
0.0364735
0.0971573
0.047663
0.0752979
0.0616994
0.0426289
0.0774888
0.0839222
0.159491
-1.84089e-05
0.159466
-5.30623e-05
0.159434
-7.81512e-05
0.159401
-9.20164e-05
0.159369
-9.81764e-05
0.159339
-9.97617e-05
0.159311
-9.79229e-05
0.159285
-9.33739e-05
0.159262
-8.7099e-05
0.159241
-7.99321e-05
0.159222
-7.23021e-05
0.159204
-6.43729e-05
0.159188
-5.61971e-05
0.159172
-4.77276e-05
0.159158
-3.87958e-05
0.159145
-2.91236e-05
0.159132
-1.83476e-05
0.15912
-6.00485e-06
0.159109
8.51685e-06
0.159098
2.60451e-05
0.159089
4.76799e-05
0.15908
7.48644e-05
0.159072
0.000109481
0.159065
0.000154003
0.159059
0.000211705
0.159055
0.000286944
0.159053
0.000385528
0.159054
0.000515205
0.159058
0.000686324
0.159065
0.000912735
0.159075
0.00121302
0.159089
0.0016122
0.159104
0.00214408
0.159115
0.00285456
0.159114
0.00380628
0.159083
0.00508525
0.158984
0.0068104
0.158754
0.00914726
0.158273
0.0123291
0.157326
0.0166845
0.155519
0.0226922
0.152155
0.031012
0.145914
0.0427143
0.134662
0.0589143
0.113808
0.0825577
0.0772258
0.11407
0.161149
0.175494
-1.2053e-05
0.175476
-3.51575e-05
0.175451
-5.29416e-05
0.175423
-6.38515e-05
0.175394
-6.93187e-05
0.175366
-7.1164e-05
0.175338
-7.03031e-05
0.175312
-6.72767e-05
0.175288
-6.27325e-05
0.175265
-5.72709e-05
0.175244
-5.12539e-05
0.175225
-4.48457e-05
0.175207
-3.81025e-05
0.17519
-3.09926e-05
0.175175
-2.33825e-05
0.175161
-1.50459e-05
0.175149
-5.67654e-06
0.175138
5.12006e-06
0.175128
1.78704e-05
0.175121
3.32847e-05
0.175117
5.23135e-05
0.175116
7.62052e-05
0.175119
0.000106595
0.175127
0.000145633
0.175143
0.000196171
0.175168
0.000262006
0.175206
0.000348218
0.175259
0.000461607
0.175335
0.0006113
0.175438
0.000809581
0.175578
0.00107306
0.175767
0.00142429
0.176017
0.00189415
0.176347
0.00252516
0.176777
0.00337642
0.177331
0.00453096
0.178035
0.00610686
0.178908
0.0082743
0.179954
0.0112835
0.181133
0.0155059
0.182304
0.0215209
0.183112
0.0302041
0.182653
0.0431738
0.178824
0.0627436
0.165136
0.0962439
0.126736
0.152472
0.287884
0.187495
-7.19722e-06
0.187481
-2.11188e-05
0.187461
-3.21387e-05
0.187436
-3.9228e-05
0.18741
-4.29167e-05
0.187383
-4.41407e-05
0.187356
-4.34916e-05
0.18733
-4.13388e-05
0.187306
-3.80766e-05
0.187283
-3.40789e-05
0.187261
-2.9595e-05
0.187241
-2.47486e-05
0.187223
-1.95831e-05
0.187206
-1.40742e-05
0.187191
-8.12614e-06
0.187178
-1.57481e-06
0.187166
5.80336e-06
0.187157
1.43006e-05
0.187151
2.43052e-05
0.187148
3.63424e-05
0.187149
5.11128e-05
0.187156
6.95406e-05
0.18717
9.28349e-05
0.187193
0.000122589
0.187229
0.000160912
0.18728
0.000210622
0.187353
0.00027549
0.187454
0.000360577
0.187593
0.000472699
0.187782
0.000621069
0.188037
0.000818208
0.188381
0.00108125
0.188841
0.00143382
0.189458
0.00190884
0.190282
0.00255266
0.191382
0.00343141
0.192848
0.00464093
0.1948
0.00632253
0.197395
0.00868842
0.200836
0.0120647
0.205395
0.0169619
0.211394
0.0242057
0.219428
0.0351394
0.230235
0.0519365
0.248393
0.0780854
0.288052
0.112812
0.174449
0.401486
0.195496
-3.11371e-06
0.195484
-9.17928e-06
0.195466
-1.39188e-05
0.195444
-1.68677e-05
0.195419
-1.81952e-05
0.195394
-1.82784e-05
0.195368
-1.73958e-05
0.195342
-1.57312e-05
0.195318
-1.34677e-05
0.195294
-1.07786e-05
0.195273
-7.78375e-06
0.195253
-4.54424e-06
0.195234
-1.07725e-06
0.195218
2.63582e-06
0.195203
6.65155e-06
0.19519
1.10617e-05
0.19518
1.59921e-05
0.195173
2.16056e-05
0.195169
2.81179e-05
0.19517
3.58161e-05
0.195176
4.50825e-05
0.19519
5.64174e-05
0.195212
7.04763e-05
0.195247
8.81188e-05
0.195297
0.000110484
0.195369
0.000139088
0.195469
0.00017596
0.195606
0.000223826
0.195792
0.000286358
0.196045
0.000368531
0.196386
0.000477128
0.196847
0.000621465
0.197466
0.000814454
0.198301
0.0010742
0.199428
0.00142637
0.200951
0.00190799
0.203019
0.00257317
0.205839
0.00350275
0.209709
0.00481877
0.215062
0.00671131
0.222559
0.00946538
0.233221
0.0135438
0.248865
0.0194961
0.2726
0.0282009
0.31079
0.0398933
0.371287
0.0523131
0.0782298
0.467505
0.199496
6.24e-07
0.199485
1.81471e-06
0.199469
3.08086e-06
0.199447
4.35126e-06
0.199424
5.61768e-06
0.199399
6.90111e-06
0.199373
8.20933e-06
0.199348
9.55193e-06
0.199324
1.09392e-05
0.199301
1.23819e-05
0.199279
1.3891e-05
0.199259
1.54796e-05
0.199241
1.71618e-05
0.199225
1.89531e-05
0.199211
2.08677e-05
0.199199
2.29219e-05
0.19919
2.51332e-05
0.199184
2.75225e-05
0.199182
3.01113e-05
0.199185
3.29232e-05
0.199195
3.59821e-05
0.199212
3.93159e-05
0.19924
4.29549e-05
0.199281
4.69354e-05
0.19934
5.1297e-05
0.199424
5.60865e-05
0.199538
6.13568e-05
0.199695
6.71726e-05
0.199908
7.36112e-05
0.200196
8.07714e-05
0.200585
8.8778e-05
0.201109
9.77977e-05
0.201815
0.000108054
0.20277
0.000119861
0.204063
0.000133664
0.205821
0.000150118
0.208224
0.000170219
0.211532
0.000195511
0.216122
0.000228477
0.22256
0.000273219
0.231689
0.000336693
0.244802
0.000431239
0.263721
0.000577264
0.291104
0.00081676
0.329804
0.00119164
0.380251
0.00186519
0.00281032
0.455668
0.199496
4.3495e-06
0.199486
1.27627e-05
0.199469
2.00048e-05
0.199448
2.54639e-05
0.199424
2.92923e-05
0.199399
3.1909e-05
0.199374
3.36083e-05
0.199349
3.45928e-05
0.199325
3.50661e-05
0.199302
3.52227e-05
0.199281
3.52042e-05
0.199262
3.50967e-05
0.199244
3.49466e-05
0.199228
3.47649e-05
0.199215
3.45243e-05
0.199204
3.41637e-05
0.199195
3.35926e-05
0.19919
3.26883e-05
0.199189
3.12787e-05
0.199193
2.91218e-05
0.199203
2.5884e-05
0.199222
2.11181e-05
0.199251
1.42294e-05
0.199293
4.42709e-06
0.199354
-9.34899e-06
0.199439
-2.85255e-05
0.199555
-5.50288e-05
0.199714
-9.14606e-05
0.19993
-0.000141346
0.20022
-0.000209474
0.200611
-0.000302393
0.201139
-0.000429108
0.201849
-0.000602123
0.202808
-0.000838967
0.204107
-0.00116453
0.205872
-0.00161464
0.208284
-0.00224171
0.211603
-0.00312394
0.216211
-0.00437923
0.222675
-0.00619108
0.231846
-0.00883329
0.245028
-0.0127504
0.264061
-0.0184563
0.291641
-0.0267633
0.330634
-0.0378024
0.381404
-0.0489091
-0.0732307
0.457445
0.195496
8.38451e-06
0.195484
2.45681e-05
0.195466
3.79991e-05
0.195445
4.75051e-05
0.19542
5.35995e-05
0.195395
5.72578e-05
0.19537
5.90879e-05
0.195345
5.94764e-05
0.195321
5.88381e-05
0.195299
5.75668e-05
0.195279
5.59341e-05
0.19526
5.40866e-05
0.195243
5.20966e-05
0.195228
4.99663e-05
0.195215
4.76299e-05
0.195204
4.49516e-05
0.195196
4.17438e-05
0.195191
3.77502e-05
0.19519
3.26255e-05
0.195193
2.58849e-05
0.195202
1.68759e-05
0.195219
4.72296e-06
0.195245
-1.17237e-05
0.195283
-3.39954e-05
0.195338
-6.41277e-05
0.195415
-0.00010486
0.19552
-0.000159866
0.195663
-0.000234104
0.195856
-0.000334259
0.196116
-0.00046939
0.196466
-0.000651825
0.196936
-0.000898459
0.197566
-0.00123261
0.198414
-0.00168677
0.199557
-0.00230674
0.2011
-0.00315792
0.203194
-0.00433507
0.206048
-0.00597803
0.209966
-0.00829696
0.21539
-0.0116152
0.222996
-0.0164392
0.233837
-0.023591
0.249788
-0.0344071
0.274084
-0.0510594
0.313307
-0.0770288
0.375647
-0.111249
-0.172653
0.475068
0.187495
1.31677e-05
0.187482
3.83832e-05
0.187461
5.84292e-05
0.187437
7.16028e-05
0.187412
7.93174e-05
0.187386
8.34327e-05
0.18736
8.48802e-05
0.187335
8.42169e-05
0.187312
8.21101e-05
0.187291
7.91785e-05
0.187271
7.58058e-05
0.187253
7.21769e-05
0.187237
6.83748e-05
0.187223
6.43921e-05
0.18721
6.01242e-05
0.1872
5.53708e-05
0.187192
4.98597e-05
0.187187
4.32281e-05
0.187184
3.49894e-05
0.187186
2.44693e-05
0.187192
1.07627e-05
0.187204
-7.33608e-06
0.187224
-3.14078e-05
0.187254
-6.35498e-05
0.187296
-0.000106547
0.187356
-0.000164134
0.187438
-0.00024131
0.187549
-0.000344793
0.187698
-0.000483608
0.187899
-0.000669933
0.188168
-0.000920241
0.188526
-0.00125695
0.189005
-0.00171076
0.189642
-0.00232398
0.190491
-0.00315549
0.191622
-0.00428809
0.193126
-0.00583962
0.195129
-0.00798017
0.197792
-0.0109602
0.201329
-0.0151522
0.206029
-0.0211389
0.212241
-0.0298027
0.22062
-0.0427861
0.231994
-0.0624345
0.251257
-0.0962903
0.293295
-0.153289
-0.292375
0.413017
0.175494
1.94158e-05
0.175476
5.5983e-05
0.175452
8.3125e-05
0.175424
9.90417e-05
0.175397
0.000107228
0.175369
0.000110858
0.175343
0.00011109
0.175319
0.00010866
0.175297
0.000104561
0.175276
9.96559e-05
0.175258
9.43811e-05
0.175241
8.89323e-05
0.175226
8.33709e-05
0.175213
7.76871e-05
0.175202
7.17216e-05
0.175192
6.52389e-05
0.175184
5.78865e-05
0.175178
4.92495e-05
0.175175
3.87275e-05
0.175174
2.5548e-05
0.175176
8.62623e-06
0.175182
-1.34173e-05
0.175193
-4.24457e-05
0.175211
-8.08619e-05
0.175236
-0.000131916
0.175272
-0.000199887
0.175322
-0.00029055
0.175389
-0.00041157
0.175479
-0.00057326
0.175598
-0.00078938
0.175757
-0.00107849
0.175966
-0.00146551
0.17624
-0.00198428
0.176597
-0.00268066
0.177059
-0.00361743
0.177652
-0.00488077
0.178402
-0.00659016
0.179334
-0.00891208
0.180456
-0.0120817
0.181735
-0.016431
0.183042
-0.0224457
0.184036
-0.0307966
0.183831
-0.0425809
0.180338
-0.058941
0.166985
-0.0829383
0.128685
-0.114987
-0.16369
0.159491
2.85644e-05
0.159467
8.04694e-05
0.159435
0.000114645
0.159403
0.000131218
0.159372
0.000138047
0.159344
0.000139779
0.159317
0.000137517
0.159294
0.000132254
0.159273
0.000125446
0.159255
0.000118123
0.159239
0.00011071
0.159224
0.00010333
0.159212
9.60359e-05
0.159201
8.87645e-05
0.159191
8.13428e-05
0.159183
7.34712e-05
0.159177
6.4792e-05
0.159171
5.48311e-05
0.159167
4.29853e-05
0.159164
2.84124e-05
0.159163
1.00202e-05
0.159163
-1.36525e-05
0.159166
-4.44849e-05
0.15917
-8.49837e-05
0.159177
-0.000138437
0.159186
-0.000209255
0.159199
-0.00030327
0.159216
-0.000428281
0.159238
-0.000594625
0.159265
-0.00081609
0.159298
-0.001111
0.159336
-0.00150379
0.159379
-0.00202704
0.159423
-0.0027242
0.159459
-0.00365327
0.15947
-0.00489166
0.159423
-0.00654252
0.159254
-0.00874302
0.158847
-0.0116748
0.157991
-0.0155745
0.156295
-0.0207496
0.153066
-0.0275675
0.146978
-0.0364925
0.135884
-0.0478471
0.115108
-0.0621609
0.0784687
-0.0783462
-0.0852209
0.139485
4.36308e-05
0.139448
0.000117672
0.139406
0.000156535
0.139368
0.000169416
0.139334
0.000171954
0.139305
0.000169471
0.13928
0.000162604
0.139259
0.000152872
0.139243
0.000142254
0.139229
0.000131777
0.139218
0.000121739
0.13921
0.000112137
0.139203
0.000102995
0.139198
9.41692e-05
0.139194
8.54756e-05
0.139191
7.65582e-05
0.139189
6.70902e-05
0.139187
5.65703e-05
0.139186
4.446e-05
0.139184
2.99204e-05
0.139183
1.19769e-05
0.13918
-1.07692e-05
0.139176
-3.99982e-05
0.139169
-7.80594e-05
0.139159
-0.000127905
0.139143
-0.000193603
0.139121
-0.000280382
0.139088
-0.000395323
0.139041
-0.000547617
0.138975
-0.000749551
0.138881
-0.00101714
0.13875
-0.0013716
0.138563
-0.00184053
0.1383
-0.00246015
0.137924
-0.00327714
0.137384
-0.0043517
0.136602
-0.00575991
0.135455
-0.00759641
0.133756
-0.00997502
0.131206
-0.0130251
0.127338
-0.0168807
0.121414
-0.0216436
0.112257
-0.0273349
0.0981212
-0.0337113
0.0761848
-0.0402236
0.0432298
-0.0453892
-0.0419905
0.115472
7.18154e-05
0.115412
0.000177315
0.115357
0.000212094
0.115314
0.000212885
0.11528
0.00020546
0.115256
0.000193877
0.11524
0.00017844
0.115232
0.000161678
0.115228
0.00014571
0.115229
0.000131269
0.115233
0.000118223
0.115239
0.000106463
0.115246
9.57627e-05
0.115254
8.59715e-05
0.115263
7.67079e-05
0.115272
6.77058e-05
0.115281
5.85071e-05
0.115289
4.87835e-05
0.115296
3.79165e-05
0.115301
2.53397e-05
0.115303
1.009e-05
0.115301
-8.81303e-06
0.115294
-3.28914e-05
0.11528
-6.38556e-05
0.115257
-0.000104234
0.11522
-0.000157069
0.115167
-0.000226664
0.11509
-0.000318375
0.114983
-0.00043952
0.114833
-0.000599349
0.114626
-0.000810196
0.114343
-0.00108768
0.113954
-0.00145214
0.113424
-0.00192901
0.112697
-0.00255038
0.111701
-0.00335498
0.11033
-0.00438882
0.108436
-0.00570288
0.105811
-0.00734914
0.102155
-0.00936946
0.097052
-0.0117771
0.0899273
-0.0145186
0.0800171
-0.0174246
0.0664153
-0.0201091
0.0481603
-0.0219672
0.0247377
-0.0219645
-0.0172523
0.0874358
0.000136112
0.0873487
0.000264583
0.0872921
0.000268854
0.0872636
0.000241548
0.0872555
0.000213686
0.0872637
0.000185867
0.0872836
0.000158743
0.0873106
0.000134839
0.0873414
0.000115171
0.0873736
9.9151e-05
0.0874061
8.59453e-05
0.0874378
7.4873e-05
0.0874683
6.54975e-05
0.0874971
5.73524e-05
0.087524
5.00813e-05
0.0875485
4.32721e-05
0.0875706
3.66427e-05
0.0875897
2.98022e-05
0.0876055
2.24208e-05
0.087617
1.39706e-05
0.0876234
3.93556e-06
0.0876233
-8.46826e-06
0.0876147
-2.40862e-05
0.0875952
-4.41612e-05
0.0875615
-7.01584e-05
0.0875088
-0.000104162
0.0874313
-0.000148735
0.0873206
-0.000207384
0.087166
-0.000284488
0.0869528
-0.000385865
0.0866619
-0.000518772
0.0862671
-0.000692561
0.0857341
-0.000918687
0.0850166
-0.00121128
0.0840534
-0.0015868
0.0827626
-0.00206395
0.081036
-0.00266194
0.0787312
-0.00339797
0.075664
-0.00428168
0.0716013
-0.00530648
0.0662604
-0.00643569
0.0593242
-0.0075821
0.0504849
-0.00858491
0.0395551
-0.00917879
0.026614
-0.00902422
0.012343
-0.00769064
-0.00490882
0.0553677
0.000268521
0.055328
0.000304374
0.055366
0.000231062
0.0554374
0.000170262
0.0555217
0.000129548
0.0556085
9.93185e-05
0.0556913
7.61367e-05
0.055767
5.92338e-05
0.0558351
4.72963e-05
0.0558957
3.87024e-05
0.0559495
3.22608e-05
0.0559973
2.72595e-05
0.0560397
2.32657e-05
0.0560773
1.99526e-05
0.0561105
1.7076e-05
0.0561395
1.44369e-05
0.0561644
1.18879e-05
0.0561851
9.27604e-06
0.0562013
6.44573e-06
0.0562123
3.19147e-06
0.0562171
-7.20419e-07
0.0562145
-5.57952e-06
0.0562023
-1.17217e-05
0.056178
-1.96125e-05
0.056138
-2.98422e-05
0.0560773
-4.32025e-05
0.0559896
-6.06993e-05
0.0558662
-8.36508e-05
0.0556958
-0.000113719
0.0554634
-0.000153026
0.0551492
-0.00020419
0.0547275
-0.000270428
0.0541647
-0.000355526
0.0534176
-0.000463794
0.0524309
-0.000599768
0.0511348
-0.000767689
0.0494436
-0.000970482
0.047254
-0.00120818
0.0444481
-0.00147559
0.0409012
-0.00175916
0.0364995
-0.00203359
0.0311758
-0.00225797
0.0249651
-0.00237384
0.0180883
-0.00230103
0.01101
-0.00194361
0.00450565
-0.00118362
-0.000402776
0.0197685
0.020073
0.0203041
0.0204744
0.0206039
0.0207033
0.0207795
0.0208388
0.0208861
0.0209248
0.0209571
0.0209844
0.0210077
0.0210277
0.0210448
0.0210593
0.0210712
0.0210806
0.021087
0.0210903
0.0210896
0.0210841
0.0210724
0.0210529
0.0210231
0.02098
0.0209193
0.0208358
0.0207221
0.0205692
0.0203651
0.0200948
0.0197393
0.0192756
0.0186759
0.0179083
0.0169378
0.0157297
0.0142542
0.0124951
0.0104616
0.00820371
0.00582995
0.00352914
0.001586
0.000402776
0.292727
0.108758
0.237822
0.0549052
0.204188
0.0336327
0.182171
0.0220179
0.167309
0.0148609
0.0106944
0.156617
0.508377
0.0678861
0.520617
0.0426658
0.521717
0.0325321
0.515938
0.0277973
0.506404
0.0243955
0.0235755
0.493525
0.518891
0.00466418
0.554058
0.00749816
0.575911
0.0106802
0.589711
0.0139968
0.59639
0.0177186
0.0221875
0.59778
0.520784
-0.0586749
0.555527
-0.0272446
0.577244
-0.0110376
0.591943
-0.000700483
0.600753
0.00890845
0.0175871
0.605358
0.518712
-0.102319
0.536094
-0.0446278
0.546352
-0.021295
0.552635
-0.00698497
0.556922
0.00462426
0.014757
0.559754
0.310698
0.26607
0.244774
0.23779
0.242415
0.257174
-0.000394207
0.00039483
-0.00125035
0.000858112
-0.00223795
0.000989637
-0.00318837
0.000952454
-0.00406251
0.000875996
-0.00485699
0.000796138
-0.0055767
0.00072105
-0.00622868
0.000653047
-0.00682059
0.000592725
-0.0073594
0.000539479
-0.00785005
0.000491196
-0.00829409
0.000444502
-0.00868894
0.000395201
-0.00902829
0.000339612
-0.00930388
0.000275746
-0.00950797
0.000204197
-0.00963578
0.000127794
-0.00968589
4.99512e-05
-0.00966078
-2.54814e-05
-0.0095664
-9.50417e-05
-0.0094108
-0.000156552
-0.00920383
-0.000208165
-0.00895678
-0.000248377
-0.00868193
-0.000276187
-0.00839197
-0.000291275
-0.00809943
-0.000293762
-0.00781606
-0.000284557
-0.00755172
-0.000265397
-0.00731473
-0.000237933
-0.00711178
-0.000203688
-0.00694803
-0.000164447
-0.00682684
-0.000121938
-0.00674949
-7.83674e-05
-0.00671478
-3.60485e-05
-0.00672006
3.61228e-06
-0.00676121
3.92705e-05
-0.00683227
6.91064e-05
-0.00692565
9.11299e-05
-0.00703352
0.000105227
-0.00714896
0.000112476
-0.00725931
0.000108327
-0.00734204
8.01126e-05
-0.00738045
3.09204e-05
-0.00738127
-1.16642e-05
-0.00734112
-5.38805e-05
-0.0072979
-5.7862e-05
-4.28877e-05
-0.001502
0.00189878
-0.00394695
0.00330777
-0.00649651
0.00354418
-0.00886228
0.00332308
-0.0109804
0.00299857
-0.0128557
0.00267506
-0.0145114
0.00237966
-0.0159749
0.00211868
-0.0172723
0.00189181
-0.0184259
0.00169415
-0.0194508
0.001517
-0.0203541
0.0013484
-0.0211348
0.00117615
-0.0217853
0.000990183
-0.022296
0.00078625
-0.0226588
0.000566727
-0.0228711
0.00033953
-0.0229365
0.000114619
-0.0228652
-9.81228e-05
-0.0226719
-0.000290194
-0.0223749
-0.000456155
-0.0219944
-0.000591576
-0.0215529
-0.000693163
-0.0210737
-0.000758713
-0.0205805
-0.000787549
-0.0200965
-0.00078092
-0.0196425
-0.000741551
-0.0192362
-0.000674422
-0.0188917
-0.000584691
-0.0186198
-0.000477557
-0.0184281
-0.000357968
-0.0183201
-0.000232049
-0.0182951
-0.000105964
-0.0183477
1.31835e-05
-0.0184693
0.00012118
-0.0186484
0.000213995
-0.0188706
0.000286604
-0.0191193
0.000334396
-0.0193757
0.000355179
-0.0196177
0.000348083
-0.019822
0.000306655
-0.0199753
0.000225277
-0.0200795
0.000119581
-0.0201348
1.4648e-05
-0.0201493
-6.93099e-05
-0.0201624
-6.0394e-05
8.90101e-06
-0.00276373
0.00466398
-0.00669228
0.00724061
-0.0104575
0.00731392
-0.0138005
0.00667034
-0.0167196
0.00592147
-0.0192614
0.00522003
-0.0214798
0.00460034
-0.023424
0.00406463
-0.0251356
0.00360447
-0.0266466
0.00320598
-0.0279785
0.00284931
-0.0291414
0.00251164
-0.0301353
0.00217
-0.0309531
0.00180772
-0.0315855
0.00141823
-0.0320267
0.00100756
-0.0322783
0.000590613
-0.0323501
0.00018561
-0.032258
-0.000191367
-0.032023
-0.000526886
-0.0316693
-0.000812138
-0.0312226
-0.00104103
-0.0307107
-0.00120786
-0.0301633
-0.00130889
-0.0296107
-0.001343
-0.0290811
-0.0013131
-0.0285996
-0.00122557
-0.0281869
-0.0010894
-0.0278597
-0.000913765
-0.0276313
-0.000707632
-0.0275097
-0.000481177
-0.0274975
-0.000246072
-0.0275911
-1.47506e-05
-0.0277824
0.000201554
-0.0280599
0.000395152
-0.028407
0.000557487
-0.028804
0.000679606
-0.0292284
0.000754157
-0.0296557
0.000776802
-0.0300582
0.000744819
-0.0304113
0.00065494
-0.0307043
0.000511587
-0.030939
0.000338086
-0.031113
0.000170851
-0.0312451
4.46234e-05
-0.0313398
2.48169e-05
0.000174549
-0.00403848
0.00870335
-0.00902501
0.01223
-0.0133125
0.0116054
-0.0169217
0.0102838
-0.0200074
0.00901092
-0.0226794
0.0078951
-0.0250217
0.00694497
-0.027098
0.00614236
-0.0289543
0.00546171
-0.0306234
0.00487554
-0.0321261
0.00435238
-0.0334716
0.00385694
-0.034657
0.0033552
-0.0356715
0.00282156
-0.0365011
0.00224717
-0.0371363
0.00164205
-0.0375765
0.00103008
-0.0378308
0.000439096
-0.0379152
-0.000108281
-0.0378484
-0.000595398
-0.0376526
-0.00101009
-0.0373521
-0.00134381
-0.0369761
-0.00158626
-0.0365573
-0.00172963
-0.0361295
-0.00177279
-0.035724
-0.00172031
-0.0353685
-0.0015831
-0.0350865
-0.00137293
-0.0348978
-0.00110394
-0.034816
-0.000790472
-0.0348481
-0.000450237
-0.0349944
-0.000101051
-0.03525
0.000238947
-0.0356067
0.000555978
-0.0360505
0.000835977
-0.0365623
0.00106637
-0.0371212
0.00123506
-0.0377038
0.00133287
-0.0382844
0.00135238
-0.0388343
0.00128988
-0.0393298
0.00114595
-0.0397579
0.000932853
-0.0401064
0.000675118
-0.0403616
0.000408975
-0.0405198
0.000189889
-0.0405908
9.18045e-05
0.000269479
-0.00514518
0.0138498
-0.0100084
0.0170959
-0.0134121
0.0150132
-0.0161444
0.0130206
-0.0185577
0.0114285
-0.0207621
0.0101028
-0.0228223
0.00900777
-0.0247796
0.00810125
-0.0266526
0.00733571
-0.028448
0.00667162
-0.030167
0.00607176
-0.0318041
0.00549422
-0.0333447
0.00489573
-0.034765
0.00424143
-0.036038
0.00351967
-0.0371415
0.00274527
-0.0380631
0.00195127
-0.0388021
0.00117789
-0.0393692
0.000458228
-0.0397749
-0.000190551
-0.0400277
-0.000758323
-0.0401407
-0.00123201
-0.0401379
-0.0015896
-0.0400532
-0.00181535
-0.039923
-0.00190341
-0.0397857
-0.00185908
-0.0396748
-0.00169469
-0.0396211
-0.00142793
-0.0396469
-0.0010784
-0.0397675
-0.000670509
-0.0399897
-0.000228091
-0.040316
0.000224175
-0.0407436
0.00066536
-0.0412653
0.00107525
-0.0418667
0.00143514
-0.0425315
0.00172823
-0.04324
0.00194088
-0.0439718
0.00206066
-0.0447025
0.00207905
-0.0454074
0.00199004
-0.0460625
0.00179717
-0.046649
0.00151287
-0.0471448
0.00115892
-0.0475211
0.000772657
-0.0477588
0.000421446
-0.0478753
0.000202789
0.000349896
-0.00495493
0.0188041
-0.00616885
0.0183126
-0.00599928
0.0148483
-0.00628296
0.0133095
-0.0071306
0.0122808
-0.00837993
0.0113562
-0.00995608
0.0105867
-0.0118043
0.00995154
-0.0138592
0.00939193
-0.0160558
0.00886936
-0.0183401
0.00835696
-0.0206687
0.00782368
-0.0230026
0.00723009
-0.025297
0.00653618
-0.0275065
0.00572949
-0.029592
0.00483107
-0.0315225
0.00388234
-0.0332764
0.00293197
-0.0348439
0.00202551
-0.0362215
0.00118608
-0.0374015
0.000420428
-0.0383708
-0.000263799
-0.0391322
-0.000829191
-0.0397127
-0.00123567
-0.0401542
-0.00146298
-0.0405032
-0.00151119
-0.0408052
-0.00139359
-0.0411001
-0.00113328
-0.0414217
-0.000756536
-0.0417942
-0.000297202
-0.0422349
0.000213204
-0.0427534
0.000742702
-0.0433516
0.00126261
-0.0440237
0.00174591
-0.0447619
0.00217134
-0.0455555
0.00251993
-0.0463925
0.00277557
-0.0472583
0.00292386
-0.0481358
0.00295298
-0.0490044
0.00285539
-0.049843
0.00263224
-0.0506277
0.00229189
-0.0513283
0.001851
-0.0519099
0.00134538
-0.0523416
0.000843118
-0.0526146
0.000477738
0.00055152
0.0127139
0.00609233
0.0220807
0.00895087
0.0268129
0.0101207
0.0289717
0.0111549
0.0293138
0.0119421
0.0282737
0.0123988
0.0262021
0.0126599
0.02336
0.0127947
0.0199527
0.0127998
0.0161542
0.0126682
0.0121099
0.0124018
0.00793343
0.0120007
0.00370338
0.0114608
-0.000539793
0.01078
-0.00476461
0.00995505
-0.00892115
0.00898861
-0.012949
0.00791105
-0.0167938
0.00677694
-0.0204078
0.00563865
-0.0237486
0.00452523
-0.0267685
0.00343791
-0.0294209
0.0023873
-0.0316904
0.00143849
-0.0335923
0.000665918
-0.0351627
0.000105831
-0.036449
-0.000224556
-0.0375101
-0.00033241
-0.0384079
-0.000233049
-0.0392046
4.25217e-05
-0.0399498
0.000451656
-0.0406821
0.000948239
-0.041426
0.00148871
-0.0421947
0.00203158
-0.0429934
0.00254445
-0.0438254
0.00300222
-0.044691
0.00338456
-0.0455899
0.00367257
-0.0465188
0.00385046
-0.047472
0.00390286
-0.0484393
0.00381967
-0.0494069
0.00359628
-0.0503521
0.00323276
-0.0512435
0.00273439
-0.0520436
0.00213494
-0.0527011
0.00150255
-0.0531839
0.000964938
0.00095997
0.15243
0.0102827
0.14912
0.0122635
0.145121
0.0141231
0.14025
0.0160276
0.134342
0.0178521
0.127354
0.0193886
0.119441
0.0205732
0.110814
0.0214221
0.101666
0.0219477
0.0921798
0.0221547
0.0825268
0.0220551
0.0728576
0.0216702
0.0632918
0.021027
0.0539182
0.0201543
0.0447955
0.0190787
0.0359602
0.0178253
0.0274475
0.0164251
0.0193106
0.0149147
0.0116179
0.0133311
0.00443627
0.0117053
-0.00217577
0.0100487
-0.00815114
0.00836084
-0.0134183
0.00670557
-0.0179505
0.00519657
-0.0217741
0.00392968
-0.0249547
0.00295511
-0.0275585
0.00227285
-0.0296721
0.00188227
-0.0313952
0.0017691
-0.0328274
0.00188709
-0.0340555
0.00217953
-0.0351465
0.00258133
-0.0361424
0.00302832
-0.0370699
0.00347133
-0.0379476
0.00387918
-0.0387939
0.0042293
-0.0396255
0.0045024
-0.0404588
0.0046807
-0.0413072
0.00474792
-0.0421799
0.00468864
-0.0430782
0.00449214
-0.0439948
0.00414507
-0.0449056
0.00363956
-0.0457738
0.0029988
-0.0465564
0.00228436
-0.0471877
0.00159696
0.00152493
0.478188
0.0256227
0.461328
0.0291255
0.44281
0.032643
0.42288
0.0359599
0.401657
0.0390765
0.379206
0.0418406
0.355656
0.0441239
0.331194
0.045884
0.306041
0.0471015
0.280444
0.0477522
0.254681
0.047818
0.229054
0.0472982
0.203873
0.0462088
0.179446
0.0445823
0.156058
0.0424675
0.133953
0.0399315
0.113321
0.0370576
0.0942979
0.0339387
0.0769589
0.03067
0.061324
0.0273394
0.047354
0.0240176
0.0349488
0.0207649
0.0239992
0.0176537
0.0144271
0.0147667
0.00617605
0.0121774
-0.000799878
0.00992734
-0.00656099
0.00803035
-0.0112144
0.00653254
-0.0149135
0.00546613
-0.017832
0.00480398
-0.0201395
0.0044857
-0.0219838
0.00442385
-0.0234745
0.00451663
-0.0246814
0.00467585
-0.0256564
0.0048514
-0.0264481
0.00501863
-0.0271034
0.00515423
-0.0276636
0.00523719
-0.0281684
0.00524794
-0.0286528
0.00516987
-0.0291513
0.00498731
-0.0296917
0.0046847
-0.0302908
0.00423172
-0.0309359
0.00363021
-0.0316039
0.00293879
-0.0322646
0.0022435
0.00201737
0.59592
0.0274861