/*--------------------------------*- C++ -*----------------------------------*\
| =========                 |                                                 |
| \\      /  F ield         | OpenFOAM: The Open Source CFD Toolbox           |
|  \\    /   O peration     | Version:  2406                                  |
|   \\  /    A nd           | Website:  www.openfoam.com                      |
|    \\/     M anipulation  |                                                 |
\*---------------------------------------------------------------------------*/
FoamFile
{
    version     2.0;
    format      ascii;
    arch        "LSB;label=32;scalar=64";
    class       volScalarField;
    location    "33";
    object      p;
}
// * * * * * * * * * * * * * * * * * * * * * * * * * * * * * * * * * * * * * //

dimensions      [0 2 -2 0 0 0 0];

internalField   nonuniform List<scalar> 
1800
(
0.136985
0.134181
0.130574
0.12661
0.122242
0.117415
0.112069
0.106068
0.0992292
0.0904599
0.138855
0.134822
0.130622
0.126578
0.122231
0.117436
0.112196
0.106459
0.100119
0.0931704
0.140277
0.135523
0.130926
0.126924
0.122743
0.118152
0.113254
0.108169
0.103054
0.0983198
0.141646
0.136613
0.131799
0.127874
0.123932
0.119667
0.115252
0.110909
0.106841
0.103359
0.143067
0.13794
0.133054
0.129233
0.125535
0.121613
0.117664
0.113938
0.110602
0.107827
0.144329
0.139201
0.134378
0.130691
0.127202
0.123571
0.119998
0.116712
0.113831
0.111435
0.145187
0.140149
0.135505
0.131954
0.128601
0.125173
0.121858
0.11884
0.116196
0.113961
0.145433
0.140668
0.1363
0.132827
0.129512
0.126184
0.123006
0.12011
0.117547
0.115339
0.144787
0.140712
0.136719
0.133236
0.129862
0.126542
0.123392
0.120503
0.117916
0.11566
0.143078
0.140185
0.13672
0.13326
0.129832
0.126482
0.1233
0.120358
0.117705
0.115379
0.0979648
0.0977851
0.0977774
0.0980591
0.0986191
0.0994329
0.100478
0.10173
0.103163
0.104745
0.106438
0.108203
0.109993
0.111761
0.113459
0.115037
0.116452
0.11766
0.118622
0.119304
0.119674
0.119704
0.119364
0.118628
0.117465
0.115842
0.113719
0.11105
0.107784
0.103865
0.0992395
0.0938663
0.0877292
0.0808553
0.073335
0.0981601
0.0979778
0.0979834
0.0982663
0.0988004
0.0995666
0.100551
0.101738
0.103105
0.104622
0.106254
0.107961
0.109699
0.11142
0.113074
0.114615
0.115996
0.117174
0.118109
0.118766
0.119112
0.119119
0.118757
0.117998
0.116812
0.115163
0.113013
0.110314
0.107013
0.103053
0.0983808
0.0929521
0.0867512
0.0798097
0.072229
0.0981432
0.0979465
0.0979573
0.0982438
0.098761
0.0994929
0.100434
0.101574
0.102895
0.104369
0.105963
0.107637
0.109344
0.111038
0.112668
0.114187
0.115548
0.116706
0.117622
0.118262
0.118591
0.118583
0.118207
0.117438
0.116242
0.114586
0.112428
0.109716
0.106393
0.102393
0.0976472
0.0920976
0.085713
0.0785186
0.0706301
0.0977138
0.0975303
0.0975694
0.0978826
0.0984132
0.0991474
0.100085
0.10122
0.102536
0.104007
0.105598
0.10727
0.108976
0.110668
0.112294
0.113807
0.115159
0.116307
0.117211
0.117838
0.118157
0.11814
0.117761
0.116993
0.115806
0.114164
0.112021
0.109319
0.105988
0.10194
0.097079
0.0913079
0.0845567
0.0768238
0.0682449
0.0967929
0.0966972
0.0968388
0.0972379
0.097834
0.0986179
0.0995949
0.100762
0.102104
0.103598
0.105209
0.106895
0.10861
0.110306
0.111933
0.113439
0.114781
0.115915
0.116806
0.117419
0.117728
0.117707
0.117334
0.116583
0.115425
0.113822
0.111724
0.109061
0.105744
0.101651
0.0966403
0.0905456
0.0832203
0.0745839
0.0647938
0.0953204
0.0954447
0.0958212
0.0964067
0.0971439
0.0980351
0.0990931
0.100321
0.10171
0.103239
0.104876
0.106579
0.108304
0.11
0.111618
0.113111
0.114435
0.115549
0.11642
0.11702
0.117324
0.117311
0.116963
0.116255
0.115161
0.11364
0.111636
0.109066
0.105815
0.101721
0.0965695
0.0900968
0.0820102
0.0720598
0.0603087
0.0932115
0.0937881
0.0946184
0.0955282
0.0964912
0.0975403
0.0987073
0.100012
0.101457
0.103026
0.104687
0.106402
0.108125
0.10981
0.111409
0.112876
0.114172
0.11526
0.116111
0.116702
0.117013
0.11703
0.116735
0.11611
0.115129
0.113752
0.111917
0.109528
0.10644
0.102442
0.0972263
0.0903836
0.0814094
0.0697487
0.0551828
0.0900273
0.091669
0.0933764
0.0947655
0.0960141
0.0972527
0.0985452
0.0999317
0.101431
0.103033
0.10471
0.106424
0.108133
0.109792
0.111356
0.112786
0.114046
0.115104
0.115939
0.116531
0.116868
0.11694
0.116735
0.11624
0.115433
0.114274
0.112702
0.110614
0.107842
0.104118
0.0990184
0.0918808
0.0817783
0.0675153
0.0484206
0.083929
0.0887804
0.0922376
0.0942195
0.0957686
0.0972315
0.098669
0.100139
0.101685
0.103311
0.104992
0.106691
0.108368
0.109984
0.1115
0.112881
0.114097
0.115125
0.115947
0.116553
0.116935
0.117089
0.11701
0.116689
0.116111
0.115244
0.114033
0.112384
0.110133
0.106992
0.102449
0.0955516
0.0845303
0.0661035
0.0369356
0.0751126
0.0856923
0.0914694
0.0940072
0.09583
0.0975328
0.0991284
0.10068
0.102263
0.103897
0.105563
0.107226
0.108851
0.110405
0.111855
0.113174
0.114338
0.115333
0.116147
0.116776
0.117217
0.117472
0.117542
0.117425
0.117112
0.116584
0.115803
0.114703
0.113163
0.110967
0.107708
0.102562
0.0936478
0.0758108
0.037567
0.0822754
0.0876831
0.0925831
0.0948854
0.0966087
0.0983541
0.100026
0.101621
0.103208
0.104815
0.106431
0.108026
0.10957
0.111036
0.112399
0.113641
0.114745
0.115702
0.116507
0.117161
0.117666
0.118029
0.118253
0.118343
0.118298
0.11811
0.117763
0.117224
0.116436
0.115302
0.113661
0.111237
0.107512
0.101618
0.0953951
0.0888256
0.0911353
0.0944891
0.0965449
0.0981488
0.0997967
0.101426
0.102987
0.104516
0.10604
0.107554
0.109036
0.110462
0.111812
0.113068
0.114217
0.115249
0.116162
0.116954
0.117629
0.118193
0.118654
0.119018
0.119292
0.119482
0.119589
0.119611
0.119538
0.119355
0.119033
0.118526
0.117767
0.116691
0.115686
0.115785
0.0954135
0.0957797
0.09756
0.099115
0.10046
0.101858
0.103294
0.104704
0.106088
0.10746
0.108815
0.110139
0.111414
0.112623
0.113755
0.114801
0.115756
0.116619
0.117392
0.11808
0.118689
0.119228
0.119703
0.120123
0.120494
0.120821
0.12111
0.121361
0.121574
0.121743
0.121858
0.121901
0.121905
0.122266
0.122961
0.101078
0.100594
0.101284
0.102226
0.103188
0.104242
0.10538
0.106544
0.107709
0.108874
0.110031
0.111171
0.112277
0.113337
0.114341
0.115284
0.116162
0.116975
0.117726
0.118419
0.119059
0.119653
0.120206
0.120727
0.121219
0.12169
0.122144
0.122584
0.123011
0.123425
0.123817
0.124183
0.124572
0.125287
0.12621
0.105881
0.104999
0.104962
0.105319
0.105851
0.106531
0.107333
0.108208
0.109121
0.110059
0.111012
0.111967
0.112912
0.113834
0.114724
0.115577
0.116389
0.117161
0.117892
0.118585
0.119245
0.119874
0.120477
0.121059
0.121624
0.122175
0.122715
0.123245
0.123766
0.124272
0.124759
0.125222
0.125712
0.12645
0.127332
0.10963
0.108509
0.107993
0.107878
0.108017
0.108349
0.108837
0.109435
0.110112
0.110845
0.11162
0.112421
0.113235
0.114049
0.114853
0.11564
0.116407
0.11715
0.117869
0.118564
0.119237
0.119888
0.120521
0.121138
0.12174
0.122329
0.122906
0.12347
0.124018
0.124545
0.125045
0.125517
0.126004
0.126646
0.127356
0.112177
0.110883
0.110052
0.109595
0.109421
0.109474
0.10971
0.110091
0.110584
0.111164
0.11181
0.112506
0.113234
0.11398
0.114733
0.115485
0.11623
0.116962
0.11768
0.118382
0.119067
0.119735
0.120386
0.121022
0.121642
0.122247
0.122836
0.123408
0.123957
0.12448
0.124971
0.12543
0.125882
0.126405
0.126921
0.113512
0.112086
0.111053
0.110371
0.109986
0.10985
0.109922
0.110166
0.110548
0.111041
0.11162
0.112263
0.112953
0.113673
0.114411
0.115157
0.115902
0.116642
0.11737
0.118085
0.118785
0.119468
0.120134
0.120782
0.121413
0.122025
0.122617
0.123188
0.123734
0.124252
0.124737
0.125187
0.125612
0.126034
0.126386
0.11376
0.112232
0.111076
0.110267
0.109769
0.109539
0.109538
0.109727
0.110074
0.110545
0.111114
0.111757
0.112453
0.113186
0.11394
0.114705
0.115472
0.116233
0.116984
0.11772
0.118439
0.119139
0.119819
0.120479
0.121118
0.121734
0.122329
0.122899
0.123443
0.123961
0.124451
0.124911
0.125336
0.125706
0.125955
0.113408
0.111809
0.110584
0.109716
0.109173
0.108915
0.108901
0.10909
0.109446
0.109935
0.110526
0.111195
0.111919
0.112681
0.113465
0.114259
0.115054
0.115842
0.116618
0.117376
0.118115
0.118832
0.119526
0.120197
0.120843
0.121464
0.122061
0.122632
0.123177
0.123699
0.1242
0.124682
0.125135
0.125514
0.125733
0.065333
0.0570881
0.0488794
0.0409667
0.0335459
0.0267473
0.0206506
0.0152939
0.0106808
0.00679089
0.0641928
0.055968
0.0478529
0.0400978
0.0328739
0.0262871
0.0203983
0.0152347
0.0107942
0.00705489
0.062278
0.0538226
0.0456448
0.0379845
0.0309486
0.024595
0.0189612
0.014053
0.00985674
0.00634775
0.0591422
0.0501082
0.0416998
0.0341033
0.0272796
0.0212036
0.0158784
0.0112846
0.00738886
0.00417238
0.0543231
0.044328
0.0356716
0.0282921
0.021843
0.0161917
0.0112974
0.00710041
0.00354578
0.000644928
0.0474022
0.035947
0.0272941
0.020562
0.0148376
0.00988892
0.00563278
0.00192764
-0.00129146
-0.00393486
0.0380875
0.0246772
0.0167698
0.0114378
0.00696011
0.0031073
-0.000277472
-0.0034493
-0.00645487
-0.00906144
0.0248547
0.0106233
0.00548649
0.00257242
-0.000157914
-0.002621
-0.00507564
-0.00785948
-0.0109949
-0.0141022
0.00149062
-0.00676297
-0.00459258
-0.00400969
-0.00478561
-0.00591032
-0.00762197
-0.0102496
-0.0138867
-0.0184552
-0.0308866
-0.0234447
-0.0115819
-0.00795751
-0.00701826
-0.00704345
-0.00824448
-0.0107361
-0.0144988
-0.0203254
0.0035876
0.00102247
-0.000964281
-0.00244243
-0.00348633
-0.00416802
-0.0045531
-0.00469956
-0.00465769
-0.00447019
-0.00417275
-0.00379489
-0.00336095
-0.00289088
-0.00240091
-0.00190423
-0.00141146
-0.000931106
-0.00046993
-3.32517e-05
0.000374798
0.000751072
0.00109323
0.00139961
0.0016691
0.00190103
0.00209515
0.00225151
0.00237047
0.00245261
0.00249873
0.00250983
0.00248708
0.00243178
0.00234539
0.00398071
0.00152377
-0.000377218
-0.00179438
-0.00280208
-0.00346909
-0.00385646
-0.00401805
-0.00400064
-0.003844
-0.00358143
-0.00324078
-0.00284514
-0.00241363
-0.00196182
-0.00150241
-0.00104563
-0.000599749
-0.000171315
0.000234445
0.000613503
0.000962714
0.00127977
0.00156296
0.00181114
0.00202358
0.00219996
0.00234026
0.00244474
0.0025139
0.00254847
0.00254933
0.00251758
0.00245445
0.00236131
0.00349602
0.00125715
-0.000437403
-0.00167508
-0.0025398
-0.00309947
-0.00340995
-0.00352026
-0.00347279
-0.00330279
-0.00303949
-0.00270748
-0.00232749
-0.00191676
-0.00148947
-0.00105708
-0.00062892
-0.000212433
0.000186409
0.000562904
0.00091337
0.00123499
0.00152564
0.00178379
0.00200836
0.00219873
0.00235457
0.00247586
0.00256283
0.00261595
0.00263588
0.00262346
0.0025797
0.00250578
0.00240298
0.00162857
-0.000267851
-0.00160283
-0.00250567
-0.00308539
-0.00341003
-0.00352874
-0.00348616
-0.00332031
-0.0030607
-0.00273083
-0.00235078
-0.00193791
-0.00150684
-0.00106951
-0.000635538
-0.00021257
0.000193338
0.000577445
0.000936091
0.0012665
0.00156659
0.00183489
0.00207037
0.00227238
0.00244057
0.0025749
0.00267552
0.0027428
0.00277728
0.00277967
0.00275082
0.00269175
0.0026036
0.00248764
-0.00154137
-0.00298015
-0.00379888
-0.00421964
-0.00439179
-0.00437313
-0.0042006
-0.0039153
-0.00355092
-0.00312971
-0.00266828
-0.00218171
-0.00168387
-0.00118663
-0.000699549
-0.000230129
0.000215901
0.000634271
0.0010219
0.00137668
0.00169724
0.0019828
0.00223299
0.00244775
0.00262727
0.0027719
0.00288215
0.00295862
0.00300204
0.00301324
0.00299313
0.00294271
0.00286308
0.00275543
0.00262106
-0.00578194
-0.0066544
-0.00679126
-0.0066084
-0.00629545
-0.00586801
-0.0053422
-0.00475701
-0.00414005
-0.00350396
-0.00285812
-0.00221354
-0.00158157
-0.000972123
-0.00039309
0.000149587
0.000651707
0.00111059
0.00152483
0.00189407
0.00221869
0.00249963
0.00273812
0.00293557
0.00309348
0.00321335
0.00329666
0.00334485
0.00335931
0.00334141
0.0032925
0.00321391
0.00310699
0.00297308
0.00281358
-0.0107076
-0.0108824
-0.0101533
-0.00929929
-0.00849246
-0.00764929
-0.00676366
-0.00587335
-0.00499325
-0.004123
-0.00326595
-0.00243139
-0.00163011
-0.000871692
-0.000163824
0.000487737
0.00107915
0.00160842
0.00207524
0.00248068
0.00282686
0.00311653
0.00335284
0.00353904
0.00367837
0.00377392
0.0038286
0.00384507
0.0038258
0.00377302
0.0036888
0.00357504
0.00343352
0.00326591
0.00307384
-0.0158729
-0.015068
-0.0132739
-0.0118012
-0.0105862
-0.00938762
-0.00820062
-0.0070594
-0.00595465
-0.00487113
-0.00380962
-0.00278103
-0.00179798
-0.000871745
-1.17526e-05
0.000774548
0.00148197
0.00210779
0.00265164
0.00311521
0.00350177
0.00381566
0.00406184
0.00424554
0.00437197
0.00444612
0.00447267
0.00445591
0.00439973
0.00430759
0.00418257
0.00402743
0.00384459
0.00363627
0.00340444
-0.0211852
-0.0186774
-0.0155866
-0.0136873
-0.0122257
-0.01079
-0.00941556
-0.00812084
-0.00686393
-0.00561861
-0.00438807
-0.0031877
-0.00203389
-0.000941491
7.64129e-05
0.00100882
0.00184749
0.00258739
0.00322672
0.00376665
0.00421068
0.00456407
0.00483316
0.00502491
0.00514644
0.00520472
0.00520641
0.00515764
0.00506398
0.00493043
0.00476136
0.00456063
0.00433158
0.0040771
0.00379976
-0.0261375
-0.0211742
-0.0168858
-0.0148048
-0.013244
-0.0117183
-0.0102911
-0.00894428
-0.00761124
-0.00626496
-0.00491446
-0.00358024
-0.00228324
-0.00104302
0.000122386
0.0011972
0.00216893
0.00302904
0.00377315
0.00440076
0.00491459
0.0053199
0.00562371
0.00583419
0.00596
0.00600994
0.00599253
0.00591581
0.00578716
0.00561323
0.0053999
0.00515231
0.00487489
0.00457145
0.00424522
-0.0315875
-0.0226012
-0.0176225
-0.0153648
-0.013733
-0.0122358
-0.0108515
-0.00951461
-0.00815688
-0.00675879
-0.00533391
-0.00390595
-0.00249974
-0.00113954
0.000151537
0.00135277
0.00244708
0.003422
0.0042699
0.00498779
0.00557676
0.00604124
0.00638813
0.0066261
0.00676485
0.00681452
0.00678527
0.00668683
0.00652831
0.00631802
0.00606337
0.00577087
0.00544616
0.00509403
0.00471857
-0.0240161
-0.0198707
-0.0168657
-0.0150967
-0.0137031
-0.0123997
-0.0111308
-0.00984228
-0.00849373
-0.00707923
-0.00561596
-0.00412955
-0.00264782
-0.00119895
0.000189709
0.00149318
0.00269038
0.00376507
0.00470632
0.00550835
0.00617013
0.00669456
0.00708782
0.00735839
0.00751639
0.00757279
0.00753891
0.00742584
0.00724417
0.00700365
0.00671316
0.0063805
0.00601251
0.00561503
0.00519299
-0.0186979
-0.0172862
-0.0157948
-0.0145579
-0.0134345
-0.0123221
-0.0111706
-0.00994387
-0.0086248
-0.00721817
-0.00574371
-0.00422835
-0.00270203
-0.00119571
0.000260223
0.00163773
0.00291259
0.00406553
0.00508265
0.00595553
0.0066808
0.00725968
0.00769706
0.00800081
0.00818086
0.00824854
0.00821576
0.00809459
0.00789666
0.00763294
0.00731345
0.0069472
0.00654205
0.00610486
0.00564137
-0.0158653
-0.0153746
-0.0146475
-0.013836
-0.0129706
-0.012029
-0.0109875
-0.0098312
-0.00855711
-0.00717691
-0.00571285
-0.00419318
-0.00264948
-0.00111445
0.000379586
0.00180263
0.00312833
0.00433517
0.0054069
0.00633283
0.0071075
0.00773037
0.00820491
0.00853808
0.00873925
0.00881964
0.00879132
0.00866687
0.00845856
0.00817823
0.00783673
0.00744402
0.00700883
0.00653884
0.00604054
-0.0139824
-0.0138865
-0.0135579
-0.0130332
-0.0123697
-0.0115714
-0.0106298
-0.00954411
-0.00832184
-0.00697923
-0.00554033
-0.00403474
-0.00249489
-0.000954739
0.000552688
0.00199605
0.00334798
0.00458525
0.00569017
0.00665008
0.00745807
0.00811179
0.00861367
0.00896932
0.00918768
0.00927923
0.00925621
0.00913102
0.00891651
0.00862472
0.00826734
0.00785473
0.00739649
0.00690074
0.00637478
-0.0126756
-0.0127721
-0.0126515
-0.012293
-0.0117568
-0.0110562
-0.01019
-0.00916241
-0.00798591
-0.0066799
-0.00527003
-0.00378683
-0.00226335
-0.000733316
0.000770027
0.00221518
0.00357398
0.00482267
0.00594229
0.00691928
0.00774526
0.00841692
0.00893532
0.00930539
0.00953503
0.00963443
0.00961522
0.00948992
0.00927119
0.00897149
0.00860262
0.00817552
0.00770006
0.007185
0.0066379
-0.0118672
-0.0120402
-0.0120114
-0.0117321
-0.011258
-0.0106055
-0.00977805
-0.00878276
-0.00763441
-0.0063535
-0.00496663
-0.00350379
-0.00199782
-0.000481686
0.00101085
0.00244853
0.00380305
0.00505111
0.00617291
0.00715466
0.00798687
0.00866583
0.00919139
0.00956815
0.00980292
0.0099058
0.00988762
0.00976107
0.0095383
0.00923223
0.00885438
0.00841633
0.00792782
0.0073983
0.0068353
-0.0114994
-0.0116825
-0.01168
-0.0114285
-0.0109713
-0.0103263
-0.00950059
-0.00850548
-0.00735734
-0.00607838
-0.00469464
-0.00323668
-0.00173631
-0.000227031
0.001259
0.00269088
0.00404146
0.00528612
0.00640596
0.00738631
0.00821841
0.00889727
0.00942331
0.00979973
0.0100339
0.0101347
0.0101135
0.00998207
0.00975328
0.00943921
0.00905235
0.00860357
0.00810363
0.00756143
0.00698547
-0.0114968
-0.0116664
-0.0116701
-0.0114259
-0.0109589
-0.0102887
-0.00942974
-0.00839857
-0.00721556
-0.00590463
-0.00449318
-0.00301147
-0.00149182
3.3051e-05
0.00153091
0.00297163
0.00432782
0.00557621
0.00669785
0.00767836
0.00850827
0.00918346
0.00970388
0.0100734
0.0102989
0.0103898
0.0103572
0.0102134
0.00997106
0.00964284
0.009241
0.00877714
0.00826178
0.00770449
0.00711354
-0.0116775
-0.0118444
-0.0118615
-0.0116216
-0.0111355
-0.0104271
-0.00951943
-0.00843542
-0.00719945
-0.00583789
-0.00437962
-0.0028556
-0.00129845
0.000258756
0.00178373
0.00324625
0.00461914
0.00587926
0.00700797
0.00799158
0.0088213
0.00949303
0.010007
0.0103673
0.0105813
0.0106588
0.0106113
0.0104512
0.0101919
0.00984616
0.00942672
0.0089454
0.00841303
0.00783937
0.00723293
0.00222949
0.00208578
0.00191604
0.00172221
0.00150627
0.00127017
0.00101576
0.000746256
0.0004684
0.000173109
0.00223967
0.00209116
0.00191749
0.00172057
0.00150227
0.00126428
0.00100866
0.000740974
0.000467543
0.000181515
0.00227275
0.00211663
0.0019363
0.00173357
0.00151029
0.00126799
0.00100866
0.000737923
0.000461543
0.000181212
0.00234526
0.00217794
0.00198732
0.00177511
0.00154312
0.00129288
0.0010262
0.000747932
0.000462363
0.00017823
0.00246133
0.00227773
0.0020718
0.00184521
0.00159967
0.00133665
0.00105794
0.000767403
0.000467196
0.000170982
0.00262991
0.00242356
0.00219604
0.00194894
0.00168387
0.00140226
0.00110575
0.000797491
0.00047755
0.000161121
0.00285886
0.00262252
0.00236634
0.00209188
0.00180064
0.00149393
0.00117335
0.000841369
0.000496444
0.000151938
0.00315095
0.00287747
0.00258561
0.00227691
0.00195281
0.00161453
0.00126359
0.000901918
0.000526885
0.000147543
0.00350176
0.00318508
0.00285146
0.00250251
0.00213964
0.00176404
0.0013771
0.00098047
0.000570584
0.000151702
0.00389897
0.00353505
0.00315548
0.00276197
0.00235602
0.00193875
0.0015116
0.00107593
0.00062747
0.000166715
0.00432317
0.00391069
0.00348348
0.0030435
0.00259234
0.0021312
0.00166146
0.00118456
0.000695266
0.000192641
0.00475053
0.00429104
0.00381729
0.00333155
0.00283558
0.0023307
0.00181838
0.00130013
0.000769792
0.000227046
0.00515644
0.00465403
0.00413739
0.00360909
0.00307116
0.00252505
0.00197234
0.0014149
0.000845454
0.000265487
0.00551944
0.00498004
0.00442605
0.00386036
0.00328527
0.00270241
0.00211354
0.00152089
0.000916299
0.000302613
0.00582446
0.00525495
0.00467017
0.0040735
0.00346731
0.00285357
0.00223406
0.00161159
0.000977151
0.000333627
0.00606522
0.00547234
0.00486364
0.00424263
0.00361201
0.00297374
0.00232989
0.0016835
0.00102501
0.000355735
0.00624593
0.00563552
0.00500901
0.0043698
0.00372099
0.00306435
0.00240223
0.0017377
0.00106036
0.000369124
0.00638238
0.00575836
0.0051179
0.00446515
0.00380268
0.00313275
0.00245732
0.00177931
0.00108679
0.000376542
0.00649615
0.0058583
0.00520495
0.00453996
0.00386624
0.00318572
0.00250035
0.00181177
0.0011078
0.000382416
0.00660105
0.00594984
0.00528431
0.00460839
0.00392498
0.00323603
0.0025429
0.00184627
0.00114233
0.000410214
)
;

boundaryField
{
    inlet
    {
        type            zeroGradient;
    }
    outlet
    {
        type            fixedValue;
        value           uniform 0;
    }
    upperWall
    {
        type            zeroGradient;
    }
    lowerWall
    {
        type            zeroGradient;
    }
    frontAndBack
    {
        type            empty;
    }
}


// ************************************************************************* //
