/*--------------------------------*- C++ -*----------------------------------*\
| =========                 |                                                 |
| \\      /  F ield         | OpenFOAM: The Open Source CFD Toolbox           |
|  \\    /   O peration     | Version:  2406                                  |
|   \\  /    A nd           | Website:  www.openfoam.com                      |
|    \\/     M anipulation  |                                                 |
\*---------------------------------------------------------------------------*/
FoamFile
{
    version     2.0;
    format      ascii;
    arch        "LSB;label=32;scalar=64";
    class       surfaceScalarField;
    location    "33";
    object      phi;
}
// * * * * * * * * * * * * * * * * * * * * * * * * * * * * * * * * * * * * * //

dimensions      [0 3 -1 0 0 0 0];

oriented        oriented;

internalField   nonuniform List<scalar> 
3470
(
0.00975859
-0.000258593
0.0100688
-0.00031019
0.0103434
-0.000274614
0.0106173
-0.000273985
0.0109272
-0.000309844
0.0113073
-0.000380093
0.0118105
-0.000503297
0.0125319
-0.000721377
0.013694
-0.00116213
-0.00251583
0.0162098
0.0254467
-0.000205294
0.0255653
-0.00042883
0.0258119
-0.000521268
0.0261467
-0.000608775
0.0265718
-0.000734988
0.027108
-0.000916334
0.0277899
-0.00118516
0.0286696
-0.00160115
0.0297796
-0.00227211
-0.00344423
0.0307079
0.0374656
-0.000170945
0.0374788
-0.000442049
0.0375939
-0.000636358
0.0378062
-0.000821086
0.0381116
-0.00104041
0.038513
-0.00131785
0.0390126
-0.00168475
0.0395987
-0.00218728
0.0402087
-0.00288212
-0.00384139
0.0406059
0.0454796
-0.000150605
0.0454554
-0.000417845
0.0454747
-0.000655733
0.0455498
-0.000896159
0.0456784
-0.00116904
0.0458557
-0.00149524
0.0460693
-0.00189832
0.0462885
-0.00240657
0.0464517
-0.00304532
-0.00382794
0.0464383
0.0494743
-0.000124923
0.0494158
-0.000359355
0.0493565
-0.000596474
0.0493094
-0.000849113
0.0492708
-0.0011305
0.0492313
-0.00145569
0.0491737
-0.00184082
0.0490676
-0.00230045
0.0488648
-0.0028425
-0.00346087
0.0484977
0.0494589
-8.38424e-05
0.0493568
-0.000257323
0.0492244
-0.000464018
0.0490715
-0.000696298
0.0488914
-0.000950433
0.0486718
-0.00123613
0.0483949
-0.00156385
0.0480334
-0.001939
0.0475515
-0.00236062
-0.00281787
0.0469085
0.0454348
-1.86219e-05
0.0452845
-0.000107068
0.0450922
-0.00027179
0.0448618
-0.000465902
0.0445815
-0.000670182
0.0442373
-0.000891894
0.0438108
-0.00113738
0.0432786
-0.00140677
0.0426141
-0.00169613
-0.00199622
0.0417924
0.0373968
8.45921e-05
0.0372185
7.11683e-05
0.0370133
-6.66262e-05
0.0367651
-0.000217668
0.0364545
-0.000359599
0.0360656
-0.000503027
0.0355811
-0.000652824
0.0349824
-0.000808118
0.0342527
-0.000966403
-0.0011229
0.0333794
0.0253714
0.000213195
0.0252755
0.00016704
0.025166
4.28829e-05
0.0249944
-4.61588e-05
0.0247459
-0.000111083
0.0244119
-0.000168968
0.0239834
-0.000224342
0.0234526
-0.000277293
0.0228138
-0.000327637
-0.000374556
0.0220654
0.00971319
0.00988023
0.00992311
0.00987695
0.00976586
0.00959689
0.00937255
0.00909526
0.00876762
0.00839306
-6.97556e-05
6.97568e-05
-0.000262413
0.000192661
-0.000517094
0.00025468
-0.000780958
0.000263859
-0.00102383
0.000242858
-0.00122986
0.000206024
-0.00139072
0.000160836
-0.00150167
0.000110933
-0.00155985
5.81531e-05
-0.00156354
3.66964e-06
-0.00151203
-5.15292e-05
-0.00140566
-0.000106393
-0.00124579
-0.000159885
-0.00103476
-0.000211031
-0.000775736
-0.000259018
-0.000472478
-0.000303237
-0.000129052
-0.00034339
0.000250463
-0.000379461
0.000662228
-0.000411695
0.00110299
-0.000440677
0.00157039
-0.000467294
0.00206315
-0.00049264
0.00258127
-0.000517979
0.00312603
-0.000544615
0.00369997
-0.00057379
0.00430659
-0.000606469
0.00494987
-0.00064312
0.00563337
-0.000683352
0.00635904
-0.000725526
0.00712542
-0.000766247
0.00792549
-0.000799951
0.00874424
-0.000818651
0.00955664
-0.000812339
0.010327
-0.000770288
-0.000684189
0.0110112
-0.000212993
0.000282754
-0.000654151
0.000633819
-0.00119054
0.000791064
-0.00172616
0.000799455
-0.00220188
0.000718553
-0.00258491
0.000589017
-0.00285813
0.000434011
-0.00301314
0.000265892
-0.00304646
9.14251e-05
-0.00295778
-8.50565e-05
-0.00274909
-0.000260268
-0.00242444
-0.000431069
-0.00198969
-0.000594649
-0.00145214
-0.000748569
-0.000820185
-0.000890938
-0.000102771
-0.00102058
0.000690907
-0.00113696
0.00155191
-0.00124032
0.00247235
-0.00133195
0.00344572
-0.00141383
0.00446731
-0.00148862
0.00553451
-0.00155956
0.00664706
-0.00163022
0.0078071
-0.00170432
0.00901899
-0.00178535
0.010289
-0.00187613
0.0116244
-0.00197823
0.0130325
-0.00209109
0.0145184
-0.0022111
0.0160826
-0.00233021
0.0177178
-0.0024349
0.0194044
-0.00250505
0.0211066
-0.00251449
0.0227695
-0.00243315
-0.00223464
0.02432
-0.000312113
0.000594867
-0.000899432
0.00122114
-0.00156639
0.00145802
-0.00219497
0.00142802
-0.00271754
0.0012411
-0.00309845
0.000969893
-0.0033211
0.000656627
-0.00337981
0.000324573
-0.00327524
-1.31701e-05
-0.00301182
-0.000348511
-0.00259683
-0.000675273
-0.00203959
-0.000988325
-0.00135091
-0.00128333
-0.000542588
-0.00155688
0.000373007
-0.00180649
0.00138328
-0.00203079
0.00247612
-0.00222971
0.00364058
-0.00240466
0.00486704
-0.00255827
0.00614782
-0.00269443
0.00747745
-0.00281806
0.00885307
-0.00293495
0.0102745
-0.00305141
0.0117444
-0.00317397
0.0132681
-0.00330881
0.0148534
-0.00346121
0.01651
-0.00363449
0.018248
-0.00382894
0.0200772
-0.00404004
0.0220036
-0.00425648
0.0240266
-0.00445771
0.0261334
-0.0046118
0.0282933
-0.00467433
0.0304506
-0.00459044
-0.00430579
0.0325217
-0.000360035
0.000954906
-0.000988415
0.00184952
-0.0016448
0.00211439
-0.00220469
0.00198789
-0.00260794
0.00164434
-0.00282889
0.00119083
-0.00286039
0.000688099
-0.00270523
0.000169395
-0.00237143
-0.00034698
-0.00187011
-0.000849841
-0.00121441
-0.00133099
-0.000418583
-0.00178416
0.000502493
-0.0022044
0.00153366
-0.00258803
0.00266001
-0.00293281
0.00386744
-0.00323818
0.00514301
-0.00350522
0.00647526
-0.00373683
0.00785463
-0.00393754
0.00927377
-0.00411344
0.0107278
-0.00427194
0.0122145
-0.00442152
0.0137346
-0.00457138
0.0152919
-0.00473101
0.0168929
-0.00490965
0.0185474
-0.00511551
0.0202677
-0.0053547
0.0220687
-0.00562976
0.0239663
-0.00593745
0.0259758
-0.00626586
0.0281085
-0.00659038
0.0303658
-0.00686903
0.0327295
-0.00703807
0.0351483
-0.00700914
-0.00668282
0.0375253
-0.000366891
0.0013218
-0.000930826
0.00241344
-0.00143042
0.00261398
-0.00176002
0.00231747
-0.00188602
0.00177032
-0.00180468
0.00110947
-0.00152506
0.00040846
-0.00106156
-0.000294114
-0.000430619
-0.000977927
0.000350226
-0.00163069
0.00126321
-0.00224397
0.00229059
-0.00281154
0.00341511
-0.00332893
0.00462036
-0.00379327
0.00589103
-0.00420348
0.00721322
-0.00456034
0.00857471
-0.00486668
0.00996519
-0.00512726
0.0113765
-0.00534879
0.0128028
-0.00553969
0.0142409
-0.00570992
0.0156901
-0.00587062
0.0171527
-0.00603388
0.018634
-0.00621218
0.0201425
-0.00641804
0.0216903
-0.0066632
0.0232934
-0.0069577
0.0249721
-0.00730825
0.0267507
-0.00771598
0.0286575
-0.00817257
0.030722
-0.00865482
0.0329688
-0.00911572
0.035404
-0.00947327
0.0379874
-0.00959254
-0.00929014
0.0405948
-0.000336717
0.00165851
-0.000718319
0.00279504
-0.000894528
0.00279016
-0.000820719
0.00224365
-0.000514474
0.00146406
-3.98038e-06
0.000598973
0.000683114
-0.000278642
0.00152153
-0.00113254
0.00248809
-0.00194449
0.00356143
-0.00270403
0.0047218
-0.00340435
0.00595095
-0.0040407
0.00723205
-0.00461003
0.00854981
-0.00511103
0.00989064
-0.0055443
0.0112428
-0.00591246
0.0125963
-0.00622026
0.0139437
-0.00647459
0.0152793
-0.00668433
0.0165998
-0.0068602
0.0179045
-0.00701451
0.0191948
-0.00716089
0.020475
-0.00731402
0.0217522
-0.00748929
0.0230367
-0.00770251
0.024343
-0.00796944
0.0256906
-0.00830513
0.0271052
-0.00872279
0.028621
-0.00923174
0.0302822
-0.00983366
0.0321432
-0.0105158
0.0342657
-0.0112381
0.0367031
-0.0119106
0.0394513
-0.0123405
-0.0121738
0.042335
-0.000247754
0.00190626
-0.000274041
0.0028213
9.09843e-05
0.00242512
0.000761866
0.00157275
0.00164655
0.000579374
0.00268523
-0.000439709
0.00383768
-0.0014311
0.00507359
-0.00236846
0.00636881
-0.00323972
0.00770357
-0.00403881
0.00906093
-0.00476173
0.010426
-0.00540581
0.0117857
-0.00596977
0.0131288
-0.00645408
0.0144456
-0.0068611
0.0157284
-0.00719534
0.0169716
-0.00746345
0.0181713
-0.00767427
0.0193256
-0.00783861
0.0204345
-0.00796915
0.0215002
-0.00808012
0.0225265
-0.00818715
0.0235195
-0.008307
0.0244878
-0.00845751
0.0254428
-0.00865749
0.0264002
-0.00892679
0.0273814
-0.00928622
0.0284163
-0.00975761
0.0295475
-0.0103629
0.0308362
-0.0111222
0.0323681
-0.0120474
0.034257
-0.0131268
0.0366337
-0.0142869
0.0395703
-0.0152769
-0.015417
0.0428139
-1.46863e-05
0.00192093
0.000660594
0.00214599
0.00187623
0.00120946
0.0033386
0.000110364
0.00490007
-0.000982102
0.00649704
-0.00203668
0.00809499
-0.00302906
0.0096726
-0.00394607
0.0112159
-0.00478307
0.0127148
-0.00553767
0.0141607
-0.0062077
0.0155466
-0.00679167
0.0168662
-0.00728943
0.0181148
-0.00770265
0.0192887
-0.00803507
0.020386
-0.00829262
0.0214059
-0.00848345
0.0223495
-0.00861787
0.023219
-0.00870812
0.0240181
-0.00876819
0.0247515
-0.00881358
0.0254255
-0.00886113
0.0260475
-0.0089289
0.0266263
-0.00903627
0.027173
-0.00920423
0.0277023
-0.00945595
0.0282339
-0.00981784
0.0287975
-0.0103211
0.0294386
-0.0110039
0.0302303
-0.0119138
0.0312906
-0.0131075
0.0328024
-0.0146383
0.0350063
-0.0164903
0.0380524
-0.0183225
-0.0188121
0.041448
0.000773614
0.0011473
0.00286658
5.29557e-05
0.00524082
-0.00116484
0.00755123
-0.00220008
0.00972218
-0.00315308
0.0117426
-0.00405714
0.013618
-0.00490444
0.0153565
-0.00568461
0.016965
-0.00639159
0.0184483
-0.00702097
0.0198096
-0.00756899
0.0210511
-0.00803326
0.0221751
-0.00841341
0.0231837
-0.00871136
0.0240801
-0.00893147
0.024868
-0.00908049
0.0255519
-0.00916745
0.0261376
-0.00920349
0.026631
-0.00920159
0.0270391
-0.00917631
0.0273691
-0.00914354
0.0276284
-0.00912039
0.0278246
-0.00912511
0.0279657
-0.0091774
0.0280604
-0.00929892
0.0281189
-0.00951442
0.0281548
-0.00985367
0.0281885
-0.0103548
0.0282548
-0.0110701
0.0284164
-0.0120752
0.0287921
-0.013483
0.0296064
-0.0154521
0.0312335
-0.0181169
0.0339942
-0.0210825
-0.0214961
0.0366788
0.00460553
-0.0034583
0.00843161
-0.00377322
0.0115475
-0.00428076
0.0142102
-0.00486289
0.0165249
-0.00546779
0.0185557
-0.00608795
0.0203485
-0.00669727
0.0219342
-0.00727029
0.0233328
-0.00779023
0.0245581
-0.00824629
0.0256204
-0.00863133
0.0265283
-0.00894119
0.0272896
-0.00917475
0.027912
-0.00933382
0.0284035
-0.00942299
0.0287725
-0.00944944
0.0290276
-0.0094226
0.029178
-0.00935389
0.0292327
-0.00925634
0.0292007
-0.00914433
0.0290905
-0.00903327
0.0289096
-0.00893951
0.0286648
-0.00888033
0.0283616
-0.00887427
0.0280045
-0.0089418
0.0275966
-0.00910657
0.0271406
-0.00939765
0.0266392
-0.00985348
0.0260978
-0.0105287
0.0255289
-0.0115062
0.0249628
-0.0129166
0.0244704
-0.0149592
0.0242116
-0.0178576
0.024569
-0.0214394
-0.0226689
0.0257421
0.0175416
-0.00479019
0.0195239
-0.00575554
0.0214797
-0.00623658
0.0233026
-0.0066859
0.024962
-0.00712718
0.026432
-0.00755806
0.0277079
-0.0079731
0.0287952
-0.00835763
0.0297016
-0.00869668
0.0304348
-0.00897947
0.0310026
-0.00919915
0.0314135
-0.00935215
0.0316767
-0.009438
0.0318021
-0.00945918
0.0318
-0.00942092
0.0316814
-0.00933083
0.0314573
-0.00919857
0.0311389
-0.00903545
0.0307365
-0.00885404
0.03026
-0.00866782
0.0297177
-0.00849096
0.0291163
-0.00833812
0.0284604
-0.00822455
0.0277524
-0.00816632
0.0269915
-0.00818093
0.0261732
-0.00828836
0.0252884
-0.00851287
0.0243206
-0.00888581
0.023242
-0.00945011
0.0220019
-0.0102661
0.0205001
-0.0114147
0.0185165
-0.0129754
0.0155434
-0.0148841
0.0103783
-0.0162742
-0.0122906
0.0309492
-0.00503153
0.0313733
-0.00617967
0.0320105
-0.00687375
0.0327166
-0.00739209
0.0334117
-0.0078223
0.0340369
-0.00818327
0.0345523
-0.00848856
0.034937
-0.00874236
0.0351819
-0.00894153
0.0352844
-0.00908203
0.0352468
-0.00916157
0.0350747
-0.00918001
0.0347761
-0.00913944
0.0343611
-0.00904418
0.0338409
-0.00890066
0.0332272
-0.00871716
0.032532
-0.00850344
0.0317669
-0.00827037
0.0309424
-0.00802953
0.0300675
-0.00779297
0.0291494
-0.00757289
0.0281928
-0.00738161
0.0271998
-0.00723154
0.0261688
-0.0071354
0.0250944
-0.00710665
0.0239661
-0.00716015
0.0227662
-0.00731317
0.021467
-0.00758681
0.020024
-0.0080073
0.0183633
-0.00860548
0.0163548
-0.00940632
0.0137615
-0.0103822
0.010167
-0.0112899
0.0050544
-0.0111619
-0.00723628
0.0405786
-0.00500425
0.0404114
-0.00601248
0.0402748
-0.00673719
0.0401592
-0.00727648
0.0400335
-0.00769661
0.0398677
-0.00801749
0.0396327
-0.00825364
0.0393073
-0.00841696
0.0388795
-0.00851368
0.0383445
-0.00854706
0.0377032
-0.00852026
0.0369606
-0.00843736
0.0361247
-0.00830363
0.0352061
-0.00812553
0.0342162
-0.00791078
0.0331671
-0.0076681
0.0320706
-0.00740696
0.0309375
-0.00713729
0.0297772
-0.00686919
0.0285968
-0.00661267
0.0274014
-0.00637753
0.026193
-0.00617326
0.0249704
-0.0060091
0.023729
-0.0058941
0.0224597
-0.00583745
0.0211481
-0.00584873
0.019773
-0.00593832
0.0183036
-0.00611758
0.0166941
-0.00639813
0.0148759
-0.00678749
0.0127429
-0.00727361
0.0101382
-0.0077779
0.00688041
-0.0080324
0.00303164
-0.00731365
-0.00420472
0.0461386
-0.00470454
0.0456375
-0.00551141
0.0450476
-0.00614725
0.0443997
-0.00662855
0.0436934
-0.00699036
0.0429245
-0.00724864
0.0420857
-0.00741484
0.0411699
-0.00750113
0.0401738
-0.0075176
0.0390988
-0.00747199
0.0379498
-0.00737128
0.036735
-0.00722255
0.0354646
-0.00703324
0.0341503
-0.00681114
0.0328039
-0.00656442
0.0314372
-0.00630146
0.030061
-0.00603072
0.0286842
-0.00576054
0.0273139
-0.00549895
0.0259547
-0.00525356
0.0246086
-0.00503149
0.0232746
-0.00483933
0.0219486
-0.00468319
0.0206231
-0.00456877
0.0192869
-0.00450145
0.0179243
-0.00448638
0.0165143
-0.00452848
0.0150283
-0.00463193
0.0134282
-0.00479831
0.0116615
-0.00502111
0.0096582
-0.00527068
0.00733832
-0.00545837
0.00466943
-0.00536415
0.00188645
-0.00453119
-0.00231834
0.0479102
-0.00411703
0.0471262
-0.00472735
0.0462046
-0.00522563
0.0451783
-0.00560223
0.0440602
-0.00587223
0.0428592
-0.00604768
0.0415828
-0.00613846
0.0402374
-0.00615574
0.0388304
-0.00611055
0.037371
-0.00601256
0.0358702
-0.00587041
0.0343399
-0.00569231
0.0327929
-0.00548615
0.0312413
-0.00525959
0.0296969
-0.00501997
0.0281697
-0.00477432
0.0266683
-0.00452929
0.0251987
-0.00429102
0.0237649
-0.00406519
0.0223682
-0.00385689
0.0210072
-0.00367065
0.0196782
-0.00351045
0.0183747
-0.00337976
0.0170873
-0.00328158
0.0158041
-0.00321847
0.01451
-0.00319249
0.0131863
-0.00320503
0.0118101
-0.00325598
0.010353
-0.00334162
0.00878083
-0.00344925
0.0070551
-0.00354531
0.0051489
-0.00355263
0.00310096
-0.00331671
0.00115726
-0.00258801
-0.00116114
0.0460747
-0.00328313
0.0450572
-0.00370981
0.0438886
-0.00405707
0.0425982
-0.00431178
0.0412059
-0.00447991
0.0397291
-0.00457089
0.0381847
-0.00459402
0.0365885
-0.00455952
0.0349558
-0.00447782
0.0333016
-0.00435838
0.0316407
-0.00420949
0.029987
-0.00403855
0.0283531
-0.00385228
0.0267503
-0.00365674
0.0251877
-0.00345741
0.0236726
-0.00325921
0.0222098
-0.00306652
0.0208019
-0.0028832
0.0194493
-0.00271261
0.0181499
-0.00255761
0.0168998
-0.00242062
0.0156928
-0.00230361
0.0145211
-0.00220816
0.0133748
-0.00213546
0.0122424
-0.00208633
0.0111108
-0.00206112
0.00996501
-0.00205947
0.00878826
-0.00207951
0.00756217
-0.00211584
0.00626779
-0.0021552
0.00489032
-0.0021682
0.00343454
-0.00209721
0.00196414
-0.00184681
0.000680307
-0.0013046
-0.000480883
0.0407987
-0.00228938
0.0396386
-0.00254974
0.0383357
-0.00275416
0.0369177
-0.00289369
0.0354095
-0.00297176
0.0338348
-0.00299615
0.0322159
-0.00297514
0.0305737
-0.00291727
0.0289267
-0.00283082
0.0272915
-0.00272318
0.0256825
-0.00260051
0.024112
-0.00246799
0.0225897
-0.00233003
0.0211234
-0.00219041
0.0197183
-0.00205233
0.0183776
-0.00191851
0.0171022
-0.00179124
0.0158914
-0.00167242
0.0147423
-0.00156363
0.0136508
-0.00146613
0.0126109
-0.00138089
0.0116158
-0.00130864
0.0106573
-0.00124984
0.00972642
-0.00120474
0.00881324
-0.00117335
0.00790729
-0.00115539
0.00699765
-0.00115007
0.00607334
-0.00115546
0.00512415
-0.00116695
0.00414273
-0.00117408
0.00312981
-0.00115558
0.00210632
-0.00107406
0.00113669
-0.00087757
0.000361678
-0.00052994
-0.000119246
0.0323588
-0.00126882
0.0312009
-0.00139187
0.0299281
-0.00148138
0.0285682
-0.00153372
0.0271484
-0.00155198
0.0256942
-0.0015419
0.0242283
-0.0015093
0.0227707
-0.00145962
0.0213377
-0.0013978
0.0199424
-0.00132794
0.0185952
-0.00125329
0.0173036
-0.00117638
0.0160728
-0.00109926
0.0149059
-0.00102356
0.0138041
-0.000950614
0.012767
-0.000881468
0.0117927
-0.000816958
0.0108779
-0.00075774
0.0100185
-0.000704306
0.00920923
-0.000657023
0.00844433
-0.000616121
0.00771726
-0.000581729
0.00702111
-0.000553857
0.00634862
-0.00053243
0.00569234
-0.000517269
0.00504482
-0.000508092
0.00439889
-0.000504378
0.00374817
-0.000504997
0.00308822
-0.000507262
0.00241898
-0.000505117
0.00174962
-0.000486495
0.00110663
-0.000431351
0.000544216
-0.0003155
0.000148059
-0.00013408
2.87793e-05
0.0212123
-0.000415751
0.0202681
-0.000447674
0.0192542
-0.000467417
0.018195
-0.00047455
0.017114
-0.000470936
0.0160312
-0.000459147
0.0149634
-0.000441496
0.0139237
-0.000419893
0.0129218
-0.000395915
0.0119646
-0.000370755
0.0110565
-0.00034528
0.0102002
-0.000320099
0.00939663
-0.000295682
0.00864541
-0.00027238
0.00794522
-0.000250468
0.00729384
-0.000230136
0.00668834
-0.00021153
0.00612525
-0.000194734
0.00560067
-0.000179813
0.00511032
-0.000166785
0.00464973
-0.000155653
0.00421426
-0.000146381
0.00379918
-0.000138922
0.0033998
-0.000133196
0.00301149
-0.000129125
0.00262982
-0.000126604
0.00225075
-0.000125501
0.00187106
-0.00012551
0.00148941
-0.000125832
0.00110859
-0.00012451
0.000739382
-0.000117499
0.000405836
-9.80277e-05
0.000148297
-5.82168e-05
1.28959e-05
1.11272e-06
4.16498e-05
0.00797731
0.00752964
0.00706222
0.00658767
0.00611674
0.00565759
0.00521609
0.0047962
0.00440028
0.00402952
0.00368424
0.00336414
0.00306845
0.00279607
0.00254559
0.00231545
0.00210391
0.00190916
0.00172934
0.00156254
0.00140687
0.00126047
0.00112153
0.000988317
0.000859171
0.000732544
0.000607018
0.000481482
0.000355625
0.000231089
0.000113565
1.55111e-05
-4.27371e-05
-4.16498e-05
0.0115633
-0.000552127
0.0119478
-0.000384499
0.0121503
-0.000202587
0.0121776
-2.73379e-05
0.0120492
0.000128322
0.0117898
0.000259405
0.0114244
0.000365323
0.0109766
0.000447746
0.0104671
0.000509507
0.000553304
0.00991377
0.0256739
-0.0019061
0.0267575
-0.00146819
0.0275284
-0.000973504
0.027977
-0.000476044
0.0281154
-1.0206e-05
0.0279683
0.00040642
0.0275677
0.000765833
0.0269484
0.00106704
0.0261442
0.00131359
0.00150963
0.0251879
0.0343983
-0.00378269
0.0359823
-0.00305229
0.0372202
-0.0022114
0.0380974
-0.00135332
0.0386201
-0.000532989
0.0388053
0.000221135
0.038677
0.000894136
0.0382625
0.00148142
0.0375895
0.00198659
0.0024141
0.0366851
0.0397072
-0.00596467
0.0415615
-0.00490661
0.0430373
-0.00368726
0.0441376
-0.00245366
0.0448824
-0.00127779
0.0452986
-0.00019512
0.0454153
0.000777411
0.0452562
0.00164056
0.0448376
0.00240513
0.0030804
0.0441713
0.0429597
-0.00832966
0.0448823
-0.00682931
0.0463362
-0.00514118
0.047373
-0.0034904
0.0480557
-0.00196053
0.0484492
-0.000588622
0.0486081
0.000618571
0.0485639
0.00168472
0.0483245
0.00264459
0.003524
0.0478809
0.0447861
-0.0107807
0.0465004
-0.00854359
0.0475634
-0.00620415
0.0481516
-0.0040785
0.0484244
-0.0022333
0.0485147
-0.000678826
0.0485088
0.000624496
0.0484398
0.00175377
0.0482956
0.00278874
0.00379112
0.0480286
0.0450518
-0.0130182
0.0459477
-0.00943926
0.0459945
-0.00625062
0.0456426
-0.00372639
0.0451943
-0.00178479
0.0448316
-0.000315987
0.0446264
0.000829831
0.0445705
0.00180966
0.0445982
0.00276106
0.00381052
0.0445788
0.0424406
-0.0140102
0.0413446
-0.0083428
0.0396695
-0.00457501
0.0381551
-0.00221162
0.0370873
-0.000716609
0.0365251
0.000246459
0.0364129
0.00094214
0.0366562
0.00156641
0.037121
0.00229627
0.00339881
0.0375326
0.0338445
-0.0111755
0.0297018
-0.00419963
0.0266538
-0.00152648
0.0248594
-0.000416824
0.0240478
9.52518e-05
0.0239289
0.000365544
0.0243042
0.000567063
0.0250741
0.000796423
0.0261757
0.00119464
0.00238119
0.0271932
0.0145666
0.0103671
0.00884069
0.00842393
0.00851923
0.0088848
0.00945187
0.0102483
0.0114429
0.013824
0.00933295
0.000580811
0.00874034
0.000592608
0.00815085
0.000589495
0.00757711
0.000573753
0.00702831
0.000548808
0.00651037
0.000517963
0.00602665
0.000483749
0.00557864
0.000448029
0.0051665
0.00041217
0.00478943
0.000377102
0.00444608
0.000343378
0.00413481
0.000311302
0.00385382
0.000281027
0.00360123
0.000252614
0.0033752
0.000226066
0.00317387
0.000201353
0.00299548
0.000178419
0.0028383
0.000157202
0.00270069
0.000137629
0.00258106
0.000119633
0.00247793
0.000103136
0.00238986
8.80699e-05
0.00231549
7.43586e-05
0.00225354
6.19332e-05
0.00220279
5.07212e-05
0.0021621
4.06564e-05
0.00213039
3.16699e-05
0.00210665
2.36987e-05
0.00208991
1.66782e-05
0.00207931
1.05496e-05
0.00207399
5.2526e-06
0.0020732
7.33579e-07
0.00207619
-3.0635e-06
0.00208232
-6.18874e-06
-8.69126e-06
0.00209095
0.0241117
0.001657
0.0229496
0.00175473
0.0217363
0.00180277
0.0205043
0.00180586
0.0192803
0.00177277
0.0180855
0.00171282
0.0169354
0.00163395
0.0158408
0.0015427
0.0148087
0.00144432
0.0138431
0.00134278
0.0129457
0.00124088
0.0121165
0.00114051
0.0113546
0.00104299
0.0106581
0.000949186
0.0100246
0.000859667
0.00945126
0.000774787
0.008935
0.000694747
0.0084726
0.000619646
0.00806077
0.000549503
0.00769615
0.000484281
0.0073754
0.000423899
0.00709523
0.000368237
0.00685242
0.000317152
0.00664383
0.000270478
0.00646646
0.000228033
0.00631741
0.000189625
0.00619392
0.000155057
0.00609338
0.000124124
0.00601331
9.66239e-05
0.00595136
7.23531e-05
0.00590535
5.11122e-05
0.00587323
3.27061e-05
0.00585306
1.69466e-05
0.00584306
3.65337e-06
-7.34353e-06
0.00584156
0.035579
0.00276305
0.0343078
0.00302595
0.0329133
0.00319729
0.0314371
0.00328217
0.0299158
0.00329406
0.0283809
0.00324776
0.0268585
0.00315647
0.0253694
0.00303182
0.0239299
0.00288389
0.022552
0.00272075
0.0212444
0.00254862
0.0200128
0.00237221
0.0188607
0.0021951
0.01779
0.00201999
0.0168009
0.00184892
0.0158923
0.00168343
0.0150625
0.00152463
0.0143089
0.00137337
0.0136282
0.00123022
0.013017
0.00109556
0.0124713
0.000969593
0.0119872
0.000852408
0.0115603
0.000743959
0.0111867
0.000644114
0.010862
0.000552664
0.0105822
0.000469343
0.0103434
0.000393839
0.0101416
0.000325806
0.00997323
0.000264877
0.00983478
0.000210671
0.00972295
0.000162801
0.00963462
0.000120882
0.00956688
8.45322e-05
0.00951699
5.33853e-05
2.70895e-05
0.0094824
0.0432721
0.00366234
0.0421677
0.00413034
0.0408972
0.00446781
0.0394997
0.00467971
0.0380096
0.00478422
0.0364576
0.00479982
0.0348715
0.00474265
0.0332757
0.00462771
0.0316912
0.00446846
0.0301358
0.00427615
0.0286246
0.00405991
0.0271697
0.0038272
0.0257808
0.00358416
0.024465
0.00333584
0.0232276
0.00308639
0.0220719
0.00283919
0.0209996
0.00259703
0.0200109
0.00236215
0.0191049
0.00213632
0.0182796
0.00192092
0.0175322
0.00171697
0.0168595
0.00152515
0.0162576
0.00134591
0.0157222
0.00117944
0.0152491
0.00102573
0.0148338
0.000884628
0.0144717
0.000755844
0.0141584
0.000638984
0.0138896
0.000533581
0.0136611
0.000439109
0.0134687
0.000355011
0.0133087
0.000280706
0.0131775
0.00021561
0.0130716
0.000159144
0.000110748
0.0129877
0.0472249
0.00431835
0.0463745
0.0049808
0.0453651
0.00547727
0.044227
0.0058178
0.0429826
0.00602865
0.041652
0.00613048
0.0402547
0.00613999
0.0388094
0.00607309
0.0373339
0.00594397
0.0358457
0.00576443
0.0343613
0.0055444
0.032896
0.00529255
0.0314637
0.00501655
0.0300764
0.0047232
0.0287443
0.00441852
0.0274757
0.00410786
0.0262769
0.00379591
0.0251523
0.00348676
0.0241048
0.00318388
0.0231356
0.00289017
0.0222446
0.00260798
0.0214307
0.00233914
0.0206915
0.00208501
0.0200244
0.00184654
0.0194258
0.00162428
0.0188919
0.00141849
0.0184185
0.00122915
0.0180013
0.00105603
0.0176361
0.000898711
0.0173184
0.000756652
0.0170441
0.000629214
0.0168089
0.000515688
0.016609
0.000415329
0.0164406
0.000327375
0.00025107
0.0163001
0.0475907
0.00475626
0.0469988
0.00557271
0.0462958
0.00618027
0.0455022
0.00661146
0.0446236
0.0069072
0.0436649
0.00708922
0.0426313
0.00717363
0.0415289
0.00717542
0.0403663
0.0071066
0.0391544
0.00697643
0.0379058
0.00679295
0.0366347
0.0065637
0.0353553
0.00629597
0.0340818
0.00599681
0.0328272
0.00567308
0.0316037
0.0053314
0.0304217
0.004978
0.0292897
0.0046187
0.0282149
0.00425876
0.0272022
0.00390286
0.0262552
0.00355499
0.0253758
0.00321851
0.0245646
0.00289613
0.0238212
0.00258994
0.023144
0.00230146
0.0225307
0.0020317
0.0219785
0.00178125
0.0214841
0.00155029
0.021044
0.00133872
0.0206543
0.00114618
0.0203112
0.000972101
0.020011
0.000815786
0.0197497
0.000676433
0.0195237
0.000553179
0.000445137
0.0193295
0.0443918
0.00494328
0.04409
0.00587447
0.0437479
0.0065224
0.0433739
0.00698545
0.0429553
0.00732574
0.0424799
0.00756463
0.0419359
0.00771757
0.0413149
0.0077964
0.0406139
0.00780759
0.0398352
0.00775509
0.0389855
0.00764264
0.0380746
0.00747458
0.0371146
0.00725594
0.036119
0.00699247
0.0351015
0.00669053
0.0340759
0.00635694
0.0330552
0.00599872
0.032051
0.00562285
0.0310737
0.00523607
0.0301319
0.00484465
0.0292326
0.00445426
0.0283811
0.00406992
0.0275813
0.00369588
0.0268355
0.00333565
0.0261449
0.00299201
0.0255094
0.00266705
0.0249283
0.00236225
0.0243999
0.00207852
0.0239222
0.00181631
0.0234926
0.00157568
0.0231082
0.00135635
0.0227659
0.00115783
0.0224628
0.000979398
0.0221956
0.000820227
0.000679403
0.0219611
0.0376646
0.0048113
0.0377408
0.0057982
0.0378784
0.00638474
0.0380495
0.00681424
0.0382144
0.00716071
0.0383387
0.00744029
0.0383927
0.00766357
0.0383561
0.00783294
0.0382184
0.00794518
0.0379766
0.00799685
0.037633
0.00798621
0.0371941
0.00791341
0.0366697
0.00778033
0.0360715
0.00759059
0.0354127
0.00734923
0.0347071
0.00706248
0.0339684
0.00673738
0.0332098
0.00638145
0.0324435
0.00600231
0.0316806
0.00560745
0.0309308
0.00520396
0.0302023
0.00479833
0.0295018
0.00439634
0.0288344
0.00400296
0.0282039
0.00362236
0.027613
0.00325788
0.027063
0.00291208
0.0265546
0.00258682
0.0260874
0.00228335
0.0256606
0.00200234
0.0252728
0.00174404
0.0249221
0.0015083
0.0246067
0.0012947
0.0243242
0.00110259
0.000931161
0.0240723
0.0276643
0.00434005
0.0283362
0.0051262
0.0292026
0.00551824
0.0301268
0.00588992
0.0310316
0.00625583
0.0318629
0.00660892
0.032586
0.00694034
0.0331836
0.00723527
0.0336487
0.00748003
0.0339803
0.00766513
0.0341818
0.00778465
0.0342596
0.00783554
0.0342226
0.00781727
0.0340815
0.00773162
0.0338483
0.00758239
0.0335357
0.00737496
0.033157
0.00711602
0.0327252
0.00681309
0.0322532
0.00647422
0.031753
0.00610763
0.0312355
0.00572136
0.0307106
0.00532306
0.0301871
0.00491979
0.0296721
0.00451781
0.0291718
0.00412259
0.0286908
0.00373871
0.0282329
0.00336987
0.0278007
0.00301897
0.0273957
0.00268816
0.027019
0.0023789
0.0266709
0.00209208
0.026351
0.0018281
0.0260586
0.00158694
0.0257928
0.00136831
0.00117163
0.0255522
0.0152251
0.00293884
0.0171938
0.00315732
0.0191459
0.00356593
0.020979
0.00405672
0.0226614
0.00457329
0.0241715
0.00509876
0.0255061
0.00560568
0.0266709
0.0060703
0.0276733
0.00647756
0.0285204
0.00681798
0.0292196
0.00708533
0.0297791
0.00727595
0.0302077
0.00738865
0.0305147
0.00742447
0.0307106
0.00738645
0.0308061
0.00727934
0.0308127
0.00710933
0.0307419
0.0068837
0.0306056
0.00661048
0.030415
0.00629815
0.0301809
0.00595526
0.0299137
0.00559017
0.0296226
0.00521078
0.029316
0.00482435
0.0290011
0.00443737
0.0286843
0.00405547
0.0283707
0.0036834
0.0280645
0.00332501
0.0277692
0.00298336
0.0274873
0.00266072
0.0272206
0.0023587
0.0269704
0.00207831
0.0267372
0.00182008
0.0265213
0.00158411
0.00137023
0.0263226
0.00399125
-0.00105249
0.00737745
-0.000229064
0.0101823
0.00076089
0.0126102
0.00162874
0.0147455
0.00243789
0.0166402
0.00320395
0.0183319
0.00391384
0.0198461
0.004556
0.0211995
0.00512415
0.0224033
0.00561404
0.0234663
0.00602224
0.0243957
0.00634652
0.025198
0.00658626
0.0258799
0.00674247
0.0264484
0.00681782
0.0269111
0.00681651
0.0272762
0.00674415
0.0275523
0.00660748
0.0277485
0.00641418
0.0278741
0.00617253
0.0279382
0.00589108
0.0279498
0.00557841
0.0279177
0.00524281
0.0278499
0.00489206
0.0277539
0.00453332
0.0276364
0.00417292
0.0275034
0.0038164
0.02736
0.00346839
0.0272106
0.0031327
0.027059
0.00281233
0.0269081
0.00250957
0.0267604
0.00222604
0.0266177
0.0019628
0.0264813
0.00172046
0.00149921
0.0263524
0.000693282
-0.00174584
0.00251907
-0.00205502
0.00459488
-0.00131506
0.00662387
-0.000400376
0.00854008
0.000521573
0.010333
0.00141091
0.012006
0.00224074
0.0135651
0.00299682
0.0150154
0.00367381
0.0163603
0.00426907
0.017602
0.00478052
0.0187417
0.00520671
0.0197807
0.00554722
0.0207202
0.00580283
0.0215623
0.00597563
0.0223097
0.00606907
0.0229659
0.00608787
0.0235353
0.00603794
0.0240232
0.00592619
0.0244354
0.00576024
0.0247783
0.0055482
0.0250583
0.00529831
0.0252823
0.00501877
0.025457
0.00471742
0.0255887
0.00440159
0.0256837
0.00407796
0.0257476
0.00375247
0.0257858
0.00343024
0.0258029
0.00311561
0.0258032
0.00281211
0.0257903
0.00252256
0.0257673
0.00224908
0.025737
0.00199324
0.0257015
0.00175605
0.00153814
0.0256626
-1.09647e-05
-0.00173494
0.000565376
-0.0026315
0.00160245
-0.00235226
0.0028525
-0.00165054
0.00418884
-0.000814868
0.00555628
4.33806e-05
0.00692547
0.00087146
0.0082781
0.00164412
0.00960208
0.00234976
0.0108884
0.00298271
0.0121293
0.00353951
0.0133181
0.00401784
0.0144488
0.00441649
0.0155162
0.00473532
0.0165164
0.00497538
0.0174465
0.00513896
0.0183047
0.00522959
0.0190906
0.005252
0.0198048
0.00521194
0.020449
0.00511601
0.0210258
0.0049714
0.0215385
0.00478561
0.0219911
0.00456625
0.0223878
0.00432074
0.0227333
0.00405618
0.0230322
0.00377914
0.0232892
0.00349558
0.0235088
0.00321077
0.0236953
0.00292926
0.0238527
0.00265486
0.0239847
0.00239069
0.0240947
0.00213923
0.0241857
0.00190237
0.0242605
0.00168146
0.00147743
0.0243214
-0.00022649
-0.0015085
-0.00027637
-0.00258173