/*--------------------------------*- C++ -*----------------------------------*\
| =========                 |                                                 |
| \\      /  F ield         | OpenFOAM: The Open Source CFD Toolbox           |
|  \\    /   O peration     | Version:  2406                                  |
|   \\  /    A nd           | Website:  www.openfoam.com                      |
|    \\/     M anipulation  |                                                 |
\*---------------------------------------------------------------------------*/
FoamFile
{
    version     2.0;
    format      ascii;
    arch        "LSB;label=32;scalar=64";
    class       volVectorField;
    location    "33";
    object      U;
}
// * * * * * * * * * * * * * * * * * * * * * * * * * * * * * * * * * * * * * //

dimensions      [0 1 -1 0 0 0 0];

internalField   nonuniform List<vector> 
1800
(
(0.0950898 -0.00133377 0)
(0.0989344 -0.00145561 0)
(0.10212 -0.00106315 0)
(0.104779 -0.000943436 0)
(0.107605 -0.00103937 0)
(0.110978 -0.00129098 0)
(0.115259 -0.00179117 0)
(0.121075 -0.00281384 0)
(0.130297 -0.0058332 0)
(0.141882 -0.0199622 0)
(0.252547 -0.00243544 0)
(0.254229 -0.00431849 0)
(0.256862 -0.00456066 0)
(0.25968 -0.00480276 0)
(0.263337 -0.00549561 0)
(0.268089 -0.00672793 0)
(0.274109 -0.00875993 0)
(0.281756 -0.0121495 0)
(0.291648 -0.0180294 0)
(0.302002 -0.0300304 0)
(0.372954 -0.00189731 0)
(0.373937 -0.00444695 0)
(0.375406 -0.00601809 0)
(0.376912 -0.00746034 0)
(0.37932 -0.00924244 0)
(0.382841 -0.0116016 0)
(0.387371 -0.0148769 0)
(0.392812 -0.0196205 0)
(0.39894 -0.0266466 0)
(0.404476 -0.0373493 0)
(0.453218 -0.00156986 0)
(0.453986 -0.00429153 0)
(0.454804 -0.00657833 0)
(0.455155 -0.00883135 0)
(0.455967 -0.0114042 0)
(0.457498 -0.0145366 0)
(0.45953 -0.0185125 0)
(0.461778 -0.0237068 0)
(0.463839 -0.030516 0)
(0.464884 -0.0392568 0)
(0.4933 -0.00135112 0)
(0.493836 -0.00391586 0)
(0.494108 -0.00637882 0)
(0.49348 -0.00893833 0)
(0.492844 -0.011805 0)
(0.492461 -0.0151632 0)
(0.492073 -0.0192121 0)
(0.491351 -0.024159 0)
(0.489918 -0.030151 0)
(0.487231 -0.037174 0)
(0.493267 -0.00104025 0)
(0.493528 -0.00315219 0)
(0.493232 -0.00542362 0)
(0.491715 -0.00790235 0)
(0.489849 -0.0106461 0)
(0.487866 -0.0137743 0)
(0.485486 -0.0174158 0)
(0.482382 -0.0216636 0)
(0.478245 -0.0265375 0)
(0.472712 -0.0319296 0)
(0.453123 -0.00053631 0)
(0.453091 -0.00192716 0)
(0.452263 -0.00378184 0)
(0.450044 -0.00591717 0)
(0.447306 -0.00823885 0)
(0.444214 -0.0108175 0)
(0.440459 -0.01373 0)
(0.43574 -0.0169968 0)
(0.429811 -0.0205796 0)
(0.422431 -0.0243632 0)
(0.372807 0.000325638 0)
(0.372564 -0.000172252 0)
(0.371534 -0.00162102 0)
(0.369159 -0.00334047 0)
(0.366221 -0.00509561 0)
(0.362767 -0.00694794 0)
(0.358484 -0.00894691 0)
(0.353121 -0.0110807 0)
(0.34651 -0.0133055 0)
(0.338516 -0.0155432 0)
(0.252386 0.00152771 0)
(0.252694 0.0017141 0)
(0.252531 0.000357049 0)
(0.251058 -0.00102451 0)
(0.24886 -0.00216221 0)
(0.245976 -0.0032021 0)
(0.242209 -0.00421978 0)
(0.237434 -0.00522119 0)
(0.231594 -0.00619549 0)
(0.224657 -0.00711696 0)
(0.0949762 0.00108549 0)
(0.0979205 0.000869032 0)
(0.0992674 0.00022881 0)
(0.0991762 -0.000129714 0)
(0.0983286 -0.000331292 0)
(0.0969234 -0.000499455 0)
(0.094962 -0.000653012 0)
(0.0924532 -0.000784029 0)
(0.0894243 -0.000892007 0)
(0.0859058 -0.000980246 0)
(-0.000151299 0.000145488 0)
(-0.00152123 0.000472847 0)
(-0.00382596 0.000645588 0)
(-0.00650517 0.000675515 0)
(-0.00909256 0.000635916 0)
(-0.0113643 0.000562387 0)
(-0.0132126 0.0004708 0)
(-0.0145789 0.000367586 0)
(-0.0154281 0.000255357 0)
(-0.0157385 0.000135752 0)
(-0.0154979 1.0881e-05 0)
(-0.014705 -0.000116759 0)
(-0.0133683 -0.000244318 0)
(-0.0115067 -0.000368988 0)
(-0.00914807 -0.000488162 0)
(-0.00632762 -0.000599652 0)
(-0.00308529 -0.000701793 0)
(0.000537349 -0.000793288 0)
(0.00450047 -0.00087388 0)
(0.00876853 -0.000945401 0)
(0.0133129 -0.0010106 0)
(0.0181149 -0.00107268 0)
(0.0231679 -0.00113521 0)
(0.0284784 -0.00120196 0)
(0.0340657 -0.00127634 0)
(0.0399609 -0.00136086 0)
(0.0462024 -0.00145617 0)
(0.05283 -0.00156001 0)
(0.0598741 -0.00166569 0)
(0.0673407 -0.00176066 0)
(0.075192 -0.00182513 0)
(0.0833225 -0.00183209 0)
(0.0915354 -0.00174965 0)
(0.0995267 -0.00154748 0)
(0.106891 -0.00120935 0)
(-0.000552189 0.00157264 0)
(-0.00405482 0.00377186 0)
(-0.00911456 0.00485511 0)
(-0.0146663 0.00500299 0)
(-0.0198366 0.00458808 0)
(-0.0241866 0.00386904 0)
(-0.0274943 0.00298866 0)
(-0.029646 0.00201955 0)
(-0.0305889 0.000999637 0)
(-0.0303065 -4.69422e-05 0)
(-0.0288093 -0.00110051 0)
(-0.0261282 -0.00214116 0)
(-0.0223133 -0.00314998 0)
(-0.0174315 -0.0041096 0)
(-0.0115621 -0.00500584 0)
(-0.00479366 -0.00582864 0)
(0.00278137 -0.00657281 0)
(0.0110721 -0.00723785 0)
(0.0199947 -0.00782993 0)
(0.0294757 -0.00836104 0)
(0.0394583 -0.00884811 0)
(0.0499051 -0.00931146 0)
(0.0608017 -0.00977421 0)
(0.0721572 -0.01026 0)
(0.0840048 -0.0107911 0)
(0.0963987 -0.0113848 0)
(0.109409 -0.0120493 0)
(0.123111 -0.0127774 0)
(0.137571 -0.0135403 0)
(0.152825 -0.0142779 0)
(0.168846 -0.0148928 0)
(0.185508 -0.0152442 0)
(0.202545 -0.0151554 0)
(0.219508 -0.0144341 0)
(0.235753 -0.012927 0)
(-0.000847255 0.00425097 0)
(-0.00577081 0.00906205 0)
(-0.0122802 0.0110899 0)
(-0.0189983 0.0110893 0)
(-0.0248851 0.00986655 0)
(-0.0294602 0.00797418 0)
(-0.0324986 0.00573386 0)
(-0.0339061 0.00332143 0)
(-0.0336656 0.000835105 0)
(-0.0318063 -0.00166251 0)
(-0.0283904 -0.00412427 0)
(-0.0235018 -0.00650787 0)
(-0.0172422 -0.00877644 0)
(-0.00972614 -0.0108991 0)
(-0.00107633 -0.0128526 0)
(0.00858091 -0.0146224 0)
(0.0191221 -0.0162045 0)
(0.0304316 -0.0176058 0)
(0.0424053 -0.018845 0)
(0.0549559 -0.0199505 0)
(0.0680169 -0.0209593 0)
(0.0815464 -0.0219155 0)
(0.0955286 -0.022868 0)
(0.109976 -0.0238668 0)
(0.124929 -0.0249595 0)
(0.140454 -0.0261848 0)
(0.15664 -0.0275651 0)
(0.173589 -0.0290959 0)
(0.191405 -0.0307324 0)
(0.210171 -0.0323729 0)
(0.229925 -0.0338419 0)
(0.250612 -0.0348755 0)
(0.272028 -0.0351233 0)
(0.293757 -0.0341743 0)
(0.315113 -0.0316554 0)
(-0.00101735 0.00771056 0)
(-0.00655746 0.0153853 0)
(-0.0132573 0.0180445 0)
(-0.0195783 0.0174114 0)
(-0.0245032 0.0148765 0)
(-0.0276568 0.0113355 0)
(-0.0289163 0.00730844 0)
(-0.0282779 0.00308319 0)
(-0.0258029 -0.0011777 0)
(-0.0215923 -0.00537516 0)
(-0.0157695 -0.00943388 0)
(-0.00847278 -0.0132948 0)
(0.000150464 -0.0169091 0)
(0.00994832 -0.0202393 0)
(0.0207699 -0.0232597 0)
(0.03247 -0.0259597 0)
(0.0449126 -0.0283426 0)
(0.0579752 -0.0304291 0)
(0.071552 -0.0322538 0)
(0.0855579 -0.0338661 0)
(0.0999312 -0.0353269 0)
(0.114636 -0.0367073 0)
(0.129666 -0.0380844 0)
(0.145041 -0.0395381 0)
(0.160814 -0.0411445 0)
(0.177066 -0.0429699 0)
(0.19391 -0.0450586 0)
(0.211481 -0.0474209 0)
(0.229936 -0.0500116 0)
(0.249436 -0.0527064 0)
(0.270123 -0.0552692 0)
(0.292073 -0.0573215 0)
(0.315229 -0.0583182 0)
(0.339274 -0.0575606 0)
(0.363513 -0.0543316 0)
(-0.00111827 0.0114346 0)
(-0.00652718 0.0216032 0)
(-0.0121101 0.0241879 0)
(-0.0164347 0.022254 0)
(-0.0187602 0.0178969 0)
(-0.0189685 0.0123584 0)
(-0.0171257 0.00633077 0)
(-0.0133641 0.000188267 0)
(-0.00784288 -0.00586819 0)
(-0.000734588 -0.0117156 0)
(0.00778247 -0.0172664 0)
(0.017529 -0.0224549 0)
(0.0283301 -0.0272314 0)
(0.0400171 -0.031561 0)
(0.0524309 -0.0354256 0)
(0.0654252 -0.0388247 0)
(0.0788689 -0.0417767 0)
(0.0926492 -0.044319 0)
(0.106673 -0.0465074 0)
(0.120871 -0.048414 0)
(0.135197 -0.0501257 0)
(0.149631 -0.0517409 0)
(0.164181 -0.053366 0)
(0.178885 -0.0551111 0)
(0.193812 -0.0570847 0)
(0.209063 -0.0593851 0)
(0.224778 -0.0620906 0)
(0.241137 -0.0652424 0)
(0.258364 -0.0688218 0)
(0.276721 -0.0727151 0)
(0.296505 -0.076666 0)
(0.317999 -0.0802104 0)
(0.341397 -0.0826075 0)
(0.366587 -0.0827611 0)
(0.392912 -0.0793563 0)
(-0.00117593 0.015069 0)
(-0.00569141 0.0266496 0)
(-0.00864229 0.0279977 0)
(-0.00918768 0.0239656 0)
(-0.00723416 0.0173677 0)
(-0.00307431 0.0096917 0)
(0.00298973 0.00171023 0)
(0.0106854 -0.00618381 0)
(0.0197716 -0.0137887 0)
(0.0300255 -0.0209826 0)
(0.0412433 -0.0276847 0)
(0.0532354 -0.0338367 0)
(0.0658261 -0.0393992 0)
(0.0788549 -0.0443494 0)
(0.0921773 -0.0486841 0)
(0.105666 -0.0524194 0)
(0.119214 -0.0555928 0)
(0.132733 -0.0582621 0)
(0.146156 -0.060506 0)
(0.15944 -0.0624199 0)
(0.172565 -0.0641164 0)
(0.185532 -0.0657196 0)
(0.198372 -0.0673647 0)
(0.21114 -0.0691914 0)
(0.223922 -0.0713422 0)
(0.236841 -0.0739537 0)
(0.250062 -0.0771499 0)
(0.263809 -0.0810249 0)
(0.278376 -0.0856215 0)
(0.29415 -0.0908874 0)
(0.311621 -0.0966128 0)
(0.331376 -0.102318 0)
(0.354043 -0.1071 0)
(0.379956 -0.109352 0)
(0.408742 -0.106669 0)
(-0.00114763 0.0184614 0)
(-0.0035645 0.0293087 0)
(-0.00176841 0.0276669 0)
(0.00362559 0.0207464 0)
(0.011578 0.0117753 0)
(0.0213188 0.0021738 0)
(0.0323693 -0.00737551 0)
(0.0443886 -0.0165415 0)
(0.057104 -0.0251615 0)
(0.0703022 -0.0331484 0)
(0.0838038 -0.0404454 0)
(0.0974515 -0.047015 0)
(0.111106 -0.0528353 0)
(0.124644 -0.0579027 0)
(0.137962 -0.062232 0)
(0.150975 -0.0658596 0)
(0.163615 -0.068843 0)
(0.175834 -0.0712617 0)
(0.187604 -0.0732148 0)
(0.198916 -0.0748207 0)
(0.209781 -0.0762132 0)
(0.220229 -0.0775403 0)
(0.230309 -0.0789607 0)
(0.240094 -0.0806426 0)
(0.249682 -0.0827603 0)
(0.259207 -0.0854935 0)
(0.268848 -0.0890212 0)
(0.278855 -0.0935163 0)
(0.28958 -0.0991264 0)
(0.301524 -0.105939 0)
(0.315401 -0.113904 0)
(0.332193 -0.122671 0)
(0.35319 -0.131271 0)
(0.379542 -0.137384 0)
(0.411661 -0.136378 0)
(-0.000794409 0.0211822 0)
(0.00181 0.0274119 0)
(0.0117379 0.0206915 0)
(0.025638 0.0106111 0)
(0.0410102 -0.000234535 0)
(0.0569253 -0.0110084 0)
(0.0729793 -0.0212816 0)
(0.0889122 -0.030855 0)
(0.104554 -0.0396541 0)
(0.11979 -0.0476455 0)
(0.134535 -0.054805 0)
(0.148711 -0.061116 0)
(0.162251 -0.0665745 0)
(0.175102 -0.0711935 0)
(0.187219 -0.0750052 0)
(0.198576 -0.0780634 0)
(0.20916 -0.0804435 0)
(0.218971 -0.0822427 0)
(0.228028 -0.0835778 0)
(0.236359 -0.0845837 0)
(0.244007 -0.085411 0)
(0.251028 -0.0862241 0)
(0.257489 -0.0871996 0)
(0.263471 -0.0885264 0)
(0.269074 -0.0904063 0)
(0.274421 -0.093058 0)
(0.27968 -0.0967214 0)
(0.285088 -0.101665 0)
(0.291002 -0.108192 0)
(0.297987 -0.116634 0)
(0.306947 -0.12731 0)
(0.319308 -0.140354 0)
(0.337264 -0.15515 0)
(0.363088 -0.168472 0)
(0.397774 -0.170478 0)
(0.00343525 0.0170736 0)
(0.0174265 0.0149562 0)
(0.0398563 0.00325465 0)
(0.0640137 -0.0084867 0)
(0.0867096 -0.019444 0)
(0.107669 -0.029742 0)
(0.127131 -0.0393099 0)
(0.145201 -0.0480741 0)
(0.161934 -0.0560115 0)
(0.177387 -0.0631084 0)
(0.191603 -0.0693472 0)
(0.204612 -0.0747145 0)
(0.216434 -0.0792112 0)
(0.22709 -0.0828571 0)
(0.236605 -0.0856946 0)
(0.245014 -0.0877884 0)
(0.252358 -0.0892259 0)
(0.258689 -0.0901156 0)
(0.264067 -0.0905855 0)
(0.268556 -0.0907798 0)
(0.272228 -0.090858 0)
(0.275156 -0.0909917 0)
(0.277415 -0.0913656 0)
(0.279085 -0.0921782 0)
(0.280246 -0.093647 0)
(0.280992 -0.0960168 0)
(0.281438 -0.0995766 0)
(0.281747 -0.104685 0)
(0.282178 -0.111812 0)
(0.28319 -0.121606 0)
(0.285632 -0.13497 0)
(0.291096 -0.153067 0)
(0.302568 -0.176716 0)
(0.323522 -0.202941 0)
(0.354167 -0.213566 0)
(0.0372333 -0.00895124 0)
(0.0673992 -0.0184958 0)
(0.0996012 -0.0277219 0)
(0.129322 -0.036043 0)
(0.154451 -0.043869 0)
(0.176023 -0.0514966 0)
(0.195032 -0.0588142 0)
(0.211889 -0.0656321 0)
(0.226789 -0.0718222 0)
(0.239884 -0.0773029 0)
(0.251298 -0.0820176 0)
(0.261129 -0.0859318 0)
(0.269455 -0.0890365 0)
(0.276354 -0.0913493 0)
(0.281902 -0.0929145 0)
(0.286181 -0.0938018 0)
(0.289277 -0.094104 0)
(0.29128 -0.0939347 0)
(0.292282 -0.0934255 0)
(0.292373 -0.0927225 0)
(0.291641 -0.0919843 0)
(0.290168 -0.0913803 0)
(0.288025 -0.0910909 0)
(0.285275 -0.0913106 0)
(0.281969 -0.0922541 0)
(0.278143 -0.0941694 0)
(0.273828 -0.0973597 0)
(0.269052 -0.102223 0)
(0.263855 -0.109322 0)
(0.258329 -0.119505 0)
(0.252703 -0.134103 0)
(0.24756 -0.155154 0)
(0.244513 -0.184958 0)
(0.245441 -0.221663 0)
(0.250536 -0.239544 0)
(0.17325 -0.0471515 0)
(0.187387 -0.05354 0)
(0.204405 -0.0569004 0)
(0.223879 -0.0608863 0)
(0.241817 -0.0654377 0)
(0.257476 -0.0702718 0)
(0.271151 -0.0751316 0)
(0.282962 -0.0797616 0)
(0.29293 -0.0839607 0)
(0.301114 -0.0875931 0)
(0.307598 -0.0905729 0)
(0.312469 -0.0928522 0)
(0.315815 -0.0944174 0)
(0.317732 -0.0952863 0)
(0.31832 -0.0955057 0)
(0.317687 -0.0951486 0)
(0.315945 -0.0943102 0)
(0.313204 -0.0931048 0)
(0.309573 -0.0916612 0)
(0.305156 -0.0901203 0)
(0.300042 -0.0886316 0)
(0.294309 -0.0873521 0)
(0.288015 -0.0864467 0)
(0.281195 -0.0860909 0)
(0.273859 -0.0864778 0)
(0.265982 -0.0878299 0)
(0.257502 -0.0904205 0)
(0.248299 -0.0946092 0)
(0.23817 -0.100903 0)
(0.226765 -0.110054 0)
(0.213438 -0.12319 0)
(0.196877 -0.141834 0)
(0.173953 -0.166878 0)
(0.135894 -0.19177 0)
(0.0676785 -0.162628 0)
(0.309902 -0.0491947 0)
(0.312329 -0.0612519 0)
(0.316413 -0.0679343 0)
(0.323316 -0.0728293 0)
(0.330763 -0.0770592 0)
(0.33751 -0.080851 0)
(0.343243 -0.0842839 0)
(0.347777 -0.0873315 0)
(0.350951 -0.0899076 0)
(0.352694 -0.09193 0)
(0.353008 -0.0933445 0)
(0.351941 -0.0941267 0)
(0.349563 -0.0942809 0)
(0.345968 -0.0938388 0)
(0.341261 -0.0928572 0)
(0.33556 -0.0914151 0)
(0.328985 -0.0896101 0)
(0.321655 -0.0875536 0)
(0.313682 -0.0853677 0)
(0.305164 -0.0831814 0)
(0.296183 -0.081128 0)
(0.286801 -0.0793438 0)
(0.277053 -0.0779686 0)
(0.266941 -0.0771479 0)
(0.256434 -0.077038 0)
(0.245456 -0.0778148 0)
(0.233871 -0.0796883 0)
(0.221464 -0.0829233 0)
(0.207895 -0.0878684 0)
(0.192615 -0.0949788 0)
(0.174697 -0.104765 0)
(0.152448 -0.117389 0)
(0.122512 -0.130945 0)
(0.0801672 -0.135539 0)
(0.0217028 -0.0964398 0)
(0.406926 -0.0508992 0)
(0.405608 -0.0617596 0)
(0.403434 -0.0692323 0)
(0.402048 -0.0747869 0)
(0.401014 -0.0791795 0)
(0.39967 -0.0826465 0)
(0.397708 -0.0853488 0)
(0.394939 -0.0873918 0)
(0.391199 -0.0888104 0)
(0.386395 -0.0896095 0)
(0.380506 -0.0897964 0)
(0.373568 -0.0893919 0)
(0.365651 -0.0884339 0)
(0.35685 -0.0869773 0)
(0.347276 -0.0850941 0)
(0.33705 -0.0828706 0)
(0.326293 -0.0804045 0)
(0.315119 -0.0778012 0)
(0.30363 -0.0751706 0)
(0.291911 -0.0726245 0)
(0.280023 -0.0702739 0)
(0.268002 -0.0682287 0)
(0.255854 -0.0665977 0)
(0.243551 -0.0654901 0)
(0.231026 -0.0650187 0)
(0.218165 -0.0653052 0)
(0.204796 -0.0664863 0)
(0.190666 -0.068721 0)
(0.175409 -0.0721916 0)
(0.158482 -0.077073 0)
(0.139051 -0.0833867 0)
(0.115788 -0.0904915 0)
(0.0866742 -0.0956041 0)
(0.0509663 -0.0901623 0)
(0.0104252 -0.0545093 0)
(0.463591 -0.0492561 0)
(0.459485 -0.0582272 0)
(0.453708 -0.0651773 0)
(0.447357 -0.0704699 0)
(0.440606 -0.0745162 0)
(0.43327 -0.0774987 0)
(0.425244 -0.0795519 0)
(0.416476 -0.080801 0)
(0.40692 -0.0813365 0)
(0.39656 -0.081222 0)
(0.385425 -0.0805142 0)
(0.373582 -0.0792736 0)
(0.361127 -0.0775674 0)
(0.348172 -0.0754708 0)
(0.334837 -0.0730661 0)
(0.321243 -0.0704416 0)
(0.307502 -0.0676892 0)
(0.293716 -0.064902 0)
(0.279966 -0.0621722 0)
(0.26631 -0.0595889 0)
(0.252782 -0.057237 0)
(0.239387 -0.0551969 0)
(0.226101 -0.0535449 0)
(0.212867 -0.0523538 0)
(0.199592 -0.0516948 0)
(0.186143 -0.0516393 0)
(0.172341 -0.05226 0)
(0.157943 -0.0536287 0)
(0.142625 -0.0558015 0)
(0.125944 -0.0587643 0)
(0.107293 -0.0622712 0)
(0.0858352 -0.0654178 0)
(0.0606786 -0.0656875 0)
(0.0328143 -0.0573098 0)
(0.00580762 -0.0308608 0)
(0.482597 -0.0447542 0)
(0.475714 -0.0517761 0)
(0.467031 -0.0574866 0)
(0.457171 -0.0618581 0)
(0.446411 -0.0650829 0)
(0.434805 -0.0672915 0)
(0.422399 -0.0685895 0)
(0.409268 -0.0690922 0)
(0.395485 -0.0689071 0)
(0.381129 -0.068127 0)
(0.3663 -0.0668356 0)
(0.351113 -0.0651146 0)
(0.335694 -0.0630453 0)
(0.320169 -0.0607088 0)
(0.304661 -0.0581862 0)
(0.289279 -0.0555573 0)
(0.274117 -0.0528993 0)
(0.259249 -0.0502862 0)
(0.244725 -0.0477868 0)
(0.230572 -0.0454648 0)
(0.21679 -0.0433779 0)
(0.203353 -0.041578 0)
(0.19021 -0.0401116 0)
(0.177281 -0.0390203 0)
(0.164463 -0.0383415 0)
(0.151618 -0.0381081 0)
(0.138581 -0.0383474 0)
(0.125146 -0.0390737 0)
(0.111059 -0.0402667 0)
(0.0960079 -0.0418151 0)
(0.079613 -0.0433774 0)
(0.0614493 -0.044093 0)
(0.0413328 -0.0420914 0)
(0.0207782 -0.0340289 0)
(0.00321446 -0.0162916 0)
(0.465399 -0.0375 0)
(0.456132 -0.0426394 0)
(0.445118 -0.0468558 0)
(0.432734 -0.0500241 0)
(0.419262 -0.0522202 0)
(0.404874 -0.0535397 0)
(0.389725 -0.0540774 0)
(0.37398 -0.0539405 0)
(0.357797 -0.053239 0)
(0.341327 -0.0520734 0)
(0.324716 -0.0505339 0)
(0.308109 -0.0487031 0)
(0.291639 -0.046658 0)
(0.275429 -0.0444701 0)
(0.25958 -0.0422058 0)
(0.244176 -0.0399259 0)
(0.229277 -0.0376863 0)
(0.21492 -0.0355369 0)
(0.201119 -0.0335223 0)
(0.187866 -0.0316811 0)
(0.175131 -0.0300468 0)
(0.162863 -0.0286473 0)
(0.150992 -0.0275061 0)
(0.139428 -0.0266418 0)
(0.128066 -0.026069 0)
(0.116782 -0.0257968 0)
(0.105436 -0.0258266 0)
(0.0938676 -0.0261435 0)
(0.0819021 -0.0266947 0)
(0.069347 -0.0273394 0)
(0.0560103 -0.0277489 0)
(0.0417614 -0.0272415 0)
(0.0267956 -0.0246043 0)
(0.0125706 -0.018202 0)
(0.00169018 -0.00745002 0)
(0.413386 -0.0281166 0)
(0.402601 -0.0314947 0)
(0.390225 -0.0342005 0)
(0.376542 -0.0361256 0)
(0.361842 -0.0373056 0)
(0.346368 -0.0378204 0)
(0.330344 -0.0377591 0)
(0.313988 -0.037219 0)
(0.297498 -0.0362977 0)
(0.281048 -0.0350838 0)
(0.264794 -0.0336532 0)
(0.248868 -0.0320717 0)
(0.233381 -0.0303964 0)
(0.218421 -0.0286773 0)
(0.204052 -0.0269578 0)
(0.190318 -0.0252756 0)
(0.177237 -0.023663 0)
(0.16481 -0.0221475 0)
(0.153019 -0.0207521 0)
(0.141828 -0.0194959 0)
(0.131187 -0.0183939 0)
(0.121031 -0.0174578 0)
(0.111285 -0.016696 0)
(0.101862 -0.0161138 0)
(0.092667 -0.0157133 0)
(0.0835988 -0.0154928 0)
(0.0745493 -0.0154439 0)
(0.0654075 -0.0155446 0)
(0.0560643 -0.01574 0)
(0.0464239 -0.0159056 0)
(0.0364316 -0.0157827 0)
(0.0261418 -0.0149018 0)
(0.0159116 -0.0125722 0)
(0.00689525 -0.00818582 0)
(0.000768337 -0.002467 0)
(0.329051 -0.0176624 0)
(0.31813 -0.0194837 0)
(0.305916 -0.020853 0)
(0.292679 -0.021715 0)
(0.27871 -0.0221023 0)
(0.264278 -0.0220831 0)
(0.249624 -0.0217312 0)
(0.23496 -0.0211202 0)
(0.22047 -0.0203186 0)
(0.206299 -0.019385 0)
(0.192564 -0.0183665 0)
(0.179353 -0.017301 0)
(0.166729 -0.0162197 0)
(0.154735 -0.0151481 0)
(0.14339 -0.014107 0)
(0.132698 -0.0131135 0)
(0.122647 -0.0121815 0)
(0.11321 -0.0113218 0)
(0.10435 -0.010543 0)
(0.0960207 -0.00985153 0)
(0.0881653 -0.00925188 0)
(0.0807221 -0.00874683 0)
(0.0736237 -0.00833744 0)
(0.066799 -0.00802334 0)
(0.0601741 -0.00780251 0)
(0.0536741 -0.00767109 0)
(0.0472248 -0.00762145 0)
(0.0407566 -0.00763708 0)
(0.0342111 -0.00767983 0)
(0.0275574 -0.00766572 0)
(0.0208243 -0.00742904 0)
(0.014161 -0.00669412 0)
(0.00795172 -0.00511953 0)
(0.00299655 -0.00258965 0)
(0.000194276 -9.21419e-05 0)
(0.216635 -0.00793484 0)
(0.207612 -0.00857911 0)
(0.197767 -0.00899486 0)
(0.187341 -0.00917323 0)
(0.176585 -0.00914598 0)
(0.165719 -0.00895774 0)
(0.154929 -0.00865026 0)
(0.144362 -0.00825942 0)
(0.134133 -0.00781562 0)
(0.124323 -0.00734249 0)
(0.114987 -0.00685777 0)
(0.10616 -0.00637448 0)
(0.0978585 -0.00590276 0)
(0.0900855 -0.0054502 0)
(0.0828321 -0.00502273 0)
(0.0760799 -0.00462453 0)
(0.0698029 -0.00425883 0)
(0.0639687 -0.00392772 0)
(0.05854 -0.00363275 0)
(0.0534759 -0.00337461 0)
(0.0487324 -0.00315363 0)
(0.0442636 -0.00296934 0)
(0.0400225 -0.002821 0)
(0.0359619 -0.00270719 0)
(0.0320349 -0.00262634 0)
(0.028196 -0.00257629 0)
(0.0244021 -0.00255393 0)
(0.0206149 -0.00255248 0)
(0.0168081 -0.00255559 0)
(0.0129817 -0.00252524 0)
(0.00919216 -0.00238556 0)
(0.00560167 -0.00201328 0)
(0.00253773 -0.00127145 0)
(0.000496046 -0.000183123 0)
(-0.000153082 0.000577565 0)
(0.0819407 -0.00104671 0)
(0.0776025 -0.00108329 0)
(0.0730011 -0.00108397 0)
(0.0682655 -0.00105203 0)
(0.063516 -0.0009973 0)
(0.0588485 -0.000929737 0)
(0.0543328 -0.000856521 0)
(0.0500171 -0.000782569 0)
(0.0459324 -0.000710951 0)
(0.0420959 -0.000643178 0)
(0.0385144 -0.00057973 0)
(0.0351875 -0.000520782 0)
(0.0321097 -0.000466502 0)
(0.0292713 -0.000417101 0)
(0.0266598 -0.000372704 0)
(0.0242599 -0.000333328 0)
(0.0220552 -0.000298844 0)
(0.0200277 -0.000269046 0)
(0.018159 -0.000243647 0)
(0.0164302 -0.000222354 0)
(0.0148222 -0.00020483 0)
(0.0133163 -0.00019075 0)
(0.0118939 -0.00017975 0)
(0.0105373 -0.000171493 0)
(0.00922949 -0.000165656 0)
(0.00795439 -0.000162016 0)
(0.00669684 -0.000160397 0)
(0.00544339 -0.000160461 0)
(0.00418509 -0.00016085 0)
(0.00292511 -0.000157474 0)
(0.00169535 -0.00014071 0)
(0.000584359 -9.23037e-05 0)
(-0.000235354 1.40358e-05 0)
(-0.000546793 0.000181996 0)
(-0.000262434 0.000273697 0)
(0.113162 -0.0007466 0)
(0.117908 -0.000215368 0)
(0.120866 0.000300272 0)
(0.122004 0.000737362 0)
(0.121458 0.00107395 0)
(0.11947 0.00131328 0)
(0.116297 0.00146949 0)
(0.112186 0.00155886 0)
(0.107358 0.00159701 0)
(0.102006 0.00159542 0)
(0.250468 -0.010589 0)
(0.262816 -0.00759457 0)
(0.272176 -0.00430921 0)
(0.278284 -0.00109387 0)
(0.281189 0.00182356 0)
(0.281082 0.00433414 0)
(0.278267 0.00640777 0)
(0.273087 0.00806199 0)
(0.265891 0.00933891 0)
(0.257012 0.0102796 0)
(0.335111 -0.0273621 0)
(0.35264 -0.0215647 0)
(0.366873 -0.0149613 0)
(0.377472 -0.00824577 0)
(0.384443 -0.00186051 0)
(0.387942 0.00395161 0)
(0.388165 0.00906139 0)
(0.385383 0.0134347 0)
(0.379879 0.0170995 0)
(0.371925 0.0200944 0)
(0.386678 -0.0480956 0)
(0.407178 -0.0392943 0)
(0.423956 -0.0291716 0)
(0.436807 -0.0188214 0)
(0.445956 -0.00886583 0)
(0.451693 0.000362081 0)
(0.454298 0.00867943 0)
(0.454031 0.0160405 0)
(0.451102 0.0224856 0)
(0.445651 0.0280577 0)
(0.418415 -0.0710132 0)
(0.440362 -0.0586099 0)
(0.457315 -0.0444855 0)
(0.469564 -0.0303038 0)
(0.477951 -0.016833 0)
(0.483184 -0.00446749 0)
(0.485843 0.00663445 0)
(0.486353 0.0165354 0)
(0.484921 0.0254071 0)
(0.481537 0.0333785 0)
(0.436717 -0.0954865 0)
(0.458387 -0.0778628 0)
(0.472039 -0.0584337 0)
(0.479638 -0.0397457 0)
(0.48348 -0.0227109 0)
(0.485051 -0.00770465 0)
(0.485326 0.00532274 0)
(0.484889 0.0167755 0)
(0.483864 0.0271603 0)
(0.481943 0.0368554 0)
(0.441727 -0.119505 0)
(0.458454 -0.093127 0)
(0.461867 -0.0663337 0)
(0.45881 -0.0426185 0)
(0.454119 -0.0227482 0)
(0.449852 -0.00663272 0)
(0.446923 0.0064901 0)
(0.445629 0.0177213 0)
(0.445658 0.028151 0)
(0.446033 0.0386685 0)
(0.424801 -0.137894 0)
(0.423922 -0.0953436 0)
(0.406283 -0.0596875 0)
(0.388098 -0.0330379 0)
(0.374938 -0.0139656 0)
(0.366978 -0.000529537 0)
(0.363726 0.00941322 0)
(0.364529 0.0178323 0)
(0.368375 0.0264647 0)
(0.373345 0.0372081 0)
(0.362831 -0.14264 0)
(0.321988 -0.0734765 0)
(0.278855 -0.0329935 0)
(0.254017 -0.0116606 0)
(0.242522 -0.000586879 0)
(0.238639 0.00540441 0)
(0.240156 0.00943788 0)
(0.245964 0.0134076 0)
(0.255465 0.0189596 0)
(0.266299 0.029624 0)
(0.205522 -0.103938 0)
(0.126596 -0.0213518 0)
(0.089609 -0.000717722 0)
(0.0832678 0.00213769 0)
(0.0839492 0.00245929 0)
(0.0865861 0.00250899 0)
(0.0911848 0.00270279 0)
(0.0978261 0.00338616 0)
(0.10768 0.00592069 0)
(0.119708 0.018256 0)
(0.0962999 0.00156003 0)
(0.0903983 0.00149306 0)
(0.0844557 0.00139866 0)
(0.0786128 0.00128616 0)
(0.0729802 0.00116661 0)
(0.0676331 0.00104803 0)
(0.0626165 0.000934718 0)
(0.0579535 0.00082902 0)
(0.0536513 0.00073214 0)
(0.0497057 0.000644314 0)
(0.0461055 0.000565062 0)
(0.042835 0.000493666 0)
(0.0398768 0.000429401 0)
(0.0372123 0.000371627 0)
(0.0348228 0.000319735 0)
(0.0326897 0.000273174 0)
(0.0307947 0.000231409 0)
(0.0291204 0.00019398 0)
(0.0276499 0.000160458 0)
(0.0263672 0.000130485 0)
(0.0252567 0.000103726 0)
(0.0243039 7.99109e-05 0)
(0.0234947 5.87774e-05 0)
(0.022816 4.01196e-05 0)
(0.0222553 2.3731e-05 0)
(0.0218008 9.45353e-06 0)
(0.0214413 -2.87928e-06 0)
(0.0211663 -1.33931e-05 0)
(0.0209661 -2.22272e-05 0)
(0.0208315 -2.94872e-05 0)
(0.0207538 -3.52944e-05 0)
(0.0207251 -3.97405e-05 0)
(0.0207378 -4.29396e-05 0)
(0.0207849 -4.49736e-05 0)
(0.0208602 -4.59373e-05 0)
(0.246771 0.0109072 0)
(0.235497 0.0112277 0)
(0.223537 0.011254 0)
(0.211235 0.011028 0)
(0.198893 0.0106127 0)
(0.186752 0.01007 0)
(0.174993 0.00944905 0)
(0.163746 0.00878771 0)
(0.153097 0.00811423 0)
(0.1431 0.0074482 0)
(0.133782 0.00680201 0)
(0.125149 0.00618304 0)
(0.117196 0.00559547 0)
(0.109909 0.00504146 0)
(0.103264 0.00452183 0)
(0.0972365 0.00403651 0)
(0.0917956 0.00358491 0)
(0.08691 0.00316614 0)
(0.0825468 0.0027791 0)
(0.0786725 0.0024226 0)
(0.0752536 0.00209537 0)
(0.0722569 0.0017961 0)
(0.0696496 0.00152343 0)
(0.0674001 0.00127602 0)
(0.0654775 0.00105253 0)
(0.0638523 0.000851625 0)
(0.0624962 0.000671998 0)
(0.0613824 0.000512378 0)
(0.0604852 0.000371526 0)
(0.0597807 0.000248247 0)
(0.0592461 0.000141385 0)
(0.0588603 4.98392e-05 0)
(0.0586033 -2.74518e-05 0)
(0.0584567 -9.14958e-05 0)
(0.0584032 -0.000143229 0)
(0.361797 0.022426 0)
(0.349818 0.0240635 0)
(0.336384 0.0249943 0)
(0.321927 0.0252768 0)
(0.30685 0.0250249 0)
(0.291496 0.0243618 0)
(0.276149 0.0233966 0)
(0.261044 0.0222227 0)
(0.246365 0.0209174 0)
(0.232251 0.0195404 0)
(0.218805 0.0181356 0)
(0.206096 0.0167341 0)
(0.19417 0.0153581 0)
(0.183054 0.0140232 0)
(0.172755 0.0127403 0)
(0.163269 0.0115167 0)
(0.154583 0.0103572 0)
(0.146672 0.0092646 0)
(0.139509 0.00824054 0)
(0.133058 0.00728544 0)
(0.127284 0.00639886 0)
(0.122145 0.00557972 0)
(0.1176 0.00482638 0)
(0.113608 0.0041368 0)
(0.110127 0.00350859 0)
(0.107114 0.00293918 0)
(0.104531 0.00242579 0)
(0.102337 0.00196557 0)
(0.100495 0.00155558 0)
(0.0989693 0.00119291 0)
(0.0977259 0.000874661 0)
(0.0967325 0.000597988 0)
(0.0959592 0.00036013 0)
(0.0953775 0.000158459 0)
(0.0949612 -9.52672e-06 0)
(0.437786 0.0327209 0)
(0.427697 0.036347 0)
(0.415721 0.0388452 0)
(0.402277 0.0402703 0)
(0.387751 0.0407757 0)
(0.372466 0.0405286 0)
(0.356709 0.0396817 0)
(0.34074 0.038375 0)
(0.324788 0.0367317 0)
(0.309048 0.0348537 0)
(0.293681 0.0328213 0)
(0.278822 0.030698 0)
(0.264581 0.0285333 0)
(0.251041 0.0263662 0)
(0.238264 0.024227 0)
(0.226293 0.0221394 0)
(0.21515 0.0201215 0)
(0.204846 0.0181872 0)
(0.195375 0.0163468 0)
(0.186724 0.0146075 0)
(0.178869 0.0129741 0)
(0.171777 0.0114492 0)
(0.165414 0.0100336 0)
(0.159738 0.00872674 0)
(0.154707 0.00752672 0)
(0.150276 0.00643076 0)
(0.1464 0.00543533 0)
(0.143034 0.00453634 0)
(0.140134 0.00372932 0)
(0.137658 0.0030095 0)
(0.135563 0.00237201 0)
(0.133811 0.00181192 0)
(0.132363 0.00132436 0)
(0.131186 0.000904602 0)
(0.130245 0.000548084 0)
(0.476064 0.0403852 0)
(0.468494 0.0461219 0)
(0.4591 0.0503706 0)
(0.448271 0.0531977 0)
(0.436297 0.0548055 0)
(0.423374 0.0553865 0)
(0.409686 0.0551098 0)
(0.395424 0.0541356 0)
(0.380774 0.0526089 0)
(0.365913 0.0506525 0)
(0.35101 0.048369 0)
(0.336224 0.0458447 0)
(0.321703 0.0431529 0)
(0.307576 0.040356 0)
(0.293956 0.0375068 0)
(0.280934 0.0346501 0)
(0.268583 0.0318235 0)
(0.256957 0.0290583 0)
(0.246092 0.0263801 0)
(0.236006 0.0238093 0)
(0.226707 0.0213616 0)
(0.218186 0.0190485 0)
(0.210427 0.0168778 0)
(0.203404 0.0148541 0)
(0.197085 0.0129792 0)
(0.191432 0.0112527 0)
(0.186406 0.00967231 0)
(0.181964 0.00823423 0)
(0.178063 0.00693351 0)
(0.174659 0.0057644 0)
(0.171709 0.00472054 0)
(0.169172 0.00379523 0)
(0.167006 0.0029816 0)
(0.165174 0.0022728 0)
(0.163638 0.00166213 0)
(0.478546 0.0457909 0)
(0.473383 0.0532925 0)
(0.466787 0.0589656 0)
(0.459215 0.0629748 0)
(0.450836 0.0656157 0)
(0.441647 0.0670987 0)
(0.43167 0.0675919 0)
(0.420967 0.0672524 0)
(0.409616 0.066217 0)
(0.397715 0.0645989 0)
(0.385379 0.0624952 0)
(0.372744 0.0599935 0)
(0.359955 0.0571738 0)
(0.347156 0.0541101 0)
(0.334483 0.0508701 0)
(0.322064 0.0475164 0)
(0.310012 0.0441055 0)
(0.298422 0.040688 0)
(0.287373 0.0373081 0)
(0.276925 0.0340036 0)
(0.267119 0.030806 0)
(0.257984 0.0277408 0)
(0.249531 0.0248273 0)
(0.241761 0.02208 0)
(0.234662 0.0195083 0)
(0.228216 0.0171178 0)
(0.222397 0.0149104 0)
(0.217172 0.0128853 0)
(0.212509 0.011039 0)
(0.20837 0.00936652 0)
(0.204716 0.00786135 0)
(0.201509 0.00651603 0)
(0.19871 0.00532245 0)
(0.196283 0.00427222 0)
(0.19419 0.00335687 0)
(0.445304 0.0491309 0)
(0.442815 0.0578819 0)
(0.439356 0.0643502 0)
(0.435677 0.0690196 0)
(0.431762 0.0723375 0)
(0.427346 0.0745277 0)
(0.42227 0.0757545 0)
(0.416452 0.0761579 0)
(0.409843 0.0758392 0)
(0.402436 0.0748723 0)
(0.394274 0.073322 0)
(0.385442 0.0712522 0)
(0.376055 0.0687286 0)
(0.366242 0.0658186 0)
(0.356141 0.0625917 0)
(0.345892 0.0591176 0)
(0.335629 0.0554649 0)
(0.325476 0.0516995 0)
(0.315545 0.0478825 0)
(0.305929 0.0440697 0)
(0.296708 0.0403099 0)
(0.287942 0.0366451 0)
(0.279678 0.03311 0)
(0.271946 0.0297323 0)
(0.264763 0.0265329 0)
(0.258133 0.0235268 0)
(0.252054 0.0207236 0)
(0.246511 0.0181284 0)
(0.241487 0.015742 0)
(0.236957 0.0135625 0)
(0.232894 0.0115851 0)
(0.229268 0.00980325 0)
(0.22605 0.00820901 0)
(0.223206 0.00679353 0)
(0.220705 0.00554746 0)
(0.376683 0.049699 0)
(0.37746 0.0593425 0)
(0.378015 0.0658103 0)
(0.379507 0.0704697 0)
(0.381367 0.0739974 0)
(0.382926 0.0766176 0)
(0.383863 0.0784795 0)
(0.383981 0.0796751 0)
(0.383132 0.0802353 0)
(0.381238 0.0801676 0)
(0.3783 0.0794831 0)
(0.374366 0.0782043 0)
(0.369522 0.0763665 0)
(0.363877 0.074017 0)
(0.357558 0.0712139 0)
(0.350701 0.0680238 0)
(0.343444 0.0645184 0)
(0.335925 0.0607717 0)
(0.32827 0.0568568 0)
(0.320598 0.0528437 0)
(0.313012 0.0487974 0)
(0.305602 0.0447761 0)
(0.298442 0.0408304 0)
(0.291591 0.0370029 0)
(0.285094 0.0333284 0)
(0.278982 0.029834 0)
(0.273275 0.0265395 0)
(0.267983 0.0234584 0)
(0.263107 0.0205989 0)
(0.25864 0.0179641 0)
(0.254571 0.0155535 0)
(0.250883 0.0133633 0)
(0.247558 0.0113875 0)
(0.244574 0.00961823 0)
(0.241908 0.00804661 0)
(0.275591 0.0461958 0)
(0.280502 0.0562676 0)
(0.287217 0.0617252 0)
(0.296392 0.0656998 0)
(0.305924 0.0691068 0)
(0.31473 0.0721018 0)
(0.322531 0.074721 0)
(0.329163 0.0769186 0)
(0.334497 0.0786091 0)
(0.338481 0.0797182 0)
(0.341134 0.0801985 0)
(0.34251 0.0800296 0)
(0.342689 0.0792145 0)
(0.34177 0.0777776 0)
(0.339866 0.0757617 0)
(0.337104 0.0732247 0)
(0.333613 0.0702353 0)
(0.329527 0.0668694 0)
(0.324977 0.0632067 0)