/*--------------------------------*- C++ -*----------------------------------*\
| =========                 |                                                 |
| \\      /  F ield         | OpenFOAM: The Open Source CFD Toolbox           |
|  \\    /   O peration     | Version:  2406                                  |
|   \\  /    A nd           | Website:  www.openfoam.com                      |
|    \\/     M anipulation  |                                                 |
\*---------------------------------------------------------------------------*/
FoamFile
{
    version     2.0;
    format      ascii;
    arch        "LSB;label=32;scalar=64";
    class       volScalarField;
    location    "988";
    object      p;
}
// * * * * * * * * * * * * * * * * * * * * * * * * * * * * * * * * * * * * * //

dimensions      [0 2 -2 0 0 0 0];

internalField   nonuniform List<scalar> 
190000
(
-0.0319031
-0.0304551
-0.0299974
-0.0301023
-0.0304227
-0.0308495
-0.031339
-0.0318662
-0.0324171
-0.0329841
-0.0335626
-0.0341501
-0.0347449
-0.0353458
-0.0359522
-0.0365634
-0.0371792
-0.0377991
-0.038423
-0.0390508
-0.0396823
-0.0403174
-0.0409561
-0.0415984
-0.0422441
-0.0428934
-0.0435461
-0.0442024
-0.0448621
-0.0455254
-0.0461923
-0.0468627
-0.0475367
-0.0482145
-0.0488959
-0.0495811
-0.0502701
-0.050963
-0.0516598
-0.0523606
-0.0530655
-0.0537746
-0.0544878
-0.0552054
-0.0559273
-0.0566537
-0.0573847
-0.0581204
-0.0588608
-0.0596061
-0.0603564
-0.0611119
-0.0618725
-0.0626386
-0.0634102
-0.0641874
-0.0649704
-0.0657594
-0.0665546
-0.0673561
-0.068164
-0.0689787
-0.0698004
-0.0706291
-0.0714653
-0.0723091
-0.0731608
-0.0740206
-0.074889
-0.0757662
-0.0766525
-0.0775484
-0.0784542
-0.0793703
-0.0802973
-0.0812356
-0.0821857
-0.0831482
-0.0841237
-0.085113
-0.0861167
-0.0871356
-0.0881705
-0.0892223
-0.0902919
-0.0913801
-0.0924877
-0.0936156
-0.0947642
-0.0959339
-0.0971247
-0.0983367
-0.0995706
-0.10083
-0.102132
-0.103529
-0.105134
-0.106962
-0.109062
-0.116604
-0.0299822
-0.02984
-0.0298767
-0.0301143
-0.0304743
-0.0309104
-0.0313974
-0.0319187
-0.0324637
-0.0330257
-0.0336003
-0.0341848
-0.0347773
-0.0353766
-0.0359818
-0.0365921
-0.0372073
-0.0378269
-0.0384506
-0.0390783
-0.0397099
-0.0403452
-0.0409841
-0.0416267
-0.0422728
-0.0429225
-0.0435757
-0.0442325
-0.0448928
-0.0455566
-0.0462241
-0.0468952
-0.0475699
-0.0482483
-0.0489305
-0.0496164
-0.0503062
-0.0509999
-0.0516976
-0.0523993
-0.0531051
-0.053815
-0.0545292
-0.0552478
-0.0559707
-0.0566982
-0.0574303
-0.0581671
-0.0589087
-0.0596552
-0.0604068
-0.0611635
-0.0619256
-0.062693
-0.0634661
-0.0642448
-0.0650294
-0.0658201
-0.066617
-0.0674203
-0.0682301
-0.0690468
-0.0698705
-0.0707015
-0.0715399
-0.0723862
-0.0732404
-0.074103
-0.0749743
-0.0758545
-0.0767441
-0.0776434
-0.078553
-0.0794731
-0.0804044
-0.0813473
-0.0823025
-0.0832706
-0.0842522
-0.0852481
-0.0862593
-0.0872864
-0.0883307
-0.0893932
-0.090475
-0.0915776
-0.0927025
-0.0938515
-0.0950264
-0.09623
-0.0974656
-0.0987385
-0.100057
-0.101436
-0.102905
-0.104524
-0.106388
-0.108638
-0.111838
-0.118224
-0.028948
-0.0293792
-0.0297274
-0.03008
-0.0304868
-0.0309429
-0.0314364
-0.0319583
-0.0325016
-0.0330613
-0.0336338
-0.0342165
-0.0348076
-0.0354058
-0.0360101
-0.0366199
-0.0372347
-0.0378541
-0.0384777
-0.0391055
-0.0397372
-0.0403728
-0.041012
-0.041655
-0.0423015
-0.0429517
-0.0436054
-0.0442627
-0.0449236
-0.0455881
-0.0462562
-0.0469279
-0.0476034
-0.0482825
-0.0489655
-0.0496522
-0.0503428
-0.0510373
-0.0517359
-0.0524385
-0.0531452
-0.0538561
-0.0545713
-0.0552908
-0.0560148
-0.0567434
-0.0574766
-0.0582146
-0.0589574
-0.0597051
-0.060458
-0.0612161
-0.0619795
-0.0627484
-0.0635229
-0.0643032
-0.0650894
-0.0658817
-0.0666804
-0.0674855
-0.0682973
-0.0691159
-0.0699417
-0.0707749
-0.0716157
-0.0724643
-0.0733211
-0.0741864
-0.0750605
-0.0759438
-0.0768367
-0.0777395
-0.0786527
-0.0795768
-0.0805124
-0.0814599
-0.0824201
-0.0833936
-0.0843812
-0.0853838
-0.0864022
-0.0874375
-0.088491
-0.089564
-0.090658
-0.0917748
-0.0929166
-0.0940861
-0.0952866
-0.0965225
-0.0977999
-0.0991273
-0.100518
-0.101992
-0.103581
-0.105336
-0.107328
-0.109651
-0.112522
-0.116371
-0.0284644
-0.029074
-0.0295645
-0.0299986
-0.030453
-0.0309366
-0.0314449
-0.0319743
-0.0325212
-0.0330825
-0.0336555
-0.0342382
-0.0348292
-0.0354272
-0.0360314
-0.0366411
-0.0372559
-0.0378753
-0.0384991
-0.0391271
-0.039759
-0.0403949
-0.0410345
-0.0416778
-0.0423247
-0.0429753
-0.0436295
-0.0442874
-0.0449488
-0.0456138
-0.0462825
-0.0469548
-0.0476309
-0.0483107
-0.0489943
-0.0496817
-0.050373
-0.0510683
-0.0517675
-0.0524709
-0.0531784
-0.0538901
-0.0546061
-0.0553266
-0.0560515
-0.0567809
-0.0575151
-0.058254
-0.0589978
-0.0597466
-0.0605005
-0.0612597
-0.0620242
-0.0627943
-0.06357
-0.0643516
-0.0651392
-0.0659329
-0.0667329
-0.0675395
-0.0683529
-0.0691732
-0.0700007
-0.0708356
-0.0716782
-0.0725288
-0.0733877
-0.0742551
-0.0751315
-0.0760172
-0.0769126
-0.0778182
-0.0787343
-0.0796615
-0.0806004
-0.0815515
-0.0825156
-0.0834933
-0.0844854
-0.085493
-0.0865169
-0.0875584
-0.0886188
-0.0896995
-0.0908025
-0.0919297
-0.0930837
-0.0942676
-0.0954854
-0.0967422
-0.0980446
-0.0994017
-0.100826
-0.102334
-0.103948
-0.105697
-0.107612
-0.10971
-0.111994
-0.114422
-0.0281711
-0.0288539
-0.0294188
-0.0299089
-0.0304027
-0.0309123
-0.0314368
-0.031976
-0.0325288
-0.0330935
-0.0336686
-0.0342526
-0.0348443
-0.0354427
-0.0360473
-0.0366573
-0.0372723
-0.037892
-0.038516
-0.0391443
-0.0397766
-0.0404128
-0.0410527
-0.0416964
-0.0423438
-0.0429948
-0.0436495
-0.0443078
-0.0449697
-0.0456352
-0.0463044
-0.0469773
-0.0476539
-0.0483343
-0.0490185
-0.0497065
-0.0503984
-0.0510943
-0.0517943
-0.0524983
-0.0532065
-0.0539189
-0.0546356
-0.0553568
-0.0560825
-0.0568127
-0.0575477
-0.0582874
-0.0590321
-0.0597817
-0.0605366
-0.0612967
-0.0620622
-0.0628332
-0.06361
-0.0643926
-0.0651813
-0.0659761
-0.0667773
-0.0675851
-0.0683997
-0.0692214
-0.0700502
-0.0708866
-0.0717307
-0.0725828
-0.0734433
-0.0743125
-0.0751907
-0.0760783
-0.0769756
-0.0778832
-0.0788016
-0.0797311
-0.0806725
-0.0816262
-0.0825931
-0.0835738
-0.0845692
-0.0855803
-0.086608
-0.0876537
-0.0887186
-0.0898045
-0.090913
-0.0920465
-0.0932075
-0.0943992
-0.0956255
-0.0968911
-0.098202
-0.0995655
-0.10099
-0.102486
-0.104064
-0.105731
-0.107484
-0.109296
-0.1111
-0.112762
-0.0279723
-0.0286894
-0.0292973
-0.029825
-0.0303486
-0.0308799
-0.0314193
-0.0319685
-0.0325279
-0.033097
-0.033675
-0.0342608
-0.0348538
-0.0354532
-0.0360584
-0.0366689
-0.0372844
-0.0379044
-0.0385289
-0.0391575
-0.0397902
-0.0404267
-0.0410671
-0.0417111
-0.0423589
-0.0430104
-0.0436654
-0.0443242
-0.0449865
-0.0456525
-0.0463222
-0.0469956
-0.0476727
-0.0483536
-0.0490383
-0.0497268
-0.0504193
-0.0511157
-0.0518162
-0.0525208
-0.0532296
-0.0539426
-0.05466
-0.0553818
-0.0561081
-0.056839
-0.0575746
-0.058315
-0.0590604
-0.0598108
-0.0605663
-0.0613272
-0.0620935
-0.0628653
-0.0636429
-0.0644264
-0.0652159
-0.0660116
-0.0668138
-0.0676225
-0.0684381
-0.0692607
-0.0700906
-0.070928
-0.0717732
-0.0726265
-0.0734882
-0.0743586
-0.0752381
-0.0761269
-0.0770257
-0.0779347
-0.0788545
-0.0797856
-0.0807285
-0.0816839
-0.0826524
-0.0836349
-0.0846321
-0.0856451
-0.0866747
-0.0877224
-0.0887893
-0.0898771
-0.0909875
-0.0921227
-0.093285
-0.0944772
-0.0957027
-0.0969653
-0.098269
-0.0996186
-0.101018
-0.102471
-0.103976
-0.105525
-0.107097
-0.108645
-0.110087
-0.111292
-0.0278316
-0.0285636
-0.0291961
-0.0297488
-0.0302943
-0.0308432
-0.0313957
-0.0319543
-0.0325204
-0.0330941
-0.0336753
-0.0342635
-0.0348581
-0.0354587
-0.0360648
-0.036676
-0.037292
-0.0379126
-0.0385375
-0.0391665
-0.0397995
-0.0404365
-0.0410772
-0.0417217
-0.0423698
-0.0430216
-0.0436771
-0.0443362
-0.044999
-0.0456654
-0.0463355
-0.0470093
-0.0476868
-0.0483681
-0.0490532
-0.0497422
-0.0504351
-0.0511321
-0.051833
-0.0525381
-0.0532473
-0.0539608
-0.0546787
-0.055401
-0.0561278
-0.0568592
-0.0575953
-0.0583363
-0.0590822
-0.0598331
-0.0605893
-0.0613507
-0.0621175
-0.06289
-0.0636681
-0.0644522
-0.0652423
-0.0660387
-0.0668415
-0.0676509
-0.0684671
-0.0692903
-0.0701209
-0.070959
-0.0718049
-0.0726589
-0.0735212
-0.0743923
-0.0752724
-0.076162
-0.0770614
-0.0779711
-0.0788915
-0.0798232
-0.0807666
-0.0817225
-0.0826915
-0.0836743
-0.0846717
-0.0856847
-0.0867142
-0.0877613
-0.0888273
-0.0899137
-0.0910219
-0.0921539
-0.0933115
-0.0944969
-0.0957126
-0.0969608
-0.0982438
-0.0995629
-0.100918
-0.102307
-0.10372
-0.105141
-0.106539
-0.107862
-0.109035
-0.109954
-0.0277251
-0.028463
-0.02911
-0.0296792
-0.0302409
-0.0308038
-0.0313675
-0.0319346
-0.0325071
-0.0330855
-0.0336701
-0.0342608
-0.0348572
-0.0354592
-0.0360663
-0.0366784
-0.0372951
-0.0379162
-0.0385416
-0.0391711
-0.0398045
-0.0404418
-0.0410829
-0.0417277
-0.0423762
-0.0430284
-0.0436842
-0.0443436
-0.0450067
-0.0456735
-0.0463439
-0.047018
-0.0476959
-0.0483776
-0.049063
-0.0497524
-0.0504457
-0.0511429
-0.0518442
-0.0525496
-0.0532592
-0.0539731
-0.0546913
-0.055414
-0.0561411
-0.0568729
-0.0576094
-0.0583507
-0.059097
-0.0598483
-0.0606047
-0.0613665
-0.0621337
-0.0629065
-0.063685
-0.0644694
-0.0652599
-0.0660566
-0.0668597
-0.0676694
-0.0684859
-0.0693094
-0.0701402
-0.0709786
-0.0718246
-0.0726788
-0.0735413
-0.0744125
-0.0752927
-0.0761822
-0.0770815
-0.077991
-0.0789111
-0.0798424
-0.0807853
-0.0817405
-0.0827085
-0.0836901
-0.0846859
-0.0856969
-0.0867239
-0.087768
-0.0888301
-0.0899115
-0.0910134
-0.0921372
-0.0932843
-0.0944561
-0.0956537
-0.0968781
-0.0981294
-0.0994061
-0.100705
-0.102018
-0.103333
-0.104627
-0.105868
-0.107008
-0.107983
-0.108717
-0.0276381
-0.028378
-0.0290339
-0.0296143
-0.030188
-0.0307622
-0.0313354
-0.0319101
-0.0324884
-0.0330714
-0.0336595
-0.0342528
-0.0348512
-0.0354547
-0.036063
-0.036676
-0.0372934
-0.0379152
-0.0385411
-0.039171
-0.0398048
-0.0404425
-0.0410839
-0.041729
-0.0423778
-0.0430303
-0.0436864
-0.0443461
-0.0450095
-0.0456765
-0.0463472
-0.0470216
-0.0476997
-0.0483816
-0.0490673
-0.0497569
-0.0504504
-0.0511479
-0.0518495
-0.0525551
-0.0532649
-0.053979
-0.0546974
-0.0554203
-0.0561477
-0.0568796
-0.0576163
-0.0583578
-0.0591042
-0.0598557
-0.0606123
-0.0613742
-0.0621415
-0.0629144
-0.063693
-0.0644774
-0.0652679
-0.0660646
-0.0668677
-0.0676773
-0.0684937
-0.0693171
-0.0701478
-0.0709858
-0.0718316
-0.0726854
-0.0735475
-0.0744181
-0.0752977
-0.0761864
-0.0770849
-0.0779933
-0.0789122
-0.079842
-0.0807831
-0.0817362
-0.0827019
-0.0836806
-0.0846731
-0.0856801
-0.0867023
-0.0877405
-0.0887957
-0.0898686
-0.0909602
-0.0920713
-0.0932027
-0.0943547
-0.0955276
-0.0967207
-0.0979322
-0.0991586
-0.100394
-0.101627
-0.102844
-0.104021
-0.105127
-0.106119
-0.106949
-0.107561
-0.0275619
-0.0283023
-0.0289641
-0.0295522
-0.0301349
-0.030718
-0.0312993
-0.0318807
-0.0324646
-0.0330519
-0.0336434
-0.0342394
-0.0348399
-0.035445
-0.0360545
-0.0366685
-0.0372867
-0.0379091
-0.0385356
-0.0391659
-0.0398001
-0.0404381
-0.0410799
-0.0417253
-0.0423743
-0.043027
-0.0436833
-0.0443433
-0.0450068
-0.045674
-0.0463449
-0.0470195
-0.0476978
-0.0483798
-0.0490657
-0.0497554
-0.0504491
-0.0511467
-0.0518483
-0.0525541
-0.053264
-0.0539781
-0.0546966
-0.0554195
-0.0561469
-0.0568789
-0.0576156
-0.058357
-0.0591034
-0.0598548
-0.0606113
-0.0613731
-0.0621403
-0.062913
-0.0636913
-0.0644756
-0.0652657
-0.0660621
-0.0668648
-0.067674
-0.0684899
-0.0693127
-0.0701427
-0.0709801
-0.071825
-0.0726779
-0.0735389
-0.0744083
-0.0752865
-0.0761737
-0.0770704
-0.0779768
-0.0788934
-0.0798206
-0.0807588
-0.0817086
-0.0826703
-0.0836445
-0.0846318
-0.0856327
-0.0866478
-0.0876778
-0.0887231
-0.0897843
-0.0908619
-0.0919562
-0.0930672
-0.0941946
-0.0953374
-0.0964937
-0.0976603
-0.098832
-0.100001
-0.101156
-0.10228
-0.103351
-0.104342
-0.105217
-0.105938
-0.106465
-0.0274912
-0.0282316
-0.0288975
-0.029491
-0.0300805
-0.030671
-0.0312591
-0.0318464
-0.0324353
-0.0330268
-0.0336217
-0.0342203
-0.0348229
-0.0354297
-0.0360406
-0.0366556
-0.0372747
-0.0378977
-0.0385247
-0.0391555
-0.0397901
-0.0404284
-0.0410704
-0.0417161
-0.0423654
-0.0430182
-0.0436747
-0.0443348
-0.0449985
-0.0456658
-0.0463368
-0.0470114
-0.0476898
-0.0483719
-0.0490578
-0.0497475
-0.0504412
-0.0511388
-0.0518404
-0.0525461
-0.0532559
-0.05397
-0.0546884
-0.0554111
-0.0561384
-0.0568702
-0.0576067
-0.0583479
-0.059094
-0.0598451
-0.0606013
-0.0613627
-0.0621294
-0.0629017
-0.0636796
-0.0644632
-0.0652528
-0.0660484
-0.0668503
-0.0676587
-0.0684737
-0.0692955
-0.0701243
-0.0709604
-0.071804
-0.0726553
-0.0735145
-0.0743821
-0.0752581
-0.076143
-0.077037
-0.0779405
-0.0788538
-0.0797773
-0.0807114
-0.0816564
-0.0826127
-0.0835808
-0.084561
-0.0855539
-0.0865597
-0.0875789
-0.0886117
-0.0896582
-0.0907186
-0.0917926
-0.0928796
-0.0939785
-0.0950874
-0.0962034
-0.0973222
-0.0984375
-0.0995407
-0.10062
-0.101659
-0.102637
-0.103531
-0.104313
-0.104951
-0.105418
-0.0274225
-0.0281629
-0.028832
-0.0294294
-0.0300241
-0.0306206
-0.0312144
-0.031807
-0.0324004
-0.0329958
-0.0335939
-0.0341952
-0.0347999
-0.0354084
-0.0360207
-0.0366369
-0.0372568
-0.0378806
-0.0385082
-0.0391394
-0.0397744
-0.040413
-0.0410553
-0.0417011
-0.0423506
-0.0430036
-0.0436601
-0.0443203
-0.044984
-0.0456514
-0.0463223
-0.046997
-0.0476753
-0.0483573
-0.0490432
-0.0497328
-0.0504263
-0.0511238
-0.0518252
-0.0525307
-0.0532404
-0.0539542
-0.0546723
-0.0553947
-0.0561216
-0.0568531
-0.0575891
-0.0583299
-0.0590755
-0.0598261
-0.0605817
-0.0613424
-0.0621085
-0.06288
-0.063657
-0.0644397
-0.0652283
-0.0660229
-0.0668236
-0.0676307
-0.0684443
-0.0692646
-0.0700918
-0.0709261
-0.0717677
-0.0726168
-0.0734737
-0.0743386
-0.0752118
-0.0760935
-0.076984
-0.0778836
-0.0787926
-0.0797112
-0.0806399
-0.0815788
-0.0825283
-0.0834887
-0.0844602
-0.0854431
-0.0864376
-0.0874438
-0.0884617
-0.089491
-0.0905315
-0.0915824
-0.0926425
-0.0937101
-0.0947826
-0.0958564
-0.0969263
-0.0979857
-0.0990253
-0.100034
-0.100996
-0.101894
-0.102707
-0.103412
-0.103987
-0.104411
-0.0273536
-0.0280941
-0.0287657
-0.029366
-0.0299648
-0.0305661
-0.0311648
-0.031762
-0.0323596
-0.0329586
-0.0335598
-0.0341637
-0.0347706
-0.0353809
-0.0359946
-0.0366119
-0.0372328
-0.0378573
-0.0384855
-0.0391172
-0.0397526
-0.0403915
-0.041034
-0.04168
-0.0423295
-0.0429826
-0.0436392
-0.0442993
-0.0449631
-0.0456303
-0.0463012
-0.0469757
-0.0476539
-0.0483358
-0.0490214
-0.0497108
-0.0504041
-0.0511013
-0.0518024
-0.0525076
-0.0532168
-0.0539302
-0.0546479
-0.0553698
-0.0560962
-0.056827
-0.0575625
-0.0583026
-0.0590474
-0.0597972
-0.0605519
-0.0613118
-0.0620768
-0.0628472
-0.0636231
-0.0644046
-0.0651918
-0.065985
-0.0667841
-0.0675895
-0.0684013
-0.0692196
-0.0700446
-0.0708765
-0.0717156
-0.0725619
-0.0734158
-0.0742773
-0.0751469
-0.0760246
-0.0769107
-0.0778054
-0.078709
-0.0796217
-0.0805437
-0.0814753
-0.0824166
-0.0833678
-0.0843289
-0.0853002
-0.0862816
-0.0872728
-0.0882737
-0.0892838
-0.0903022
-0.0913278
-0.092359
-0.0933935
-0.0944283
-0.0954591
-0.0964806
-0.0974856
-0.0984653
-0.0994085
-0.100302
-0.10113
-0.101875
-0.102519
-0.103044
-0.103436
-0.0272829
-0.0280235
-0.0286975
-0.0292999
-0.0299019
-0.0305072
-0.0311101
-0.0317113
-0.0323126
-0.032915
-0.0335192
-0.0341255
-0.0347346
-0.0353466
-0.0359618
-0.0365803
-0.0372021
-0.0378275
-0.0384562
-0.0390885
-0.0397242
-0.0403634
-0.0410061
-0.0416522
-0.0423018
-0.0429549
-0.0436115
-0.0442716
-0.0449352
-0.0456023
-0.046273
-0.0469473
-0.0476253
-0.0483069
-0.0489922
-0.0496812
-0.0503741
-0.0510709
-0.0517715
-0.0524762
-0.0531849
-0.0538977
-0.0546147
-0.055336
-0.0560616
-0.0567916
-0.0575262
-0.0582654
-0.0590093
-0.059758
-0.0605116
-0.0612702
-0.062034
-0.062803
-0.0635774
-0.0643573
-0.0651428
-0.065934
-0.0667312
-0.0675345
-0.0683439
-0.0691597
-0.069982
-0.0708111
-0.071647
-0.0724899
-0.07334
-0.0741975
-0.0750627
-0.0759355
-0.0768164
-0.0777053
-0.0786026
-0.0795082
-0.0804225
-0.0813455
-0.0822773
-0.0832179
-0.0841673
-0.0851254
-0.086092
-0.0870667
-0.0880489
-0.0890379
-0.0900326
-0.0910314
-0.0920324
-0.093033
-0.0940295
-0.0950177
-0.095992
-0.0969453
-0.0978691
-0.0987532
-0.0995857
-0.100353
-0.101041
-0.101635
-0.102121
-0.102488
-0.0272092
-0.0279502
-0.0286261
-0.0292303
-0.0298348
-0.0304434
-0.0310499
-0.0316546
-0.0322593
-0.0328647
-0.0334716
-0.0340804
-0.0346915
-0.0353053
-0.035922
-0.0365417
-0.0371645
-0.0377906
-0.03842
-0.0390528
-0.0396889
-0.0403283
-0.0409712
-0.0416175
-0.0422671
-0.0429202
-0.0435767
-0.0442366
-0.0449001
-0.045567
-0.0462374
-0.0469114
-0.047589
-0.0482702
-0.048955
-0.0496436
-0.050336
-0.0510322
-0.0517322
-0.0524362
-0.0531442
-0.0538562
-0.0545724
-0.0552928
-0.0560174
-0.0567465
-0.05748
-0.058218
-0.0589606
-0.059708
-0.0604602
-0.0612173
-0.0619795
-0.0627468
-0.0635193
-0.0642973
-0.0650807
-0.0658697
-0.0666645
-0.0674651
-0.0682718
-0.0690846
-0.0699037
-0.0707292
-0.0715614
-0.0724003
-0.073246
-0.0740988
-0.0749587
-0.075826
-0.0767007
-0.077583
-0.0784729
-0.0793706
-0.0802761
-0.0811894
-0.0821105
-0.0830393
-0.0839757
-0.0849193
-0.0858697
-0.0868264
-0.0877887
-0.0887553
-0.0897251
-0.0906962
-0.0916663
-0.0926326
-0.0935913
-0.0945379
-0.0954669
-0.0963716
-0.0972439
-0.0980746
-0.0988532
-0.0995683
-0.100208
-0.10076
-0.101215
-0.101562
-0.0271316
-0.0278731
-0.0285509
-0.0291564
-0.0297629
-0.0303743
-0.0309839
-0.0315916
-0.0321993
-0.0328076
-0.033417
-0.0340281
-0.0346412
-0.0352567
-0.0358748
-0.0364957
-0.0371196
-0.0377465
-0.0383765
-0.0390098
-0.0396463
-0.040286
-0.040929
-0.0415753
-0.042225
-0.042878
-0.0435344
-0.0441941
-0.0448573
-0.0455239
-0.046194
-0.0468675
-0.0475446
-0.0482253
-0.0489096
-0.0495976
-0.0502893
-0.0509848
-0.051684
-0.0523872
-0.0530943
-0.0538053
-0.0545205
-0.0552398
-0.0559633
-0.0566911
-0.0574233
-0.0581599
-0.0589011
-0.0596469
-0.0603974
-0.0611527
-0.0619129
-0.0626782
-0.0634485
-0.0642241
-0.0650051
-0.0657914
-0.0665834
-0.067381
-0.0681844
-0.0689937
-0.0698091
-0.0706306
-0.0714584
-0.0722927
-0.0731334
-0.0739807
-0.0748348
-0.0756957
-0.0765635
-0.0774383
-0.07832
-0.0792088
-0.0801045
-0.0810071
-0.0819165
-0.0828324
-0.0837546
-0.0846825
-0.0856157
-0.0865534
-0.0874946
-0.0884381
-0.0893823
-0.0903251
-0.0912642
-0.0921964
-0.0931181
-0.0940247
-0.0949108
-0.0957701
-0.0965952
-0.0973778
-0.0981089
-0.0987787
-0.0993772
-0.099895
-0.100324
-0.100656
-0.0270495
-0.0277915
-0.0284711
-0.0290776
-0.0296858
-0.0302996
-0.0309117
-0.0315222
-0.0321325
-0.0327433
-0.0333551
-0.0339683
-0.0345833
-0.0352004
-0.0358199
-0.0364421
-0.0370669
-0.0376947
-0.0383254
-0.0389591
-0.039596
-0.040236
-0.0408791
-0.0415255
-0.0421751
-0.042828
-0.0434842
-0.0441437
-0.0448065
-0.0454727
-0.0461423
-0.0468154
-0.0474919
-0.048172
-0.0488556
-0.0495429
-0.0502337
-0.0509283
-0.0516267
-0.0523288
-0.0530348
-0.0537448
-0.0544587
-0.0551768
-0.0558989
-0.0566252
-0.0573559
-0.0580908
-0.0588302
-0.0595742
-0.0603227
-0.0610759
-0.0618339
-0.0625968
-0.0633646
-0.0641376
-0.0649156
-0.0656989
-0.0664876
-0.0672818
-0.0680815
-0.0688868
-0.0696979
-0.0705149
-0.0713378
-0.0721668
-0.0730019
-0.0738432
-0.0746907
-0.0755445
-0.0764046
-0.0772711
-0.0781438
-0.0790228
-0.0799079
-0.0807989
-0.0816956
-0.0825977
-0.0835048
-0.0844162
-0.0853313
-0.0862492
-0.0871687
-0.0880884
-0.0890066
-0.0899211
-0.0908294
-0.0917283
-0.0926142
-0.0934825
-0.0943283
-0.0951455
-0.0959276
-0.0966672
-0.0973563
-0.0979866
-0.0985501
-0.0990389
-0.0994462
-0.0997669
-0.0269624
-0.027705
-0.0283862
-0.0289936
-0.0296031
-0.0302189
-0.0308333
-0.0314461
-0.0320587
-0.0326718
-0.0332857
-0.0339009
-0.0345177
-0.0351364
-0.0357573
-0.0363806
-0.0370064
-0.0376349
-0.0382663
-0.0389005
-0.0395377
-0.0401779
-0.0408212
-0.0414676
-0.0421172
-0.0427699
-0.0434258
-0.044085
-0.0447474
-0.0454131
-0.0460822
-0.0467547
-0.0474306
-0.0481099
-0.0487927
-0.0494791
-0.050169
-0.0508626
-0.0515598
-0.0522608
-0.0529656
-0.0536742
-0.0543868
-0.0551033
-0.0558238
-0.0565485
-0.0572773
-0.0580104
-0.0587478
-0.0594896
-0.0602359
-0.0609867
-0.0617422
-0.0625024
-0.0632673
-0.0640372
-0.064812
-0.0655919
-0.0663769
-0.0671671
-0.0679627
-0.0687636
-0.06957
-0.0703819
-0.0711994
-0.0720226
-0.0728514
-0.073686
-0.0745263
-0.0753724
-0.0762241
-0.0770816
-0.0779446
-0.078813
-0.0796867
-0.0805653
-0.0814486
-0.0823361
-0.0832273
-0.0841215
-0.0850178
-0.0859153
-0.0868127
-0.0877084
-0.0886005
-0.089487
-0.0903651
-0.0912317
-0.0920832
-0.0929154
-0.0937234
-0.0945019
-0.0952449
-0.0959458
-0.0965977
-0.0971938
-0.0977271
-0.0981913
-0.098581
-0.0988922
-0.0268697
-0.0276129
-0.0282957
-0.0289039
-0.0295144
-0.030132
-0.0307483
-0.0313631
-0.0319778
-0.0325929
-0.0332088
-0.0338257
-0.0344442
-0.0350644
-0.0356866
-0.036311
-0.0369378
-0.0375671
-0.038199
-0.0388337
-0.0394713
-0.0401117
-0.0407551
-0.0414014
-0.0420508
-0.0427033
-0.043359
-0.0440177
-0.0446797
-0.0453449
-0.0460133
-0.0466851
-0.0473602
-0.0480387
-0.0487206
-0.0494059
-0.0500948
-0.0507872
-0.0514832
-0.0521828
-0.0528862
-0.0535933
-0.0543043
-0.0550191
-0.0557379
-0.0564606
-0.0571874
-0.0579184
-0.0586535
-0.0593929
-0.0601367
-0.0608848
-0.0616374
-0.0623946
-0.0631563
-0.0639228
-0.064694
-0.0654701
-0.066251
-0.067037
-0.0678279
-0.0686239
-0.0694251
-0.0702314
-0.071043
-0.0718598
-0.0726819
-0.0735092
-0.0743417
-0.0751794
-0.0760222
-0.0768699
-0.0777225
-0.0785798
-0.0794413
-0.080307
-0.0811762
-0.0820485
-0.0829232
-0.0837996
-0.0846768
-0.0855536
-0.0864286
-0.0873003
-0.0881667
-0.0890255
-0.0898742
-0.0907097
-0.0915285
-0.0923267
-0.0930996
-0.0938425
-0.0945499
-0.0952161
-0.0958352
-0.0964012
-0.0969085
-0.0973518
-0.0977268
-0.0980303
-0.0267712
-0.027515
-0.0281994
-0.0288081
-0.0294196
-0.0300386
-0.0306566
-0.0312732
-0.0318897
-0.0325066
-0.0331242
-0.0337428
-0.0343628
-0.0349843
-0.0356077
-0.0362332
-0.0368608
-0.0374909
-0.0381234
-0.0387585
-0.0393964
-0.040037
-0.0406804
-0.0413267
-0.0419759
-0.0426282
-0.0432834
-0.0439417
-0.0446032
-0.0452677
-0.0459355
-0.0466064
-0.0472806
-0.0479581
-0.048639
-0.0493232
-0.0500108
-0.0507019
-0.0513965
-0.0520947
-0.0527965
-0.0535019
-0.0542111
-0.054924
-0.0556408
-0.0563614
-0.057086
-0.0578145
-0.0585472
-0.0592839
-0.0600248
-0.06077
-0.0615195
-0.0622733
-0.0630315
-0.0637943
-0.0645615
-0.0653334
-0.0661099
-0.0668911
-0.067677
-0.0684677
-0.0692632
-0.0700635
-0.0708687
-0.0716786
-0.0724934
-0.0733129
-0.0741371
-0.0749658
-0.0757991
-0.0766366
-0.0774782
-0.0783237
-0.0791726
-0.0800246
-0.0808793
-0.0817359
-0.0825938
-0.0834521
-0.0843098
-0.0851658
-0.0860185
-0.0868663
-0.0877073
-0.0885393
-0.0893596
-0.0901654
-0.0909532
-0.0917194
-0.0924598
-0.09317
-0.0938451
-0.0944802
-0.0950701
-0.0956097
-0.0960944
-0.0965198
-0.0968824
-0.0971795
-0.0266665
-0.027411
-0.0280968
-0.0287061
-0.0293183
-0.0299386
-0.030558
-0.0311761
-0.0317942
-0.0324127
-0.0330319
-0.033652
-0.0342733
-0.0348961
-0.0355206
-0.036147
-0.0367755
-0.0374062
-0.0380393
-0.0386748
-0.0393129
-0.0399536
-0.040597
-0.0412432
-0.0418923
-0.0425442
-0.043199
-0.0438568
-0.0445176
-0.0451814
-0.0458483
-0.0465184
-0.0471916
-0.047868
-0.0485477
-0.0492307
-0.0499169
-0.0506066
-0.0512996
-0.0519962
-0.0526962
-0.0533998
-0.054107
-0.0548178
-0.0555323
-0.0562506
-0.0569727
-0.0576987
-0.0584286
-0.0591624
-0.0599002
-0.0606421
-0.0613882
-0.0621384
-0.0628928
-0.0636514
-0.0644144
-0.0651817
-0.0659534
-0.0667295
-0.06751
-0.068295
-0.0690844
-0.0698783
-0.0706765
-0.0714792
-0.0722861
-0.0730974
-0.0739127
-0.0747321
-0.0755553
-0.0763821
-0.0772122
-0.0780454
-0.0788812
-0.0797192
-0.0805589
-0.0813995
-0.0822402
-0.0830802
-0.0839184
-0.0847536
-0.0855842
-0.0864086
-0.0872249
-0.0880308
-0.0888238
-0.0896012
-0.0903598
-0.0910961
-0.0918064
-0.0924866
-0.0931324
-0.0937395
-0.0943034
-0.0948199
-0.0952848
-0.0956948
-0.0960467
-0.0963387
-0.0265555
-0.0273006
-0.0279877
-0.0285975
-0.0292104
-0.0298317
-0.0304525
-0.0310719
-0.0316913
-0.0323112
-0.0329318
-0.0335532
-0.0341758
-0.0347997
-0.0354252
-0.0360525
-0.0366817
-0.037313
-0.0379466
-0.0385824
-0.0392207
-0.0398615
-0.0405049
-0.0411509
-0.0417997
-0.0424512
-0.0431055
-0.0437627
-0.0444228
-0.0450858
-0.0457519
-0.0464209
-0.047093
-0.0477683
-0.0484466
-0.0491282
-0.049813
-0.0505011
-0.0511924
-0.0518871
-0.0525852
-0.0532868
-0.0539918
-0.0547004
-0.0554125
-0.0561282
-0.0568476
-0.0575708
-0.0582976
-0.0590283
-0.0597628
-0.0605012
-0.0612435
-0.0619897
-0.06274
-0.0634943
-0.0642526
-0.0650151
-0.0657816
-0.0665522
-0.067327
-0.0681058
-0.0688888
-0.0696757
-0.0704667
-0.0712617
-0.0720604
-0.0728629
-0.073669
-0.0744785
-0.0752912
-0.0761069
-0.0769252
-0.0777457
-0.0785681
-0.0793917
-0.0802161
-0.0810404
-0.0818639
-0.0826856
-0.0835043
-0.0843188
-0.0851277
-0.0859291
-0.0867214
-0.0875022
-0.0882691
-0.0890196
-0.0897507
-0.0904592
-0.0911416
-0.0917943
-0.0924135
-0.0929954
-0.0935361
-0.094032
-0.0944797
-0.0948762
-0.0952191
-0.0955068
-0.0264379
-0.0271837
-0.0278721
-0.0284823
-0.0290956
-0.0297179
-0.0303398
-0.0309604
-0.031581
-0.0322022
-0.0328239
-0.0334465
-0.0340701
-0.0346951
-0.0353215
-0.0359495
-0.0365794
-0.0372113
-0.0378452
-0.0384813
-0.0391197
-0.0397605
-0.0404038
-0.0410496
-0.041698
-0.0423491
-0.0430029
-0.0436594
-0.0443187
-0.0449808
-0.0456459
-0.0463138
-0.0469848
-0.0476587
-0.0483357
-0.0490157
-0.0496989
-0.0503852
-0.0510747
-0.0517675
-0.0524635
-0.0531628
-0.0538655
-0.0545716
-0.0552811
-0.0559941
-0.0567106
-0.0574307
-0.0581543
-0.0588815
-0.0596124
-0.060347
-0.0610854
-0.0618274
-0.0625733
-0.0633229
-0.0640763
-0.0648335
-0.0655946
-0.0663594
-0.067128
-0.0679004
-0.0686765
-0.0694562
-0.0702396
-0.0710264
-0.0718166
-0.07261
-0.0734064
-0.0742057
-0.0750076
-0.0758117
-0.0766178
-0.0774254
-0.078234
-0.0790431
-0.079852
-0.08066
-0.0814662
-0.0822696
-0.083069
-0.0838632
-0.0846507
-0.0854299
-0.0861989
-0.0869555
-0.0876977
-0.0884227
-0.089128
-0.0898105
-0.0904671
-0.0910946
-0.0916896
-0.0922488
-0.0927688
-0.0932464
-0.0936789
-0.0940637
-0.0943988
-0.094683
-0.0263136
-0.0270601
-0.0277497
-0.0283603
-0.028974
-0.0295971
-0.03022
-0.0308415
-0.0314632
-0.0320854
-0.0327083
-0.0333319
-0.0339565
-0.0345823
-0.0352095
-0.0358382
-0.0364686
-0.0371009
-0.0377352
-0.0383715
-0.03901
-0.0396507
-0.0402938
-0.0409394
-0.0415874
-0.0422379
-0.042891
-0.0435468
-0.0442052
-0.0448664
-0.0455304
-0.0461971
-0.0468668
-0.0475393
-0.0482147
-0.0488931
-0.0495745
-0.050259
-0.0509465
-0.0516371
-0.0523309
-0.0530279
-0.0537281
-0.0544315
-0.0551382
-0.0558483
-0.0565616
-0.0572784
-0.0579986
-0.0587222
-0.0594493
-0.0601798
-0.0609139
-0.0616515
-0.0623926
-0.0631373
-0.0638855
-0.0646372
-0.0653925
-0.0661512
-0.0669134
-0.067679
-0.0684479
-0.0692201
-0.0699954
-0.0707738
-0.0715551
-0.072339
-0.0731255
-0.0739143
-0.074705
-0.0754974
-0.076291
-0.0770854
-0.0778801
-0.0786745
-0.0794679
-0.0802595
-0.0810485
-0.0818337
-0.0826141
-0.0833884
-0.0841552
-0.0849127
-0.0856593
-0.0863929
-0.0871114
-0.0878124
-0.0884935
-0.0891518
-0.0897846
-0.090389
-0.090962
-0.0915006
-0.092002
-0.0924634
-0.0928824
-0.0932569
-0.0935853
-0.0938665
-0.0261826
-0.0269296
-0.0276205
-0.0282313
-0.0288455
-0.0294693
-0.0300929
-0.0307154
-0.031338
-0.0319611
-0.0325849
-0.0332093
-0.0338348
-0.0344613
-0.0350892
-0.0357185
-0.0363494
-0.036982
-0.0376165
-0.0382529
-0.0388914
-0.0395321
-0.0401749
-0.0408201
-0.0414676
-0.0421175
-0.0427699
-0.0434249
-0.0440824
-0.0447425
-0.0454053
-0.0460708
-0.046739
-0.04741
-0.0480838
-0.0487604
-0.04944
-0.0501224
-0.0508078
-0.0514962
-0.0521875
-0.052882
-0.0535795
-0.0542801
-0.0549838
-0.0556907
-0.0564008
-0.0571141
-0.0578306
-0.0585503
-0.0592733
-0.0599997
-0.0607292
-0.0614621
-0.0621983
-0.0629377
-0.0636804
-0.0644264
-0.0651756
-0.0659279
-0.0666834
-0.0674419
-0.0682033
-0.0689676
-0.0697347
-0.0705043
-0.0712764
-0.0720507
-0.0728269
-0.0736049
-0.0743843
-0.0751646
-0.0759456
-0.0767267
-0.0775074
-0.078287
-0.0790649
-0.0798402
-0.0806121
-0.0813795
-0.0821412
-0.0828961
-0.0836426
-0.0843793
-0.0851044
-0.085816
-0.0865121
-0.0871905
-0.0878488
-0.0884847
-0.0890956
-0.0896787
-0.0902316
-0.0907516
-0.0912362
-0.091683
-0.0920901
-0.0924556
-0.0927781
-0.0930567
-0.0260448
-0.0267924
-0.0274844
-0.0280955
-0.0287099
-0.0293344
-0.0299588
-0.0305819
-0.0312053
-0.0318292
-0.0324538
-0.033079
-0.0337051
-0.0343323
-0.0349607
-0.0355905
-0.0362218
-0.0368547
-0.0374893
-0.0381258
-0.0387642
-0.0394046
-0.0400472
-0.0406919
-0.0413388
-0.0419881
-0.0426397
-0.0432937
-0.0439502
-0.0446092
-0.0452707
-0.0459348
-0.0466015
-0.0472708
-0.0479429
-0.0486176
-0.0492952
-0.0499755
-0.0506586
-0.0513446
-0.0520334
-0.0527251
-0.0534198
-0.0541174
-0.054818
-0.0555215
-0.0562281
-0.0569377
-0.0576504
-0.0583661
-0.0590848
-0.0598066
-0.0605315
-0.0612594
-0.0619904
-0.0627244
-0.0634614
-0.0642013
-0.0649441
-0.0656898
-0.0664383
-0.0671895
-0.0679432
-0.0686994
-0.0694579
-0.0702186
-0.0709812
-0.0717455
-0.0725113
-0.0732783
-0.0740461
-0.0748144
-0.0755826
-0.0763503
-0.0771169
-0.0778818
-0.0786443
-0.0794035
-0.0801585
-0.0809083
-0.0816518
-0.0823878
-0.0831148
-0.0838313
-0.0845358
-0.0852265
-0.0859014
-0.0865585
-0.0871956
-0.0878106
-0.0884011
-0.0889648
-0.0894993
-0.0900024
-0.0904718
-0.0909056
-0.091302
-0.0916595
-0.0919768
-0.0922534
-0.0259002
-0.0266484
-0.0273414
-0.0279528
-0.0285674
-0.0291924
-0.0298174
-0.0304412
-0.0310653
-0.0316899
-0.032315
-0.0329409
-0.0335676
-0.0341953
-0.0348242
-0.0354543
-0.0360859
-0.0367189
-0.0373536
-0.0379901
-0.0386283
-0.0392685
-0.0399106
-0.0405548
-0.0412011
-0.0418496
-0.0425003
-0.0431534
-0.0438087
-0.0444664
-0.0451266
-0.0457892
-0.0464543
-0.0471219
-0.0477921
-0.0484649
-0.0491402
-0.0498183
-0.050499
-0.0511824
-0.0518686
-0.0525575
-0.0532491
-0.0539436
-0.0546408
-0.0553409
-0.0560438
-0.0567496
-0.0574581
-0.0581696
-0.0588839
-0.059601
-0.060321
-0.0610437
-0.0617693
-0.0624976
-0.0632286
-0.0639623
-0.0646986
-0.0654374
-0.0661786
-0.0669222
-0.067668
-0.0684158
-0.0691656
-0.0699171
-0.0706701
-0.0714243
-0.0721795
-0.0729353
-0.0736915
-0.0744475
-0.0752029
-0.0759572
-0.0767098
-0.0774601
-0.0782072
-0.0789505
-0.0796889