/*--------------------------------*- C++ -*----------------------------------*\
| =========                 |                                                 |
| \\      /  F ield         | OpenFOAM: The Open Source CFD Toolbox           |
|  \\    /   O peration     | Version:  2406                                  |
|   \\  /    A nd           | Website:  www.openfoam.com                      |
|    \\/     M anipulation  |                                                 |
\*---------------------------------------------------------------------------*/
FoamFile
{
    version     2.0;
    format      ascii;
    arch        "LSB;label=32;scalar=64";
    class       volScalarField;
    location    "52";
    object      p;
}
// * * * * * * * * * * * * * * * * * * * * * * * * * * * * * * * * * * * * * //

dimensions      [0 2 -2 0 0 0 0];

internalField   nonuniform List<scalar> 
1800
(
0.481731
0.472473
0.459779
0.445356
0.428712
0.409345
0.387025
0.361276
0.33155
0.296201
0.490598
0.47674
0.461324
0.446411
0.429923
0.410803
0.389058
0.364701
0.337781
0.309474
0.501702
0.484103
0.466256
0.451353
0.435888
0.418139
0.398484
0.37775
0.357125
0.339067
0.515792
0.4967
0.477606
0.46293
0.448757
0.432947
0.416076
0.399371
0.38405
0.371674
0.531897
0.512267
0.492795
0.478643
0.465873
0.452135
0.438032
0.424835
0.413495
0.404872
0.547523
0.527857
0.508811
0.495583
0.484177
0.472267
0.46047
0.449957
0.441416
0.435262
0.559882
0.540723
0.522791
0.510652
0.500305
0.489721
0.47956
0.470824
0.463983
0.459226
0.56669
0.549071
0.532823
0.52149
0.511618
0.501754
0.492547
0.48476
0.478707
0.474503
0.566588
0.552558
0.538611
0.527456
0.51727
0.507415
0.49842
0.490803
0.484798
0.480525
0.560756
0.550997
0.539417
0.528523
0.518129
0.508204
0.499163
0.491404
0.485175
0.480637
0.326504
0.326027
0.325625
0.325495
0.325622
0.325991
0.326612
0.327518
0.328756
0.330388
0.332493
0.335174
0.338559
0.342815
0.348149
0.354819
0.363127
0.373416
0.386046
0.40136
0.419631
0.440997
0.4654
0.492502
0.521589
0.551498
0.580576
0.606696
0.62749
0.640479
0.643001
0.632731
0.608103
0.568555
0.514801
0.327048
0.326558
0.326217
0.326162
0.326333
0.326721
0.32735
0.328262
0.329508
0.33115
0.333263
0.335941
0.339299
0.343484
0.34868
0.355118
0.363073
0.372867
0.384853
0.399384
0.416778
0.437269
0.460884
0.48731
0.51583
0.545249
0.5739
0.599763
0.620386
0.632977
0.634907
0.623868
0.598222
0.557361
0.502022
0.327387
0.326817
0.32648
0.326466
0.326651
0.327022
0.32762
0.32849
0.329685
0.33126
0.333279
0.335818
0.338974
0.34287
0.347663
0.353565
0.360846
0.369834
0.380913
0.394508
0.411037
0.43073
0.45359
0.479323
0.507177
0.535929
0.563826
0.588655
0.607866
0.618664
0.618298
0.60435
0.575103
0.529926
0.469714
0.326964
0.326324
0.325969
0.32596
0.32612
0.326444
0.32698
0.327777
0.328878
0.33033
0.332179
0.334487
0.337331
0.340815
0.345088
0.350371
0.356964
0.36524
0.37564
0.388627
0.4046
0.423726
0.445949
0.470959
0.497943
0.525579
0.551988
0.574806
0.591306
0.598527
0.59351
0.573616
0.536967
0.482934
0.412922
0.32534
0.324748
0.324464
0.324505
0.324679
0.324997
0.325514
0.326275
0.327316
0.328671
0.330378
0.332486
0.33507
0.338235
0.342149
0.347065
0.353315
0.361258
0.371297
0.383916
0.399503
0.418239
0.440042
0.464444
0.49049
0.516678
0.540956
0.56078
0.573218
0.575064
0.56303
0.533996
0.485544
0.416547
0.329224
0.322125
0.321863
0.321918
0.322202
0.322544
0.322988
0.323602
0.324429
0.325505
0.326868
0.328554
0.33061
0.333112
0.336169
0.339956
0.344753
0.350902
0.358822
0.368966
0.381773
0.397564
0.416445
0.438206
0.462223
0.487371
0.511972
0.5338
0.550126
0.557785
0.553272
0.532845
0.492702
0.429418
0.340018
0.226297
0.316925
0.317598
0.318581
0.319525
0.320312
0.321075
0.321932
0.322948
0.324159
0.325604
0.327343
0.329441
0.331989
0.335137
0.339107
0.344206
0.350811
0.359351
0.370265
0.38394
0.400612
0.420265
0.442529
0.466608
0.491207
0.514506
0.534158
0.547306
0.550568
0.540045
0.511206
0.459291
0.37949
0.267004
0.123078
0.308535
0.311986
0.315207
0.317377
0.318854
0.320048
0.321179
0.322385
0.323754
0.325344
0.327231
0.32953
0.3324
0.33604
0.340715
0.34676
0.354567
0.364553
0.377111
0.39253
0.410913
0.432069
0.455453
0.480105
0.504628
0.52718
0.54547
0.556728
0.557542
0.543622
0.509
0.446347
0.344907
0.198102
0.00586388
0.29105
0.304572
0.313136
0.316787
0.318855
0.320497
0.32186
0.323173
0.324697
0.326582
0.328928
0.331885
0.335666
0.340529
0.346765
0.35471
0.364726
0.377163
0.3923
0.410274
0.430996
0.454092
0.478859
0.504258
0.528922
0.551184
0.569086
0.580332
0.582049
0.570337
0.538627
0.476584
0.360021
0.165328
-0.174622
0.259119
0.295498
0.313112
0.317505
0.319675
0.32198
0.323955
0.325782
0.32798
0.330809
0.334377
0.338854
0.344508
0.351625
0.360485
0.37136
0.38451
0.400142
0.418365
0.439121
0.462135
0.486885
0.512593
0.538253
0.56268
0.584565
0.602518
0.615061
0.62049
0.616571
0.599285
0.561577
0.480796
0.316613
-0.177597
0.273817
0.298787
0.31647
0.320711
0.322798
0.326035
0.3294
0.332709
0.336553
0.341308
0.347111
0.354139
0.362652
0.37291
0.385118
0.399429
0.415943
0.434693
0.455601
0.478441
0.502803
0.528094
0.553559
0.578332
0.601506
0.622208
0.639662
0.653233
0.662409
0.666768
0.665668
0.658414
0.641182
0.610079
0.493709
0.295928
0.308685
0.323237
0.329592
0.333233
0.337757
0.342966
0.348517
0.354757
0.362069
0.370658
0.380692
0.392369
0.405853
0.421228
0.438501
0.457614
0.47844
0.500755
0.524217
0.548357
0.572591
0.596267
0.618718
0.63934
0.657654
0.67337
0.686428
0.697023
0.705624
0.712902
0.719812
0.726433
0.732101
0.718461
0.329979
0.333824
0.342713
0.349293
0.354264
0.360034
0.367002
0.374803
0.383466
0.393278
0.404472
0.41719
0.431517
0.447482
0.465034
0.484053
0.504355
0.525696
0.547763
0.570166
0.592445
0.614099
0.634629
0.65359
0.670648
0.685621
0.698511
0.709531
0.719109
0.727903
0.736765
0.746695
0.758198
0.770877
0.775409
0.364797
0.365359
0.370885
0.377198
0.383372
0.390448
0.398855
0.408374
0.418929
0.43069
0.44383
0.458405
0.474376
0.491639
0.510032
0.529338
0.549297
0.56961
0.589936
0.609906
0.629138
0.647263
0.663964
0.679006
0.692265
0.703744
0.713577
0.722032
0.729516
0.736592
0.743961
0.752404
0.762347
0.773156
0.779429
0.400085
0.399999
0.403783
0.409479
0.416139
0.423963
0.433169
0.443661
0.455349
0.468265
0.482442
0.497823
0.514262
0.531564
0.549496
0.567799
0.586188
0.604367
0.622038
0.638909
0.654719
0.669252
0.682359
0.693967
0.704083
0.712793
0.720247
0.726661
0.732329
0.737662
0.743208
0.749593
0.75714
0.765126
0.77027
0.431958
0.431877
0.434781
0.439858
0.44648
0.454516
0.463986
0.474812
0.486877
0.500094
0.514368
0.529549
0.545434
0.561788
0.578359
0.59489
0.611127
0.626827
0.641769
0.655766
0.668676
0.680407
0.690921
0.700233
0.708399
0.715507
0.721665
0.727003
0.731703
0.736049
0.740472
0.745462
0.751154
0.756759
0.760251
0.456745
0.456722
0.459113
0.4636
0.469828
0.477608
0.486844
0.497422
0.50919
0.521992
0.535656
0.549987
0.564762
0.579749
0.594718
0.609448
0.623739
0.637413
0.650327
0.662374
0.673482
0.683624
0.6928
0.701043
0.708402
0.714933
0.720695
0.725758
0.730235
0.734329
0.738359
0.742646
0.747125
0.75097
0.752947
0.472266
0.472104
0.474029
0.477909
0.483552
0.490789
0.499483
0.509484
0.52062
0.532705
0.545543
0.558927
0.572647
0.586495
0.600273
0.613801
0.62692
0.639495
0.651419
0.662614
0.673029
0.682642
0.691449
0.699467
0.706725
0.713257
0.719101
0.724308
0.728967
0.73323
0.737309
0.741354
0.745147
0.747805
0.748665
0.478099
0.477602
0.479051
0.48238
0.487469
0.494176
0.502352
0.511836
0.522451
0.534006
0.546306
0.559151
0.572347
0.5857
0.599032
0.612176
0.624984
0.637329
0.649105
0.66023
0.670649
0.680326
0.689248
0.697416
0.704848
0.711575
0.71764
0.723104
0.728067
0.732663
0.737021
0.741137
0.744627
0.746648
0.746934
0.477915
0.477087
0.478175
0.481143
0.485899
0.492314
0.500238
0.509502
0.519925
0.53132
0.543491
0.556242
0.56938
0.582714
0.596066
0.609267
0.622167
0.634634
0.646559
0.657854
0.668457
0.678328
0.687447
0.695813
0.703441
0.710361
0.716622
0.722301
0.727514
0.7324
0.737053
0.741379
0.744897
0.746793
0.74694
0.448937
0.374295
0.294968
0.215063
0.137968
0.066074
0.000610936
-0.057887
-0.109047
-0.152817
0.434451
0.358295
0.278065
0.198085
0.121624
0.0507459
-0.0132142
-0.0694571
-0.117954
-0.159113
0.397134
0.31673
0.234231
0.154461
0.0801848
0.0128033
-0.0468492
-0.098474
-0.142308
-0.17895
0.330545
0.242297
0.156319
0.0777454
0.00778212
-0.0534081
-0.105568
-0.149035
-0.184834
-0.214091
0.229279
0.1286
0.0398981
-0.0337945
-0.095572
-0.146859
-0.187659
-0.219088
-0.243274
-0.262025
0.0946469
-0.0275083
-0.116636
-0.178918
-0.226787
-0.263054
-0.287627
-0.302934
-0.312284
-0.317934
-0.0594422
-0.218046
-0.305563
-0.350724
-0.379382
-0.394154
-0.396129
-0.390687
-0.382412
-0.373364
-0.258775
-0.446836
-0.50992
-0.525158
-0.525757
-0.511514
-0.486961
-0.460115
-0.435637
-0.414121
-0.632496
-0.739526
-0.695446
-0.650273
-0.609285
-0.565164
-0.522918
-0.486415
-0.455877
-0.430213
-1.07077
-0.940351
-0.775949
-0.700789
-0.640017
-0.580848
-0.529773
-0.488661
-0.455859
-0.429491
-0.189506
-0.219647
-0.243879
-0.262878
-0.277312
-0.287813
-0.29495
-0.299225
-0.301072
-0.300854
-0.298874
-0.295381
-0.29058
-0.284637
-0.277693
-0.269868
-0.261265
-0.251979
-0.242098
-0.231704
-0.22088
-0.20971
-0.198274
-0.186657
-0.174941
-0.163207
-0.151535
-0.140001
-0.128676
-0.117626
-0.106908
-0.0965707
-0.0866551
-0.0771922
-0.0682037
-0.193469
-0.221639
-0.244291
-0.262098
-0.275692
-0.285644
-0.292455
-0.296566
-0.298356
-0.298147
-0.296211
-0.292774
-0.288027
-0.282132
-0.275227
-0.267431
-0.258849
-0.249576
-0.239701
-0.229311
-0.218489
-0.20732
-0.195889
-0.184282
-0.172583
-0.160876
-0.149242
-0.137758
-0.126496
-0.115521
-0.104889
-0.0946496
-0.0848404
-0.075491
-0.0666211
-0.209143
-0.233658
-0.25325
-0.268625
-0.280376
-0.288983
-0.294846
-0.298311
-0.29968
-0.299204
-0.297098
-0.293547
-0.288712
-0.282736
-0.275744
-0.26785
-0.259155
-0.249754
-0.239735
-0.229185
-0.21819
-0.206837
-0.195216
-0.183416
-0.171528
-0.15964
-0.147841
-0.136211
-0.124827
-0.113757
-0.103062
-0.092789
-0.0829772
-0.0736534
-0.0648337
-0.237731
-0.256607
-0.271529
-0.283195
-0.292101
-0.298581
-0.302901
-0.305299
-0.305978
-0.3051
-0.302796
-0.299184
-0.294374
-0.288464
-0.281546
-0.273707
-0.26503
-0.255591
-0.24547
-0.234747
-0.223504
-0.211831
-0.199822
-0.187574
-0.175187
-0.162764
-0.150404
-0.138207
-0.126263
-0.114659
-0.103467
-0.0927505
-0.0825558
-0.0729156
-0.063848
-0.276485
-0.287611
-0.296303
-0.303193
-0.308523
-0.312354
-0.314775
-0.315904
-0.315822
-0.314558
-0.31214
-0.308609
-0.304019
-0.298426
-0.291883
-0.284439
-0.276141
-0.267031
-0.257157
-0.246571
-0.235338
-0.223536
-0.211252
-0.198583
-0.185634
-0.172518
-0.159348
-0.146244
-0.133321
-0.120695
-0.108472
-0.0967458
-0.0855943
-0.0750762
-0.06523
-0.321093
-0.322831
-0.32429
-0.32596
-0.327517
-0.32854
-0.328924
-0.328712
-0.327871
-0.326293
-0.323879
-0.320579
-0.316388
-0.311324
-0.305411
-0.298673
-0.291119
-0.28275
-0.273569
-0.263583
-0.252821
-0.241328
-0.229171
-0.216428
-0.203194
-0.189573
-0.17568
-0.161643
-0.147597
-0.133685
-0.12005
-0.106833
-0.0941609
-0.0821446
-0.0708701
-0.364117
-0.35582
-0.350107
-0.347093
-0.345489
-0.344204
-0.342907
-0.341573
-0.340106
-0.338323
-0.336043
-0.333131
-0.32951
-0.325155
-0.32007
-0.314263
-0.307723
-0.300418
-0.292303
-0.283345
-0.273523
-0.262844
-0.251337
-0.239048
-0.226041
-0.212395
-0.198205
-0.183583
-0.168661
-0.153592
-0.138544
-0.123693
-0.109222
-0.0953007
-0.0820853
-0.394054
-0.377274
-0.366717
-0.361159
-0.357937
-0.355565
-0.353599
-0.351858
-0.350173
-0.348392
-0.346369
-0.343951
-0.341009
-0.337479
-0.333347
-0.328608
-0.323238
-0.317183
-0.31037
-0.302728
-0.294201
-0.284754
-0.274375
-0.263071
-0.250864
-0.237793
-0.223912
-0.2093
-0.194059
-0.178324
-0.16226
-0.146057
-0.12993
-0.114101
-0.0987923
-0.404804
-0.382925
-0.371229
-0.366006
-0.362947
-0.360733
-0.359113
-0.357741
-0.35634
-0.35483
-0.353174
-0.351268
-0.348989
-0.346264
-0.343069
-0.33939
-0.33519
-0.330402
-0.32494
-0.318716
-0.311648
-0.303673
-0.294743
-0.284823
-0.273892
-0.261941
-0.248976
-0.235026
-0.220146
-0.204428
-0.188006
-0.171054
-0.153787
-0.13645
-0.119312
-0.403488
-0.381959
-0.371427
-0.367266
-0.364765
-0.362913
-0.36166
-0.36063
-0.359512
-0.358255
-0.356871
-0.355305
-0.353473
-0.351322
-0.348829
-0.345972
-0.342703
-0.338953
-0.334636
-0.329661
-0.323941
-0.317396
-0.309954
-0.301547
-0.292114
-0.281602
-0.269969
-0.257187
-0.243257
-0.228212
-0.212132
-0.195147
-0.177441
-0.159251
-0.140856
-0.394077
-0.37902
-0.370826
-0.367601
-0.365694
-0.364224
-0.363121
-0.362155
-0.361121
-0.35997
-0.358701
-0.357279
-0.355657
-0.353807
-0.351706
-0.349326
-0.346622
-0.343528
-0.339972
-0.33587
-0.331142
-0.325705
-0.31948
-0.312382
-0.304327
-0.295227
-0.285002
-0.273578
-0.260899
-0.246938
-0.231711
-0.215284
-0.197787
-0.179416
-0.160435
-0.378799
-0.373426
-0.369507
-0.367336
-0.365918
-0.364795
-0.363818
-0.362866
-0.361845
-0.360716
-0.359462
-0.358071
-0.356523
-0.354797
-0.35287
-0.35071
-0.348273
-0.345509
-0.342353
-0.338737
-0.334589
-0.329837
-0.324402
-0.318202
-0.311145
-0.303137
-0.294074
-0.283851
-0.272371
-0.259555
-0.245356
-0.229777
-0.21288
-0.194808
-0.175778
-0.369769
-0.368465
-0.367041
-0.365891
-0.365
-0.364214
-0.363433
-0.362601
-0.361672
-0.360618
-0.359423
-0.358078
-0.356573
-0.354892
-0.353019
-0.350931
-0.348591
-0.345952
-0.34296
-0.339557
-0.33568
-0.331264
-0.326238
-0.320528
-0.31405
-0.306713
-0.298413
-0.289034
-0.278455
-0.266561
-0.253261
-0.238498
-0.222279
-0.204682
-0.185879
-0.36475
-0.364699
-0.364351
-0.363865
-0.363389
-0.362897
-0.362327
-0.361647
-0.360833
-0.359867
-0.358742
-0.357452
-0.355991
-0.354347
-0.352505
-0.350441
-0.348126
-0.34551
-0.34255
-0.339194
-0.335385
-0.331068
-0.326183
-0.320663
-0.314434
-0.307412
-0.299502
-0.290589
-0.280544
-0.269235
-0.256541
-0.242366
-0.226668
-0.20948
-0.190926
-0.361588
-0.36197
-0.362076
-0.361925
-0.361678
-0.361358
-0.360929
-0.360362
-0.359645
-0.358761
-0.357702
-0.35646
-0.355031
-0.353406
-0.351569
-0.349498
-0.347166
-0.344532
-0.34155
-0.338167
-0.33433
-0.329985
-0.325082
-0.319563
-0.313362
-0.306405
-0.298603
-0.289847
-0.28001
-0.268958
-0.25655
-0.242668
-0.227239
-0.210263
-0.191828
-0.359709
-0.360228
-0.360497
-0.360473
-0.360322
-0.360076
-0.359708
-0.359195
-0.358524
-0.357678
-0.356646
-0.355421
-0.353993
-0.352353
-0.350487
-0.348377
-0.345996
-0.343308
-0.340269
-0.336825
-0.33292
-0.328502
-0.323515
-0.317893
-0.31157
-0.304492
-0.296587
-0.28775
-0.277864
-0.266805
-0.254423
-0.240578
-0.225185
-0.208218
-0.189743
-0.358834
-0.359346
-0.359642
-0.359658
-0.359536
-0.359303
-0.358944
-0.35844
-0.357775
-0.356933
-0.355902
-0.354669
-0.353222
-0.351548
-0.349632
-0.347453
-0.344986
-0.342201
-0.339056
-0.335503
-0.331486
-0.326949
-0.321834
-0.316076
-0.309601
-0.30234
-0.294222
-0.285164
-0.275057
-0.26377
-0.251167
-0.237122
-0.221532
-0.204369
-0.18571
-0.358693
-0.359132
-0.359412
-0.359448
-0.359335
-0.359098
-0.35873
-0.358212
-0.357531
-0.356674
-0.355626
-0.354372
-0.3529
-0.351191
-0.349227
-0.346985
-0.34444
-0.34156
-0.338309
-0.33464
-0.330503
-0.325837
-0.320582
-0.314665
-0.308008
-0.300527
-0.292139
-0.282761
-0.272304
-0.260663
-0.247716
-0.233348
-0.217471
-0.200054
-0.181129
-0.358998
-0.359369
-0.359646
-0.359721
-0.359631
-0.359397
-0.359018
-0.358487
-0.357792
-0.356919
-0.355855
-0.354585
-0.353094
-0.351363
-0.349371
-0.347093
-0.344501
-0.341563
-0.338241
-0.334492
-0.330265
-0.325503
-0.320141
-0.314106
-0.307314
-0.299672
-0.291082
-0.281442
-0.270654
-0.25862
-0.245244
-0.230437
-0.214129
-0.1963
-0.176997
-0.359389
-0.359746
-0.360066
-0.360197
-0.36014
-0.359916
-0.359536
-0.358998
-0.358295
-0.357417
-0.35635
-0.355079
-0.353588
-0.351857
-0.349864
-0.347584
-0.344985
-0.342033
-0.338689
-0.334907
-0.330638
-0.325825
-0.320404
-0.314304
-0.307441
-0.299724
-0.291047
-0.281298
-0.270358
-0.258113
-0.244455
-0.229301
-0.212603
-0.194368
-0.174669
-0.0597027
-0.0516939
-0.0441751
-0.037139
-0.0305766
-0.0244771
-0.0188304
-0.0136701
-0.00902567
-0.0039165
-0.058241
-0.0503528
-0.0429519
-0.0360279
-0.0295647
-0.0235437
-0.0179718
-0.0129091
-0.00843517
-0.00380055
-0.0565242
-0.0487219
-0.0414173
-0.0345949
-0.0282325
-0.0223094
-0.0168335
-0.0119094
-0.00767367
-0.00371692
-0.0553577
-0.0474375
-0.0400702
-0.0332319
-0.0268965
-0.0210422
-0.0156792
-0.0109279
-0.00698668
-0.00404645
-0.0560733
-0.0476051
-0.0398089
-0.0326594
-0.0261274
-0.0202001
-0.0148656
-0.0102774
-0.00647682
-0.00497034
-0.0603967
-0.0507565
-0.041957
-0.0339879
-0.0268267
-0.0204648
-0.0148606
-0.0102367
-0.00606649
-0.00655375
-0.0697035
-0.0582529
-0.047796
-0.0383669
-0.0299656
-0.0226111
-0.0161942
-0.0111224
-0.00589101
-0.00889731
-0.0842101
-0.0705353
-0.0579117
-0.0464466
-0.0361897
-0.0272129
-0.0193178
-0.0132115
-0.0061003
-0.0116461
-0.102644
-0.0867097
-0.0717405
-0.057934
-0.0454103
-0.0343146
-0.0243855
-0.0166402
-0.00702297
-0.0141018
-0.122569
-0.104712
-0.0875966
-0.0715102
-0.0566505
-0.0432602
-0.0310365
-0.0212608
-0.00903933
-0.0154671
-0.141159
-0.121945
-0.103163
-0.0851734
-0.0682606
-0.0527442
-0.0383885
-0.0264992
-0.0122298
-0.0151463
-0.156088
-0.1361
-0.116216
-0.0968547
-0.078378
-0.0611839
-0.0451637
-0.0314245
-0.0161614
-0.0129951
-0.166132
-0.145788
-0.125263
-0.10502
-0.0854949
-0.0671425
-0.0500704
-0.0349766
-0.0199107
-0.00937094
-0.171232
-0.150723
-0.12982
-0.109015
-0.0888198
-0.0697442
-0.0521526
-0.0362739
-0.0223788
-0.0049611
-0.172129
-0.151468
-0.130267
-0.10904
-0.0883696
-0.0688297
-0.0510366
-0.0348846
-0.0226475
-0.000500859
-0.169925
-0.149047
-0.127523
-0.105895
-0.0847991
-0.0648827
-0.0469777
-0.0308865
-0.0202801
0.00348063
-0.165691
-0.144559
-0.12271
-0.100694
-0.0791738
-0.0588824
-0.0407699
-0.0248706
-0.0153829
0.0067786
-0.160814
-0.139338
-0.117118
-0.0947101
-0.0727968
-0.0521232
-0.03368
-0.0178969
-0.00864617
0.00935316
-0.156347
-0.134578
-0.112062
-0.0893255
-0.0670252
-0.0459429
-0.027031
-0.0111108
-0.000918599
0.0113478
-0.153658
-0.13159
-0.108839
-0.0858996
-0.0633985
-0.0421264
-0.0230335
-0.00705402
0.00465098
0.0119306
)
;

boundaryField
{
    inlet
    {
        type            zeroGradient;
    }
    outlet
    {
        type            fixedValue;
        value           uniform 0;
    }
    upperWall
    {
        type            zeroGradient;
    }
    lowerWall
    {
        type            zeroGradient;
    }
    frontAndBack
    {
        type            empty;
    }
}


// ************************************************************************* //
