/*--------------------------------*- C++ -*----------------------------------*\
| =========                 |                                                 |
| \\      /  F ield         | OpenFOAM: The Open Source CFD Toolbox           |
|  \\    /   O peration     | Version:  2406                                  |
|   \\  /    A nd           | Website:  www.openfoam.com                      |
|    \\/     M anipulation  |                                                 |
\*---------------------------------------------------------------------------*/
FoamFile
{
    version     2.0;
    format      ascii;
    arch        "LSB;label=32;scalar=64";
    class       surfaceScalarField;
    location    "52";
    object      phi;
}
// * * * * * * * * * * * * * * * * * * * * * * * * * * * * * * * * * * * * * //

dimensions      [0 3 -1 0 0 0 0];

oriented        oriented;

internalField   nonuniform List<scalar> 
3470
(
0.0386078
-0.000607768
0.0395467
-0.000938947
0.0405636
-0.00101695
0.0416621
-0.0010985
0.0428953
-0.00123322
0.04432
-0.00142473
0.0460202
-0.00170027
0.0481458
-0.00212554
0.050939
-0.00279325
-0.0049327
0.0558716
0.101859
-0.000467278
0.102064
-0.00114334
0.102642
-0.0015956
0.103543
-0.00199884
0.104754
-0.00244403
0.106295
-0.00296643
0.108208
-0.00361344
0.110557
-0.00447462
0.113433
-0.00566887
-0.00749668
0.115997
0.149974
-0.000441755
0.150051
-0.00122022
0.150341
-0.00188507
0.150863
-0.00252071
0.151623
-0.00320448
0.152635
-0.00397799
0.153904
-0.00488332
0.155411
-0.00598171
0.157078
-0.00733529
-0.00901719
0.158598
0.181992
-0.00043413
0.182002
-0.00122981
0.182104
-0.001987
0.18233
-0.00274693
0.182684
-0.00355856
0.183163
-0.00445657
0.183752
-0.00547322
0.184416
-0.00664546
0.185085
-0.00800379
-0.00956204
0.185629
0.197967
-0.000401225
0.197885
-0.00114825
0.197802
-0.00190343
0.197744
-0.0026892
0.197712
-0.00352596
0.197691
-0.00443571
0.197659
-0.00544204
0.19758
-0.00656637
0.197397
-0.0078207
-0.00919964
0.197035
0.197926
-0.000327686
0.19773
-0.000952169
0.197456
-0.00162868
0.197123
-0.00235718
0.196727
-0.00312901
0.196245
-0.00395444
0.195654
-0.00485064
0.194916
-0.00582863
0.193985
-0.00688953
-0.0080223
0.192807
0.181871
-0.000198913
0.181544
-0.000624825
0.181082
-0.00116691
0.180498
-0.00177299
0.179773
-0.00240461
0.178886
-0.00306682
0.177808
-0.00377264
0.176504
-0.00452527
0.174934
-0.00531978
-0.00614466
0.173057
0.149777
2.36752e-05
0.149316
-0.000163708
0.148703
-0.000553231
0.147925
-0.000995445
0.146956
-0.00143536
0.145771
-0.00188218
0.144343
-0.00234507
0.142639
-0.00282124
0.140623
-0.00330399
-0.00378511
0.138264
0.101618
0.000406149
0.101143
0.000310779
0.100579
1.10398e-05
0.0998461
-0.000262976
0.0989011
-0.000490332
0.0977172
-0.000698261
0.096269
-0.000896955
0.0945322
-0.00108453
0.0924872
-0.001259
-0.00141933
0.0901213
0.0384061
0.0387169
0.0387279
0.0384649
0.0379746
0.0372763
0.0363794
0.0352948
0.0340358
0.0326165
-7.5264e-05
7.52713e-05
-0.000369864
0.000294608
-0.000803442
0.000433571
-0.00129696
0.000493501
-0.00181592
0.000518927
-0.00235238
0.00053642
-0.00290967
0.000557237
-0.00349509
0.000585349
-0.00411741
0.000622218
-0.00478619
0.000668666
-0.00551152
0.00072519
-0.0063034
0.000791743
-0.00717059
0.000867031
-0.00811858
0.000947838
-0.00914673
0.001028
-0.0102445
0.00109757
-0.0113869
0.00114231
-0.0125305
0.00114343
-0.0136087
0.00107812
-0.0145307
0.000921907
-0.0151828
0.000651993
-0.0154331
0.000250214
-0.0151386
-0.000294614
-0.0141647
-0.000973929
-0.0123973
-0.00176739
-0.00975064
-0.00264671
-0.00617601
-0.00357466
-0.00166498
-0.00451106
0.00374959
-0.00541458
0.00997073
-0.00622118
0.016845
-0.00687427
0.0241706
-0.00732562
0.0316967
-0.00752615
0.0391278
-0.00743111
-0.00701124
0.046139
-0.000377896
0.000453178
-0.00122115
0.00113786
-0.0023206
0.00153299
-0.00353281
0.00170566
-0.00478978
0.00177581
-0.00607027
0.00181679
-0.00737486
0.00186167
-0.00871248
0.00192276
-0.0100942
0.00200371
-0.0115305
0.00210467
-0.0130289
0.00222321
-0.0145909
0.00235344
-0.0162086
0.00248444
-0.0178598
0.00259862
-0.0195024
0.00267032
-0.0210707
0.00266553
-0.0224717
0.00254296
-0.023585
0.00225639
-0.0242658
0.00175873
-0.0243531
0.0010089
-0.023682
-1.92846e-05
-0.0221081
-0.00132374
-0.0195182
-0.00288463
-0.0158206
-0.00467156
-0.0109601
-0.00662792
-0.0049174
-0.00868949
0.0022962
-0.0107883
0.0106239
-0.0128388
0.0199544
-0.0147452
0.0301496
-0.0164164
0.0410343
-0.017759
0.0523882
-0.0186795
0.0639482
-0.0190863
0.0754076
-0.0188905
-0.0180281
0.0864244
-0.000687882
0.00114106
-0.00203054
0.0024805
-0.00365604
0.00315844
-0.00537357
0.00342312
-0.00710003
0.00350219
-0.00880645
0.0035231
-0.010487
0.00354212
-0.0121434
0.00357898
-0.013777
0.00363706
-0.0153842
0.00371169
-0.0169533
0.00379207
-0.0184604
0.00386031
-0.019866
0.00388975
-0.0211113
0.00384358
-0.0221161
0.00367478
-0.0227792
0.0033283
-0.0229816
0.00274509
-0.0225927
0.00186715
-0.0214791
0.000644925
-0.0195226
-0.000947796
-0.0166361
-0.00290586
-0.0127521
-0.00520781
-0.00781929
-0.00781753
-0.00181209
-0.0106788
0.00527621
-0.0137163
0.013419
-0.0168324
0.0225519
-0.0199213
0.0325882
-0.0228753
0.0434221
-0.0255792
0.0549218
-0.0279162
0.0669301
-0.0297675
0.0792568
-0.0310064
0.0916744
-0.0315039
0.103906
-0.0311218
-0.0297497
0.115627
-0.000948774
0.00208983
-0.0026619
0.00419358
-0.004607
0.00510347
-0.00655322
0.00536926
-0.00841269
0.00536159
-0.010155
0.00526531
-0.0117695
0.00515654
-0.013249
0.00505836
-0.014582
0.00496989
-0.0157484
0.00487796
-0.0167169
0.00476038
-0.0174429
0.00458606
-0.0178674
0.00431402
-0.0179171
0.00389302
-0.0175062
0.00326348
-0.0165404
0.00236222
-0.0149239
0.00112826
-0.0125696
-0.000487419
-0.00941133
-0.00251352
-0.00540093
-0.00495834
-0.000497514
-0.00780937
0.00533031
-0.0110357
0.0120909
-0.0145782
0.0197662
-0.0183541
0.0283147
-0.0222648
0.0376781
-0.0261959
0.047781
-0.0300243
0.0585308
-0.0336253
0.0698247
-0.0368733
0.0815513
-0.039643
0.0935873
-0.0418037
0.10579
-0.0432088
0.117983
-0.0436975
0.129919
-0.0430577
-0.0411121
0.141281
-0.00114838
0.00323818
-0.00304441
0.00608952
-0.00502286
0.00708182
-0.00684475
0.00719107
-0.00843891
0.00695566
-0.00978582
0.00661215
-0.0108779
0.00624848
-0.0117051
0.0058855
-0.0122496
0.00551425
-0.012483
0.00511123
-0.0123661
0.00464331
-0.0118497
0.00406938
-0.0108759
0.00333999
-0.00938055
0.00239735
-0.00729647
0.0011791
-0.00456084
-0.000373728
-0.00112116
-0.00231168
0.0030627
-0.00467149
0.00802265
-0.0074736
0.0137789
-0.0107146
0.0203356
-0.0143661
0.0276751
-0.0183753
0.0357602
-0.0226633
0.044534
-0.0271281
0.0539199
-0.0316507
0.0638265
-0.0361026
0.0741549
-0.0403529
0.0848058
-0.0442763
0.0956875
-0.0477551
0.106724
-0.0506793
0.117852
-0.052932
0.129021
-0.0543776
0.140157
-0.0548341
0.151072
-0.0539723
-0.0515244
0.161484
-0.00129208
0.00453023
-0.00312898
0.00792632
-0.00476036
0.00871309
-0.00601814
0.00844874
-0.00689341
0.00783084
-0.00739739
0.00711605
-0.00753566
0.00638666
-0.00730353
0.00565325
-0.00668456
0.00489514
-0.00565139
0.0040779
-0.00416738
0.00315909
-0.00218891
0.00209069
0.000330611
0.000820195
0.00343852
-0.000710815
0.00717982
-0.00256245
0.0115931
-0.00478715
0.0167045
-0.0074233
0.0225267
-0.0104938
0.0290545
-0.0140014
0.0362644
-0.0179245
0.0441114
-0.0222131
0.0525267
-0.0267907
0.0614198
-0.0315564
0.0706822
-0.0363904
0.080194
-0.0411626
0.0898334
-0.0457421
0.0994871
-0.0500067
0.109062
-0.0538515
0.118498
-0.057191
0.127778
-0.0599593
0.136932
-0.0620858
0.146051
-0.0634967
0.155233
-0.0640166
0.164487
-0.0632263
-0.0608767
0.173839
-0.00137228
0.00590248
-0.00278897
0.00934285
-0.00352091
0.0094449
-0.00363764
0.00856533
-0.00326258
0.00745566
-0.00245146
0.00630481
-0.001223
0.00515808
0.000422472
0.00400764
0.00249892
0.00281855
0.00503189
0.00154478
0.00805392
0.000136898
0.0116045
-0.00146007
0.015728
-0.00330342
0.0204613
-0.0054443
0.0258271
-0.00792835
0.0318317
-0.0107919
0.0384642
-0.014056
0.0456931
-0.0177227
0.0534627
-0.0217711
0.0616925
-0.0261544
0.0702783
-0.030799
0.0790952
-0.0356076
0.0880031
-0.0404643
0.0968546
-0.045242
0.105505
-0.0498128
0.113822
-0.0540591
0.1217
-0.0578847
0.129073
-0.0612247
0.135932
-0.0640505
0.142345
-0.0663723
0.148469
-0.0682101
0.15458
-0.0696071
0.160998
-0.0704345
0.168183
-0.0704115
-0.0699953
0.177301
-0.0012774
0.00717981
-0.00145317
0.0095185
-0.000337798
0.00832935
0.00149289
0.00673449
0.00375573
0.00519269
0.00638908
0.00367136
0.00938854
0.0021585
0.0127644
0.000631685
0.016543
-0.000960156
0.0207645
-0.00267686
0.0254712
-0.00456993
0.0306946
-0.00668356
0.036451
-0.00905993
0.042743
-0.0117364
0.049556
-0.0147415
0.0568543
-0.0180902
0.0645788
-0.0217805
0.0726461
-0.02579
0.0809483
-0.0300735
0.0893563
-0.0345624
0.0977235
-0.0391662
0.105892
-0.0437766
0.113702
-0.0482741
0.120997
-0.0525369
0.127636
-0.0564512
0.1335
-0.0599233
0.138507
-0.0628923
0.142626
-0.0653432
0.145896
-0.067321
0.148467
-0.0689438
0.150659
-0.0704022
0.153016
-0.0719641
0.156325
-0.073743
0.161773
-0.0758603
-0.0800734
0.171851
4.22663e-06
0.00717553
0.00337076
0.00615176
0.00784218
0.00385776
0.0125027
0.00207385
0.0172324
0.000462833
0.0220811
-0.00117744
0.0271172
-0.00287768
0.0324029
-0.00465414
0.0379879
-0.00654532
0.0439049
-0.00859397
0.0501725
-0.0108376
0.0567967
-0.0133078
0.0637673
-0.0160306
0.0710548
-0.019024
0.0786082
-0.022295
0.0863542
-0.0258362
0.0941968
-0.0296232
0.102019
-0.0336126
0.109687
-0.0377414
0.117053
-0.0419278
0.12396
-0.046074
0.130255
-0.0500708
0.135785
-0.0538049
0.140416
-0.0571674
0.144029
-0.0600643
0.146534
-0.0624282
0.147873
-0.0642321
0.148035
-0.0655053
0.147071
-0.0663567
0.145134
-0.0670065
0.142588
-0.0678566
0.140186
-0.0695621
0.139658
-0.0732158
0.143878
-0.0800798
-0.090146
0.15395
0.0113087
-0.00413329
0.0207599
-0.00329965
0.0286975
-0.00407999
0.0359592
-0.00518795
0.0428261
-0.00640416
0.0494619
-0.00781332
0.0560024
-0.00941823
0.0625482
-0.0112
0.0691634
-0.0131607
0.0758832
-0.0153139
0.0827191
-0.0176736
0.0896616
-0.0202503
0.0966799
-0.0230489
0.103722
-0.0260666
0.110717
-0.0292899
0.117573
-0.0326918
0.12418
-0.0362305
0.130416
-0.0398483
0.136146
-0.0434719
0.141232
-0.0470142
0.145536
-0.0503775
0.148924
-0.0534586
0.151275
-0.0561558
0.152484
-0.0583771
0.15247
-0.0600499
0.151173
-0.061132
0.148565
-0.0616237
0.144642
-0.0615826
0.13943
-0.0611449
0.132982
-0.0605585
0.125399
-0.0602731
0.116905
-0.0610688
0.108507
-0.0648173
0.103792
-0.0753655
-0.0983929
0.112039
0.0597948
-0.00805663
0.065809
-0.0093139
0.0718794
-0.0101505
0.0778978
-0.0112064
0.0839116
-0.012418
0.0898851
-0.0137869
0.0958123
-0.0153455
0.10171
-0.017098
0.107588
-0.0190381
0.113437
-0.0211633
0.119236
-0.0234725
0.124946
-0.0259612
0.130516
-0.0286187
0.135876
-0.0314264
0.140941
-0.0343554
0.145615
-0.0373657
0.149789
-0.0404044
0.153347
-0.043406
0.156169
-0.0462935
0.158135
-0.0489804
0.159132
-0.051375
0.159059
-0.0533854
0.157829
-0.0549263
0.15538
-0.0559271
0.15167
-0.0563401
0.146687
-0.0561492
0.140442
-0.0553787
0.13296
-0.054101
0.124262
-0.0524472
0.114322
-0.0506181
0.102965
-0.0489162
0.0896526
-0.0477565
0.0727569
-0.0479218
0.047868
-0.0504766
-0.050525
0.117728
-0.0097878
0.120058
-0.0116436
0.12296
-0.0130532
0.1262
-0.0144458
0.129702
-0.0159207
0.133389
-0.017474
0.137175
-0.0191308
0.140992
-0.0209152
0.144787
-0.0228334
0.148507
-0.0248831
0.152092
-0.0270581
0.155478
-0.0293472
0.158591
-0.0317317
0.161349
-0.034184
0.16366
-0.0366669
0.165428
-0.0391331
0.166548
-0.0415252
0.166918
-0.043776
0.166436
-0.0458108
0.165006
-0.0475507
0.162547
-0.0489163
0.158996
-0.0498342
0.154313
-0.050243
0.148486
-0.0501002
0.141535
-0.0493891
0.133509
-0.0481233
0.12448
-0.0463503
0.114531
-0.0441516
0.103723
-0.041639
0.0920513
-0.0389469
0.0793567
-0.0362217
0.0651881
-0.033588
0.0484659
-0.0311997
0.0269735
-0.0289844
-0.0235515
0.159773
-0.010963
0.160951
-0.0128213
0.162333
-0.0144356
0.163859
-0.0159713
0.165475
-0.0175373
0.167148
-0.0191469
0.168826
-0.0208091
0.170451
-0.0225402
0.171965
-0.024347
0.173307
-0.0262251
0.174412
-0.0281635
0.17521
-0.0301449
0.175623
-0.032145
0.17557
-0.0341307
0.174964
-0.0360609
0.173717
-0.0378861
0.171741
-0.0395495
0.168954
-0.040989
0.165282
-0.0421395
0.160669
-0.042937
0.155076
-0.0433235
0.148494
-0.0432524
0.140945
-0.0426937
0.132484
-0.0416395
0.123202
-0.040107
0.113218
-0.0381392
0.10267
-0.0358024
0.0916969
-0.0331787
0.08041
-0.0303522
0.06885
-0.027387
0.0569228
-0.0242946
0.0443319
-0.0209972
0.0305208
-0.0173887
0.0149535
-0.0134172
-0.00859801
0.185938
-0.0112719
0.186094
-0.0129773
0.186227
-0.0145679
0.186339
-0.0160834
0.186391
-0.0175897
0.186351
-0.0191071
0.186181
-0.0206388
0.185831
-0.0221903
0.185247
-0.0237631
0.184372
-0.0253501
0.183145
-0.0269361
0.1815
-0.0285
0.179368
-0.0300139
0.176681
-0.0314432
0.173367
-0.0327473
0.169361
-0.0338803
0.164605
-0.0347931
0.159052
-0.0354361
0.152675
-0.0357621
0.145468
-0.0357306
0.137457
-0.0353119
0.128696
-0.0344916
0.119276
-0.0332738
0.109319
-0.031683
0.0989765
-0.029764
0.0884155
-0.0275783
0.0778099
-0.0251969
0.0673189
-0.0226877
0.0570611
-0.0200945
0.04708
-0.0174059
0.0373048
-0.0145195
0.0275491
-0.0112415
0.017608
-0.00744778
0.00769201
-0.00350141
-0.000906021
0.196429
-0.0106662
0.195594
-0.0121421
0.194584
-0.0135585
0.193411
-0.0149103
0.192048
-0.0162262
0.190462
-0.0175215
0.18862
-0.0187969
0.18648
-0.0200506
0.183996
-0.0212788
0.181118
-0.0224717
0.177794
-0.0236126
0.173974
-0.0246797
0.169606
-0.0256461
0.164644
-0.0264811
0.159047
-0.0271508
0.152787
-0.0276203
0.14585
-0.0278557
0.13824
-0.0278271
0.12999
-0.0275113
0.121154
-0.026895
0.11182
-0.0259775
0.102101
-0.024773
0.0921376
-0.0233106
0.0820884
-0.0216339
0.0721217
-0.0197974
0.0624047
-0.0178613
0.0530901
-0.0158824
0.0443012
-0.0138988
0.0361115
-0.0119049
0.0285219
-0.00981638
0.0214533
-0.00745099
0.014801
-0.00458935
0.00859146
-0.00123836
0.00326381
0.00182609
0.00235777
0.191341
-0.00919939
0.189574
-0.0103755
0.187522
-0.0115066
0.185188
-0.0125764
0.182554
-0.0135924
0.179594
-0.0145618
0.176281
-0.0154836
0.172584
-0.0163531
0.168468
-0.0171637
0.163903
-0.0179058
0.158855
-0.0185649
0.153298
-0.0191234
0.147213
-0.0195611
0.140589
-0.0198571
0.133429
-0.0199906
0.125752
-0.0199429
0.117595
-0.0196992
0.109019
-0.019251
0.100105
-0.0185975
0.0909573
-0.017747
0.0816975
-0.0167178
0.072462
-0.0155376
0.0633937
-0.0142424
0.0546335
-0.0128737
0.0463115
-0.0114754
0.0385393
-0.0100892
0.0314033
-0.00874645
0.024957
-0.00745271
0.0192127
-0.00616061
0.0141363
-0.00474014
0.0096716
-0.00298638
0.00581753
-0.00073542
0.00273047
0.00184853
0.000732082
0.00382434
0.00308983
0.170837
-0.00698002
0.16826
-0.00779761
0.165322
-0.00856915
0.162025
-0.00927917
0.158359
-0.00992652
0.154311
-0.010514
0.149868
-0.0110408
0.145018
-0.0115036
0.139752
-0.0118977
0.134064
-0.0122171
0.127953
-0.0124539
0.121428
-0.0125984
0.114508
-0.0126412
0.107224
-0.0125736
0.0996219
-0.0123887
0.091762
-0.012083
0.0837197
-0.011657
0.0755847
-0.0111161
0.0674579
-0.0104708
0.0594478
-0.00973693
0.0516646
-0.00893466
0.0442142
-0.00808734
0.0371917
-0.00721991
0.0306754
-0.00635744
0.0247236
-0.00552373
0.0193738
-0.00473945
0.014643
-0.00401575
0.0105293
-0.0033391
0.0070156
-0.00264707
0.00408349
-0.00180817
0.00174705
-0.000650087
0.000102406
0.000909057
-0.000683677
0.00263445
-0.000544359
0.00368486
0.00254545
0.135537
-0.00425284
0.13243
-0.00469152
0.128947
-0.00508561
0.125094
-0.00542612
0.12088
-0.00571235
0.116313
-0.00594737
0.111405
-0.00613317
0.106172
-0.00627007
0.100631
-0.00635764
0.0948093
-0.00639499
0.0887359
-0.0063806
0.0824501
-0.00631268
0.0759987
-0.00618985
0.0694369
-0.00601184
0.062828
-0.0057799
0.056242
-0.00549713
0.0497535
-0.00516867
0.043439
-0.00480162
0.0373728
-0.00440476
0.0316239
-0.00398807
0.0262512
-0.00356213
0.0213014
-0.00313757
0.0168058
-0.00272443
0.0127803
-0.00233206
0.00922595
-0.00196953
0.0061321
-0.00164572
0.00347991
-0.00136369
0.00124911
-0.00110844
-0.000567224
-0.000830893
-0.00193823
-0.000437311
-0.00277032
0.000181839
-0.00291988
0.00105845
-0.00228139
0.00199575
-0.00102511
0.0024284
0.00152032
0.0874314
-0.00156297
0.0844254
-0.00168551
0.0811224
-0.00178272
0.0775494
-0.0018532
0.0737361
-0.00189908
0.0697126
-0.00192396
0.06551
-0.00193065
0.0611606
-0.00192078
0.0566984
-0.00189546
0.0521588
-0.00185554
0.0475798
-0.00180165
0.0430014
-0.00173433
0.0384656
-0.00165423
0.0340161
-0.00156236
0.0296961
-0.0014601
0.0255481
-0.00134919
0.0216111
-0.00123174
0.0179195
-0.00111008
0.0145013
-0.000986721
0.0113772
-0.000864087
0.0085597
-0.000744685
0.00605325
-0.000631248
0.00385415
-0.000525444
0.00195081
-0.000428827
0.00032526
-0.000344094
-0.00104715
-0.000273415
-0.00219308
-0.000217878
-0.00312915
-0.000172489
-0.00384274
-0.000117419
-0.00426575
-1.44298e-05
-0.00426572
0.000181678
-0.00369185
0.000484428
-0.00250501
0.000808756
-0.000995217
0.000918482
0.000525083
0.0310535
0.0293679
0.0275852
0.025732
0.0238329
0.0219089
0.0199782
0.0180574
0.0161619
0.0143064
0.0125047
0.0107704
0.00911612
0.00755374
0.00609362
0.00474441
0.00351266
0.00240257
0.00141583
0.000551728
-0.000192973
-0.000824237
-0.0013497
-0.00177854
-0.00212265
-0.00239608
-0.00261397
-0.00278647
-0.00290391
-0.00291835
-0.00273669
-0.00225228
-0.00144355
-0.000525083
0.0524031
-0.00626412
0.0576313
-0.00522812
0.0616252
-0.0039938
0.0643071
-0.00268187
0.0657057
-0.00139845
0.0659145
-0.000208724
0.0650882
0.00082632
0.0634394
0.00164886
0.0611938
0.00224567
0.00263785
0.058556
0.0966421
-0.0164817
0.105733
-0.0143192
0.113467
-0.0117277
0.11974
-0.00895486
0.124548
-0.00620597
0.127957
-0.00361804
0.130062
-0.0012779
0.130951
0.000759981
0.130739
0.00245738
0.00380364
0.129573
0.126474
-0.0273291
0.136106
-0.0239512
0.144333
-0.019954
0.151133
-0.0157549
0.156575
-0.0116476
0.160757
-0.00780061
0.163805
-0.0043262
0.165859
-0.00129365
0.167038
0.00127874
0.00340686
0.167435
0.151653
-0.037701
0.160634
-0.0329325
0.168091
-0.0274113
0.174117
-0.0217809
0.178856
-0.016386
0.182452
-0.0113968
0.185064
-0.00693829
0.186853
-0.00308254
0.187966
0.000165314
0.00284585
0.188527
0.170847
-0.0470644
0.178652
-0.040738
0.184865
-0.0336236
0.189675
-0.0265918
0.193245
-0.0199558
0.195741
-0.0138931
0.197371
-0.00856782
0.198336
-0.00404844
0.198809
-0.00030761
0.0027299
0.198925
0.182263
-0.0554881
0.188816
-0.0472909
0.193525
-0.0383327
0.196611
-0.0296783
0.198291
-0.0216361
0.198911
-0.0145135
0.198858
-0.00851411
0.198434
-0.00362445
0.197841
0.000284747
0.00337199
0.197199
0.185425
-0.0636125
0.190055
-0.051921
0.191566
-0.0398438
0.190676
-0.0287885
0.188281
-0.0192403
0.185337
-0.0115698
0.182516
-0.00569292
0.180135
-0.00124375
0.178278
0.00214109
0.00473319
0.176917
0.177512
-0.0692733
0.174806
-0.049215
0.167365
-0.0324029
0.158254
-0.0196776
0.149631
-0.0106171
0.142654
-0.00459304
0.137569
-0.000608394
0.134218
0.00210744
0.132336
0.00402253
0.00551273
0.131556
0.143842
-0.0591651
0.122868
-0.0282411
0.102358
-0.0118933
0.0867961
-0.00411543
0.0765834
-0.000404502
0.0706989
0.00129111
0.068034
0.00205616
0.067701
0.00243972
0.0689606
0.00276227
0.00356076
0.0709119
0.0528742
0.024633
0.0127397
0.0086242
0.00821965
0.00951068
0.0115667
0.0140062
0.0167683
0.0203288
0.0556981
0.002858
0.0527566
0.00294166
0.0498321
0.00292466
0.0469921
0.00284029
0.0442757
0.00271663
0.0417009
0.00257506
0.039271
0.00243024
0.0369799
0.00229152
0.034816
0.00216427
0.0327655
0.00205101
0.0308137
0.00195219
0.0289473
0.00186703
0.0271539
0.00179399
0.0254232
0.00173129
0.0237469
0.00167697
0.0221184
0.00162919
0.020533
0.0015861
0.0189876
0.00154606
0.0174808
0.00150748
0.0160124
0.00146899
0.0145836
0.00142932
0.0131966
0.00138742
0.0118545
0.00134246
0.0105609
0.00129382
0.00931995
0.00124112
0.0081358
0.00118424
0.00701253
0.00112328
0.0059539
0.00105856
0.00496314
0.000990625
0.00404275
0.000920187
0.00319441
0.000848103
0.00241881
0.000775309
0.00171573
0.000702783
0.00108395
0.000631491
0.000562322
0.000521364
0.127613
0.0048188
0.125014
0.00554103
0.121921
0.00601752
0.118463
0.00629913
0.114745
0.00643449
0.110855
0.00646532
0.106861
0.00642514
0.102813
0.00634002
0.0987482
0.00622978
0.0946911
0.00610876
0.0906573
0.00598676
0.0866552
0.00586998
0.0826881
0.005762
0.078756
0.00566439
0.0748568
0.00557725
0.0709875
0.00549951
0.0671455
0.00542927
0.0633287
0.00536391
0.0595368
0.0053004
0.0557714
0.00523532
0.0520363
0.00516517
0.048338
0.00508645
0.0446851
0.00499589
0.0410887
0.0048906
0.0375619
0.00476822
0.0341191
0.00462706
0.0307762
0.0044662
0.027549
0.00428555
0.0244534
0.00408594
0.0215042
0.00386901
0.0187146
0.00363722
0.0160957
0.00339366
0.013656
0.00314196
0.011401
0.00288599
0.00262975
0.00933305
0.167135
0.00511841
0.16622
0.00645661
0.164763
0.00747489
0.16283
0.00823184
0.160482
0.0087832
0.157771
0.00917629
0.154746
0.00944973
0.151452
0.00963526
0.147923
0.00975872
0.144192
0.00984044
0.140283
0.00989579
0.136218
0.00993615
0.132011
0.00996958
0.127674
0.0100015
0.123217
0.010035
0.118646
0.0100711
0.113967
0.0101094
0.109184
0.0101476
0.104303
0.0101825
0.0993295
0.0102094
0.0942724
0.010223
0.0891422
0.0102173
0.0839525
0.0101861
0.0787204
0.0101232
0.0734662
0.0100227
0.0682139
0.00987965
0.0629904
0.00968988
0.0578252
0.00945077
0.0527499
0.00916123
0.0477968
0.00882202
0.042998
0.00843579
0.0383843
0.00800707
0.0339838
0.0075421
0.0298209
0.00704857
0.00653517
0.025915
0.18863
0.00501532
0.188348
0.00673885
0.187732
0.00809146
0.186812
0.00915173
0.185607
0.00998847
0.184128
0.0106548
0.182386
0.0111919
0.180389
0.0116329
0.178143
0.0120049
0.175655
0.012329
0.172929
0.0126217
0.16997
0.0128955
0.16678
0.0131597
0.163362
0.013421
0.159714
0.0136834
0.155836
0.0139491
0.151728
0.0142179
0.147389
0.0144877
0.142818
0.0147547
0.138015
0.0150131
0.132983
0.0152557
0.127726
0.0154739
0.122255
0.0156581
0.11658
0.0157982
0.11072
0.0158834
0.104696
0.0159037
0.0985369
0.0158495
0.0922753
0.0157126
0.0859499
0.0154867
0.0796042
0.0151678
0.073285
0.0147549
0.0670419
0.0142501
0.0609251
0.0136587
0.0549839
0.0129896
0.0122545
0.0492644
0.198785
0.00515544
0.198464
0.00706036
0.198005
0.00855006
0.197425
0.00973179
0.196724
0.0106894
0.195898
0.0114811
0.194939
0.0121505
0.193839
0.0127329
0.192588
0.0132558
0.191176
0.0137407
0.189594
0.0142041
0.187831
0.0146591
0.185875
0.0151159
0.183714
0.0155819
0.181336
0.0160621
0.178727
0.0165593
0.175871
0.0170738
0.172755
0.017604
0.169365
0.0181458
0.165685
0.0186931
0.161704
0.0192373
0.15741
0.0197681
0.152796
0.020273
0.147856
0.0207382
0.142592
0.0211484
0.137008
0.0214879
0.131118
0.0217405
0.12494
0.0218907
0.118503
0.0219242
0.111842
0.0218288
0.105002
0.0215954
0.0980339
0.0212182
0.0909967
0.0206962
0.0839535
0.0200331
0.0192379
0.0769702
0.196583
0.00577143
0.196046
0.00759701
0.195599
0.00899703
0.195216
0.0101147
0.194866
0.0110397
0.194521
0.0118253
0.19416
0.0125119
0.19376
0.0131326
0.193304
0.013712
0.192775
0.0142691
0.19216
0.0148192
0.191444
0.0153755
0.190611
0.0159486
0.189647
0.0165467
0.188533
0.0171763
0.187251
0.0178415
0.18578
0.0185445
0.1841
0.0192849
0.182186
0.0200602
0.180014
0.0208653
0.17756
0.0216925
0.174797
0.0225314
0.171701
0.0233691
0.168249
0.0241902
0.164421
0.024977
0.1602
0.0257098
0.155573
0.0263675
0.150536
0.0269281
0.145092
0.0273694
0.139251
0.02767
0.133036
0.0278105
0.126481
0.0277743
0.119628
0.0275492
0.112534
0.0271279
0.0265099
0.105262
0.176034
0.00665376
0.175616
0.00801501
0.175581
0.00903178
0.175819
0.00987632
0.176242
0.010617
0.176782
0.0112844
0.177389
0.0119048
0.178023
0.0124988
0.178654
0.0130805
0.179261
0.0136617
0.179826
0.0142533
0.180336
0.014866
0.180775
0.015509
0.181132
0.0161906
0.18139
0.0169181
0.181534
0.017697
0.181548
0.0185313
0.18141
0.0194231
0.181098
0.0203722
0.180588
0.021376
0.179851
0.0224294
0.178859
0.0235242
0.177579
0.0246494
0.175978
0.0257908
0.174024
0.0269313
0.171684
0.0280506
0.168926
0.0291259
0.165722
0.030132
0.162051
0.0310418
0.157894
0.0318272
0.153245
0.0324601
0.148107
0.0329135
0.142493
0.0331633
0.136433
0.0331891
0.0329765
0.129967
0.131712
0.00649736
0.13271
0.00701596
0.134284
0.0074577
0.136215
0.00794439
0.138362
0.00846953
0.140625
0.00902122
0.142934
0.00959565
0.145243
0.0101888
0.147525
0.010798
0.149762
0.0114246
0.151941
0.0120736
0.154055
0.0127519
0.156096
0.013467
0.15806
0.014227
0.159938
0.0150395
0.161724
0.0159116
0.163406
0.0168493
0.164972
0.0178572
0.166406
0.0189383
0.167689
0.0200934
0.168797
0.0213207
0.169706
0.0226158
0.170385
0.023971
0.1708
0.0253755
0.170917
0.026815
0.170696
0.0282717
0.170098
0.0297243
0.169082
0.0311478
0.16761
0.0325143
0.165645
0.0337929
0.163155
0.0349509
0.160115
0.0359546
0.156508
0.0367704
0.152331
0.0373669
0.0377165
0.147592
0.0735924
0.00381629
0.0772403
0.00336754
0.0813074
0.00339001
0.085536
0.0037152
0.0897863
0.00421866
0.0939785
0.00482831
0.0980782
0.00549524
0.102076
0.00619073
0.105971
0.00690229
0.109767
0.00762739
0.113471
0.00836881
0.11709
0.00913265
0.120629
0.00992716
0.124094
0.0107617
0.127488
0.0116458
0.13081
0.0125887
0.13406
0.013599
0.137233
0.0146845
0.14032
0.0158516
0.143308
0.017105
0.146181
0.0184472
0.148919
0.0198779
0.151496
0.0213939
0.153883
0.0229888
0.156045
0.0246527
0.157945
0.0263718
0.159541
0.0281285
0.160788
0.0299008
0.161639
0.0316629
0.162048
0.0333846
0.161967
0.0350324
0.161353
0.0365697
0.160166
0.0379581
0.158374
0.0391591
0.0401352
0.155956
0.0254883
-0.00134395
0.0312498
-0.00239473
0.0368653
-0.00222634
0.0421964
-0.00161676
0.0472625
-0.000848335
0.052105
-1.51008e-05
0.0567723
0.000826986
0.0613059
0.00165618
0.0657361
0.00247107
0.0700862
0.00327641
0.0743753
0.00407881
0.07862
0.00488718
0.0828337
0.00571277
0.0870271
0.0065677
0.0912086
0.0074638
0.0953843
0.00841257
0.0995577
0.00942521
0.103729
0.0105125
0.107896
0.0116844
0.112051
0.0129493
0.116185
0.0143137
0.12028
0.015782
0.124318
0.0173559
0.128272
0.019034
0.132113
0.0208117
0.135804
0.0226807
0.139304
0.0246284
0.142567
0.0266378
0.145543
0.0286868
0.148179
0.0307487
0.15042
0.0327919
0.15221
0.0347801
0.153495
0.0366737
0.154224
0.0384308
0.0400084
0.154352
0.00397664
-0.00532097
0.00848797
-0.00690724
0.0126913
-0.00643079
0.0166943
-0.005621
0.0205495
-0.00470472
0.0242989
-0.00376579
0.0279868
-0.00286234
0.0316529
-0.00201123
0.0353249
-0.00120228
0.0390231
-0.000423037
0.0427632
0.000337562
0.0465567
0.00109262
0.0504128
0.00185574
0.05434
0.0026396
0.0583465
0.00345659
0.0624396
0.00431887
0.066625
0.00523919
0.0709067
0.00623021
0.0752864
0.007304
0.0797634
0.00847167
0.0843334
0.00974303
0.0889883
0.0111264
0.0937153
0.0126281
0.0984963
0.0142523
0.103307
0.0160004
0.108117
0.0178703
0.112889
0.0198559
0.11758
0.0219465
0.12214
0.0241263
0.126515
0.0263738
0.130646
0.0286614
0.13447
0.0309562
0.137925
0.0332198
0.140946
0.0354101
0.0374824
0.143472
-0.000289168
-0.00503244
0.000704553
-0.00790227
0.00237109
-0.00809865
0.00427975
-0.00753108
0.00631376
-0.00674024
0.00844917
-0.00590283
0.0106802
-0.00509505
0.013007
-0.00433972
0.0154343
-0.00363131
0.017968
-0.00295832
0.0206142
-0.00231008
0.0233813
-0.00167581
0.0262792
-0.00104329
0.0293174
-0.000399693
0.0325055
0.000267608
0.0358513
0.000972201
0.0393619
0.00172778
0.0430441
0.00254715
0.0469049
0.00344234
0.05095
0.00442558
0.0551838
0.00550826
0.0596079
0.0067012
0.0642206
0.00801424
0.0690154
0.00945645
0.0739797
0.0110349
0.0790947
0.0127544
0.0843339
0.0146159
0.0896633
0.0166165
0.0950412
0.0187481
0.100418
0.0209965
0.105739
0.0233408
0.110942
0.0257533
0.115962
0.0281999
0.120731
0.0306413
0.0330341
0.12518
-0.000916275
-0.00411669
-0.00160607
-0.00721399
-0.00174526
-0.00796094
-0.00150556
-0.00777233
-0.0010029
-0.00724457
-0.000288158
-0.00661938
0.000610709
-0.00599583
0.00167612
-0.00540707
0.00289951
-0.00485662
0.00427788
-0.00433851
0.005811
-0.00384491
0.0075007
-0.00336706
0.00935073
-0.00289469
0.0113662
-0.00241637
0.0135534
-0.00192053
0.0159213
-0.00139655
0.0184811
-0.000832633
0.0212441
-0.000216566
0.0242219
0.000463982
0.0274254
0.00122123
0.0308664
0.00206665
0.0345557
0.00301083
0.0385033
0.00406557
0.0427156
0.0052428
0.0471947
0.00655458
0.0519366
0.00801126
0.0569306
0.00962074
0.0621585
0.0113878
0.0675931
0.0133129
0.073199
0.0153903
0.0789325
0.0176072
0.0847428
0.0199431
0.0905727
0.0223702
0.0963596
0.0248546
0.0273573
0.102037
-0.000981271
-0.00313616
-0.00228933
-0.00590753
-0.00338007
-0.00687177
-0.0041884
-0.00696557
-0.00474089
-0.00669373
-0.0050671
-0.00629487
-0.00519137
-0.00587335
-0.00513204
-0.00546821
-0.00490115
-0.00508931
-0.00450563
-0.00473578
-0.00394884
-0.00440334
-0.00323129
-0.00408611
-0.00235062
-0.00377662
-0.00130174
-0.00346625
-7.73203e-05
-0.00314564
0.00133101
-0.00280524
0.0029318
-0.00243361
0.00473476
-0.00201947
0.00675132
-0.00155264
0.00899621
-0.00102367
0.0114854
-0.00042296
0.0142363
0.000259261
0.0172674
0.00103337
0.0205966
0.00191223
0.0242375
0.0029121
0.0281996
0.00404764
0.0324879
0.00533126
0.0371005
0.00677422
0.0420281
0.00838468
0.0472526
0.0101655
0.0527476
0.012112
0.0584797
0.0142109
0.0644081
0.0164419
0.070485
0.0187776
0.0211856
0.0766567
-0.000923587
-0.00221321
-0.00241138
-0.00442151
-0.00392621
-0.0053586
-0.00529624
-0.00559718
-0.00648143
-0.00551014
-0.00748168
-0.00529624
-0.00830779
-0.00504884
-0.00897175
-0.00480583
-0.00948316
-0.00457941
-0.00984869
-0.00437163
-0.0100724
-0.00418085
-0.0101558
-0.0040037
-0.0100977
-0.00383553
-0.00989394
-0.0036704
-0.0095381
-0.00350171
-0.00902127
-0.00332193
-0.00833217
-0.00312253
-0.00745671
-0.00289448
-0.0063797
-0.00262935
-0.00508445
-0.00231855
-0.00355435
-0.00195308
-0.00177241
-0.00152287
0.000277303
-0.00101707
0.00261369
-0.000425033
0.00526051
0.000264178
0.00824202
0.00106514
0.0115777
0.0019946
0.0152814
0.00306977
0.0193602
0.00430543
0.0238117
0.00571373
0.0286266
0.00729698
0.0337901
0.0090475
0.0392801
0.0109519
0.0450678
0.01299
0.0151358
0.0511175
-0.000810267
-0.00140374
-0.00225436
-0.00297926
-0.00386478
-0.00374993
-0.00544431
-0.0040193
-0.00692107
-0.00403498
-0.00827415