/*--------------------------------*- C++ -*----------------------------------*\
| =========                 |                                                 |
| \\      /  F ield         | OpenFOAM: The Open Source CFD Toolbox           |
|  \\    /   O peration     | Version:  2406                                  |
|   \\  /    A nd           | Website:  www.openfoam.com                      |
|    \\/     M anipulation  |                                                 |
\*---------------------------------------------------------------------------*/
FoamFile
{
    version     2.0;
    format      ascii;
    arch        "LSB;label=32;scalar=64";
    class       volVectorField;
    location    "52";
    object      U;
}
// * * * * * * * * * * * * * * * * * * * * * * * * * * * * * * * * * * * * * //

dimensions      [0 1 -1 0 0 0 0];

internalField   nonuniform List<vector> 
1800
(
(0.380128 -0.0038885 0)
(0.389622 -0.0061678 0)
(0.400468 -0.00574591 0)
(0.41103 -0.00526776 0)
(0.422435 -0.00534365 0)
(0.435558 -0.00588164 0)
(0.451037 -0.00695245 0)
(0.469579 -0.00889189 0)
(0.494004 -0.0124064 0)
(0.516944 -0.0363246 0)
(1.01607 -0.00499797 0)
(1.01762 -0.0114769 0)
(1.02302 -0.0148778 0)
(1.03046 -0.0173782 0)
(1.04071 -0.0201819 0)
(1.05434 -0.0236827 0)
(1.07155 -0.0282898 0)
(1.0926 -0.0348589 0)
(1.11821 -0.0444414 0)
(1.14599 -0.0613155 0)
(1.49719 -0.00436182 0)
(1.49849 -0.0116514 0)
(1.5018 -0.0174866 0)
(1.50583 -0.0229413 0)
(1.51182 -0.0288376 0)
(1.52054 -0.0355885 0)
(1.53197 -0.0436462 0)
(1.54587 -0.0537661 0)
(1.56182 -0.0669082 0)
(1.57836 -0.084767 0)
(1.81764 -0.00419993 0)
(1.81858 -0.0121297 0)
(1.82059 -0.0194881 0)
(1.82227 -0.0267624 0)
(1.82476 -0.0345116 0)
(1.82879 -0.0431368 0)
(1.83422 -0.0530337 0)
(1.84061 -0.0646995 0)
(1.84742 -0.0786069 0)
(1.85378 -0.0950469 0)
(1.97775 -0.00401407 0)
(1.97807 -0.0118827 0)
(1.97869 -0.0196473 0)
(1.97807 -0.0275921 0)
(1.97724 -0.0360493 0)
(1.97687 -0.0453124 0)
(1.97672 -0.0556694 0)
(1.97631 -0.067407 0)
(1.97514 -0.0807185 0)
(1.97259 -0.0955884 0)
(1.97765 -0.00351387 0)
(1.97726 -0.0105721 0)
(1.97639 -0.0178907 0)
(1.97346 -0.0256191 0)
(1.96944 -0.0338497 0)
(1.96496 -0.0427355 0)
(1.95973 -0.0524677 0)
(1.95324 -0.0631995 0)
(1.94501 -0.0749848 0)
(1.93458 -0.0877225 0)
(1.81736 -0.00256549 0)
(1.81617 -0.00807589 0)
(1.8138 -0.0142732 0)
(1.80864 -0.0210248 0)
(1.80172 -0.0281711 0)
(1.7936 -0.0357703 0)
(1.78392 -0.043952 0)
(1.77216 -0.0527795 0)
(1.75789 -0.0622244 0)
(1.74074 -0.0721599 0)
(1.49675 -0.000946843 0)
(1.4946 -0.00419166 0)
(1.49089 -0.00886932 0)
(1.48397 -0.0141447 0)
(1.47488 -0.0195551 0)
(1.46408 -0.0251478 0)
(1.45116 -0.0310413 0)
(1.43564 -0.0372446 0)
(1.41712 -0.0436886 0)
(1.39531 -0.0502565 0)
(1.01553 0.001548 0)
(1.01275 0.00135513 0)
(1.00926 -0.00162421 0)
(1.00288 -0.00537023 0)
(0.994245 -0.00897804 0)
(0.983608 -0.0124553 0)
(0.970571 -0.0159043 0)
(0.954733 -0.019306 0)
(0.935864 -0.0226005 0)
(0.913831 -0.0257286 0)
(0.379586 0.00234749 0)
(0.385121 0.00252344 0)
(0.387981 0.000688017 0)
(0.386669 -0.00089188 0)
(0.382644 -0.00190294 0)
(0.376641 -0.00265228 0)
(0.368683 -0.00328962 0)
(0.358773 -0.00381697 0)
(0.34703 -0.00422776 0)
(0.333609 -0.00453529 0)
(-8.22021e-06 -2.10062e-05 0)
(-0.00190927 0.000518874 0)
(-0.00565197 0.000877414 0)
(-0.0104036 0.00101115 0)
(-0.0155198 0.00106742 0)
(-0.020806 0.0011158 0)
(-0.0262655 0.00117991 0)
(-0.0319636 0.00126615 0)
(-0.0379848 0.00137736 0)
(-0.0444222 0.00151776 0)
(-0.0513758 0.00169433 0)
(-0.0589482 0.0019163 0)
(-0.0672371 0.00219318 0)
(-0.0763192 0.00253239 0)
(-0.0862259 0.00293529 0)
(-0.096909 0.00339122 0)
(-0.1082 0.00387353 0)
(-0.119763 0.0043344 0)
(-0.131052 0.00469942 0)
(-0.141278 0.00486487 0)
(-0.149409 0.0047018 0)
(-0.1542 0.0040787 0)
(-0.154236 0.0029105 0)
(-0.148069 0.00116875 0)
(-0.134459 -0.00111948 0)
(-0.112359 -0.00387593 0)
(-0.0810926 -0.00701124 0)
(-0.0404861 -0.0104382 0)
(0.00916511 -0.013863 0)
(0.0672991 -0.0168185 0)
(0.132876 -0.019109 0)
(0.204147 -0.0205673 0)
(0.278812 -0.0209674 0)
(0.354128 -0.0200964 0)
(0.426977 -0.0178297 0)
(-0.000841396 0.00209597 0)
(-0.00728548 0.00609213 0)
(-0.0172603 0.00860731 0)
(-0.0290902 0.00975174 0)
(-0.0415515 0.0102539 0)
(-0.0542609 0.0105879 0)
(-0.0671733 0.0109685 0)
(-0.0803608 0.0114771 0)
(-0.0939336 0.0121435 0)
(-0.108005 0.0129816 0)
(-0.122672 0.0139954 0)
(-0.137987 0.0151734 0)
(-0.153929 0.0164762 0)
(-0.170361 0.0178225 0)
(-0.186974 0.0190728 0)
(-0.203239 0.0200176 0)
(-0.218365 0.0203718 0)
(-0.231278 0.0197796 0)
(-0.240637 0.0178331 0)
(-0.244887 0.014123 0)
(-0.24235 0.00832833 0)
(-0.231325 0.00030321 0)
(-0.210654 -0.00993738 0)
(-0.179259 -0.0221795 0)
(-0.136348 -0.0360166 0)
(-0.0815765 -0.0509783 0)
(-0.0150686 -0.0665113 0)
(0.0626855 -0.0819437 0)
(0.151014 -0.0964553 0)
(0.248832 -0.1092 0)
(0.354533 -0.119452 0)
(0.46613 -0.126512 0)
(0.581217 -0.129665 0)
(0.696949 -0.128252 0)
(0.810068 -0.121821 0)
(-0.00174752 0.00743313 0)
(-0.0127188 0.0171233 0)
(-0.0279564 0.0224569 0)
(-0.0450443 0.0247527 0)
(-0.0624123 0.0256432 0)
(-0.0796119 0.026112 0)
(-0.096547 0.0266068 0)
(-0.113227 0.0272944 0)
(-0.129679 0.0282199 0)
(-0.145903 0.0293726 0)
(-0.161832 0.0306976 0)
(-0.177297 0.0320855 0)
(-0.19199 0.0333523 0)
(-0.205428 0.0342204 0)
(-0.216923 0.0343076 0)
(-0.225563 0.0331332 0)
(-0.230232 0.0301451 0)
(-0.229665 0.0247656 0)
(-0.222508 0.0164681 0)
(-0.207401 0.00488477 0)
(-0.183269 -0.0100804 0)
(-0.149511 -0.0282352 0)
(-0.105386 -0.0492771 0)
(-0.0504963 -0.0728014 0)
(0.015234 -0.098164 0)
(0.0915527 -0.124541 0)
(0.178047 -0.15103 0)
(0.274046 -0.176589 0)
(0.378591 -0.200135 0)
(0.490495 -0.22064 0)
(0.60833 -0.237022 0)
(0.730369 -0.248137 0)
(0.854547 -0.252848 0)
(0.978363 -0.250045 0)
(1.09882 -0.238942 0)
(-0.00255262 0.0157376 0)
(-0.0172205 0.032762 0)
(-0.0360464 0.0408675 0)
(-0.0559364 0.0437811 0)
(-0.0751167 0.0444067 0)
(-0.093165 0.0442991 0)
(-0.109965 0.0441308 0)
(-0.125456 0.0441268 0)
(-0.139557 0.0443083 0)
(-0.152119 0.0445903 0)
(-0.162892 0.0448081 0)
(-0.171501 0.044708 0)
(-0.177431 0.0439338 0)
(-0.180021 0.0420165 0)
(-0.178472 0.0383883 0)
(-0.171873 0.0324213 0)
(-0.159248 0.0234946 0)
(-0.139632 0.0110732 0)
(-0.112192 -0.00520437 0)
(-0.0764315 -0.0254934 0)
(-0.0318184 -0.0496988 0)
(0.022029 -0.0775805 0)
(0.0851507 -0.108675 0)
(0.15746 -0.142293 0)
(0.238727 -0.177564 0)
(0.328462 -0.213427 0)
(0.425986 -0.248715 0)
(0.530456 -0.282233 0)
(0.640886 -0.312744 0)
(0.756198 -0.338988 0)
(0.875237 -0.359659 0)
(0.996674 -0.373326 0)
(1.11899 -0.37848 0)
(1.24013 -0.373367 0)
(1.35733 -0.356567 0)
(-0.00327746 0.0263531 0)
(-0.0204448 0.0512695 0)
(-0.0404372 0.0612023 0)
(-0.0598539 0.0634859 0)
(-0.0770436 0.0626212 0)
(-0.091769 0.0607403 0)
(-0.103979 0.0586849 0)
(-0.113608 0.0566865 0)
(-0.120524 0.0547004 0)
(-0.124501 0.0525417 0)
(-0.125202 0.0499248 0)
(-0.122182 0.0464738 0)
(-0.114905 0.0417191 0)
(-0.102758 0.0351107 0)
(-0.0850815 0.0260362 0)
(-0.0611933 0.013867 0)
(-0.0304507 -0.0019485 0)
(0.00766076 -0.021836 0)
(0.0534179 -0.0460407 0)
(0.107051 -0.0746019 0)
(0.168696 -0.10734 0)
(0.238313 -0.143879 0)
(0.315622 -0.183561 0)
(0.400138 -0.225446 0)
(0.491183 -0.268426 0)
(0.587905 -0.31126 0)
(0.689334 -0.352646 0)
(0.794461 -0.391285 0)
(0.90231 -0.425901 0)
(1.01202 -0.455249 0)
(1.12293 -0.478021 0)
(1.2344 -0.492729 0)
(1.34602 -0.497653 0)
(1.45652 -0.490132 0)
(1.56375 -0.46777 0)
(-0.00400204 0.0386932 0)
(-0.0223171 0.0705327 0)
(-0.0401846 0.0801962 0)
(-0.0548678 0.0799514 0)
(-0.0655264 0.0760315 0)
(-0.0723906 0.0710054 0)
(-0.0755961 0.065769 0)
(-0.0751525 0.0604966 0)
(-0.0709548 0.0550523 0)
(-0.0627809 0.0491474 0)
(-0.0503065 0.0423916 0)
(-0.0331336 0.0343386 0)
(-0.010779 0.024473 0)
(0.0172299 0.0122187 0)
(0.0513551 -0.00304474 0)
(0.092045 -0.0218837 0)
(0.139633 -0.0447566 0)
(0.194319 -0.0719939 0)
(0.256143 -0.103766 0)
(0.324965 -0.139962 0)
(0.400445 -0.180197 0)
(0.482013 -0.223827 0)
(0.56886 -0.269944 0)
(0.659973 -0.317421 0)
(0.754187 -0.364985 0)
(0.850268 -0.411305 0)
(0.947012 -0.455075 0)
(1.04336 -0.495095 0)
(1.13851 -0.530283 0)
(1.23206 -0.559676 0)
(1.32407 -0.582204 0)
(1.41503 -0.596641 0)
(1.50635 -0.601098 0)
(1.59784 -0.59192 0)
(1.69071 -0.566292 0)
(-0.00480333 0.0528016 0)
(-0.0223712 0.0879419 0)
(-0.0331356 0.0934615 0)
(-0.0371708 0.0882983 0)
(-0.0356845 0.0798711 0)
(-0.0296607 0.0706435 0)
(-0.0194336 0.0613463 0)
(-0.00507562 0.0520003 0)
(0.0134784 0.0423298 0)
(0.0364441 0.0319384 0)
(0.0641465 0.0203712 0)
(0.0968751 0.00711445 0)
(0.135125 -0.00840979 0)
(0.17932 -0.0267849 0)
(0.229774 -0.0485614 0)
(0.286629 -0.0741904 0)
(0.349876 -0.103996 0)
(0.419313 -0.138119 0)
(0.494507 -0.176478 0)
(0.574776 -0.218732 0)
(0.659187 -0.26426 0)
(0.74658 -0.312178 0)
(0.835611 -0.361379 0)
(0.924818 -0.4106 0)
(1.01271 -0.458519 0)
(1.09788 -0.503863 0)
(1.1791 -0.545509 0)
(1.25549 -0.582582 0)
(1.32662 -0.614474 0)
(1.39276 -0.64085 0)
(1.45488 -0.661297 0)
(1.51522 -0.675337 0)
(1.57707 -0.680668 0)
(1.64255 -0.672649 0)
(1.72211 -0.64911 0)
(-0.00568764 0.0696452 0)
(-0.0170479 0.0992881 0)
(-0.0113492 0.0943267 0)
(0.00433109 0.0820973 0)
(0.0251741 0.0686187 0)
(0.0497461 0.0549567 0)
(0.0779177 0.0414453 0)
(0.109782 0.0279185 0)
(0.145461 0.0138935 0)
(0.185348 -0.00119654 0)
(0.229878 -0.0178743 0)
(0.279474 -0.03666 0)
(0.334342 -0.0580557 0)
(0.394588 -0.0825222 0)
(0.46017 -0.110444 0)
(0.530846 -0.142083 0)
(0.606149 -0.177539 0)
(0.685368 -0.216709 0)
(0.767542 -0.259256 0)
(0.851474 -0.30459 0)
(0.935769 -0.351871 0)
(1.01889 -0.400048 0)
(1.09921 -0.447916 0)
(1.17514 -0.494204 0)
(1.24517 -0.537683 0)
(1.30797 -0.577281 0)
(1.36251 -0.612206 0)
(1.40821 -0.642063 0)
(1.44502 -0.666954 0)
(1.4739 -0.687553 0)
(1.49665 -0.704926 0)
(1.51829 -0.720579 0)
(1.54303 -0.733683 0)
(1.58332 -0.740705 0)
(1.65624 -0.742831 0)
(0.000820337 0.0779805 0)
(0.0137341 0.0910087 0)
(0.053356 0.0716673 0)
(0.100781 0.0529083 0)
(0.148378 0.0358919 0)
(0.19611 0.0190134 0)
(0.24535 0.00201295 0)
(0.29685 -0.0152714 0)
(0.351131 -0.033339 0)
(0.40858 -0.052766 0)
(0.469463 -0.0740445 0)
(0.533925 -0.0975845 0)
(0.601946 -0.123738 0)
(0.673332 -0.152791 0)
(0.747689 -0.184928 0)
(0.824403 -0.220189 0)
(0.902625 -0.258437 0)
(0.981286 -0.299332 0)
(1.05912 -0.342319 0)
(1.13469 -0.38663 0)
(1.20648 -0.4313 0)
(1.2729 -0.475225 0)
(1.33241 -0.51722 0)
(1.38356 -0.556119 0)
(1.42506 -0.59087 0)
(1.45586 -0.620666 0)
(1.47521 -0.645069 0)
(1.48275 -0.664171 0)
(1.47863 -0.678788 0)
(1.46394 -0.690709 0)
(1.44056 -0.703117 0)
(1.41549 -0.721072 0)
(1.39229 -0.751496 0)
(1.41203 -0.802194 0)
(1.4599 -0.89753 0)
(0.0989513 0.0217886 0)
(0.166096 0.0219907 0)
(0.244038 0.00501378 0)
(0.323034 -0.0118225 0)
(0.394835 -0.0272008 0)
(0.461856 -0.0430764 0)
(0.527288 -0.0601476 0)
(0.59257 -0.0784861 0)
(0.658306 -0.0982748 0)
(0.724924 -0.119812 0)
(0.79269 -0.143377 0)
(0.861635 -0.169187 0)
(0.931546 -0.197401 0)
(1.00201 -0.228094 0)
(1.0724 -0.261232 0)
(1.14191 -0.296638 0)
(1.20952 -0.333969 0)
(1.27408 -0.372706 0)
(1.33427 -0.412153 0)
(1.38873 -0.451448 0)
(1.43604 -0.489597 0)
(1.47483 -0.525526 0)
(1.50383 -0.558145 0)
(1.52187 -0.586437 0)
(1.52803 -0.60956 0)
(1.5216 -0.626956 0)
(1.50213 -0.638487 0)
(1.46948 -0.644596 0)
(1.42379 -0.646542 0)
(1.36561 -0.646742 0)
(1.29545 -0.649654 0)
(1.21708 -0.66284 0)
(1.12923 -0.702206 0)
(1.08964 -0.796066 0)
(0.993916 -1.00025 0)
(0.586055 -0.0746523 0)
(0.632531 -0.0820814 0)
(0.685841 -0.0857779 0)
(0.74749 -0.0925083 0)
(0.809284 -0.102155 0)
(0.869267 -0.114431 0)
(0.928506 -0.129219 0)
(0.98759 -0.146322 0)
(1.04652 -0.165583 0)
(1.10519 -0.186944 0)
(1.1635 -0.210405 0)
(1.22117 -0.235955 0)
(1.27773 -0.263539 0)
(1.33257 -0.293027 0)
(1.38493 -0.324189 0)
(1.43389 -0.356672 0)
(1.47842 -0.389986 0)
(1.51739 -0.423499 0)
(1.5496 -0.456441 0)
(1.57385 -0.48793 0)
(1.58896 -0.517003 0)
(1.59383 -0.542666 0)
(1.58751 -0.563969 0)
(1.56924 -0.580077 0)
(1.5385 -0.590372 0)
(1.49503 -0.594545 0)
(1.43883 -0.592705 0)
(1.37012 -0.585502 0)
(1.2892 -0.57429 0)
(1.19623 -0.561354 0)
(1.09042 -0.550544 0)
(0.969859 -0.547988 0)
(0.824295 -0.567506 0)
(0.650497 -0.636728 0)
(0.249085 -0.710803 0)
(1.17097 -0.0866387 0)
(1.19018 -0.10542 0)
(1.21355 -0.119113 0)
(1.2442 -0.132327 0)
(1.27888 -0.146369 0)
(1.31523 -0.161371 0)
(1.35265 -0.177628 0)
(1.39076 -0.195415 0)
(1.42898 -0.214824 0)
(1.46671 -0.235852 0)
(1.5034 -0.25846 0)
(1.53843 -0.282567 0)
(1.57113 -0.308024 0)
(1.6007 -0.334592 0)
(1.62628 -0.361931 0)
(1.64693 -0.389591 0)
(1.66164 -0.417005 0)
(1.66937 -0.443496 0)
(1.66906 -0.46829 0)
(1.65974 -0.490541 0)
(1.64049 -0.509374 0)
(1.61058 -0.523939 0)
(1.56947 -0.533481 0)
(1.5169 -0.537412 0)
(1.45291 -0.535389 0)
(1.37785 -0.52739 0)
(1.29235 -0.513772 0)
(1.19724 -0.495316 0)
(1.09331 -0.473265 0)
(0.981016 -0.449338 0)
(0.859787 -0.425825 0)
(0.727337 -0.405431 0)
(0.576622 -0.392407 0)
(0.399647 -0.388127 0)
(0.126634 -0.359585 0)
(1.5928 -0.106031 0)
(1.60438 -0.124825 0)
(1.61616 -0.140564 0)
(1.63034 -0.155595 0)
(1.64636 -0.171077 0)
(1.66309 -0.18719 0)
(1.67995 -0.204082 0)
(1.69656 -0.221943 0)
(1.7124 -0.240849 0)
(1.72685 -0.260769 0)
(1.73927 -0.281615 0)
(1.74897 -0.303242 0)
(1.75523 -0.325432 0)
(1.75724 -0.347879 0)
(1.75417 -0.37018 0)
(1.74513 -0.39184 0)
(1.72924 -0.412271 0)
(1.70563 -0.430812 0)
(1.67352 -0.446744 0)
(1.63222 -0.459331 0)
(1.58125 -0.467864 0)
(1.52037 -0.471719 0)
(1.44961 -0.470423 0)
(1.36936 -0.463713 0)
(1.28037 -0.451592 0)
(1.18369 -0.434357 0)
(1.08065 -0.412605 0)
(0.972676 -0.387196 0)
(0.861114 -0.359164 0)
(0.746854 -0.329566 0)
(0.629815 -0.299247 0)
(0.508409 -0.268415 0)
(0.378299 -0.236995 0)
(0.236842 -0.203801 0)
(0.0606973 -0.153418 0)
(1.85844 -0.113195 0)
(1.8608 -0.130892 0)
(1.86187 -0.147234 0)
(1.86284 -0.162927 0)
(1.86375 -0.178675 0)
(1.864 -0.194687 0)
(1.86306 -0.21103 0)
(1.86056 -0.227787 0)
(1.85602 -0.244998 0)
(1.84889 -0.262612 0)
(1.83855 -0.280503 0)
(1.82436 -0.29848 0)
(1.80566 -0.316274 0)
(1.78174 -0.333536 0)
(1.75191 -0.349844 0)
(1.71547 -0.364705 0)
(1.6718 -0.37757 0)
(1.62036 -0.38786 0)
(1.56076 -0.394995 0)
(1.49282 -0.398432 0)
(1.41663 -0.39772 0)
(1.33258 -0.392546 0)
(1.2414 -0.382786 0)
(1.14416 -0.36854 0)
(1.04225 -0.350151 0)
(0.937276 -0.328188 0)
(0.830993 -0.303393 0)
(0.725115 -0.276577 0)
(0.621101 -0.248444 0)
(0.519868 -0.219311 0)
(0.421384 -0.188733 0)
(0.324438 -0.155216 0)
(0.226775 -0.11724 0)
(0.129056 -0.0761622 0)
(0.0262307 -0.0401429 0)
(1.96794 -0.111547 0)
(1.9608 -0.127566 0)
(1.95145 -0.142889 0)
(1.94042 -0.157588 0)
(1.92777 -0.172028 0)
(1.91314 -0.186387 0)
(1.89611 -0.200699 0)
(1.8763 -0.214978 0)
(1.8533 -0.229212 0)
(1.82662 -0.243316 0)
(1.79575 -0.257129 0)
(1.76016 -0.270426 0)
(1.71935 -0.282917 0)
(1.67281 -0.294259 0)
(1.62011 -0.304062 0)
(1.56088 -0.311905 0)
(1.49491 -0.317356 0)
(1.42214 -0.320003 0)
(1.34274 -0.319485 0)
(1.25713 -0.315532 0)
(1.16602 -0.308001 0)
(1.07043 -0.296911 0)
(0.971632 -0.282466 0)
(0.871145 -0.265051 0)
(0.77063 -0.245222 0)
(0.671792 -0.223643 0)
(0.576263 -0.201008 0)
(0.485459 -0.17789 0)
(0.400414 -0.154506 0)
(0.321556 -0.130365 0)
(0.248511 -0.103941 0)
(0.180277 -0.0729296 0)
(0.116163 -0.036498 0)
(0.0584665 -0.000757239 0)
(0.00849222 0.0130205 0)
(1.92148 -0.101079 0)
(1.90538 -0.114474 0)
(1.88626 -0.127401 0)
(1.8643 -0.139749 0)
(1.83948 -0.151644 0)
(1.81159 -0.16318 0)
(1.78031 -0.174353 0)
(1.74533 -0.18513 0)
(1.70635 -0.195447 0)
(1.66304 -0.205198 0)
(1.61505 -0.214215 0)
(1.56209 -0.222285 0)
(1.50392 -0.229161 0)
(1.44039 -0.234569 0)
(1.37145 -0.238227 0)
(1.29719 -0.239858 0)
(1.2179 -0.239219 0)
(1.13406 -0.236122 0)
(1.04638 -0.23046 0)
(0.955783 -0.222235 0)
(0.863412 -0.211569 0)
(0.770576 -0.198717 0)
(0.67869 -0.184057 0)
(0.589198 -0.168064 0)
(0.503475 -0.151278 0)
(0.422748 -0.134238 0)
(0.348017 -0.117399 0)
(0.279992 -0.100968 0)
(0.219014 -0.0846401 0)
(0.164974 -0.0672431 0)
(0.11738 -0.046665 0)
(0.0758825 -0.0208114 0)
(0.0411407 0.00936029 0)
(0.0153727 0.0345811 0)
(0.000108254 0.0312471 0)
(1.72034 -0.0823405 0)
(1.69641 -0.092411 0)
(1.66885 -0.102037 0)
(1.63767 -0.111064 0)
(1.60286 -0.119492 0)
(1.56432 -0.127347 0)
(1.52191 -0.134611 0)
(1.47548 -0.141236 0)
(1.42492 -0.147159 0)
(1.37016 -0.152288 0)
(1.31116 -0.156505 0)
(1.24795 -0.159669 0)
(1.18066 -0.161629 0)
(1.10955 -0.162238 0)
(1.03499 -0.161363 0)
(0.95751 -0.158905 0)
(0.877791 -0.154813 0)
(0.796663 -0.149096 0)
(0.715087 -0.141835 0)
(0.634121 -0.133192 0)
(0.554875 -0.123397 0)
(0.478447 -0.112745 0)
(0.405859 -0.101571 0)
(0.337989 -0.0902267 0)
(0.275528 -0.0790526 0)
(0.218951 -0.0683461 0)
(0.168521 -0.0582908 0)
(0.124298 -0.0487979 0)
(0.0861617 -0.0392329 0)
(0.0538984 -0.0281623 0)
(0.0274743 -0.013587 0)
(0.00751425 0.00569523 0)
(-0.00464991 0.0274034 0)
(-0.00789026 0.041859 0)
(-0.00315222 0.030303 0)
(1.36993 -0.056777 0)
(1.3408 -0.0630304 0)
(1.30784 -0.0688045 0)
(1.27114 -0.0739751 0)
(1.23077 -0.0785175 0)
(1.18684 -0.0824446 0)
(1.13944 -0.0857575 0)
(1.0887 -0.0884406 0)
(1.03478 -0.0904705 0)
(0.977902 -0.0918154 0)
(0.91834 -0.0924334 0)
(0.85644 -0.0922772 0)
(0.792627 -0.0913042 0)
(0.727413 -0.089485 0)
(0.661393 -0.0868118 0)
(0.595236 -0.0833053 0)
(0.529672 -0.0790189 0)
(0.465464 -0.0740419 0)
(0.403376 -0.0684958 0)
(0.344135 -0.0625297 0)
(0.288389 -0.0563092 0)
(0.236673 -0.0500066 0)
(0.189382 -0.0437885 0)
(0.146754 -0.0378099 0)
(0.108866 -0.0322125 0)
(0.0756617 -0.0271164 0)
(0.0469738 -0.0225628 0)
(0.0225747 -0.0183686 0)
(0.00228018 -0.0139105 0)
(-0.01383 -0.00798472 0)
(-0.0250856 0.000837612 0)
(-0.0301162 0.0129768 0)
(-0.0274616 0.0259284 0)
(-0.0175472 0.0324316 0)
(-0.00392674 0.0209672 0)
(0.888557 -0.0286181 0)
(0.860057 -0.031177 0)
(0.828461 -0.0333199 0)
(0.794013 -0.0350075 0)
(0.757007 -0.0362575 0)
(0.71775 -0.0371128 0)
(0.676545 -0.0376098 0)
(0.633708 -0.037771 0)
(0.589567 -0.0376113 0)
(0.54447 -0.0371409 0)
(0.498783 -0.0363655 0)
(0.452896 -0.0352896 0)
(0.40722 -0.0339217 0)
(0.362185 -0.0322778 0)
(0.318231 -0.0303833 0)
(0.275788 -0.0282728 0)
(0.235269 -0.0259903 0)
(0.197043 -0.0235862 0)
(0.161428 -0.0211156 0)
(0.12867 -0.0186337 0)
(0.098934 -0.0161933 0)
(0.0723059 -0.0138436 0)
(0.0487902 -0.0116314 0)
(0.028309 -0.00960107 0)
(0.0107072 -0.00779947 0)
(-0.00423395 -0.00627231 0)
(-0.0167811 -0.00502988 0)
(-0.0271865 -0.00395431 0)
(-0.0355317 -0.00267738 0)
(-0.0414494 -0.000529157 0)
(-0.0438627 0.00324058 0)
(-0.0410954 0.00878987 0)
(-0.0319462 0.0146056 0)
(-0.0178664 0.0167701 0)
(-0.00346499 0.0100774 0)
(0.318663 -0.00474809 0)
(0.302376 -0.00486063 0)
(0.284983 -0.00486748 0)
(0.26675 -0.00478072 0)
(0.24794 -0.00462867 0)
(0.228783 -0.00443925 0)
(0.209473 -0.00422779 0)
(0.190182 -0.0039992 0)
(0.171068 -0.00375442 0)
(0.152281 -0.00349391 0)
(0.133964 -0.00321836 0)
(0.116254 -0.00292961 0)
(0.0992808 -0.00263084 0)
(0.0831693 -0.00232635 0)
(0.0680305 -0.00202049 0)
(0.0539606 -0.00171771 0)
(0.0410364 -0.00142223 0)
(0.0293123 -0.00113847 0)
(0.0188187 -0.000870511 0)
(0.00956016 -0.000621799 0)
(0.00151555 -0.00039438 0)
(-0.00535973 -0.000190996 0)
(-0.0111303 -1.64041e-05 0)
(-0.0158807 0.000124344 0)
(-0.0197189 0.000225319 0)
(-0.0227768 0.000278448 0)
(-0.0252098 0.000277914 0)
(-0.0271654 0.000236079 0)
(-0.0286774 0.000208272 0)
(-0.0294779 0.000313381 0)
(-0.0288128 0.000717644 0)
(-0.0255285 0.00152245 0)
(-0.0188423 0.00253199 0)
(-0.00990425 0.00296501 0)
(-0.0019475 0.00187285 0)
(0.494048 -0.0141955 0)
(0.552165 -0.0094488 0)
(0.598776 -0.00410279 0)
(0.632418 0.00122332 0)
(0.652828 0.00603691 0)
(0.660822 0.0100858 0)
(0.657265 0.0131287 0)
(0.64434 0.0149428 0)
(0.624389 0.015515 0)
(0.599553 0.0150804 0)
(0.917043 -0.110295 0)
(1.01435 -0.0942128 0)
(1.09906 -0.0749244 0)
(1.1694 -0.0542037 0)
(1.22488 -0.0336053 0)
(1.26575 -0.014206 0)
(1.29321 0.00323772 0)
(1.30804 0.0180712 0)
(1.3111 0.0298948 0)
(1.30382 0.0386737 0)
(1.21247 -0.219306 0)
(1.31562 -0.192002 0)
(1.40541 -0.159472 0)
(1.48065 -0.124789 0)
(1.54171 -0.0904075 0)
(1.5896 -0.0579589 0)
(1.62547 -0.0285341 0)
(1.65069 -0.00275588 0)
(1.66664 0.0191338 0)
(1.6743 0.0371299 0)
(1.46689 -0.327278 0)
(1.56452 -0.286883 0)
(1.64716 -0.239808 0)
(1.71445 -0.190897 0)
(1.76788 -0.143311 0)
(1.80919 -0.0988829 0)
(1.8399 -0.0588519 0)
(1.86155 -0.0239537 0)
(1.8757 0.00564939 0)
(1.88381 0.0302013 0)
(1.66376 -0.427722 0)
(1.75094 -0.371953 0)
(1.82157 -0.308807 0)
(1.87624 -0.245514 0)
(1.9175 -0.18542 0)
(1.94739 -0.130211 0)
(1.96763 -0.0811562 0)
(1.98015 -0.0389102 0)
(1.98688 -0.00343894 0)
(1.98951 0.0257401 0)
(1.78151 -0.516384 0)
(1.85991 -0.44459 0)
(1.91741 -0.36526 0)
(1.95509 -0.287683 0)
(1.97753 -0.214953 0)
(1.98824 -0.14913 0)
(1.9904 -0.0919359 0)
(1.98732 -0.0438874 0)
(1.98173 -0.00446789 0)
(1.9753 0.027304 0)
(1.81389 -0.589564 0)
(1.887 -0.500932 0)
(1.91863 -0.40432 0)
(1.91687 -0.309924 0)
(1.89695 -0.222503 0)
(1.86876 -0.146252 0)
(1.83894 -0.0832309 0)
(1.81222 -0.0329209 0)
(1.79084 0.00657477 0)
(1.77483 0.0373169 0)
(1.75716 -0.662062 0)
(1.78426 -0.53299 0)
(1.72421 -0.398598 0)
(1.62885 -0.27607 0)
(1.53591 -0.174633 0)
(1.45752 -0.0971654 0)
(1.39737 -0.0404835 0)
(1.35513 0.000941578 0)
(1.32934 0.031388 0)
(1.31699 0.0541622 0)
(1.53827 -0.739766 0)
(1.36864 -0.480924 0)
(1.12005 -0.272379 0)
(0.928604 -0.130155 0)
(0.804985 -0.0425382 0)
(0.728495 0.00556816 0)
(0.687038 0.0300193 0)
(0.673707 0.0423619 0)
(0.679861 0.0494271 0)
(0.697568 0.0558599 0)
(0.893905 -0.57467 0)
(0.428885 -0.150603 0)
(0.130348 0.0139551 0)
(0.0823457 0.0354057 0)
(0.081397 0.0300434 0)
(0.0876809 0.023134 0)
(0.103656 0.0178066 0)
(0.126303 0.0144824 0)
(0.152379 0.0137308 0)
(0.179033 0.0221724 0)
(0.571717 0.0139635 0)
(0.54244 0.0124673 0)
(0.512912 0.0108371 0)
(0.483961 0.00925408 0)
(0.456108 0.00783516 0)
(0.429621 0.00663785 0)
(0.404594 0.00567353 0)
(0.381002 0.0049251 0)
(0.358749 0.00436073 0)
(0.337702 0.00394347 0)
(0.317717 0.00363666 0)
(0.29865 0.00340844 0)
(0.280372 0.00323309 0)
(0.26277 0.00309188 0)
(0.24575 0.00297144 0)
(0.229238 0.00286296 0)
(0.213176 0.00276026 0)
(0.197528 0.00265921 0)
(0.182269 0.00255645 0)
(0.167392 0.00244963 0)
(0.152903 0.00233683 0)
(0.138818 0.00221699 0)
(0.125166 0.00208958 0)
(0.111978 0.00195478 0)
(0.0992962 0.00181313 0)
(0.0871604 0.00166573 0)
(0.0756129 0.00151395 0)
(0.0646935 0.00135954 0)
(0.0544376 0.00120453 0)
(0.0448743 0.00105114 0)
(0.0360247 0.000901715 0)
(0.0279011 0.000758352 0)
(0.020506 0.00062296 0)
(0.0138321 0.000497162 0)
(0.00786297 0.000382018 0)
(1.2878 0.0446349 0)
(1.26462 0.0481637 0)
(1.23581 0.049728 0)
(1.20275 0.0498182 0)
(1.16662 0.0488912 0)
(1.12839 0.0473311 0)
(1.08882 0.0454355 0)
(1.04849 0.0434218 0)
(1.00785 0.0414398 0)
(0.967185 0.0395836 0)
(0.926697 0.0379034 0)
(0.8865 0.0364176 0)
(0.846647 0.035123 0)
(0.807151 0.0340031 0)
(0.767999 0.0330334 0)
(0.729163 0.0321857 0)
(0.690612 0.0314301 0)
(0.652321 0.0307365 0)
(0.614277 0.0300758 0)
(0.576484 0.02942 0)
(0.538971 0.0287432 0)
(0.501786 0.0280223 0)
(0.465007 0.0272378 0)
(0.428732 0.0263742 0)
(0.393082 0.025421 0)
(0.358198 0.0243725 0)
(0.32423 0.0232286 0)
(0.29134 0.0219942 0)
(0.259688 0.0206794 0)
(0.229428 0.0192983 0)
(0.200702 0.0178686 0)
(0.173633 0.0164102 0)
(0.14832 0.0149444 0)
(0.124833 0.0134923 0)
(0.103213 0.0120738 0)
(1.67457 0.0514215 0)
(1.6683 0.0623455 0)
(1.65625 0.0703483 0)
(1.63912 0.075935 0)
(1.61757 0.0796057 0)
(1.59214 0.0818064 0)
(1.56334 0.0829135 0)
(1.53164 0.0832384 0)
(1.49744 0.0830333 0)
(1.46106 0.0824958 0)
(1.42281 0.0817749 0)
(1.38289 0.0809782 0)
(1.34149 0.0801795 0)
(1.29875 0.0794246 0)
(1.25476 0.0787358 0)
(1.2096 0.0781167 0)
(1.16334 0.0775555 0)
(1.11602 0.0770286 0)
(1.06768 0.0765026 0)
(1.01839 0.0759373 0)
(0.968218 0.0752876 0)
(0.917252 0.0745062 0)
(0.865615 0.0735463 0)
(0.813461 0.0723638 0)
(0.760975 0.0709204 0)
(0.70838 0.0691855 0)
(0.655931 0.0671391 0)
(0.603911 0.0647728 0)
(0.552629 0.0620916 0)
(0.502405 0.0591142 0)
(0.453565 0.0558725 0)
(0.406428 0.05241 0)
(0.361289 0.0487798 0)
(0.318414 0.0450415 0)
(0.278026 0.0412579 0)
(1.88692 0.0501367 0)
(1.88587 0.0659998 0)
(1.88125 0.0784195 0)
(1.87349 0.0880512 0)
(1.86281 0.0954877 0)
(1.84936 0.101216 0)
(1.83324 0.105631 0)
(1.81452 0.109056 0)
(1.79328 0.111753 0)
(1.7696 0.113933 0)
(1.74352 0.115756 0)
(1.71509 0.11735 0)
(1.68434 0.118808 0)
(1.65129 0.120197 0)
(1.61596 0.12156 0)
(1.57833 0.122917 0)
(1.53841 0.124267 0)
(1.49617 0.12559 0)
(1.45162 0.126852 0)
(1.40474 0.128001 0)
(1.35556 0.128974 0)
(1.30411 0.129701 0)
(1.25044 0.130102 0)
(1.19468 0.130096 0)
(1.13695 0.129606 0)
(1.07747 0.128557 0)
(1.01648 0.126886 0)
(0.954287 0.124546 0)
(0.89125 0.121506 0)
(0.82778 0.117761 0)
(0.764333 0.113328 0)
(0.701395 0.108254 0)
(0.639469 0.102607 0)
(0.579056 0.0964832 0)
(0.52064 0.0899931 0)
(1.98918 0.0492973 0)
(1.98671 0.0680061 0)
(1.9827 0.0827574 0)
(1.97746 0.0944568 0)
(1.97106 0.103859 0)
(1.96344 0.11153 0)
(1.95453 0.117903 0)
(1.94425 0.12333 0)
(1.93252 0.128091 0)
(1.91924 0.132404 0)
(1.9043 0.136432 0)
(1.8876 0.140302 0)
(1.86903 0.144106 0)
(1.84848 0.147915 0)
(1.82582 0.151774 0)
(1.80091 0.155706 0)
(1.77362 0.159712 0)
(1.7438 0.163771 0)
(1.71131 0.167842 0)
(1.67599 0.171861 0)
(1.63772 0.175747 0)
(1.59637 0.179399 0)
(1.55185 0.182706 0)
(1.50409 0.185543 0)
(1.45306 0.18778 0)
(1.3988 0.189284 0)
(1.34139 0.189929 0)
(1.28099 0.189596 0)
(1.21784 0.188188 0)
(1.15225 0.185627 0)
(1.08462 0.181873 0)
(1.01544 0.176917 0)
(0.945263 0.170796 0)
(0.874695 0.163588 0)
(0.804394 0.155414 0)
(1.96888 0.0524468 0)
(1.96301 0.072019 0)
(1.95803 0.0872692 0)
(1.95392 0.0993988 0)
(1.95035 0.1093 0)
(1.94695 0.117576 0)
(1.94347 0.12467 0)
(1.9397 0.130937 0)
(1.93547 0.13666 0)
(1.93059 0.142061 0)
(1.92492 0.147313 0)
(1.9183 0.152552 0)
(1.91059 0.157882 0)
(1.90164 0.163382 0)
(1.89129 0.169106 0)
(1.87936 0.175088 0)
(1.86565 0.181341 0)
(1.84996 0.187855 0)
(1.83204 0.194593 0)
(1.81168 0.201495 0)
(1.78861 0.208477 0)
(1.76259 0.215426 0)
(1.73336 0.222212 0)
(1.70068 0.228678 0)
(1.66433 0.234655 0)
(1.62412 0.239957 0)
(1.5799 0.244391 0)
(1.53159 0.247766 0)
(1.47917 0.249892 0)
(1.4227 0.250602 0)
(1.36235 0.24975 0)
(1.29841 0.247229 0)
(1.23124 0.242979 0)
(1.16135 0.236993 0)
(1.08935 0.229326 0)
(1.76375 0.0606957 0)
(1.75727 0.0780414 0)
(1.75507 0.0912254 0)
(1.75631 0.101791 0)
(1.75989 0.110621 0)
(1.7649 0.118233 0)
(1.77073 0.125009 0)
(1.777 0.13124 0)
(1.78339 0.137146 0)
(1.78964 0.142902 0)
(1.79556 0.148661 0)
(1.80098 0.154553 0)
(1.80575 0.160687 0)
(1.80976 0.167149 0)
(1.81287 0.174006 0)
(1.81492 0.181308 0)
(1.81576 0.189086 0)
(1.81519 0.19735 0)
(1.813 0.206086 0)
(1.80896 0.215255 0)
(1.8028 0.22479 0)
(1.79423 0.234595 0)
(1.78295 0.244545 0)
(1.76863 0.254485 0)
(1.75094 0.264234 0)
(1.72956 0.273585 0)
(1.70414 0.282308 0)
(1.6744 0.290158 0)
(1.64008 0.296879 0)
(1.60097 0.302214 0)
(1.55695 0.305917 0)
(1.50799 0.307764 0)
(1.45418 0.307567 0)
(1.39572 0.305191 0)
(1.33297 0.30056 0)
(1.31459 0.0703121 0)
(1.3204 0.0807803 0)
(1.33345 0.088345 0)
(1.35154 0.0948915 0)
(1.37243 0.101 0)
(1.39474 0.106839 0)
(1.41772 0.112559 0)
(1.44089 0.118276 0)
(1.46391 0.124051 0)
(1.48655 0.12994 0)
(1.50866 0.136018 0)
(1.53016 0.142373 0)
(1.55095 0.149091 0)
(1.57099 0.156254 0)
(1.59021 0.163934 0)
(1.60854 0.172191 0)
(1.62591 0.181075 0)
(1.64219 0.190617 0)
(1.65723 0.200832 0)
(1.67087 0.211707 0)
(1.68289 0.223209 0)
(1.69305 0.235273 0)
(1.70106 0.247802 0)
(1.70662 0.260669 0)
(1.70938 0.273711 0)
(1.70896 0.286734 0)
(1.70497 0.29951 0)
(1.69701 0.311781 0)
(1.68467 0.323262 0)
(1.66757 0.333649 0)
(1.64537 0.342626 0)
(1.61777 0.349879 0)
(1.58457 0.355109 0)
(1.54565 0.358047 0)
(1.50102 0.358476 0)
(0.721859 0.05985 0)
(0.752415 0.0610657 0)
(0.790986 0.0623652 0)
(0.833584 0.0650811 0)
(0.876641 0.0690946 0)
(0.919 0.0740119 0)
(0.960487 0.0795662 0)
(1.001 0.0855781 0)
(1.04047 0.0919196 0)
(1.07891 0.0985256 0)
(1.11641 0.105394 0)
(1.15301 0.112568 0)
(1.1888 0.120115 0)
(1.22381 0.128113 0)
(1.25808 0.136647 0)
(1.29166 0.145795 0)
(1.32453 0.155627 0)
(1.35666 0.166205 0)
(1.38798 0.177572 0)
(1.4184 0.189756 0)
(1.44775 0.202757 0)
(1.47586 0.216553 0)
(1.50251 0.231088 0)
(1.5274 0.246275 0)
(1.55024 0.26199 0)
(1.57065 0.278074 0)
(1.58825 0.294327 0)
(1.60258 0.310512 0)
(1.6132 0.326353 0)
(1.61962 0.341538 0)
(1.62138 0.355729 0)
(1.61801 0.368563 0)
(1.60909 0.379672 0)
(1.59427 0.388693 0)
(1.57327 0.395291 0)
(0.230458 0.0158049 0)
(0.282683 0.00723427 0)
(0.339327 0.00628193 0)
(0.395415 0.00993218 0)
(0.447874 0.0159056 0)
(0.497258 0.0230594 0)
(0.544688 0.0306982 0)
(0.590659 0.0384888 0)
(0.635434 0.0463204 0)
(0.679277 0.0541879 0)
(0.722431 0.0621311 0)
(0.765074 0.0702182 0)
(0.807342 0.078541 0)
(0.849349 0.0872074 0)
(0.891198 0.0963276 0)
(0.932965 0.106009 0)
(0.974703 0.116352 0)
(1.01643 0.127452 0)
(1.05813 0.13939 0)
(1.09977 0.152233 0)
(1.14124 0.166026 0)
(1.18243 0.180791 0)
(1.22315 0.196521 0)
(1.26318 0.213179 0)
(1.30224 0.23069 0)
(1.34 0.248941 0)
(1.37607 0.267779 0)
(1.41001 0.287006 0)
(1.44134 0.306377 0)
(1.46955 0.325605 0)
(1.49407 0.344357 0)
(1.51437 0.362264 0)
(1.52988 0.378927 0)
(1.54008 0.393936 0)
(1.54446 0.406878 0)
(0.0337131 -0.0420996 0)
(0.0632873 -0.0559088 0)
(0.104393 -0.0509471 0)
(0.146742 -0.0423602 0)
(0.186464 -0.0329866 0)
(0.224375 -0.0234386 0)
(0.261452 -0.014144 0)
(0.29819 -0.00528722 0)
(0.334845 0.00320144 0)
(0.371648 0.0114468 0)
(0.408808 0.0195585 0)
(0.446463 0.0276513 0)
(0.484692 0.0358538 0)
(0.523583 0.0442977 0)
(0.563226 0.0531112 0)
(0.603701 0.0624164 0)
(0.645077 0.072333 0)
(0.687403 0.08298 0)
(0.730706 0.0944697 0)
(0.774993 0.106903 0)
(0.820241 0.120366 0)
(0.86639 0.134925 0)
(0.913338 0.150621 0)
(0.960932 0.167472 0)
(1.00896 0.18546 0)
(1.05715 0.204533 0)