/*--------------------------------*- C++ -*----------------------------------*\
| =========                 |                                                 |
| \\      /  F ield         | OpenFOAM: The Open Source CFD Toolbox           |
|  \\    /   O peration     | Version:  2406                                  |
|   \\  /    A nd           | Website:  www.openfoam.com                      |
|    \\/     M anipulation  |                                                 |
\*---------------------------------------------------------------------------*/
FoamFile
{
    version     2.0;
    format      ascii;
    arch        "LSB;label=32;scalar=64";
    class       volScalarField;
    location    "90";
    object      p;
}
// * * * * * * * * * * * * * * * * * * * * * * * * * * * * * * * * * * * * * //

dimensions      [0 2 -2 0 0 0 0];

internalField   nonuniform List<scalar> 
2000
(
-1.13363
-1.1833
-1.23638
-1.2814
-1.32174
-1.35895
-1.39202
-1.42018
-1.44337
-1.46183
-1.12065
-1.18171
-1.241
-1.28544
-1.32364
-1.35949
-1.39164
-1.41882
-1.44106
-1.45875
-1.13455
-1.20461
-1.26801
-1.30909
-1.34223
-1.37447
-1.40398
-1.42869
-1.44864
-1.46443
-1.18317
-1.25526
-1.31852
-1.35517
-1.38232
-1.40936
-1.43447
-1.45509
-1.47129
-1.48388
-1.26376
-1.33313
-1.39163
-1.42149
-1.44123
-1.46137
-1.48028
-1.49534
-1.50663
-1.51504
-1.36864
-1.43136
-1.4795
-1.49924
-1.51046
-1.52299
-1.5349
-1.54376
-1.54978
-1.55372
-1.48679
-1.53782
-1.5692
-1.57604
-1.57841
-1.58334
-1.58834
-1.59143
-1.59278
-1.59282
-1.60655
-1.63456
-1.6437
-1.6396
-1.63543
-1.63366
-1.63256
-1.63104
-1.62888
-1.62601
-1.72455
-1.70089
-1.68074
-1.67199
-1.66698
-1.66245
-1.65874
-1.65558
-1.65219
-1.64819
-1.84237
-1.75386
-1.7056
-1.69169
-1.68455
-1.67787
-1.67281
-1.66892
-1.66504
-1.66065
-1.85662
-1.76138
-1.71329
-1.6977
-1.68991
-1.68394
-1.67946
-1.67568
-1.67175
-1.6673
-1.76581
-1.73253
-1.71024
-1.69925
-1.69277
-1.6879
-1.68375
-1.67978
-1.67559
-1.67093
-1.71571
-1.7079
-1.70007
-1.69423
-1.68997
-1.68641
-1.68299
-1.67942
-1.67547
-1.671
-1.69087
-1.68998
-1.688
-1.68556
-1.68336
-1.68115
-1.67868
-1.67577
-1.67231
-1.66821
-1.6758
-1.67724
-1.67758
-1.67686
-1.67585
-1.67454
-1.67277
-1.67044
-1.66745
-1.66374
-1.66697
-1.66916
-1.67032
-1.67028
-1.66977
-1.66886
-1.66743
-1.6654
-1.66268
-1.65921
-1.6629
-1.66509
-1.66639
-1.66655
-1.66617
-1.66533
-1.66398
-1.662
-1.65934
-1.65593
-1.66218
-1.66407
-1.66528
-1.66551
-1.66514
-1.66427
-1.66285
-1.66081
-1.65808
-1.6546
-1.66345
-1.66503
-1.66623
-1.6666
-1.66629
-1.6654
-1.6639
-1.66176
-1.65892
-1.65534
-1.6651
-1.66662
-1.66798
-1.66856
-1.66835
-1.66746
-1.6659
-1.66368
-1.66076
-1.6571
-1.47584
-1.48567
-1.49163
-1.49403
-1.49316
-1.48929
-1.48269
-1.47359
-1.46219
-1.44868
-1.43323
-1.416
-1.39714
-1.37676
-1.35499
-1.33196
-1.30776
-1.2825
-1.25629
-1.22922
-1.2014
-1.17292
-1.14388
-1.11437
-1.08448
-1.05431
-1.02396
-0.9935
-0.963026
-0.932618
-0.902355
-0.87231
-0.842551
-0.813141
-0.784135
-1.47217
-1.48155
-1.48717
-1.48932
-1.48828
-1.48431
-1.47763
-1.46848
-1.45706
-1.44355
-1.4281
-1.41088
-1.39202
-1.37166
-1.3499
-1.32688
-1.30269
-1.27745
-1.25126
-1.22421
-1.19641
-1.16796
-1.13895
-1.10948
-1.07964
-1.04953
-1.01924
-0.988861
-0.958474
-0.928165
-0.898011
-0.868085
-0.838456
-0.809184
-0.780326
-1.47636
-1.48455
-1.4892
-1.49056
-1.4889
-1.48443
-1.47735
-1.46787
-1.45617
-1.44242
-1.42678
-1.40939
-1.39037
-1.36985
-1.34794
-1.32477
-1.30043
-1.27504
-1.24869
-1.22148
-1.19352
-1.16491
-1.13574
-1.10611
-1.07612
-1.04587
-1.01545
-0.984955
-0.954469
-0.924079
-0.893865
-0.8639
-0.834254
-0.804988
-0.776158
-1.49316
-1.49916
-1.50201
-1.50192
-1.4991
-1.4937
-1.48589
-1.47582
-1.46365
-1.44952
-1.43356
-1.41589
-1.39661
-1.37583
-1.35367
-1.33022
-1.30559
-1.27988
-1.25318
-1.2256
-1.19722
-1.16817
-1.13852
-1.1084
-1.0779
-1.04713
-1.01618
-0.985148
-0.95414
-0.923242
-0.892541
-0.862118
-0.832047
-0.802395
-0.773222
-1.52083
-1.52395
-1.52444
-1.52244
-1.51811
-1.51154
-1.50281
-1.49204
-1.47935
-1.46483
-1.44858
-1.43068
-1.41122
-1.39027
-1.36791
-1.34425
-1.31936
-1.29333
-1.26626
-1.23822
-1.20932
-1.17965
-1.14932
-1.11843
-1.08709
-1.05541
-1.02351
-0.99148
-0.959442
-0.927499
-0.89575
-0.864291
-0.833211
-0.802589
-0.772498
-1.55576
-1.55577
-1.55371
-1.54968
-1.54375
-1.53596
-1.52634
-1.51492
-1.50179
-1.48701
-1.47062
-1.45268
-1.43322
-1.4123
-1.38997
-1.3663
-1.34135
-1.31519
-1.28788
-1.25951
-1.23015
-1.19989
-1.16884
-1.13708
-1.10474
-1.07193
-1.03875
-1.00535
-0.971836
-0.938333
-0.904963
-0.871844
-0.839088
-0.806799
-0.775071
-1.59157
-1.58887
-1.58462
-1.57886
-1.57159
-1.5628
-1.5525
-1.54066
-1.52732
-1.5125
-1.49622
-1.47848
-1.4593
-1.4387
-1.41669
-1.39332
-1.36862
-1.34263
-1.3154
-1.28698
-1.25742
-1.22681
-1.19522
-1.16274
-1.12948
-1.09554
-1.06105
-1.02614
-0.990926
-0.955562
-0.920184
-0.884936
-0.849957
-0.815383
-0.781342
-1.62233
-1.61765
-1.61187
-1.60492
-1.59678
-1.58741
-1.57677
-1.56482
-1.55156
-1.53697
-1.52105
-1.50377
-1.48512
-1.4651
-1.4437
-1.42093
-1.3968
-1.37132
-1.34451
-1.31639
-1.287
-1.25639
-1.22462
-1.19175
-1.15787
-1.12308
-1.08749
-1.05121
-1.01439
-0.977175
-0.939713
-0.90217
-0.864711
-0.827504
-0.790712
-1.64347
-1.63795
-1.63152
-1.6241
-1.61567
-1.60617
-1.59556
-1.5838
-1.57086
-1.55671
-1.54133
-1.52468
-1.50674
-1.48748
-1.46687
-1.44491
-1.42157
-1.39686
-1.37075
-1.34325
-1.31437
-1.28414
-1.25257
-1.21972
-1.18564
-1.15041
-1.11411
-1.07686
-1.03878
-1.00001
-0.96071
-0.921047
-0.881204
-0.841373
-0.801749
-1.65562
-1.64988
-1.64332
-1.63587
-1.62749
-1.61813
-1.60775
-1.59632
-1.58379
-1.57013
-1.55532
-1.53931
-1.52207
-1.50357
-1.48377
-1.46265
-1.44016
-1.41629
-1.39101
-1.3643
-1.33613
-1.30652
-1.27546
-1.24296
-1.20906
-1.17381
-1.13726
-1.09951
-1.06064
-1.0208
-0.980119
-0.938769
-0.896935
-0.854819
-0.812635
-1.66223
-1.65646
-1.6499
-1.64249
-1.63418
-1.62496
-1.61476
-1.60356
-1.59133
-1.57803
-1.56363
-1.5481
-1.53139
-1.51347
-1.49431
-1.47386
-1.45208
-1.42894
-1.4044
-1.37843
-1.35098
-1.32204
-1.29159
-1.25961
-1.22612
-1.19113
-1.15467
-1.1168
-1.0776
-1.03716
-0.995618
-0.953118
-0.909835
-0.865968
-0.821737
-1.66568
-1.65977
-1.65312
-1.64569
-1.6374
-1.62823
-1.61813
-1.60706
-1.59499
-1.58189
-1.56772
-1.55246
-1.53606
-1.5185
-1.49973
-1.47972
-1.45842
-1.43579
-1.41178
-1.38635
-1.35946
-1.33107
-1.30115
-1.26967
-1.23661
-1.20198
-1.16577
-1.12801
-1.08877
-1.0481
-1.00612
-0.962955
-0.918753
-0.873704
-0.828018
-1.66589
-1.66009
-1.65352
-1.64615
-1.63792
-1.6288
-1.61875
-1.60775
-1.59577
-1.58278
-1.56874
-1.55362
-1.53739
-1.52002
-1.50146
-1.48168
-1.46064
-1.43829
-1.41459
-1.38949
-1.36295
-1.33492
-1.30537
-1.27425
-1.24153
-1.20719
-1.17124
-1.13367
-1.09451
-1.05382
-1.01168
-0.968185
-0.923479
-0.877726
-0.831122
-1.66341
-1.65784
-1.65147
-1.64425
-1.63616
-1.62715
-1.6172
-1.60629
-1.5944
-1.58147
-1.5675
-1.55246
-1.5363
-1.51901
-1.50055
-1.48087
-1.45995
-1.43773
-1.41417
-1.38923
-1.36286
-1.33501
-1.30565
-1.27472
-1.2422
-1.20806
-1.17228
-1.13486
-1.0958
-1.05516
-1.01299
-0.969372
-0.924433
-0.878318
-0.831207
-1.65927
-1.65399
-1.64786
-1.64085
-1.63293
-1.62408
-1.61426
-1.60345
-1.59164
-1.57878
-1.56486
-1.54985
-1.53372
-1.51645
-1.498
-1.47833
-1.45741
-1.43519
-1.41164
-1.38671
-1.36037
-1.33256
-1.30324
-1.27237
-1.23991
-1.20584
-1.17013
-1.13277
-1.09377
-1.05317
-1.01101
-0.967359
-0.922335
-0.876068
-0.828726
-1.65494
-1.64984
-1.64387
-1.63699
-1.62919
-1.62044
-1.6107
-1.59997
-1.58821
-1.57539
-1.5615
-1.54651
-1.53038
-1.5131
-1.49463
-1.47493
-1.45397
-1.43171
-1.40811
-1.38312
-1.35671
-1.32883
-1.29944
-1.2685
-1.23597
-1.20184
-1.16607
-1.12866
-1.08962
-1.04898
-1.0068
-0.963125
-0.918065
-0.871747
-0.824327
-1.65172
-1.64666
-1.64074
-1.6339
-1.62613
-1.6174
-1.60768
-1.59695
-1.58518
-1.57235
-1.55843
-1.5434
-1.52723
-1.50988
-1.49134
-1.47155
-1.45049
-1.42812
-1.4044
-1.37929
-1.35274
-1.32473
-1.2952
-1.26412
-1.23146
-1.19719
-1.1613
-1.12379
-1.08465
-1.04392
-1.00165
-0.957913
-0.912799
-0.866436
-0.81898
-1.65033
-1.64523
-1.63925
-1.63236
-1.62455
-1.61577
-1.606
-1.59522
-1.58339
-1.5705
-1.55652
-1.54142
-1.52516
-1.50772
-1.48907
-1.46917
-1.44798
-1.42547
-1.4016
-1.37632
-1.3496
-1.3214
-1.29168
-1.26041
-1.22755
-1.19309
-1.15701
-1.1193
-1.07999
-1.0391
-0.996689
-0.952827
-0.907614
-0.861181
-0.81368
-1.65097
-1.64577
-1.6397
-1.63273
-1.62483
-1.61597
-1.60613
-1.59527
-1.58337
-1.5704
-1.55633
-1.54114
-1.52479
-1.50726
-1.4885
-1.46848
-1.44717
-1.42453
-1.40051
-1.37508
-1.34819
-1.31981
-1.28989
-1.25841
-1.22534
-1.19065
-1.15434
-1.11641
-1.07687
-1.03576
-0.993132
-0.949064
-0.903663
-0.857059
-0.809411
-1.65265
-1.64737
-1.64123
-1.63419
-1.62622
-1.61729
-1.60738
-1.59645
-1.58449
-1.57145
-1.55732
-1.54206
-1.52564
-1.50804
-1.4892
-1.4691
-1.44771
-1.42497
-1.40084
-1.3753
-1.34828
-1.31976
-1.2897
-1.25806
-1.22481
-1.18994
-1.15343
-1.11528
-1.07552
-1.03419
-0.991327
-0.947029
-0.901397
-0.854566
-0.806701
-0.755585
-0.727532
-0.700015
-0.673064
-0.646702
-0.620947
-0.595811
-0.571301
-0.547419
-0.524163
-0.75193
-0.724039
-0.696688
-0.669907
-0.643718
-0.618138
-0.593177
-0.568841
-0.545132
-0.522046
-0.747812
-0.719992
-0.692731
-0.666057
-0.639991
-0.614547
-0.589735
-0.565556
-0.542011
-0.519095
-0.744578
-0.716506
-0.689041
-0.66221
-0.636031
-0.610518
-0.585675
-0.561503
-0.537997
-0.515147
-0.742999
-0.714143
-0.685972
-0.658516
-0.631798
-0.605829
-0.580614
-0.55615
-0.532427
-0.50943
-0.743989
-0.713625
-0.684037
-0.655272
-0.627364
-0.600334
-0.574189
-0.548929
-0.524544
-0.501013
-0.747952
-0.715318
-0.683532
-0.652669
-0.622789
-0.593935
-0.566133
-0.539395
-0.513718
-0.489085
-0.754494
-0.718996
-0.684354
-0.650686
-0.618093
-0.586656
-0.556435
-0.527469
-0.499778
-0.473363
-0.762527
-0.723897
-0.686041
-0.649129
-0.613311
-0.578719
-0.545461
-0.513621
-0.483256
-0.4544
-0.770605
-0.728956
-0.687911
-0.647688
-0.608491
-0.570506
-0.533896
-0.498799
-0.465324
-0.433552
-0.777378
-0.733138
-0.689272
-0.646036
-0.603678
-0.562437
-0.522529
-0.484148
-0.447461
-0.412599
-0.781932
-0.735702
-0.689598
-0.6439
-0.598891
-0.554845
-0.512025
-0.470676
-0.431015
-0.393228
-0.783894
-0.736294
-0.688598
-0.641095
-0.594086
-0.54787
-0.502742
-0.458984
-0.416855
-0.376584
-0.783315
-0.734883
-0.686184
-0.637506
-0.589157
-0.541447
-0.494691
-0.449192
-0.405239
-0.363094
-0.780511
-0.731654
-0.682418
-0.63309
-0.583972
-0.535379
-0.487632
-0.441045
-0.395923
-0.352549
-0.775998
-0.726983
-0.677536
-0.627935
-0.57848
-0.529481
-0.481259
-0.434131
-0.388407
-0.344378
-0.770615
-0.72156
-0.672069
-0.622416
-0.572891
-0.523799
-0.475454
-0.428172
-0.38226
-0.338009
-0.765299
-0.716252
-0.666785
-0.617165
-0.567681
-0.518632
-0.47033
-0.423087
-0.377203
-0.332971
-0.760908
-0.711767
-0.662232
-0.61257
-0.563065
-0.514018
-0.465735
-0.418525
-0.372689
-0.328512
-0.757993
-0.708662
-0.658957
-0.609146
-0.559516
-0.510368
-0.462008
-0.414744
-0.368875
-0.324685
-0.501528
-0.479504
-0.458081
-0.437245
-0.416982
-0.397277
-0.378114
-0.359479
-0.341357
-0.323733
-0.306595
-0.289931
-0.273731
-0.257986
-0.242689
-0.227836
-0.213422
-0.199446
-0.185907
-0.172805
-0.160143
-0.147924
-0.136153
-0.124833
-0.113971
-0.103572
-0.0936426
-0.0841877
-0.0752133
-0.0667243
-0.0587251
-0.0512195
-0.04421
-0.0376985
-0.0316856
-0.499577
-0.477715
-0.456449
-0.435766
-0.41565
-0.396086
-0.37706
-0.358554
-0.340556
-0.32305
-0.306024
-0.289467
-0.273368
-0.25772
-0.242516
-0.227749
-0.213417
-0.199518
-0.186052
-0.173019
-0.160421
-0.148263
-0.136548
-0.125281
-0.114468
-0.104114
-0.0942265
-0.0848101
-0.0758708
-0.0674137
-0.0594432
-0.0519632
-0.0449763
-0.0384845
-0.0324885
-0.496798
-0.47511
-0.454018
-0.433506
-0.413559
-0.394161
-0.375295
-0.356946
-0.339097
-0.321735
-0.304847
-0.288422
-0.272448
-0.256918
-0.241827
-0.227168
-0.212938
-0.199135
-0.185759
-0.172811
-0.160294
-0.14821
-0.136566
-0.125365
-0.114614
-0.104318
-0.094484
-0.085118
-0.0762256
-0.067812
-0.0598818
-0.0524389
-0.0454863
-0.0390257
-0.033058
-0.492942
-0.471365
-0.450401
-0.43003
-0.410234
-0.390993
-0.372289
-0.354103
-0.336418
-0.319218
-0.30249
-0.28622
-0.270398
-0.255015
-0.240064
-0.22554
-0.211441
-0.197765
-0.184512
-0.17168
-0.159273
-0.147295
-0.13575
-0.124645
-0.113985
-0.103777
-0.0940269
-0.0847408
-0.0759247
-0.0675841
-0.0597235
-0.052347
-0.0454573
-0.0390565
-0.0331451
-0.487141
-0.465538
-0.444597
-0.424292
-0.404598
-0.385489
-0.366942
-0.348932
-0.331437
-0.314439
-0.297919
-0.281862
-0.266254
-0.251086
-0.236348
-0.222034
-0.208139
-0.194662
-0.181608
-0.168974
-0.156759
-0.144967
-0.133602
-0.122671
-0.11218
-0.102135
-0.0925427
-0.0834097
-0.0747415
-0.0665437
-0.0588207
-0.0515764
-0.0448134
-0.0385334
-0.0327367
-0.478312
-0.456411
-0.435276
-0.414872
-0.395162
-0.376111
-0.357684
-0.339848
-0.322571
-0.305826
-0.289589
-0.273836
-0.25855
-0.243714
-0.229317
-0.215348
-0.201799
-0.188668
-0.17595
-0.16365
-0.151772
-0.140315
-0.129277
-0.118665
-0.108483
-0.0987383
-0.0894379
-0.0805877
-0.0721933
-0.0642596
-0.056791
-0.0497907
-0.0432612
-0.0372034
-0.0316174
-0.46547
-0.442838
-0.421148
-0.400351
-0.3804
-0.361245
-0.342836
-0.325124
-0.308065
-0.291618
-0.275743
-0.260409
-0.245584
-0.231245
-0.21737
-0.203942
-0.190948
-0.178378
-0.166225
-0.154483
-0.143154
-0.132243
-0.121754
-0.11168
-0.102024
-0.092791
-0.0839859
-0.0756149
-0.067683
-0.0601945
-0.0531532
-0.0465616
-0.0404214
-0.0347332
-0.029496
-0.448206
-0.424277
-0.401531
-0.379917
-0.359374
-0.339838
-0.321243
-0.303524
-0.286617
-0.270461
-0.255
-0.240181
-0.225959
-0.212293
-0.199148
-0.186494
-0.174307
-0.162566
-0.151256
-0.140364
-0.129884
-0.119807
-0.110137
-0.100879
-0.0920272
-0.0835789
-0.0755353
-0.0678998
-0.0606763
-0.0538677
-0.0474768
-0.0415052
-0.0359539
-0.0308224
-0.0261093
-0.427061
-0.401226
-0.376863
-0.353922
-0.33234
-0.312046
-0.292961
-0.275001
-0.258083
-0.242126
-0.227049
-0.212778
-0.199246
-0.186388
-0.174151
-0.162484
-0.151347
-0.140703
-0.130522
-0.120781
-0.111459
-0.102542
-0.0940181
-0.0858809
-0.0781295
-0.070762
-0.0637717
-0.0571554
-0.050913
-0.0450451
-0.0395523
-0.0344349
-0.0296924
-0.0253239
-0.0213272
-0.403531
-0.375281
-0.348794
-0.32404
-0.300966
-0.2795
-0.259559
-0.24105
-0.223872
-0.207925
-0.193106
-0.179316
-0.166462
-0.154455
-0.143214
-0.132666
-0.122747
-0.113399
-0.104572
-0.0962247
-0.0883218
-0.080834
-0.0737376
-0.0670139
-0.0606483
-0.0546307
-0.0489552
-0.0436144
-0.0386018
-0.0339134
-0.0295466
-0.025499
-0.0217685
-0.018353
-0.0152496
-0.379663
-0.348717
-0.319792
-0.292886
-0.267969
-0.244984
-0.223854
-0.204483
-0.186765
-0.170583
-0.155818
-0.142349
-0.130056
-0.118826
-0.10855
-0.0991294
-0.0904713
-0.0824937
-0.0751234
-0.0682962
-0.0619566
-0.0560573
-0.0505581
-0.0454262
-0.0406342
-0.0361605
-0.0319875
-0.0281007
-0.0244893
-0.0211452
-0.018062
-0.0152345
-0.0126581
-0.0103289
-0.00824342
-0.357465
-0.323842
-0.292432
-0.263273
-0.236365
-0.211678
-0.189148
-0.16869
-0.150198
-0.133552
-0.118619
-0.105262
-0.0933433
-0.0827246
-0.0732728
-0.0648619
-0.0573735
-0.0506991
-0.04474
-0.0394078
-0.0346246
-0.0303222
-0.0264419
-0.0229336
-0.0197553
-0.0168723
-0.0142561
-0.0118836
-0.00973475
-0.00779256
-0.00604604
-0.00448845
-0.00311358
-0.00191588
-0.000890752
-0.338371
-0.302373
-0.268709
-0.237456
-0.208651
-0.182289
-0.158334
-0.136715
-0.117335
-0.100076
-0.0848029
-0.0713703
-0.0596255
-0.0494135
-0.0405812
-0.0329795
-0.0264672
-0.020911
-0.0161887
-0.0121884
-0.00881014
-0.00596457
-0.00357402
-0.0015707
0.000102838
0.00149549
0.00264751
0.00359232
0.00435683
0.00496343
0.00543182
0.00577698
0.00600674
0.00612638
0.00614072
-0.32299
-0.285122
-0.249645
-0.216671
-0.186269
-0.158464
-0.133244
-0.110557
-0.090321
-0.0724252
-0.0567384
-0.0431117
-0.0313864
-0.0213962
-0.0129744
-0.00595491
-0.000178357
0.00450816
0.0082467
0.0111694
0.0133954
0.0150329
0.0161768
0.0169112
0.0173079
0.0174292
0.0173268
0.0170441
0.0166162
0.0160719
0.0154336
0.0147207
0.0139484
0.0131264
0.0122585
-0.311177
-0.272027
-0.235281
-0.201077
-0.169509
-0.140627
-0.114439
-0.0909138
-0.0699807
-0.0515428
-0.0354722
-0.0216254
-0.00983901
5.51376e-05
0.00823479
0.0148735
0.020146
0.0242162
0.0272436
0.0293727
0.0307402
0.0314667
0.0316633
0.031425
0.0308379
0.0299732
0.0288941
0.0276511
0.026288
0.0248385
0.0233307
0.0217855
0.02022
0.0186469
0.0170752
-0.302312
-0.262442
-0.224964
-0.190031
-0.157758
-0.128209
-0.101408
-0.077338
-0.0559423
-0.0371314
-0.0207873
-0.00676825
0.00508478
0.0149433
0.022986
0.0293938
0.0343462
0.0380177
0.0405746
0.0421735
0.0429593
0.0430643
0.0426077
0.0416957
0.0404216
0.0388659
0.037098
0.035176
0.0331482
0.0310541
0.028925
0.0267854
0.0246538
0.0225436
0.0204647
-0.295692
-0.255544
-0.21777
-0.18253
-0.149947
-0.120094
-0.0930074
-0.0686746
-0.0470522
-0.0280541
-0.0115728
0.00253307
0.0144151
0.0242479
0.0322055
0.0384751
0.0432344
0.046666
0.0489369
0.0502128
0.0506404
0.0503616
0.0494981
0.0481652
0.0464585
0.0444667
0.0422613
0.0399071
0.0374543
0.0349473
0.0324187
0.0298967
0.0274003
0.024945
0.0225401
-0.290662
-0.250513
-0.212723
-0.177455
-0.144831
-0.114934
-0.0877965
-0.0634182
-0.0417522
-0.022725
-0.00622467
0.00787783
0.0197398
0.0295249
0.0374145
0.0435868
0.048228
0.0515135
0.0536197
0.054707
0.0549316
0.0544315
0.0533376
0.0517623
0.0498096
0.0475663
0.045111
0.0425069
0.0398102
0.0370641
0.0343058
0.0315624
0.0288562
0.0262019
0.0236105
-0.286259
-0.246168
-0.208439
-0.173228
-0.14066
-0.110821
-0.0837474
-0.0594337
-0.037838
-0.0188832
-0.00246317
0.0115544
0.0233211
0.0330043
0.0407802
0.046831
0.0513391
0.0544844
0.0564401
0.0573715
0.0574326
0.0567662
0.0555018
0.0537561
0.0516322
0.0492208
0.0465997
0.0438355
0.0409837
0.03809
0.035191
0.0323157
0.0294857
0.0267168
0.0240195
-0.282435
-0.242361
-0.204662
-0.169499
-0.136992
-0.107222
-0.0802203
-0.0559782
-0.0344618
-0.0155968
0.000723997
0.0146327
0.0262814
0.0358377
0.0434789
0.0493878
0.053748
0.0567406
0.0585404
0.059314
0.059217
0.0583935
0.0569746
0.0550781
0.0528085
0.0502574
0.0475035
0.0446139
0.0416448
0.0386422
0.0356429
0.0326759
0.0297629
0.0269194
0.0241556
-0.026171
-0.021153
-0.0166292
-0.0125961
-0.00904963
-0.00598692
-0.00340933
-0.00130159
0.00039794
0.00134984
-0.026988
-0.0219817
-0.0174669
-0.01344
-0.00989678
-0.00683124
-0.00424018
-0.00209671
-0.000359055
0.00129466
-0.027583
-0.0225992
-0.0181037
-0.0140925
-0.01056
-0.00749752
-0.00489786
-0.00271598
-0.00100518
0.00145259
-0.0277227
-0.0227873
-0.0183356
-0.0143623
-0.0108606
-0.00781773
-0.00522816
-0.00301544
-0.00138738
0.00165202
-0.0274223
-0.0225877
-0.0182286
-0.0143385
-0.0109092
-0.00792571
-0.0053863
-0.00318882
-0.00168041
0.00166734
-0.0265013
-0.0218518
-0.0176637
-0.0139295
-0.0106403
-0.00777944
-0.00534918
-0.00323812
-0.00185044
0.00142227
-0.0247076
-0.0203637
-0.0164583
-0.0129832
-0.00992874
-0.00727859
-0.00503346
-0.00309791
-0.00180893
0.00091411
-0.0218116
-0.0179246
-0.0144416
-0.0113543
-0.00865199
-0.00632134
-0.00435012
-0.00269466
-0.00148557
0.000203948
-0.0176989
-0.014434
-0.011526
-0.00896663
-0.00674477
-0.00484994
-0.0032544
-0.00198486
-0.000871257
-0.000590755
-0.0124549
-0.00996414
-0.00777117
-0.00586902
-0.0042456
-0.00289751
-0.00177362
-0.00098901
-3.73885e-05
-0.00131685
-0.00639792
-0.0047883
-0.00340958
-0.00225637
-0.00131799
-0.000595355
-2.5391e-05
0.00020775
0.000884264
-0.00182323
-3.43307e-05
0.000656723
0.00118606
0.00155665
0.00177737
0.00184035
0.00181591
0.00147334
0.00174519
-0.00200662
0.00605372
0.00586804
0.00558575
0.0052074
0.00473826
0.00416665
0.00355521
0.00266657
0.00243407
-0.00184951
0.011348
0.0103965
0.00940456
0.00837064
0.00729611
0.0061667
0.00502952
0.00367294
0.00290289
-0.00142872
0.0155078
0.0139457
0.0123877
0.0108309
0.0092731
0.00769921
0.00613887
0.00442291
0.00316647
-0.00088332
0.0184227
0.0164191
0.0144521
0.012518
0.0106122
0.00872121
0.00685733
0.00490255
0.00327068
-0.000351168
0.0201923
0.0179034
0.0156728
0.0134957
0.0113681
0.00927664
0.0072253
0.00513818
0.00326102
8.48312e-05
0.0210876
0.0186364
0.0162555
0.0139421
0.0116899
0.0094907
0.00734008
0.00519948
0.00318361
0.000412966
0.0214
0.0188605
0.0164004
0.014016
0.0117023
0.00945111
0.00725681
0.00510248
0.00301341
0.000614782
0.0214771
0.0188859
0.0163809
0.0139585
0.0116129
0.00933689
0.0071238
0.00496304
0.00284313
0.000711857
)
;

boundaryField
{
    inlet
    {
        type            zeroGradient;
    }
    outlet
    {
        type            fixedValue;
        value           uniform 0;
    }
    upperWall
    {
        type            zeroGradient;
    }
    lowerWall
    {
        type            zeroGradient;
    }
    frontAndBack
    {
        type            empty;
    }
}


// ************************************************************************* //
