/*--------------------------------*- C++ -*----------------------------------*\
| =========                 |                                                 |
| \\      /  F ield         | OpenFOAM: The Open Source CFD Toolbox           |
|  \\    /   O peration     | Version:  2406                                  |
|   \\  /    A nd           | Website:  www.openfoam.com                      |
|    \\/     M anipulation  |                                                 |
\*---------------------------------------------------------------------------*/
FoamFile
{
    version     2.0;
    format      ascii;
    arch        "LSB;label=32;scalar=64";
    class       surfaceScalarField;
    location    "90";
    object      phi;
}
// * * * * * * * * * * * * * * * * * * * * * * * * * * * * * * * * * * * * * //

dimensions      [0 3 -1 0 0 0 0];

oriented        oriented;

internalField   nonuniform List<scalar> 
3880
(
0.0764642
-0.000464198
0.0765308
-6.65534e-05
0.0759572
0.000573666
0.0748802
0.00107697
0.0734629
0.00141736
0.0718005
0.00166243
0.069957
0.00184356
0.0679915
0.00196556
0.0659555
0.00203603
0.00206839
0.0638872
0.203285
0.000250667
0.202152
0.00106654
0.20064
0.00208547
0.198677
0.00303993
0.196269
0.00382616
0.193465
0.00446577
0.190322
0.00498704
0.18689
0.00539808
0.183219
0.00570692
0.00592927
0.179358
0.299519
0.000731528
0.298413
0.00217248
0.296843
0.00365544
0.294842
0.00504083
0.292425
0.00624342
0.289624
0.00726748
0.286474
0.00813677
0.283008
0.0088636
0.279257
0.00945864
0.00993801
0.275248
0.363656
0.00107529
0.362744
0.00308477
0.361407
0.00499246
0.35972
0.00672735
0.357709
0.0082553
0.355391
0.00958538
0.352791
0.0107366
0.349929
0.0117251
0.346821
0.0125668
0.0132802
0.343479
0.395724
0.00135141
0.394978
0.00383075
0.393907
0.00606348
0.392608
0.00802581
0.391111
0.00975268
0.389426
0.0112705
0.387567
0.0125954
0.385544
0.0137479
0.38336
0.0147516
0.0156275
0.381012
0.395748
0.00160309
0.395109
0.00446974
0.394301
0.00687222
0.393431
0.00889543
0.392514
0.0106696
0.39155
0.0122341
0.390543
0.0136024
0.389488
0.0148031
0.388373
0.0158665
0.0168147
0.387186
0.363703
0.00190014
0.36309
0.00508272
0.362549
0.00741303
0.362167
0.00927773
0.361924
0.0109123
0.361809
0.0123489
0.361805
0.0136065
0.361883
0.0147248
0.362014
0.015736
0.0166586
0.36217
0.299419
0.00248122
0.298814
0.00568723
0.298702
0.00752582
0.299041
0.00893846
0.299778
0.0101752
0.300871
0.0112558
0.302254
0.0122234
0.303856
0.0131227
0.305617
0.0139745
0.0147865
0.307489
0.202646
0.00383494
0.202924
0.0054091
0.204563
0.00588744
0.207104
0.00639714
0.210311
0.00696835
0.213964
0.00760255
0.217887
0.00829998
0.221968
0.00904182
0.226135
0.00980738
0.0105831
0.230339
0.0818382
-0.00200328
0.090567
-0.00331983
0.0991823
-0.0027279
0.107452
-0.0018724
0.115324
-0.000903731
0.122743
0.000183562
0.129745
0.00129767
0.136409
0.00237775
0.142803
0.00341369
0.00441051
0.148975
0.011321
-0.0133243
0.0231009
-0.0150998
0.0331709
-0.012798
0.0420413
-0.0107428
0.050023
-0.00888551
0.0573425
-0.00713607
0.064181
-0.00554086
0.070672
-0.00411339
0.0769085
-0.00282286
-0.00163561
0.0829546
-0.00140893
-0.0119154
0.00135465
-0.0178635
0.0058526
-0.017296
0.010604
-0.0154943
0.0152853
-0.013567
0.0198778
-0.0117287
0.0243992
-0.0100623
0.0288683
-0.00858263
0.033306
-0.00726059
-0.00606064
0.0377309
-0.0025307
-0.00938473
-0.00419712
-0.0161971
-0.00423119
-0.0172621
-0.0033526
-0.016373
-0.00198391
-0.0149357
-0.00028788
-0.0134248
0.00165504
-0.0120053
0.00379265
-0.0107203
0.00609413
-0.00956215
-0.00850819
0.0085416
-0.00242498
-0.00695979
-0.00550078
-0.0131214
-0.00784288
-0.01492
-0.00943003
-0.0147859
-0.0104296
-0.0139362
-0.0109657
-0.0128887
-0.0111252
-0.0118459
-0.010972
-0.0108736
-0.0105525
-0.00998168
-0.00916146
-0.00989931
-0.00214993
-0.00480988
-0.00554888
-0.00972253
-0.00886735
-0.0116016
-0.0117538
-0.0118995
-0.0141749
-0.0115153
-0.0161714
-0.0108923
-0.0177957
-0.0102216
-0.0190958
-0.00957355
-0.0201109
-0.00896659
-0.00840061
-0.0208718
-0.00181221
-0.00299771
-0.00504526
-0.00648955
-0.00856479
-0.00808218
-0.0119304
-0.00853393
-0.0150071
-0.00843862
-0.017772
-0.00812742
-0.0202397
-0.00775402
-0.0224347
-0.00737858
-0.0243818
-0.00701958
-0.00667997
-0.0261025
-0.00142467
-0.00157307
-0.00418294
-0.00373135
-0.00739655
-0.00486864
-0.0106508
-0.00527979
-0.0137756
-0.00531387
-0.0167125
-0.00519058
-0.0194496
-0.00501694
-0.0219928
-0.00483545
-0.0243532
-0.0046592
-0.00449053
-0.0265427
-0.000985822
-0.000587275
-0.00305428
-0.00166297
-0.00561277
-0.00231022
-0.00832121
-0.00257143
-0.011012
-0.00262316
-0.0136147
-0.00258796
-0.0161058
-0.00252586
-0.0184816
-0.00245973
-0.0207451
-0.00239572
-0.00233435
-0.0229013
-0.000510768
-7.65347e-05
-0.00176135
-0.000412448
-0.00343519
-0.000636435
-0.00528009
-0.000726589
-0.00715652
-0.000746779
-0.00900402
-0.000740515
-0.0108022
-0.000727707
-0.012547
-0.000715023
-0.0142391
-0.000703593
-0.00069297
-0.0158806
-7.65401e-05
-0.000488995
-0.00112544
-0.00185203
-0.00259882
-0.00333934
-0.00406705
-0.00478208
-0.00548568
-0.00617865
0.0618124
0.00207484
0.0597488
0.00206363
0.0577085
0.00204044
0.0556989
0.00200959
0.0537247
0.00197437
0.0517876
0.00193711
0.0498884
0.0018993
0.0480266
0.00186192
0.0462011
0.00182557
0.0444107
0.00179056
0.0426538
0.00175701
0.040929
0.00172486
0.0392352
0.00169397
0.0375713
0.00166408
0.0359365
0.00163493
0.0343304
0.00160622
0.0327529
0.00157763
0.0312042
0.00154883
0.0296848
0.00151952
0.0281956
0.00148938
0.0267376
0.00145815
0.0253121
0.00142558
0.0239208
0.00139147
0.0225653
0.00135566
0.0212473
0.00131804
0.0199689
0.00127856
0.0187318
0.00123721
0.0175379
0.00119402
0.0163888
0.0011491
0.0152863
0.00110257
0.0142318
0.00105463
0.0132263
0.00100549
0.012271
0.00095539
0.0113664
0.00090461
0.000853425
0.010513
0.17535
0.00608252
0.171233
0.00618113
0.167037
0.00623668
0.162788
0.006259
0.158506
0.00625642
0.154207
0.00623568
0.149905
0.00620201
0.145607
0.00615946
0.141322
0.00611107
0.137054
0.00605909
0.132806
0.00600508
0.128581
0.00595001
0.124381
0.00589436
0.120207
0.00583827
0.11606
0.00578154
0.111943
0.00572377
0.107857
0.00566435
0.103803
0.00560257
0.0997853
0.0055376
0.0958064
0.00546857
0.0918701
0.00539461
0.0879811
0.00531486
0.0841443
0.00522853
0.0803652
0.00513494
0.07665
0.00503349
0.073005
0.00492374
0.069437
0.00480542
0.0659528
0.00467839
0.0625593
0.00454272
0.0592634
0.00439866
0.0560715
0.00424662
0.0529899
0.0040872
0.0500242
0.00392114
0.0471796
0.0037493
0.00357267
0.0444604
0.271011
0.0103197
0.266572
0.0106199
0.261957
0.0108524
0.257186
0.0110292
0.252282
0.0111612
0.24726
0.0112573
0.242137
0.0113252
0.236926
0.011371
0.231637
0.0113997
0.226281
0.0114152
0.220866
0.0114206
0.215398
0.0114179
0.209884
0.0114085
0.204329
0.0113933
0.198739
0.0113724
0.193117
0.0113455
0.18747
0.011312
0.181802
0.011271
0.176118
0.0112211
0.170426
0.011161
0.164732
0.0110891
0.159043
0.0110036
0.153369
0.0109031
0.147718
0.0107859
0.142101
0.0106506
0.136529
0.010496
0.131014
0.010321
0.125568
0.0101248
0.120203
0.00990718
0.114934
0.00966798
0.109773
0.00940754
0.104734
0.00912658
0.0998291
0.00882615
0.0950708
0.0085077
0.00817298
0.0904705
0.339916
0.0138835
0.336142
0.0143932
0.332171
0.0148241
0.328011
0.015189
0.323673
0.0154995
0.319165
0.0157654
0.314495
0.0159949
0.309671
0.0161951
0.304699
0.0163716
0.299586
0.016529
0.294336
0.0166708
0.288954
0.0167996
0.283445
0.0169172
0.277814
0.0170245
0.272065
0.0171218
0.266202
0.0172086
0.26023
0.0172842
0.254154
0.0173471
0.24798
0.0173954
0.241714
0.0174271
0.235364
0.0174396
0.228938
0.0174303
0.222444
0.0173963
0.215896
0.0173351
0.209303
0.0172437
0.202679
0.0171196
0.19604
0.0169606
0.1894
0.0167645
0.182778
0.01653
0.17619
0.0162558
0.169656
0.0159415
0.163196
0.0155873
0.156828
0.0151937
0.150573
0.0147624
0.0142952
0.144451
0.378502
0.0163938
0.375829
0.0170666
0.372992
0.0176609
0.369991
0.0181897
0.366826
0.0186643
0.363497
0.0190947
0.360003
0.0194891
0.356343
0.0198547
0.352518
0.0201972
0.348526
0.0205214
0.344366
0.0208308
0.340037
0.021128
0.33554
0.0214148
0.330872
0.0216921
0.326034
0.0219598
0.321026
0.0222174
0.315846
0.0224636
0.310498
0.0226962
0.30498
0.0229129
0.299297
0.0231105
0.293451
0.0232856
0.287447
0.0234343
0.281291
0.0235524
0.274991
0.0236357
0.268555
0.0236798
0.261994
0.0236803
0.255322
0.0236331
0.248552
0.0235343
0.241702
0.0233803
0.23479
0.0231684
0.227835
0.0228962
0.22086
0.0225623
0.213888
0.022166
0.206943
0.0217077
0.0211886
0.20005
0.385915
0.0176645
0.384551
0.0184311
0.383083
0.0191285
0.381504
0.019769
0.379805
0.020363
0.37798
0.0209198
0.376022
0.0214474
0.373924
0.0219524
0.371681
0.0224405
0.369286
0.0229162
0.366734
0.023383
0.364019
0.0238434
0.361135
0.0242992
0.358076
0.0247512
0.354836
0.0251993
0.351411
0.0256427
0.347795
0.0260797
0.343983
0.0265082
0.339971
0.0269249
0.335756
0.0273262
0.331334
0.0277077
0.326703
0.0280647
0.321864
0.0283916
0.316817
0.0286828
0.311565
0.0289322
0.306112
0.0291336
0.300465
0.0292808
0.294631
0.0293676
0.288623
0.0293884
0.282454
0.0293376
0.27614
0.0292107
0.269699
0.0290036
0.263152
0.0287134
0.256521
0.0283382
0.0278774
0.249833
0.362328
0.017506
0.362469
0.0182909
0.362572
0.0190248
0.362623
0.0197179
0.362608
0.0203787
0.362513
0.021015
0.362327
0.0216334
0.362039
0.0222397
0.361641
0.0228388
0.361122
0.0234347
0.360475
0.0240306
0.359689
0.0246288
0.358758
0.0252309
0.357671
0.0258377
0.356421
0.0264492
0.354999
0.0270646
0.353397
0.0276823
0.351605
0.0283001
0.349615
0.0289146
0.34742
0.0295221
0.34501
0.0301177
0.342378
0.0306962
0.339518
0.0312514
0.336425
0.0317766
0.333092
0.0322646
0.329519
0.0327076
0.325702
0.0330978
0.321642
0.033427
0.317344
0.0336873
0.312811
0.0338706
0.308052
0.0339698
0.303077
0.033978
0.297901
0.0338894
0.29254
0.0336993
0.0334039
0.287014
0.309431
0.0155644
0.311408
0.0163139
0.313392
0.0170407
0.31536
0.01775
0.317292
0.0184465
0.319172
0.0191348
0.320986
0.0198192
0.322722
0.0205036
0.32437
0.0211914
0.325919
0.0218856
0.327361
0.0225887
0.328687
0.0233026
0.329889
0.0240288
0.330958
0.024768
0.331887
0.0255205
0.332666
0.0262857
0.333286
0.0270623
0.333738
0.0278483
0.334011
0.028641
0.334097
0.0294367
0.333983
0.0302309
0.333661
0.0310185
0.33312
0.0317931
0.332348
0.0325479
0.331338
0.0332751
0.330079
0.0339663
0.328564
0.0346126
0.326787
0.0352045
0.324742
0.0357323
0.322427
0.0361862
0.31984
0.0365566
0.316984
0.0368341
0.313863
0.0370102
0.310485
0.037077
0.0370279
0.306861
0.234543
0.0113606
0.238721
0.0121354
0.242855
0.0129062
0.246932
0.0136734
0.25094
0.0144385
0.254871
0.0152036
0.258719
0.0159713
0.262478
0.0167443
0.266144
0.0175253
0.269713
0.0183168
0.27318
0.0191211
0.276542
0.0199403
0.279795
0.0207761
0.282934
0.0216296
0.285952
0.0225016
0.288846
0.0233923
0.291607
0.0243011
0.294228
0.0252269
0.296701
0.0261678
0.299017
0.0271208
0.301165
0.0280825
0.303136
0.0290482
0.304916
0.0300124
0.306495
0.0309687
0.307861
0.0319097
0.309
0.0328269
0.309902
0.0337113
0.310553
0.0345529
0.310944
0.0353411
0.311065
0.0360652
0.310908
0.0367138
0.310467
0.0372758
0.309736
0.0377404
0.308716
0.0380972
0.0383368
0.307407
0.154962
0.00537316
0.160792
0.00630618
0.166483
0.00721486
0.172051
0.00810504
0.177508
0.00898201
0.182861
0.00985055
0.188117
0.010715
0.193282
0.0115795
0.198359
0.0124479
0.203352
0.0133236
0.208263
0.01421
0.213093
0.01511
0.217843
0.0160261
0.222512
0.0169605
0.227099
0.017915
0.2316
0.0188907
0.236013
0.0198884
0.240332
0.0209079
0.244551
0.0219485
0.248663
0.0230087
0.252659
0.0240862
0.25653
0.0251774
0.260264
0.0262782
0.263849
0.0273831
0.267273
0.0284857
0.270522
0.0295784
0.27358
0.0306526
0.276435
0.0316987
0.279069
0.0327063
0.28147
0.0336641
0.283624
0.0345602
0.285517
0.0353826
0.287139
0.0361188
0.288479
0.0367569
0.0372852
0.289531
0.0888558
-0.000528179
0.0946447
0.000517241
0.100343
0.00151626
0.105967
0.00248087
0.111529
0.00341975
0.11704
0.00434013
0.122507
0.00524808
0.127937
0.00614921
0.133336
0.00704867
0.138708
0.00795112
0.144058
0.0088607
0.149386
0.00978118
0.154696
0.010716
0.159989
0.0116681
0.165263
0.0126403
0.170519
0.0136347
0.175754
0.0146531
0.180965
0.0156966
0.186148
0.0167657
0.191297
0.0178601
0.196404
0.0189789
0.201461
0.0201201
0.206458
0.0212808
0.211384
0.0224571
0.216226
0.0236439
0.22097
0.0248349
0.225599
0.0260226
0.2301
0.0271986
0.234453
0.0283529
0.238642
0.029475
0.242649
0.0305531
0.246457
0.0315749
0.250048
0.0325276
0.253407
0.0333982
0.0341738
0.256518
0.0421572
-0.0049546
0.0465959
-0.0039215
0.0510574
-0.00294526
0.0555506
-0.00201251
0.0600825
-0.00111214
0.0646583
-0.00023584
0.0692823
0.00062402
0.0739566
0.00147482
0.0786829
0.00232223
0.0834631
0.00317085
0.0882988
0.00402486
0.0931917
0.0048882
0.0981428
0.0057647
0.103153
0.00665785
0.108222
0.00757086
0.11335
0.00850657
0.118536
0.00946747
0.123777
0.0104555
0.12907
0.0114723
0.134411
0.0125186
0.139795
0.0135948
0.145215
0.0147002
0.150662
0.0158336
0.156127
0.0169923
0.161598
0.0181729
0.167062
0.0193707
0.172504
0.0205799
0.17791
0.0217931
0.183261
0.023002
0.188539
0.024197
0.193724
0.0253673
0.198798
0.0265013
0.203739
0.0275864
0.208527
0.0286097
0.0295578
0.213143
0.0111237
-0.00753682
0.0138328
-0.00663063
0.0166633
-0.00577584
0.0196117
-0.00496096
0.0226757
-0.00417624
0.0258535
-0.00341375
0.0291446
-0.00266721
0.0325509
-0.00193149
0.0360741
-0.00120113
0.0397161
-0.00047124
0.0434784
0.00026249
0.0473618
0.00100468
0.0513669
0.00175947
0.0554944
0.00253031
0.0597447
0.00332041
0.0641183
0.00413289
0.068615
0.00497066
0.0732342
0.00583624
0.0779746
0.00673176
0.0828341
0.00765899
0.0878095
0.00861926
0.0928964
0.00961321
0.0980892
0.0106406
0.103381
0.0117006
0.108762
0.0127911
0.114224
0.0139091
0.119753
0.0150503
0.125337
0.0162094
0.13096
0.0173794
0.136604
0.0185523
0.142253
0.0197189
0.147885
0.0208689
0.153481
0.0219908
0.159018
0.0230723
0.0241007
0.164475
-0.00903569
-0.00840051
-0.00797885
-0.00768753
-0.00674175
-0.00701301
-0.00533397
-0.00636881
-0.00376233
-0.00574794
-0.00203153
-0.00514463
-0.000144561
-0.00455425
0.00189646
-0.00397259
0.00409064
-0.00339538
0.00643799
-0.00281867
0.00893917
-0.00223877
0.0115959
-0.00165218
0.0144106
-0.00105529
0.0173853
-0.000444449
0.0205218
0.000183822
0.0238217
0.000832919
0.0272863
0.00150593
0.0309169
0.00220558
0.0347143
0.0029343
0.0386787
0.00369446
0.0428097
0.00448818
0.047106
0.00531685
0.0515651
0.00618139
0.0561836
0.00708206
0.0609563
0.00801826
0.0658768
0.0089885
0.0709369
0.0099902
0.0761267
0.0110196
0.0814345
0.0120715
0.0868471
0.0131397
0.092349
0.014217
0.0979233
0.0152946
0.103551
0.0163628
0.109213
0.0174106
0.0184266
0.114887
-0.0214021
-0.00787023
-0.0217202
-0.00736954
-0.0218401
-0.00689314
-0.0217727
-0.00643629
-0.0215259
-0.00599481
-0.0211054
-0.00556517
-0.0205153
-0.00514438
-0.0197584
-0.00472958
-0.018836
-0.00431783
-0.0177484
-0.00390631
-0.0164949
-0.00349233
-0.015074
-0.00307315
-0.0134834
-0.00264584
-0.0117206
-0.00220734
-0.00978225
-0.00175458
-0.00766492
-0.00128446
-0.00536524
-0.000793776
-0.00288026
-0.00027945
-0.000207263
0.000261282
0.00265656
0.000830605
0.00571383
0.0014309
0.00896632
0.00206434
0.0124151
0.00273268
0.0160601
0.00343702
0.0199005
0.00417788
0.023934
0.00495508
0.0281567
0.00576762
0.0325631
0.0066132
0.0371465
0.00748825
0.0418979
0.00838844
0.0468064
0.00930863
0.051859
0.0102421
0.057041
0.011181
0.0623355
0.0121162
0.0130379
0.0677243
-0.0276147
-0.00635804
-0.028933
-0.00605124
-0.0300691
-0.00575713
-0.0310319
-0.0054735
-0.0318284
-0.00519837
-0.0324636
-0.00492997
-0.0329413
-0.00466675
-0.0332638
-0.00440711
-0.0334323
-0.00414937
-0.0334469
-0.00389179
-0.0333066
-0.00363263
-0.0330098
-0.00337001
-0.0325538
-0.00310183
-0.0319353
-0.00282582
-0.0311504
-0.00253958
-0.0301942
-0.0022406
-0.0290618
-0.00192623
-0.0277474
-0.00159383
-0.0262453
-0.00124074
-0.0245504
-0.00086425
-0.022658
-0.000461457
-0.0205636
-2.99032e-05
-0.0182629
0.000432072
-0.0157514
0.00092572
-0.0130259
0.00145249
-0.0100839
0.00201329
-0.0069244
0.00260838
-0.00354792
0.00323698
4.2979e-05
0.00389763
0.00384453
0.00458714
0.00785143
0.00530201
0.0120559
0.00603794
0.016448
0.00678922
0.0210155
0.00754893
0.00830938
0.0257444
-0.028572
-0.0043288
-0.0304503
-0.004173
-0.0321852
-0.00402224
-0.033783
-0.00387579
-0.0352484
-0.00373303
-0.036585
-0.00359336
-0.0377956
-0.0034562
-0.0388818
-0.0033209
-0.0398445
-0.00318674
-0.0406835
-0.00305284
-0.0413978
-0.00291832
-0.0419858
-0.00278209
-0.0424447
-0.00264292
-0.0427711
-0.00249938
-0.0429608
-0.00234993
-0.0430086
-0.00219281
-0.0429086
-0.00202619
-0.0426543
-0.00184804
-0.0422387
-0.0016563
-0.0416542
-0.0014487
-0.0408925
-0.00122305
-0.0399451
-0.000977089
-0.0388041
-0.000708796
-0.0374623
-0.000415884
-0.0359129
-9.67292e-05
-0.034149
0.000249802
-0.0321645
0.00062411
-0.0299537
0.00102662
-0.0275128
0.00145703
-0.0248396
0.00191435
-0.021934
0.00239677
-0.0187975
0.00290197
-0.015434
0.00342626
-0.0118498
0.00396531
0.0045137
-0.00805359
-0.0249552
-0.00227493
-0.0269114
-0.00221694
-0.0287735
-0.00216011
-0.030545
-0.00210434
-0.0322285
-0.00204958
-0.0338261
-0.0019958
-0.0353394
-0.00194292
-0.0367695
-0.00189083
-0.0381169
-0.00183933
-0.0393817
-0.00178816
-0.040563
-0.00173698
-0.0416598
-0.00168538
-0.0426699
-0.0016328
-0.0435906
-0.00157862
-0.0444185
-0.00152204
-0.0451491
-0.00146221
-0.0457771
-0.0013981
-0.0462965
-0.00132862
-0.0467002
-0.0012525
-0.0469803
-0.00116846
-0.0471281
-0.00107503
-0.0471343
-0.00097077
-0.0469887
-0.000854084
-0.0466809
-0.000723526
-0.0461995
-0.00057771
-0.045534
-0.000415451
-0.044674
-0.000235373
-0.0436104
-3.66901e-05
-0.0423336
0.000180836
-0.0408357
0.000416938
-0.0391097
0.000671414
-0.0371506
0.000943432
-0.0349552
0.00123152
-0.0325227
0.00153342
0.0018464
-0.0298546
-0.0174729
-0.000682633
-0.0190176
-0.000672312
-0.0205158
-0.000661939
-0.0219686
-0.000651541
-0.023377
-0.000641179
-0.024742
-0.000630916
-0.0260641
-0.000620811
-0.0273441
-0.000610894
-0.0285822
-0.000601172
-0.0297788
-0.000591625
-0.0309336
-0.000582217
-0.0320461
-0.000572867
-0.0331154
-0.000563468
-0.0341401
-0.000553859
-0.0351183
-0.000543851
-0.0360473
-0.000533194
-0.0369237
-0.000521609
-0.0377435
-0.000508746
-0.0385017
-0.000494227
-0.0391924
-0.000477596
-0.0398089
-0.000458374
-0.0403435
-0.000435998
-0.0407875
-0.000409887
-0.0411314
-0.000379426
-0.0413648
-0.000344041
-0.0414768
-0.000303076
-0.0414559
-0.000255914
-0.0412902
-0.000202051
-0.0409678
-0.000141164
-0.0404776
-7.27686e-05
-0.039809
3.37387e-06
-0.0389522
8.71519e-05
-0.0378984
0.000178186
-0.0366404
0.000276066
0.00038004
-0.0351735
-0.00686129
-0.00753361
-0.00819555
-0.0088471
-0.00948828
-0.0101192
-0.01074
-0.0113509
-0.0119521
-0.0125437
-0.0131259
-0.0136988
-0.0142623
-0.0148161
-0.01536
-0.0158931
-0.0164147
-0.0169235
-0.0174177
-0.0178953
-0.0183536
-0.0187896
-0.0191994
-0.0195788
-0.0199228
-0.0202258
-0.0204817
-0.0206837
-0.0208248
-0.0208975
-0.020894
-0.0208068
-0.0206285
-0.0203524
-0.0199723
0.0097109
0.000802123
0.00895993
0.000750986
0.00825965
0.000700287
0.00760937
0.000650281
0.00700817
0.0006012
0.00645492
0.000553249
0.00594832
0.0005066
0.00548692
0.000461397
0.00506918
0.000417742
0.000375715
0.00469347
0.0418702
0.0033923
0.0394119
0.00320928
0.0370875
0.00302475
0.0348979
0.00283979
0.0328436
0.00265549
0.030924
0.00247284
0.0291379
0.00229274
0.0274832
0.00211603
0.0259575
0.00194338
0.00177539
0.0245578
0.0860389
0.007824
0.0817852
0.007463
0.0777176
0.00709238
0.0738427
0.00671462
0.070166
0.00633225
0.066691
0.00594772
0.0634203
0.00556341
0.0603548
0.00518156
0.0574939
0.00480418
0.0044331
0.0548362
0.138481
0.0137947
0.132679
0.0132642
0.127065
0.0127072
0.121652
0.0121277
0.116454
0.0115298
0.111484
0.0109179
0.106751
0.0102963
0.102263
0.00966947
0.0980257
0.00904139
0.00841596
0.0940428
0.193233
0.020611
0.18652
0.0199779
0.179934
0.0192934
0.173499
0.0185622
0.167239
0.0177898
0.161175
0.0169821
0.155326
0.0161453
0.149709
0.0152861
0.14434
0.0144108
0.0135259
0.13923
0.243112
0.0273314
0.236388
0.0267021
0.229689
0.0259927
0.223043
0.0252075
0.216481
0.0243521
0.21003
0.0234329
0.203718
0.0224574
0.197571
0.0214334
0.191612
0.0203696
0.0192744
0.185863
0.281344
0.0330013
0.275555
0.0324908
0.269675
0.0318735
0.26373
0.0311519
0.257752
0.0303302
0.251771
0.0294143
0.245817
0.0284111
0.239921
0.0273291
0.234113
0.0261775
0.0249662
0.228421
0.303005
0.0368576
0.298934
0.0365624
0.294667
0.0361403
0.290228
0.0355911
0.285641
0.0349168
0.280934
0.0341209
0.276137
0.0332089
0.271278
0.0321881
0.266388
0.0310673
0.0298565
0.261497
0.305814
0.0384508
0.303944
0.0384325
0.301808
0.0382765
0.299419
0.0379796
0.296796
0.0375404
0.293957
0.0369599
0.290925
0.0362408
0.287724
0.0353884
0.284382
0.0344097
0.0333134
0.280925
0.290289
0.037693
0.290751
0.0379706
0.290917
0.0381098
0.290793
0.0381042
0.290384
0.0379494
0.2897
0.037643
0.288756
0.037185
0.287567
0.0365775
0.286152
0.0358251
0.0349345
0.284531
0.25937
0.0348419
0.261949
0.0353908
0.264249
0.0358101
0.266263
0.0360906
0.267987
0.036225
0.269422
0.0362081
0.27057
0.0360366
0.271438
0.0357099
0.272034
0.0352296
0.0345995
0.272368
0.217568
0.0304176
0.221783
0.031176
0.225772
0.0318211
0.229521
0.0323419
0.233017
0.0327289
0.236251
0.0329743
0.239215
0.0330724
0.241905
0.0330197
0.24432
0.0328148
0.0324591
0.246461
0.16983
0.0250627
0.175061
0.0259454
0.180146
0.0267361
0.185065
0.0274228
0.189799
0.0279947
0.194331
0.0284425
0.198646
0.0287584
0.202729
0.0289366
0.20657
0.0289737
0.0288681
0.210161
0.120552
0.0193984
0.126183
0.0203137
0.131759
0.0211601
0.137257
0.0219256
0.142652
0.0225992
0.147924
0.0231708
0.153051
0.0236314
0.158014
0.0239741
0.162795
0.0241934
0.0242861
0.167377
0.0731874
0.0139355
0.0787036
0.0147977
0.0842505
0.0156133
0.089805
0.0163713
0.0953433
0.0170611
0.100841
0.0176728
0.106276
0.0181974
0.111623
0.0186273
0.11686
0.0189561
0.0191794
0.121967
0.0306185
0.00906178
0.0356199
0.00979657
0.0407293
0.0105042
0.0459254
0.0111756
0.0511852
0.0118016
0.0564852
0.0123732
0.061801
0.0128819
0.0671083
0.0133204
0.0723825
0.0136823
0.0139626
0.0775997
-0.00405663
0.00506551
0.00012656
0.00561398
0.00448018
0.00615126
0.00898695
0.00666945
0.0136276
0.00716168
0.0183806
0.00762082
0.0232232
0.00804008
0.0281311
0.00841314
0.03308
0.00873415
0.00899843
0.0380449
-0.0269554
0.00216697
-0.0238318
0.00249118
-0.0204941
0.00281435
-0.0169555
0.00313179
-0.0132318
0.00343882
-0.00934075
0.00373074
-0.00530259
0.00400282
-0.00113918
0.00425065
0.00312583
0.00447003
0.00465724
0.00746786
-0.033495
0.000489084
-0.031605
0.000601829
-0.0295067
0.000716662
-0.027206
0.000831824
-0.024712
0.000945495
-0.0220364
0.00105573
-0.0191935
0.00116056
-0.0162002
0.00125804
-0.0130759
0.0013463
0.00142369
-0.00984172
-0.0194831
-0.0188812
-0.0181644
-0.0173325
-0.0163869
-0.0153311
-0.0141705
-0.0129124
-0.011566
-0.0101422
0.00435811
0.000335351
0.00406145
0.000296671
0.00380179
0.000259654
0.00357753
0.000224274
0.00338706
0.000190467
0.00322889
0.000158176
0.00310158
0.000127311
0.00300379
9.77998e-05
0.00293424
6.95427e-05
0.00289178
4.24664e-05
0.0028753
1.64745e-05
0.0028838
-8.49398e-06
0.0029163
-3.25136e-05
0.00297193
-5.56243e-05
0.00304982
-7.79054e-05
0.00314917
-9.93542e-05
0.00326917
-0.000120007
0.00340902
-0.000139866
0.00356795
-0.000158946
0.00374517
-0.000177232
0.00393988
-0.000194726
0.00415126
-0.000211403
0.00437849
-0.000227248
0.00462069
-0.000242223
0.00487697
-0.000256303
0.00514639
-0.000269449
0.00542799
-0.000281633
0.00572078
-0.000292817
0.00602373
-0.000302982
0.00633579
-0.000312099
0.00665591
-0.000320159
0.00698302
-0.00032715
0.00731605
-0.00033308
0.00765397
-0.000337956
-0.00034181
0.00799574
0.0232806
0.00161251
0.0221222
0.00145508
0.0210785
0.00130333
0.0201454
0.00115738
0.0193185
0.00101728
0.0185937
0.00088298
0.0179666
0.000754378
0.0174331
0.000631314
0.016989
0.000513608
0.0166304
0.00040104
0.0163535
0.000293395
0.0161545
0.000190444
0.01603
9.19739e-05
0.0159766
-2.24344e-06
0.015991
-9.23279e-05
0.01607
-0.000178374
0.0162105
-0.000260533
0.0164095
-0.000338891
0.016664
-0.000413501
0.0169711
-0.00048442
0.0173281
-0.000551681
0.0177319
-0.000615309
0.0181799
-0.000675293
0.0186693
-0.000731622
0.0191972
-0.000784261
0.0197609
-0.000833179
0.0203575
-0.000878336
0.0209843
-0.000919707
0.0216385
-0.000957264
0.0223173
-0.000991004
0.023018
-0.00102093
0.0237379
-0.00104708
0.0244742
-0.00106949
0.0252244
-0.00108825
-0.00110348
0.025986
0.0523787
0.00406989
0.0501179
0.00371584
0.0480492
0.00337201
0.0461673
0.00303923
0.0444665
0.00271806
0.0429405
0.00240888
0.041583
0.00211188
0.0403872
0.00182708
0.0393464
0.00155441
0.0384537
0.00129365
0.0377025
0.00104456
0.0370862
0.000806806
0.036598
0.000580059
0.0362318
0.000363961
0.0359813
0.000158163
0.0358406
-3.7702e-05
0.0358039
-0.000223783
0.0358652
-0.000400235
0.036019
-0.000567302
0.0362597
-0.000725178
0.0365821
-0.000874046
0.0369808
-0.00101406
0.0374508
-0.00114533
0.0379871
-0.00126798
0.0385849
-0.00138206
0.0392393
-0.00148766
0.0399458
-0.00158483
0.0406997
-0.00167365
0.0414965
-0.00175419
0.042332
-0.00182655
0.0432019
-0.00189086
0.044102
-0.00194726
0.0450284
-0.00199595
0.0459773
-0.00203716
-0.00207116
0.0469449
0.0903159
0.00779672
0.0868449
0.00718681
0.0836278
0.00658899
0.0806614
0.00600559
0.0779409
0.00543851
0.0754604
0.00488926
0.0732133
0.00435897
0.0711919
0.00384843
0.0693881
0.00335813
0.0677934
0.00288833
0.0663988
0.00243904
0.0651954
0.00201014
0.0641741
0.00160137
0.0633256
0.00121238
0.062641
0.000842774
0.0621111
0.000492084
0.0617276
0.000159775
0.0614819
-0.000154625
0.0613658
-0.0004512
0.0613708
-0.000730275
0.0614891
-0.000992297
0.0617126
-0.00123764
0.0620339
-0.00146667
0.0624457
-0.00167973
0.0629407
-0.00187716
0.0635123
-0.00205927
0.0641538
-0.00222635
0.0648588
-0.0023787
0.0656212
-0.00251665
0.0664351
-0.00264053
0.0672949
-0.00275069
0.0681951
-0.00284754
0.0691306
-0.00293151
0.0700965
-0.00300308
-0.0030628
0.071088
0.134389
0.0126374
0.129824
0.0117512
0.125541
0.0108725
0.12154
0.010006
0.117823
0.00915584
0.114386
0.00832563
0.111227
0.00751831
0.108339
0.00673626
0.105716
0.00598135
0.103349
0.00525495
0.10123
0.00455803
0.0993487
0.00389117
0.0976953
0.00325465
0.0962591
0.00264852
0.0950292
0.0020726
0.0939946
0.00152658
0.0931443
0.00101002
0.0924673
0.000522381
0.0919532
6.27954e-05
0.0915921
-0.000369215
0.0913735
-0.000773743
0.0912872
-0.00115136
0.0913233
-0.00150281
0.0914722
-0.00182876
0.0917249
-0.00212989
0.0920725
-0.00240687
0.0925065
-0.00266038
0.0930188
-0.0028911
0.0936018
-0.0030997
0.0942481
-0.00328689
0.0949507
-0.00345339
0.0957031
-0.00359998
0.096499
-0.00372746
0.0973325
-0.00383668
-0.00392854
0.0981982
0.180344
0.0181567
0.17507
0.017025
0.170055
0.0158873
0.165309
0.0147513
0.160841
0.0136241
0.156655
0.012512
0.152752
0.0114206
0.149133
0.0103548
0.145796
0.00931857
0.142736
0.00831531
0.139946
0.0073477
0.137419
0.00641777
0.135147
0.00552703
0.133118
0.00467649
0.131324
0.00386674
0.129753
0.00309803
0.128392
0.00237033
0.127231
0.00168335
0.126257
0.00103661
0.125459
0.000429355
0.124824
-0.000139516
0.124343
-0.000670433
0.124004
-0.00116382
0.123796
-0.00162063
0.123708
-0.00204193
0.12373
-0.00242879
0.123852
-0.00278232
0.124064
-0.00310366
0.124358
-0.00339393
0.124726
-0.00365432
0.125158
-0.00388603
0.125649
-0.00409029
0.126189
-0.00426836
0.126774
-0.00442157
-0.00455126
0.127397
0.222872
0.0237059
0.217489
0.0224071
0.212296
0.0210807
0.20731
0.019737
0.202548
0.018386
0.198022
0.0170371
0.193744
0.0156989
0.189719
0.0143792
0.185953
0.0130848
0.182446
0.0118218
0.179198
0.0105952
0.176207
0.00940923
0.173466
0.00826728
0.17097
0.00717202
0.168712
0.00612542
0.166681
0.00512887
0.164867
0.00418322
0.163262
0.00328889
0.161852
0.0024459
0.160628
0.00165397
0.159575
0.000912476
0.158685
0.000220244
0.157945
-0.000423872
0.157344
-0.00102044
0.156873
-0.00157044
0.156519
-0.00207529
0.156273
-0.00253647
0.156125
-0.00295554
0.156065
-0.0033341
0.156084
-0.00367381
0.156175
-0.00397639
0.156328
-0.00424357
0.156536
-0.00447712
0.156794
-0.00467887
-0.00485066
0.157093
0.256636
0.0285668
0.251833
0.0272101
0.247115
0.0257986
0.242507
0.0243448
0.238032
0.022861
0.23371
0.0213593
0.229557
0.019851
0.225589
0.0183468
0.221818
0.0168565
0.21825
0.015389
0.214893
0.0139521
0.211749
0.0125525
0.20882
0.0111961
0.206105
0.00988761
0.203599
0.00863096
0.201298
0.00742918
0.199197
0.00628452
0.197287
0.00519854
0.19556
0.00417221
0.194008
0.00320595
0.192621
0.0022997
0.191388
0.00145303
0.190299
0.000665012
0.189344
-6.59135e-05
0.188514
-0.000740966
0.1878
-0.0013612
0.187192
-0.0019282
0.18668
-0.00244383
0.186256
-0.00291008
0.185911
-0.00332901
0.185637
-0.00370277
0.185427
-0.00403354
0.185274
-0.0043236
0.18517
-0.00457521
-0.0047907
0.18511
0.277382
0.0321101
0.27378
0.0308113
0.270149
0.0294298
0.266514
0.0279789
0.262903
0.0264724
0.259338
0.0249238
0.255842
0.0233468
0.252434
0.0217544
0.249132
0.0201587
0.245949
0.0185712
0.242899
0.0170024
0.239989
0.0154616
0.237228
0.0139571
0.234619
0.012496
0.232166
0.0110843
0.229868
0.00972696
0.227724
0.00842804
0.225731
0.00719058
0.223887
0.00601681
0.222184
0.00490821
0.220618
0.00386558
0.219182
0.00288915
0.217868
0.00197859
0.216669
0.00113314
0.215576
0.000351411
0.214583
-0.000368333
0.213682
-0.00102763
0.212867
-0.00162825
0.212129
-0.00217232
0.211462
-0.00266216
0.210859
-0.0031002
0.210314
-0.00348898
0.209822
-0.00383111
0.209376
-0.00412925
-0.00438607
0.208971
0.282726
0.0339143
0.280762
0.032775
0.278664
0.0315284
0.276455
0.0301875
0.274161
0.0287663
0.271805
0.0272791
0.269411
0.0257404
0.267001
0.0241646
0.264593
0.0225657
0.262208
0.0209569
0.259859
0.0193508
0.257561
0.0177588
0.255327
0.0161914
0.253165
0.0146578
0.251083
0.013166
0.249086
0.011723
0.24718
0.0103346
0.245365
0.0090054
0.243642
0.00773912
0.242011
0.00653848
0.240471
0.00540534
0.23902
0.00434081
0.237653
0.00334529
0.236367
0.00241859
0.235158
0.00155999
0.234022
0.000768221
0.232952