/*--------------------------------*- C++ -*----------------------------------*\
| =========                 |                                                 |
| \\      /  F ield         | OpenFOAM: The Open Source CFD Toolbox           |
|  \\    /   O peration     | Version:  2406                                  |
|   \\  /    A nd           | Website:  www.openfoam.com                      |
|    \\/     M anipulation  |                                                 |
\*---------------------------------------------------------------------------*/
FoamFile
{
    version     2.0;
    format      ascii;
    arch        "LSB;label=32;scalar=64";
    class       surfaceScalarField;
    location    "61";
    object      phi;
}
// * * * * * * * * * * * * * * * * * * * * * * * * * * * * * * * * * * * * * //

dimensions      [0 3 -1 0 0 0 0];

oriented        oriented;

internalField   nonuniform List<scalar> 
3796
(
0.0100118
-0.000261777
0.0103311
-0.000319318
0.0106031
-0.000271909
0.0108227
-0.000219623
0.0109987
-0.000175954
0.0111391
-0.000140348
0.0112514
-0.000112303
0.0113424
-9.09065e-05
0.0114171
-7.47399e-05
0.0114796
-6.2475e-05
0.0115327
-5.30705e-05
0.0115786
-4.57927e-05
0.0116187
-4.01164e-05
0.0116544
-3.56985e-05
0.0116867
-3.22728e-05
0.0117164
-2.96692e-05
0.0117442
-2.77596e-05
0.0117707
-2.65103e-05
0.0117967
-2.59171e-05
0.0118228
-2.60559e-05
0.0118498
-2.7014e-05
0.0118788
-2.89633e-05
0.011911
-3.21058e-05
0.0119478
-3.67691e-05
0.0119912
-4.33634e-05
0.0120437
-5.24931e-05
0.0121086
-6.49316e-05
0.0121904
-8.1762e-05
0.0122948
-0.000104391
0.0124296
-0.000134743
0.012605
-0.000175349
0.0128346
-0.000229631
0.0131368
-0.000302109
0.0135356
-0.000398809
0.0140632
-0.000527607
0.0147619
-0.000698702
0.0156869
-0.000924929
0.0169088
-0.00122186
0.0185161
-0.0016073
0.0206158
-0.00209966
0.0233304
-0.00271459
0.0267891
-0.00345872
0.0311107
-0.00432154
0.0363665
-0.00525573
0.0425481
-0.00618154
0.049477
-0.00692869
-0.00731892
0.0567961
0.0276174
-0.00012917
0.0275562
-0.000258109
0.0275645
-0.000280147
0.027614
-0.000269053
0.0276874
-0.000249322
0.0277718
-0.000224641
0.0278581
-0.000198643
0.0279418
-0.00017457
0.0280207
-0.000153601
0.028094
-0.000135717
0.0281616
-0.000120583
0.0282237
-0.000107843
0.0282808
-9.71989e-05
0.0283335
-8.84147e-05
0.0283826
-8.12953e-05
0.0284287
-7.56785e-05
0.0284724
-7.14569e-05
0.0285146
-6.86093e-05
0.0285559
-6.72077e-05
0.0285973
-6.74225e-05
0.0286399
-6.95205e-05
0.0286848
-7.38869e-05
0.0287338
-8.10535e-05
0.0287889
-9.17552e-05
0.0288525
-0.000106989
0.0289282
-0.000128109
0.0290202
-0.000156926
0.0291344
-0.000195865
0.0292782
-0.000248144
0.0294615
-0.000318042
0.0296974
-0.00041121
0.0300029
-0.000535108
0.0304003
-0.000699526
0.0309188
-0.000917227
0.0315959
-0.00120467
0.0324799
-0.00158273
0.0336323
-0.00207728
0.0351298
-0.0027193
0.0370664
-0.00354393
0.0395547
-0.0045879
0.0427236
-0.00588347
0.0467144
-0.0074495
0.051667
-0.0092741
0.0576944
-0.011283
0.0648548
-0.0133419
0.0729974
-0.0150711
-0.0161356
0.0818143
0.0436899
-6.90331e-05
0.0436047
-0.000172878
0.04354
-0.000215401
0.043497
-0.000226041
0.0434727
-0.000225034
0.0434651
-0.000216944
0.0434704
-0.000203971
0.0434849
-0.000189044
0.0435055
-0.000174194
0.0435302
-0.000160292
0.0435572
-0.000147628
0.0435857
-0.000136295
0.0436149
-0.000126351
0.0436444
-0.00011785
0.0436739
-0.000110823
0.0437036
-0.000105277
0.0437334
-0.000101233
0.0437636
-9.87875e-05
0.0437946
-9.81463e-05
0.0438268
-9.96364e-05
0.043861
-0.000103721
0.0438982
-0.000111024
0.0439396
-0.000122381
0.0439868
-0.000138918
0.044042
-0.000162147
0.044108
-0.000194092
0.0441885
-0.000237457
0.0442885
-0.000295832
0.0444144
-0.000373973
0.0445745
-0.000478157
0.04478
-0.000616652
0.0450452
-0.000800306
0.045389
-0.0010433
0.0458359
-0.00136403
0.0464174
-0.0017862
0.0471746
-0.00233989
0.04816
-0.00306267
0.049441
-0.00400027
0.0511032
-0.00520611
0.0532548
-0.0067395
0.0560294
-0.00865806
0.0595904
-0.0110105
0.0641203
-0.013804
0.0698266
-0.0169893
0.076906
-0.0204211
0.0853091
-0.023474
-0.0259291
0.0951028
0.0577238
-4.28136e-05
0.0576673
-0.000116374
0.0576111
-0.000159183
0.0575631
-0.000178041
0.0575231
-0.000184991
0.0574912
-0.000184983
0.057467
-0.000179783
0.0574494
-0.000171421
0.0574371
-0.000161805
0.0574289
-0.000152089
0.0574241
-0.000142814
0.0574221
-0.000134242
0.0574223
-0.000126572
0.0574245
-0.000119992
0.0574283
-0.000114662
0.0574338
-0.000110689
0.0574408
-0.000108181
0.0574493
-0.000107312
0.0574596
-0.000108379
0.0574718
-0.00011182
0.0574863
-0.000118237
0.0575038
-0.000128427
0.0575249
-0.00014344
0.0575506
-0.000164673
0.0575825
-0.000193988
0.0576223
-0.000233869
0.0576725
-0.00028762
0.0577363
-0.000359617
0.057818
-0.00045565
0.0579232
-0.000583344
0.0580593
-0.000752734
0.058236
-0.000976982
0.0584661
-0.00127331
0.0587662
-0.00166415
0.0591586
-0.00217857
0.0596727
-0.00285396
0.0603479
-0.00373794
0.0612381
-0.0048904
0.062417
-0.00638498
0.0639876
-0.00831019
0.0660937
-0.0107642
0.0689364
-0.0138531
0.0727728
-0.0176404
0.0779548
-0.0221712
0.0848388
-0.0273049
0.0936607
-0.0322957
-0.038324
0.106056
0.0697357
-2.85085e-05
0.0696998
-8.05005e-05
0.0696577
-0.000116967
0.069617
-0.000137321
0.0695793
-0.000147292
0.0695452
-0.000150884
0.0695152
-0.000149788
0.0694893
-0.000145432
0.0694668
-0.00013932
0.0694473
-0.000132574
0.0694303
-0.000125822
0.0694155
-0.000119408
0.0694026
-0.000113593
0.0693912
-0.00010863
0.0693813
-0.000104744
0.0693728
-0.000102107
0.0693655
-0.000100876
0.0693595
-0.000101268
0.0693547
-0.000103613
0.0693513
-0.0001084
0.0693494
-0.000116289
0.0693492
-0.000128152
0.0693509
-0.000145131
0.069355
-0.000168736
0.069362
-0.00020097
0.0693726
-0.000244506
0.0693879
-0.000302885
0.0694091
-0.000380806
0.069438
-0.000484472
0.0694767
-0.00062207
0.0695284
-0.000804373
0.069597
-0.00104555
0.0696879
-0.00136422
0.0698085
-0.00178479
0.0699692
-0.00233922
0.0701846
-0.00306932
0.0704763
-0.00402965
0.0708773
-0.00529133
0.0714391
-0.0069468
0.0722451
-0.00911623
0.0734337
-0.0119528
0.0752343
-0.0156537
0.078027
-0.020433
0.0823992
-0.0265433
0.0891156
-0.0340212
0.0990258
-0.0422057
-0.0551511
0.115853
0.079741
-1.954e-05
0.0797168
-5.62765e-05
0.0796846
-8.47263e-05
0.0796502
-0.000102924
0.0796161
-0.000113174
0.0795834
-0.000118084
0.0795527
-0.000119073
0.0795244
-0.000117185
0.0794986
-0.000113514
0.0794751
-0.000108985
0.0794535
-0.000104195
0.0794336
-9.95036e-05
0.0794152
-9.51868e-05
0.0793981
-9.15137e-05
0.0793821
-8.87276e-05
0.079367
-8.70283e-05
0.0793528
-8.65942e-05
0.0793392
-8.76503e-05
0.0793261
-9.0526e-05
0.0793134
-9.56976e-05
0.079301
-0.000103809
0.0792886
-0.00011571
0.079276
-0.000132507
0.0792629
-0.000155662
0.0792491
-0.000187107
0.079234
-0.000229413
0.0792171
-0.00028599
0.0791977
-0.000361361
0.0791747
-0.0004615
0.079147
-0.000594303
0.0791128
-0.000770181
0.0790702
-0.00100287
0.0790165
-0.00131052
0.0789488
-0.00171708
0.0788639
-0.0022543
0.0787589
-0.00296432
0.0786326
-0.00390338
0.0784883
-0.00514706
0.0783395
-0.00679797
0.0782204
-0.00899715
0.0782111
-0.0119435
0.0784781
-0.0159207
0.0794066
-0.0213615
0.0817369
-0.0288735
0.087182
-0.0394661
0.0981369
-0.0531607
-0.0743946
0.11738
0.0877437
-1.32087e-05
0.0877258
-3.84027e-05
0.0877001
-5.90085e-05
0.0876706
-7.33374e-05
0.0876396
-8.21549e-05
0.0876084
-8.6927e-05
0.087578
-8.86701e-05
0.087549
-8.8138e-05
0.0875216
-8.60935e-05
0.0874958
-8.32196e-05
0.0874717
-8.00013e-05
0.0874489
-7.67539e-05
0.0874275
-7.37263e-05
0.0874071
-7.11556e-05
0.0873877
-6.92634e-05
0.0873689
-6.82352e-05
0.0873506
-6.82412e-05
0.0873324
-6.94828e-05
0.0873142
-7.22495e-05
0.0872955
-7.6951e-05
0.0872758
-8.41456e-05
0.0872547
-9.45642e-05
0.0872314
-0.000109164
0.0872049
-0.000129198
0.0871742
-0.000156328
0.0871375
-0.000192753
0.087093
-0.000241399
0.0870378
-0.00030614
0.0869684
-0.000392107
0.0868802
-0.000506077
0.086767
-0.000657023
0.086621
-0.000856811
0.0864317
-0.00112119
0.0861857
-0.0014711
0.0858659
-0.00193454
0.0854508
-0.00254913
0.0849133
-0.00336594
0.0842212
-0.00445493
0.0833368
-0.00591361
0.0822194
-0.00787975
0.0808312
-0.0105553
0.0791455
-0.0142351
0.0771954
-0.0194113
0.0751274
-0.0268055
0.0738958
-0.0382346
0.0769771
-0.0562421
-0.0919238
0.0945063
0.093745
-8.23377e-06
0.0937307
-2.4053e-05
0.0937091
-3.73924e-05
0.0936829
-4.71421e-05
0.0936543
-5.34812e-05
0.0936245
-5.71427e-05
0.0935946
-5.8747e-05
0.0935652
-5.8791e-05
0.0935369
-5.77628e-05
0.0935098
-5.61051e-05
0.093484
-5.41498e-05
0.0934594
-5.21268e-05
0.0934359
-5.02203e-05
0.0934134
-4.86055e-05
0.0933916
-4.74469e-05
0.0933702
-4.6887e-05
0.0933491
-4.7057e-05
0.0933277
-4.81097e-05
0.0933058
-5.02586e-05
0.0932826
-5.38046e-05
0.0932577
-5.91563e-05
0.09323
-6.68499e-05
0.0931984
-7.75857e-05
0.0931615
-9.22809e-05
0.0931173
-0.000112147
0.0930634
-0.000138793
0.0929964
-0.00017435
0.0929119
-0.000221648
0.0928042
-0.000284436
0.0926659
-0.000367674
0.0924868
-0.000477935
0.0922539
-0.000623943
0.0919501
-0.000817312
0.0915525
-0.00107357
0.0910316
-0.00141359
0.0903482
-0.0018657
0.0894509
-0.00246866
0.0882722
-0.00327622
0.0867227
-0.00436408
0.084683
-0.0058401
0.0819898
-0.00786205
0.0784119
-0.0106572
0.0735776
-0.014577
0.0668443
-0.0200721
0.0565822
-0.0279724
0.0393476
-0.0390076
-0.0525762
0.0977457
-3.96343e-06
0.0977333
-1.16047e-05
0.0977141
-1.81492e-05
0.09769
-2.30585e-05
0.0976629
-2.63471e-05
0.0976341
-2.83116e-05
0.0976046
-2.92381e-05
0.0975752
-2.93742e-05
0.0975464
-2.89592e-05
0.0975185
-2.82084e-05
0.0974917
-2.72886e-05
0.0974659
-2.63212e-05
0.0974411
-2.54037e-05
0.0974171
-2.46276e-05
0.0973937
-2.40797e-05
0.0973707
-2.38372e-05
0.0973476
-2.3972e-05
0.0973241
-2.45672e-05
0.0972996
-2.57358e-05
0.0972735
-2.76369e-05
0.0972448
-3.04856e-05
0.0972126
-3.45651e-05
0.0971752
-4.02448e-05
0.097131
-4.80088e-05
0.0970773
-5.84958e-05
0.0970111
-7.2553e-05
0.0969281
-9.13046e-05
0.0968227
-0.000116242
0.0966876
-0.000149342
0.0965132
-0.000193223
0.0962866
-0.00025136
0.0959911
-0.000328369
0.0956042
-0.000430412
0.0950964
-0.000565749
0.0944283
-0.000745532
0.0935476
-0.000984942
0.0923838
-0.00130487
0.090842
-0.00173439
0.0887925
-0.00231456
0.0860562
-0.00310386
0.082381
-0.00418687
0.077408
-0.00568412
0.070603
-0.00777211
0.0612085
-0.0106776
0.0479564
-0.0147203
0.0289696
-0.0200209
-0.0236066
0.099746
4.3805e-09
0.0997344
4.99041e-09
0.0997163
1.08205e-08
0.0996932
1.69435e-08
0.0996669
2.32617e-08
0.0996386
3.02607e-08
0.0996093
3.6e-08
0.0995799
3.93323e-08
0.0995509
4.29564e-08
0.0995227
4.91939e-08
0.0994953
5.60783e-08
0.099469
6.04104e-08
0.0994435
6.19865e-08
0.0994188
6.32302e-08
0.0993947
6.60143e-08
0.0993708
6.99433e-08
0.0993468
7.36232e-08
0.0993222
7.61178e-08
0.0992964
7.7472e-08
0.0992687
7.81916e-08
0.0992381
7.87748e-08
0.0992035
7.9395e-08
0.0991632
8.0113e-08
0.0991151
8.08011e-08
0.0990566
8.13703e-08
0.0989839
8.16696e-08
0.0988926
8.16417e-08
0.0987763
8.12262e-08
0.0986269
8.04549e-08
0.0984336
7.93149e-08
0.0981822
7.79184e-08
0.0978537
7.63167e-08
0.0974233
7.46148e-08
0.0968575
7.28158e-08
0.0961119
7.06459e-08
0.0951269
6.80224e-08
0.0938219
6.42969e-08
0.0920875
5.95885e-08
0.0897729
5.35727e-08
0.0866689
4.73121e-08
0.082482
4.56324e-08
0.0767978
4.9022e-08
0.0690257
5.74735e-08
0.058348
3.97809e-08
0.0436277
6.68608e-08
0.0236066
6.84322e-08
-2.34099e-08
0.099746
3.97181e-06
0.0997344
1.16148e-05
0.0997163
1.81708e-05
0.0996932
2.30922e-05
0.0996669
2.63934e-05
0.0996386
2.83716e-05
0.0996093
2.93095e-05
0.0995799
2.94523e-05
0.0995509
2.90444e-05
0.0995227
2.83061e-05
0.0994953
2.74001e-05
0.099469
2.64412e-05
0.0994435
2.55267e-05
0.0994188
2.47529e-05
0.0993947
2.42102e-05
0.0993708
2.39751e-05
0.0993468
2.41169e-05
0.0993222
2.4717e-05
0.0992964
2.58886e-05
0.0992687
2.77914e-05
0.0992382
3.06414e-05
0.0992035
3.47224e-05
0.0991632
4.04036e-05
0.0991151
4.8169e-05
0.0990566
5.86571e-05
0.098984
7.27148e-05
0.0988926
9.14662e-05
0.0987763
0.000116403
0.0986269
0.000149501
0.0984336
0.00019338
0.0981822
0.000251514
0.0978538
0.00032852
0.0974233
0.000430559
0.0968575
0.000565893
0.0961119
0.000745672
0.0951269
0.000985077
0.093822
0.001305
0.0920875
0.00173451
0.0897729
0.00231467
0.086669
0.00310395
0.0824821
0.00418696
0.0767979
0.00568422
0.0690257
0.0077722
0.0583481
0.0106777
0.0436277
0.0147204
0.0236066
0.020021
0.0236066
0.0977457
8.2424e-06
0.0977333
2.40628e-05
0.0977141
3.74139e-05
0.09769
4.71752e-05
0.0976629
5.3526e-05
0.0976341
5.72008e-05
0.0976046
5.88165e-05
0.0975752
5.88673e-05
0.0975464
5.78466e-05
0.0975185
5.62012e-05
0.0974917
5.42584e-05
0.0974659
5.22428e-05
0.0974411
5.03394e-05
0.0974171
4.87277e-05
0.0973938
4.75746e-05
0.0973707
4.70212e-05
0.0973477
4.71966e-05
0.0973242
4.82533e-05
0.0972997
5.04046e-05
0.0972735
5.39528e-05
0.0972449
5.93063e-05
0.0972126
6.70018e-05
0.0971753
7.77392e-05
0.097131
9.24358e-05
0.0970774
0.000112303
0.0970112
0.000138949
0.0969282
0.000174505
0.0968228
0.000221803
0.0966877
0.000284589
0.0965133
0.000367824
0.0962868
0.000478083
0.0959912
0.000624089
0.0956043
0.000817454
0.0950965
0.00107371
0.0944285
0.00141373
0.0935477
0.00186583
0.092384
0.00246878
0.0908421
0.00327634
0.0887926
0.00436419
0.0860564
0.00584019
0.0823812
0.00786214
0.0774082
0.0106573
0.0706033
0.0145771
0.0612087
0.0200722
0.0479566
0.0279725
0.0289698
0.0390077
0.0525763
0.093745
1.32168e-05
0.0937307
3.84124e-05
0.0937091
5.90291e-05
0.0936829
7.33694e-05
0.0936543
8.21986e-05
0.0936245
8.69833e-05
0.0935946
8.87372e-05
0.0935652
8.82116e-05
0.0935369
8.61737e-05
0.0935099
8.33104e-05
0.093484
8.01028e-05
0.0934594
7.68623e-05
0.0934359
7.3839e-05
0.0934134
7.12731e-05
0.0933916
6.93864e-05
0.0933703
6.83635e-05
0.0933491
6.83731e-05
0.0933278
6.96176e-05
0.0933058
7.23864e-05
0.0932827
7.70902e-05
0.0932577
8.42866e-05
0.0932301
9.47071e-05
0.0931985
0.000109308
0.0931616
0.000129343
0.0931175
0.000156473
0.0930635
0.000192898
0.0929965
0.000241544
0.0929121
0.000306285
0.0928044
0.000392249
0.092666
0.000506218
0.092487
0.000657162
0.0922541
0.000856948
0.0919503
0.00112132
0.0915528
0.00147123
0.0910319
0.00193467
0.0903484
0.00254926
0.0894512
0.00336606
0.0882725
0.00445504
0.0867229
0.00591372
0.0846833
0.00787985
0.0819901
0.0105554
0.0784122
0.0142351
0.0735779
0.0194114
0.0668446
0.0268056
0.0565824
0.0382347
0.0393478
0.0562423
0.0919242
0.0877437
1.95478e-05
0.0877258
5.62853e-05
0.0877001
8.47457e-05
0.0876705
0.000102955
0.0876396
0.000113216
0.0876084
0.000118137
0.087578
0.000119137
0.087549
0.000117256
0.0875216
0.000113591
0.0874959
0.00010907
0.0874717
0.000104287
0.087449
9.96011e-05
0.0874275
9.52899e-05
0.0874072
9.16226e-05
0.0873877
8.88419e-05
0.087369
8.71458e-05
0.0873507
8.67143e-05
0.0873325
8.77726e-05
0.0873143
9.06512e-05
0.0872956
9.58252e-05
0.0872759
0.000103939
0.0872548
0.000115841
0.0872315
0.000132639
0.0872051
0.000155793
0.0871743
0.000187238
0.0871377
0.000229543
0.0870932
0.000286121
0.087038
0.00036149
0.0869686
0.000461629
0.0868804
0.00059443
0.0867673
0.000770307
0.0866213
0.001003
0.086432
0.00131064
0.086186
0.0017172
0.0858663
0.00225442
0.0854511
0.00296444
0.0849137
0.0039035
0.0842216
0.00514717
0.0833372
0.00679807
0.0822198
0.00899725
0.0808316
0.0119436
0.079146
0.0159208
0.0771959
0.0213616
0.0751278
0.0288736
0.0738963
0.0394662
0.0769778
0.0531609
0.0743947
0.0945071
0.079741
2.85157e-05
0.0797168
8.05092e-05
0.0796846
0.000116985
0.0796502
0.000137349
0.0796161
0.00014733
0.0795834
0.000150931
0.0795527
0.000149845
0.0795244
0.000145498
0.0794987
0.000139394
0.0794751
0.000132652
0.0794535
0.000125904
0.0794336
0.000119495
0.0794152
0.000113687
0.0793981
0.00010873
0.0793822
0.000104846
0.0793671
0.00010221
0.0793529
0.00010098
0.0793393
0.000101374
0.0793262
0.000103724
0.0793136
0.000108514
0.0793011
0.000116405
0.0792887
0.000128268
0.0792761
0.000145246
0.0792631
0.00016885
0.0792493
0.000201084
0.0792342
0.000244618
0.0792174
0.000302996
0.079198
0.000380917
0.079175
0.000484583
0.0791473
0.000622181
0.0791132
0.000804484
0.0790705
0.00104566
0.0790168
0.00136433
0.0789492
0.0017849
0.0788643
0.00233933
0.0787593
0.00306943
0.0786331
0.00402976
0.0784888
0.00529144
0.07834
0.0069469
0.0782209
0.00911632
0.0782117
0.0119529
0.0784787
0.0156538
0.0794072
0.0204331
0.0817376
0.0265433
0.0871826
0.0340213
0.0981376
0.0422058
0.0551512
0.117381
0.0697357
4.28196e-05
0.0696998
0.000116382
0.0696577
0.0001592
0.069617
0.000178068
0.0695793
0.000185027
0.0695452
0.000185026
0.0695152
0.000179834
0.0694893
0.000171481
0.0694668
0.000161872
0.0694473
0.000152156
0.0694304
0.000142881
0.0694156
0.000134316
0.0694026
0.000126655
0.0693913
0.00012008
0.0693814
0.000114749
0.0693729
0.000110774
0.0693656
0.000108267
0.0693596
0.000107402
0.0693549
0.000108473
0.0693515
0.000111917
0.0693496
0.000118335
0.0693493
0.000128524
0.0693511
0.000143536
0.0693552
0.000164767
0.0693622
0.00019408
0.0693729
0.000233961
0.0693882
0.00028771
0.0694094
0.000359709
0.0694383
0.000455741
0.0694771
0.000583436
0.0695288
0.000752826
0.0695974
0.000977075
0.0696883
0.0012734
0.069809
0.00166424
0.0699697
0.00217866
0.0701851
0.00285405
0.0704769
0.00373802
0.0708778
0.00489049
0.0714397
0.00638507
0.0722457
0.00831028
0.0734344
0.0107642
0.0752351
0.0138532
0.0780277
0.0176405
0.0823999
0.0221712
0.0891163
0.0273049
0.0990265
0.0322958
0.038324
0.115854
0.0577238
6.90383e-05
0.0576673
0.000172884
0.0576111
0.000215415
0.0575631
0.000226065
0.0575231
0.000225066
0.0574912
0.000216981
0.057467
0.000204015
0.0574494
0.000189099
0.0574371
0.000174252
0.0574289
0.000160347
0.0574241
0.000147681
0.0574221
0.000136356
0.0574224
0.000126419
0.0574245
0.00011792
0.0574284
0.000110892
0.0574339
0.000105344
0.0574409
0.000101302
0.0574495
9.88601e-05
0.0574597
9.82221e-05
0.057472
9.97139e-05
0.0574865
0.000103798
0.057504
0.000111099
0.0575251
0.000122454
0.0575509
0.00013899
0.0575828
0.000162217
0.0576226
0.000194162
0.0576728
0.000237528
0.0577367
0.000295903
0.0578184
0.000374045
0.0579236
0.000478229
0.0580597
0.000616724
0.0582365
0.000800378
0.0584665
0.00104337
0.0587667
0.0013641
0.0591591
0.00178627
0.0596732
0.00233996
0.0603485
0.00306274
0.0612387
0.00400034
0.0624176
0.00520619
0.0639883
0.00673957
0.0660945
0.00865813
0.0689371
0.0110105
0.0727737
0.013804
0.0779557
0.0169893
0.0848397
0.0204211
0.0936615
0.0234739
0.025929
0.106057
0.0436899
0.000129173
0.0436047
0.000258115
0.04354
0.00028016
0.043497
0.000269075
0.0434727
0.00024935
0.043465
0.000224671
0.0434704
0.00019868
0.0434849
0.000174614
0.0435055
0.000153647
0.0435302
0.000135758
0.0435573
0.000120624
0.0435858
0.00010789
0.0436149
9.725e-05
0.0436444
8.84631e-05
0.043674
8.13419e-05
0.0437036
7.57258e-05
0.0437335
7.15102e-05
0.0437637
6.86662e-05
0.0437947
6.72672e-05
0.043827
6.74792e-05
0.0438612
6.95749e-05
0.0438984
7.39367e-05
0.0439398
8.11027e-05
0.043987
9.18028e-05
0.0440422
0.000107039
0.0441082
0.000128159
0.0441888
0.000156979
0.0442889
0.000195918
0.0444147
0.0002482
0.0445749
0.000318096
0.0447804
0.000411263
0.0450457
0.000535159
0.0453895
0.000699576
0.0458363
0.000917276
0.0464179
0.00120472
0.0471751
0.00158278
0.0481606
0.00207733
0.0494416
0.00271936
0.0511038
0.00354399
0.0532555
0.00458796
0.0560301
0.00588353
0.0595912
0.00744954
0.0641212
0.0092741
0.0698276
0.011283
0.0769069
0.0133418
0.0853099
0.015071
0.0161356
0.0951033
0.0276174
0.000261776
0.0275562
0.000319316
0.0275645
0.000271917
0.027614
0.000219638
0.0276874
0.00017597
0.0277717
0.000140366
0.0278581
0.00011233
0.0279418
9.09346e-05
0.0280207
7.47656e-05
0.028094
6.24942e-05
0.0281616
5.30955e-05
0.0282237
4.5818e-05
0.0282808
4.01432e-05
0.0283336
3.57173e-05
0.0283826
3.22946e-05
0.0284287
2.96917e-05
0.0284725
2.77928e-05
0.0285146
2.65428e-05
0.028556
2.59538e-05
0.0285974
2.60836e-05
0.02864
2.70418e-05
0.028685
2.89821e-05
0.028734
3.21291e-05
0.028789
3.67889e-05
0.0288527
4.3392e-05
0.0289284
5.252e-05
0.0290204
6.49667e-05
0.0291346
8.17929e-05
0.0292784
0.000104427
0.0294618
0.000134772
0.0296977
0.000175381
0.0300032
0.000229656
0.0304007
0.000302137
0.0309192
0.000398833
0.0315963
0.000527633
0.0324804
0.000698729
0.0336328
0.000924959
0.0351303
0.0012219
0.037067
0.00160734
0.0395553
0.00209971
0.0427242
0.00271463
0.0467151
0.00345877
0.0516678
0.00432156
0.0576952
0.00525576
0.0648556
0.00618157
0.0729981
0.00692869
0.00731889
0.0818148
0.0100118
0.0103311
0.010603
0.0108227
0.0109987
0.011139
0.0112514
0.0113423
0.0114171
0.0114796
0.0115327
0.0115785
0.0116187
0.0116544
0.0116867
0.0117164
0.0117442
0.0117708
0.0117967
0.0118228
0.0118499
0.0118789
0.011911
0.0119478
0.0119912
0.0120437
0.0121087
0.0121905
0.012295
0.0124297
0.0126051
0.0128348
0.013137
0.0135358
0.0140634
0.0147622
0.0156872
0.0169091
0.0185164
0.0206162
0.0233308
0.0267896
0.0311112
0.0363671
0.0425487
0.0494775
0.0567965
0.0639
-0.00710379
0.0700125
-0.00611239
0.0746298
-0.00461711
0.0776564
-0.00302637
0.0791797
-0.00152303
-9.85986e-05
0.0792785
0.0906215
-0.0159107
0.0985426
-0.0140333
0.105129
-0.011203
0.110325
-0.00822226
0.114191
-0.00538901
-0.00282121
0.116914
0.105193
-0.0260012
0.114168
-0.0230081
0.121587
-0.0186216
0.127366
-0.0140012
0.131545
-0.00956805
-0.00563597
0.13436
0.119237
-0.039182
0.129767
-0.0335384
0.137248
-0.0261028
0.141883
-0.0186355
0.144274
-0.0119592
-0.00664446
0.145283
0.1305
-0.0538287
0.137066
-0.0401044
0.137675
-0.0267124
0.135165
-0.0161248
0.131694
-0.00848843
-0.00358747
0.128637
0.11774
-0.0541887
0.105417
-0.0277814
0.0898543
-0.0111494
0.0776378
-0.00390848
0.0691617
-1.2255e-05
0.00173401
0.0638402
0.0403175
0.0125362
0.00138666
-0.00252183
-0.00253409
-0.000800083
0.0403182
0.0541886
0.0125365
0.0277814
0.00138675
0.0111496
-0.00252146
0.00390819
-0.0025331
1.17561e-05
-0.00173418
-0.000798645
0.117741
0.0538286
0.105418
0.0401044
0.0898551
0.0267122
0.077639
0.0161244
0.0691632
0.00848778
0.00358688
0.0638421
0.1305
0.0391819
0.137066
0.0335382
0.137676
0.0261025
0.135165
0.0186351
0.131695
0.0119587
0.00664395
0.128638
0.119237
0.0260011
0.129767
0.0230079
0.137249
0.0186215
0.141883
0.0140009
0.144274
0.00956748
0.0056352
0.145283
0.105194
0.0159107
0.114168
0.0140334
0.121587
0.0112028
0.127366
0.00822189
0.131546
0.00538837
0.00282063
0.134361
0.090622
0.00710378
0.0985431
0.00611229
0.105129
0.00461694
0.110325
0.00302613
0.114191
0.00152293
9.87132e-05
0.116913
0.0639003
0.0700128
0.0746298
0.0776561
0.0791792
0.079278
0.0780766
0.0012021
0.0758067
0.00227014
0.0727155
0.00309132
0.0690085
0.0037071
0.0648553
0.00415338
0.0603999
0.00445576
0.0557619
0.00463828
0.0510397
0.00472266
0.0463146
0.00472557
0.0416561
0.00465906
0.0371248
0.00453182
0.0327755
0.00434993
0.0286583
0.00411777
0.0248193
0.00383958
0.0212985
0.00352135
0.0181269
0.00317201
0.0153235
0.00280376
0.0128925
0.0024312
0.010823
0.00206967
0.00909003
0.00173292
0.00765871
0.00143121
0.00648871
0.00116977
0.00553958
0.000948876
0.00477467
0.000764595
0.00416361
0.000610774
0.00368261
0.000480697
0.0033137
0.000368669
0.00304302
0.000270437
0.00285952
0.000183349
0.00275361
0.000105766
0.00271676
3.67856e-05
0.00274091
-2.42153e-05
0.00281845
-7.75448e-05
0.00294189
-0.00012344
0.00310509
-0.000163161
0.00330303
-0.000197902
0.00353042
-0.000227331
0.00378179
-0.000251319
0.00405243
-0.000270589
0.00433824
-0.000285786
0.00463543
-0.000297156
0.00494045
-0.000304961
0.00524976
-0.000309285
0.0055601
-0.0003103
0.00586808
-0.000307966
0.00616359
-0.00029551
-0.000321136
0.11872
-0.000603995
0.119715
0.0012756
0.119931
0.00287503
0.119399
0.00423922
0.118155
0.0053973
0.116238
0.00637406
0.11368
0.00719612
0.110518
0.00788512
0.10679
0.0084546
0.102538
0.00891179
0.097811
0.00925897
0.0926679
0.00949366
0.0871768
0.00960941
0.0814188
0.00959814
0.0754873
0.00945328
0.0694867
0.00917303
0.0635281
0.00876269
0.0577237
0.00823572
0.0521804
0.00761306
0.0469921
0.00692117
0.042234
0.00618912
0.037958
0.00544558
0.0341904
0.00471611
0.0309334
0.00402129
0.0281681
0.00337572
0.0258602
0.00278819
0.0239662
0.00226233
0.0224386
0.00179783
0.0212301
0.00139163
0.0202966
0.00103906
0.0195986
0.000734688
0.0191013
0.000473041
0.0187749
0.000248843
0.0185948
5.66222e-05
0.0185395
-0.000107825
0.0185883
-0.000246598
0.0187222
-0.0003612
0.0189258
-0.000454858
0.0191866
-0.000531317
0.0194934
-0.000592527
0.019836
-0.000639766
0.0202056
-0.000674512
0.0205941
-0.000697712
0.0209953
-0.000711447
0.0214008
-0.000713475
0.0218202
-0.000714905
-0.000687183
0.13618
-0.00242402
0.137339
0.000116862
0.13802
0.00219363
0.138307
0.0039531
0.138243
0.00546116
0.137845
0.00677248
0.137103
0.00793838
0.135994
0.00899503
0.134485
0.00996389
0.132542
0.0108556
0.13013
0.0116707
0.127226
0.0123991
0.123814
0.0130215
0.119901
0.0135119
0.115512
0.0138423
0.110698
0.0139872
0.105532
0.0139286
0.100108
0.0136596
0.0945355
0.0131859
0.0889307
0.0125258
0.0834113
0.0117084
0.0780863
0.0107704
0.0730501
0.00975202
0.0683775
0.00869369
0.0641206
0.00763233
0.0603093
0.0065992
0.0569528
0.00561862
0.0540427
0.00470762
0.0515577
0.00387644
0.049467
0.00312955
0.0477346
0.00246696
0.046322
0.00188551
0.0451908
0.00137999
0.0443033
0.000944144
0.0436241
0.00057133
0.0431228
0.000254672
0.0427747
-1.31126e-05
0.0425571
-0.000237288
0.0424469
-0.000421063
0.0424227
-0.000568346
0.0424666
-0.000683646
0.0425636
-0.000771541
0.0427009
-0.000834953
0.0428687
-0.000879316
0.0430551
-0.000899821
0.0432681
-0.000927978
-0.000869593
0.145658
-0.00279889
0.145768
6.96409e-06
0.145724
0.00223789
0.145582
0.00409538
0.145375
0.00566806
0.145104
0.00704344
0.144755
0.00828787
0.144307
0.00944393
0.143729
0.0105416
0.142984
0.0116011
0.142026
0.0126299
0.140804
0.0136212
0.139272
0.0145536
0.13739
0.0153943
0.135129
0.0161036
0.132476
0.0166399
0.129438
0.0169663
0.126043
0.0170554
0.122335
0.0168934
0.11838
0.016481
0.114254
0.0158339
0.110044
0.0149807
0.105835
0.0139599
0.101713
0.0128159
0.0977502
0.0115949
0.0940081
0.0103411
0.0905325
0.00909401
0.0873535
0.00788641
0.0844864
0.00674336
0.0819336
0.00568229
0.0796867
0.00471373
0.0777298
0.00384239
0.0760412
0.00306847
0.0745965
0.00238888
0.0733694
0.0017984
0.0723336
0.00129048
0.0714623
0.000858179
0.0707308
0.000494147
0.0701191
0.000190643
0.0696102
-5.9455e-05
0.0691883
-0.000261786
0.068838
-0.000421188
0.0685449
-0.000541915
0.0682968
-0.000631225
0.0680825
-0.000685535
0.0678937
-0.000739218
-0.000697706
0.126709
-0.000870863
0.125713
0.00100291
0.125341
0.00261037
0.125489
0.00394749
0.12604
0.00511668
0.12687
0.00621387
0.127877
0.00728131
0.128978
0.0083427
0.130101
0.00941885
0.131178
0.0105242
0.132147
0.0116617
0.132948
0.0128195
0.133531
0.0139707
0.133851
0.0150748
0.133872
0.0160824
0.133571
0.0169407
0.132936
0.017601
0.131967
0.0180244
0.130676
0.0181851
0.129084
0.0180722
0.127228
0.0176902
0.12515
0.0170584
0.122902
0.0162082
0.120537
0.0151798
0.118114
0.0140184
0.115684
0.0127708
0.113296
0.0114821
0.110989
0.0101927
0.108796
0.00893646
0.106738
0.00774003
0.104829
0.00662262
0.103075
0.00559663
0.101475
0.00466861
0.100024
0.00384037
0.0987117
0.0031102
0.0975283
0.0024738
0.0964611
0.00192532
0.0954973
0.00145792
0.0946236
0.00106432
0.0938267
0.00073738
0.0930949
0.000470046
0.0924181
0.000255533
0.0917881
8.81642e-05
0.0911955
-3.86632e-05
0.0906358
-0.000125938
0.090087
-0.000190365
-0.000197984
0.0624354
0.000533961
0.0634112
2.70427e-05
0.0657869
0.000234639
0.0690616
0.000672735
0.0727983
0.00137995
0.076762
0.00225023
0.0808419
0.00320145
0.0849654
0.00421927
0.0890705
0.00531378
0.0930998
0.00649488
0.0969971
0.00776421
0.100708
0.00910894
0.104179
0.0104988
0.107367
0.0118868
0.110236
0.0132133
0.112763
0.014414
0.114934
0.0154301
0.116744
0.0162143
0.118196
0.0167334
0.119298
0.0169698
0.120066
0.0169219
0.120521
0.0166035
0.120688
0.0160411
0.120598
0.01527
0.120285
0.0143317
0.119784
0.0132712
0.119133
0.0121333
0.118366
0.0109598
0.117515
0.00978749
0.116608
0.00864674
0.11567
0.00756122
0.114718
0.00654796
0.113769
0.00561791
0.112832
0.00477689
0.111916
0.00402656
0.111024
0.00336539
0.11016
0.00278964
0.109324
0.00229405
0.108516
0.00187249
0.107734
0.0015185
0.106979
0.00122562
0.106247
0.000987751
0.105536
0.000799052
0.104841
0.000655679
0.104165
0.000550039
0.103483
0.00049137
0.000432097
0.00715943
-0.00742556
0.0130191
-0.00583287
0.0179815
-0.00472819
0.0224278
-0.00377409
0.0266151
-0.00280765
0.0307556
-0.00189052
0.034979
-0.00102199
0.0393512
-0.000152999
0.043891
0.000773876
0.0485755
0.00181043
0.0533593
0.00298036
0.0581876
0.00428049
0.0630024
0.005684
0.0677457
0.00714329
0.0723651
0.00859391
0.076816
0.00996311
0.0810595
0.0111866
0.0850605
0.0122132
0.0887892
0.0130047
0.0922216
0.0135372
0.09534
0.0138034
0.0981328
0.013811
0.100594
0.01358
0.102726
0.0131383
0.104537
0.0125207
0.106042
0.0117667
0.107259
0.0109164
0.108211
0.0100079
0.108923
0.00907584
0.109421
0.00814944
0.10973
0.00725239
0.109875
0.00640259
0.109881
0.00561254
0.109768
0.00488998
0.109556
0.00423869
0.109262
0.00365934
0.108901
0.00315022
0.108487
0.00270801
0.108031
0.00232834
0.107543
0.00200632
0.107032
0.00173687
0.106505
0.00151535
0.105967
0.00133668
0.105422
0.00120018
0.104879
0.00109342
0.104321
0.00104939
0.000950902
-0.00134769
-0.00607788
-0.000396714
-0.00678413
0.000722267
-0.00584795
0.0018937
-0.00494641
0.00323962
-0.0041545
0.00481133
-0.00346289
0.00663917
-0.00285042
0.00875323
-0.00226747
0.0111833
-0.00165658
0.0139561
-0.000962462
0.0170757
-0.000139457
0.020526
0.000830125
0.0242805
0.00192934
0.0283042
0.00311965
0.0325609
0.00433719
0.0370124
0.00551186
0.0416047
0.00659442
0.0462723
0.00754587
0.0509437
0.00833343
0.0555486
0.00893272
0.0600208
0.0093316
0.0642999
0.00953246
0.0683322
0.00954838
0.072078
0.00939329
0.0755106
0.00908877
0.0786131
0.00866492
0.0813786
0.00815156
0.0838095
0.00757764
0.0859159
0.00696998
0.0877141
0.00635178
0.0892248
0.00574215
0.0904718
0.00515591
0.0914808
0.00460389
0.0922777
0.00409327
0.0928884
0.00362819
0.0933375
0.00321031
0.0936484
0.0028394
0.0938426
0.00251387
0.0939397
0.00223123
0.0939575