/*--------------------------------*- C++ -*----------------------------------*\
| =========                 |                                                 |
| \\      /  F ield         | OpenFOAM: The Open Source CFD Toolbox           |
|  \\    /   O peration     | Version:  2406                                  |
|   \\  /    A nd           | Website:  www.openfoam.com                      |
|    \\/     M anipulation  |                                                 |
\*---------------------------------------------------------------------------*/
FoamFile
{
    version     2.0;
    format      ascii;
    arch        "LSB;label=32;scalar=64";
    class       volScalarField;
    location    "49";
    object      p;
}
// * * * * * * * * * * * * * * * * * * * * * * * * * * * * * * * * * * * * * //

dimensions      [0 2 -2 0 0 0 0];

internalField   nonuniform List<scalar> 
1800
(
0.388639
0.383475
0.376654
0.369123
0.360772
0.351477
0.341179
0.329698
0.316816
0.301559
0.392595
0.385022
0.376907
0.3692
0.360928
0.351724
0.341658
0.330734
0.318951
0.306809
0.396104
0.386869
0.377782
0.370155
0.362283
0.353537
0.344191
0.33459
0.325185
0.316989
0.399786
0.389911
0.380272
0.372719
0.365311
0.357221
0.348826
0.340638
0.33311
0.326892
0.403648
0.39356
0.383721
0.376317
0.369375
0.36196
0.35446
0.347407
0.341135
0.335985
0.40712
0.397033
0.387327
0.380201
0.373677
0.366824
0.360026
0.353767
0.348268
0.343677
0.409556
0.399689
0.390413
0.383632
0.377402
0.370934
0.364607
0.358823
0.353722
0.34936
0.410433
0.401212
0.39262
0.386088
0.379954
0.37368
0.36761
0.362044
0.357076
0.352742
0.409246
0.401622
0.393967
0.387429
0.381134
0.374858
0.368845
0.363295
0.358288
0.353874
0.405898
0.400585
0.394108
0.387666
0.381266
0.374952
0.368904
0.363278
0.358173
0.353654
0.320364
0.320051
0.319872
0.319986
0.320386
0.321054
0.321982
0.323173
0.324633
0.326367
0.328382
0.33068
0.333262
0.336124
0.339259
0.342656
0.346299
0.350167
0.354235
0.358472
0.362844
0.367312
0.371834
0.376366
0.380862
0.385275
0.389561
0.393678
0.397586
0.401251
0.404642
0.407736
0.410517
0.412972
0.415098
0.32071
0.32039
0.320247
0.320396
0.3208
0.321447
0.32234
0.323488
0.324901
0.326588
0.328553
0.330802
0.333334
0.336145
0.339229
0.342574
0.346166
0.349984
0.354003
0.358193
0.362521
0.366948
0.371432
0.37593
0.380396
0.384784
0.38905
0.393151
0.397047
0.400704
0.404092
0.407187
0.40997
0.412431
0.414564
0.320851
0.320488
0.32035
0.320521
0.320924
0.321547
0.322402
0.323507
0.324874
0.326514
0.328434
0.330636
0.333123
0.33589
0.338932
0.342237
0.345791
0.349574
0.353561
0.357724
0.362027
0.366434
0.370902
0.375387
0.379844
0.384227
0.38849
0.392591
0.39649
0.400149
0.40354
0.406638
0.409427
0.411894
0.414035
0.320444
0.320057
0.319928
0.32012
0.320528
0.321141
0.321979
0.323063
0.324408
0.326026
0.327923
0.330105
0.332572
0.335321
0.338347
0.341639
0.345183
0.34896
0.352944
0.357107
0.361414
0.365827
0.370304
0.374802
0.379272
0.383667
0.387941
0.392051
0.395957
0.399623
0.403019
0.406121
0.408911
0.411379
0.41352
0.319289
0.318969
0.318931
0.3192
0.319661
0.32031
0.321175
0.322279
0.323641
0.325271
0.327179
0.329369
0.331843
0.334599
0.337633
0.340934
0.344489
0.348277
0.352276
0.356453
0.360775
0.365202
0.369692
0.3742
0.378679
0.38308
0.387358
0.391467
0.395368
0.399026
0.402409
0.405496
0.408269
0.41072
0.412843
0.317221
0.317157
0.317391
0.317872
0.318488
0.319253
0.320208
0.321385
0.322804
0.324482
0.32643
0.328655
0.331157
0.333938
0.336993
0.340314
0.343886
0.347691
0.351704
0.355895
0.360228
0.364662
0.369155
0.37366
0.378127
0.382511
0.386763
0.39084
0.394703
0.398318
0.401656
0.404696
0.407423
0.409829
0.411912
0.314062
0.314616
0.315469
0.316392
0.317308
0.318283
0.319388
0.320672
0.322171
0.32391
0.325904
0.328164
0.330699
0.33351
0.336592
0.339938
0.343531
0.347352
0.351376
0.35557
0.359897
0.364316
0.368783
0.373249
0.377668
0.381991
0.386173
0.390172
0.39395
0.397477
0.400725
0.403678
0.406321
0.408651
0.410669
0.309118
0.311312
0.3135
0.315155
0.316487
0.317722
0.318988
0.320376
0.321945
0.323734
0.325768
0.328065
0.330633
0.333474
0.336582
0.339946
0.343552
0.347375
0.35139
0.355562
0.359853
0.364221
0.368618
0.373
0.377317
0.381525
0.385581
0.389445
0.393084
0.396471
0.399582
0.402404
0.404928
0.407152
0.40908
0.299254
0.306856
0.311966
0.314548
0.316282
0.317773
0.319171
0.320617
0.322228
0.32406
0.326133
0.328463
0.331061
0.333926
0.337052
0.340425
0.344026
0.347829
0.351805
0.355919
0.36013
0.364396
0.36867
0.372908
0.377063
0.381095
0.384962
0.388633
0.392078
0.395274
0.398205
0.40086
0.403235
0.405332
0.407156
0.283331
0.30171
0.311174
0.314486
0.316471
0.318263
0.319848
0.321376
0.323042
0.324929
0.327052
0.329421
0.332047
0.334932
0.338066
0.341429
0.344999
0.348747
0.352641
0.356646
0.360722
0.364826
0.368914
0.372944
0.376874
0.380667
0.38429
0.387715
0.390919
0.393887
0.396606
0.399072
0.401284
0.403245
0.404964
0.291559
0.303452
0.312398
0.315503
0.317328
0.319247
0.321025
0.32268
0.324433
0.326394
0.328581
0.330997
0.33365
0.336541
0.339657
0.342977
0.346472
0.350114
0.35387
0.357705
0.361581
0.365458
0.369297
0.373057
0.376706
0.380211
0.383546
0.38669
0.389628
0.392349
0.394846
0.397118
0.399169
0.401003
0.402629
0.301286
0.307478
0.314173
0.317287
0.319128
0.321036
0.322923
0.324712
0.326557
0.328577
0.330804
0.33324
0.335887
0.338742
0.34179
0.345008
0.348367
0.351838
0.35539
0.358991
0.362605
0.366198
0.369734
0.373182
0.376513
0.379703
0.382733
0.385588
0.388258
0.390738
0.393025
0.395121
0.397029
0.398758
0.400314
0.312851
0.314531
0.318189
0.320701
0.322387
0.324083
0.325872
0.327658
0.329498
0.33149
0.333674
0.336054
0.338624
0.341371
0.34428
0.347326
0.350482
0.35372
0.357012
0.360328
0.363638
0.366913
0.370123
0.373244
0.376254
0.379134
0.381872
0.384458
0.386887
0.389156
0.391265
0.393218
0.395018
0.396671
0.398184
0.323137
0.322659
0.324127
0.325676
0.326924
0.328227
0.329704
0.331287
0.332975
0.334824
0.336867
0.339102
0.341514
0.344084
0.346791
0.349609
0.352515
0.355483
0.358487
0.361502
0.364502
0.367462
0.370361
0.373178
0.375897
0.378506
0.380996
0.38336
0.385596
0.387703
0.389681
0.391533
0.393262
0.394872
0.396369
0.332459
0.330911
0.330843
0.331322
0.331931
0.332725
0.333765
0.335009
0.336434
0.338056
0.339887
0.341915
0.344116
0.346464
0.348936
0.351508
0.354156
0.356857
0.359587
0.362325
0.365048
0.367738
0.370375
0.372945
0.375436
0.377837
0.380143
0.382349
0.384452
0.386452
0.388348
0.390142
0.391836
0.393432
0.394933
0.340208
0.338013
0.336912
0.336485
0.336438
0.336708
0.337294
0.338165
0.33929
0.340656
0.342252
0.344054
0.346033
0.34816
0.350411
0.352759
0.355183
0.35766
0.360169
0.362689
0.365203
0.367694
0.370145
0.372545
0.374883
0.377152
0.379345
0.381458
0.383488
0.385433
0.387292
0.389065
0.390752
0.392355
0.393874
0.345831
0.34321
0.341439
0.340336
0.339731
0.339542
0.339737
0.34028
0.341135
0.34227
0.343656
0.345262
0.347055
0.349005
0.351084
0.353267
0.355532
0.357856
0.360219
0.362602
0.364988
0.36736
0.369706
0.372014
0.374275
0.37648
0.378623
0.380698
0.382703
0.384634
0.38649
0.388268
0.389968
0.39159
0.393134
0.349099
0.34619
0.344001
0.342453
0.341454
0.340937
0.340857
0.34117
0.341834
0.342806
0.344048
0.345523
0.347197
0.349038
0.351018
0.35311
0.355291
0.357539
0.359834
0.362155
0.364487
0.366815
0.369125
0.371405
0.373646
0.375839
0.377978
0.380056
0.38207
0.384014
0.385887
0.387687
0.389411
0.39106
0.392632
0.350101
0.347001
0.344572
0.342779
0.341564
0.340872
0.340651
0.340852
0.341426
0.342325
0.343508
0.344934
0.346568
0.348378
0.350334
0.352408
0.354577
0.356818
0.35911
0.361433
0.363772
0.36611
0.368435
0.370734
0.372997
0.375215
0.377381
0.379489
0.381533
0.383509
0.385414
0.387245
0.389002
0.390682
0.392285
0.349769
0.346549
0.343999
0.342095
0.340795
0.340043
0.339782
0.339958
0.340517
0.341411
0.342595
0.344028
0.345674
0.3475
0.349475
0.351572
0.353765
0.356032
0.358352
0.360705
0.363075
0.365446
0.367805
0.370139
0.372437
0.374691
0.376893
0.379036
0.381114
0.383124
0.385063
0.386926
0.388713
0.390423
0.392053
0.416895
0.418369
0.41953
0.420394
0.420976
0.421298
0.421379
0.42124
0.420902
0.420386
0.416371
0.417857
0.419033
0.419913
0.420514
0.420855
0.420957
0.42084
0.420524
0.42003
0.415851
0.417347
0.418535
0.419427
0.420043
0.4204
0.420519
0.42042
0.420124
0.419651
0.415335
0.416832
0.41802
0.418916
0.419537
0.419902
0.420032
0.419947
0.419668
0.419215
0.414643
0.416127
0.417307
0.418199
0.418821
0.419193
0.419335
0.419269
0.419016
0.418593
0.413677
0.415134
0.416295
0.417177
0.417798
0.41818
0.418343
0.418307
0.418093
0.417719
0.412379
0.413794
0.414927
0.415797
0.416421
0.416821
0.417017
0.417027
0.416873
0.41657
0.41072
0.412084
0.413187
0.414048
0.414684
0.415115
0.415361
0.41544
0.415369
0.415166
0.408718
0.410031
0.411109
0.411971
0.412634
0.413116
0.413434
0.413604
0.413643
0.413564
0.406453
0.407723
0.40879
0.40967
0.410378
0.41093
0.411341
0.411625
0.411794
0.41186
0.404059
0.405304
0.406379
0.407295
0.408067
0.408706
0.409226
0.409637
0.409948
0.41017
0.401707
0.402949
0.404048
0.405017
0.405866
0.406603
0.407238
0.40778
0.408235
0.40861
0.399565
0.400821
0.401961
0.402992
0.403922
0.404757
0.405504
0.406168
0.406755
0.407269
0.397757
0.399042
0.400229
0.401324
0.402331
0.403255
0.4041
0.404869
0.405566
0.406195
0.396342
0.397663
0.398898
0.400051
0.401124
0.402121
0.403044
0.403896
0.404679
0.405395
0.395311
0.396667
0.397945
0.399146
0.400272
0.401325
0.402306
0.403217
0.404061
0.404839
0.394601
0.395991
0.397304
0.398543
0.399708
0.400801
0.401823
0.402775
0.40366
0.404478
0.394128
0.395547
0.396891
0.39816
0.399355
0.400476
0.401527
0.402506
0.403417
0.404261
0.39381
0.395259
0.39663
0.397925
0.399145
0.400289
0.401361
0.402361
0.40329
0.404152
0.393605
0.395078
0.396473
0.397789
0.399029
0.400192
0.40128
0.402295
0.403238
0.404111
0.419709
0.41889
0.417943
0.416882
0.415717
0.414456
0.413107
0.411672
0.410153
0.408547
0.406851
0.405058
0.403158
0.401138
0.39898
0.396664
0.394163
0.391446
0.388475
0.385202
0.381572
0.377515
0.37295
0.367776
0.361874
0.355102
0.347295
0.338262
0.327792
0.315662
0.301658
0.2856
0.267386
0.247044
0.224787
0.419375
0.418577
0.41765
0.416607
0.415459
0.414214
0.412878
0.411454
0.409943
0.408343
0.406651
0.404858
0.402955
0.400929
0.398762
0.396433
0.393916
0.39118
0.388185
0.384885
0.381224
0.377132
0.372527
0.367309
0.361357
0.354528
0.346652
0.337536
0.326961
0.314693
0.300504
0.2842
0.265669
0.244941
0.222261
0.419017
0.418241
0.417337
0.416317
0.415192
0.413969
0.412655
0.411253
0.409763
0.408183
0.40651
0.404737
0.402853
0.400845
0.398697
0.396388
0.393892
0.391178
0.388208
0.384936
0.381307
0.377251
0.372686
0.36751
0.3616
0.354805
0.346946
0.33781
0.32715
0.314695
0.300164
0.283307
0.263963
0.242144
0.218158
0.418605
0.417855
0.41698
0.415992
0.414901
0.413714
0.412439
0.411077
0.409629
0.408095
0.40647
0.404748
0.402919
0.40097
0.398887
0.396649
0.394232
0.391607
0.388736
0.385576
0.382071
0.378154
0.373742
0.36873
0.362989
0.356355
0.348628
0.339559
0.328849
0.31615
0.301081
0.283268
0.262437
0.238543
0.212006
0.41802
0.417312
0.416484
0.415547
0.414512
0.413386
0.412175
0.410882
0.409509
0.408053
0.406512
0.404879
0.403147
0.401304
0.399336
0.397224
0.394947
0.392476
0.389779
0.386812
0.383523
0.379846
0.375697
0.370968
0.365522
0.359181
0.351715
0.342829
0.332149
0.319213
0.303477
0.284351
0.261312
0.234108
0.203286
0.417202
0.416559
0.415803
0.414945
0.413995
0.412961
0.411847
0.410657
0.409393
0.408053
0.406636
0.405136
0.403545
0.401856
0.400054
0.398126
0.396049
0.393802
0.391351
0.38866
0.385678
0.382342
0.378569
0.374253
0.369248
0.363364
0.356342
0.347835
0.337381
0.324372
0.308042
0.287476
0.261704
0.229885
0.192325
0.416137
0.415586
0.414932
0.414184
0.413352
0.412442
0.41146
0.410409
0.409291
0.408106
0.406852
0.405525
0.40412
0.402629
0.401043
0.399349
0.397529
0.395564
0.393427
0.391084
0.388491
0.38559
0.382304
0.378528
0.37412
0.368882
0.362535
0.35469
0.34479
0.332059
0.315432
0.293545
0.264788
0.227488
0.181067
0.414843
0.414416
0.413894
0.413288
0.412605
0.411853
0.411035
0.410156
0.409218
0.40822
0.407163
0.406044
0.40486
0.403605
0.402273
0.400852
0.399332
0.397696
0.395923
0.393984
0.391843
0.389451
0.386739
0.383614
0.379944
0.37554
0.370129
0.363302
0.354439
0.342592
0.326285
0.30333
0.270579
0.224809
0.163521
0.413379
0.413101
0.412739
0.412301
0.411795
0.411226
0.410598
0.409915
0.409181
0.408395
0.407558
0.406671
0.40573
0.404734
0.403678
0.402555
0.401358
0.400076
0.398692
0.397187
0.395532
0.393689
0.391603
0.389199
0.386368
0.382951
0.378709
0.373277
0.366066
0.356099
0.341641
0.319516
0.283414
0.223296
0.12056
0.411833
0.411724
0.41154
0.411287
0.410972
0.4106
0.410176
0.409702
0.409182
0.408618
0.40801
0.407362
0.406672
0.405939
0.405164
0.404342
0.40347
0.402542
0.401547
0.400474
0.399304
0.39801
0.396554
0.394884
0.39292
0.390551
0.387604
0.383815
0.378763
0.371731
0.361404
0.345159
0.316655
0.259017
0.113061
0.410311
0.410377
0.410375
0.41031
0.410189
0.410014
0.409792
0.409524
0.409214
0.408865
0.40848
0.408061
0.407611
0.40713
0.406621
0.406082
0.405515
0.404917
0.404285
0.403613
0.402891
0.402105
0.401233
0.400243
0.399091
0.397711
0.396004
0.393828
0.390963
0.387073
0.381609
0.373677
0.361474
0.340775
0.303192
0.408912
0.409146
0.409317
0.40943
0.409489
0.409497
0.40946
0.40938
0.409262
0.409109
0.408924
0.408712
0.408476
0.408218
0.407944
0.407655
0.407355
0.407045
0.406727
0.406401
0.406063
0.405711
0.405334
0.404921
0.40445
0.403895
0.403213
0.402346
0.401214
0.399701
0.397636
0.394765
0.390592
0.384748
0.376849
0.407715
0.408097
0.40842
0.408686
0.4089
0.409066
0.409187
0.409267
0.409311
0.409323
0.409306
0.409266
0.409208
0.409136
0.409055
0.408971
0.408889
0.408813
0.408748
0.408697
0.408665
0.408653
0.408661
0.408688
0.408731
0.408783
0.408834
0.408871
0.408873
0.408813
0.408645
0.408285
0.407586
0.4069
0.40567
0.40676
0.407263
0.407707
0.408096
0.408434
0.408724
0.40897
0.409176
0.409347
0.409487
0.409601
0.409695
0.409774
0.409844
0.409912
0.409984
0.410066
0.410165
0.410288
0.410441
0.41063
0.410862
0.41114
0.41147
0.411856
0.412299
0.412802
0.413364
0.413983
0.414647
0.415331
0.415978
0.416533
0.417385
0.418145
0.406049
0.406641
0.407176
0.407656
0.408085
0.408465
0.408802
0.409099
0.409362
0.409594
0.409802
0.409991
0.410168
0.410339
0.410511
0.410691
0.410887
0.411106
0.411355
0.411644
0.411978
0.412365
0.412812
0.413324
0.413906
0.414563
0.415296
0.416104
0.416981
0.417912
0.418868
0.419796
0.420684
0.421862
0.423089
0.405554
0.406209
0.406805
0.407346
0.407836
0.408277
0.408674
0.409031
0.409353
0.409646
0.409915
0.410165
0.410405
0.41064
0.410877
0.411125
0.41139
0.411682
0.412007
0.412373
0.412789
0.41326
0.413794
0.414395
0.415067
0.415811
0.416626
0.417507
0.41844
0.419406
0.420371
0.421293
0.422183
0.423286
0.42444
0.405233
0.405927
0.406561
0.407141
0.407667
0.408145
0.408578
0.40897
0.409328
0.409655
0.409958
0.410243
0.410517
0.410786
0.411058
0.411341
0.411641
0.411968
0.412328
0.412729
0.413179
0.413683
0.414247
0.414874
0.415566
0.416323
0.417139
0.418006
0.418908
0.419821
0.420716
0.42156
0.422367
0.423288
0.424199
0.405041
0.405757
0.406415
0.407015
0.407562
0.408059
0.40851
0.408921
0.409295
0.409638
0.409956
0.410255
0.410542
0.410824
0.411108
0.411401
0.411711
0.412046
0.412413
0.412818
0.41327
0.413773
0.414331
0.414948
0.415624
0.416356
0.41714
0.417964
0.418812
0.419664
0.420494
0.421276
0.422013
0.422763
0.423419
0.404947
0.405677
0.406347
0.406959
0.407515
0.408021
0.408479
0.408894
0.409272
0.409618
0.409937
0.410236
0.410521
0.410799
0.411077
0.411363
0.411664
0.411987
0.41234
0.41273
0.413162
0.413643
0.414176
0.414763
0.415406
0.416102
0.416844
0.417624
0.418429
0.41924
0.420039
0.420806
0.421528
0.422186
0.422661
0.404916
0.405655
0.406332
0.406948
0.407509
0.408016
0.408475
0.40889
0.409265
0.409606
0.40992
0.410211
0.410486
0.410753
0.411018
0.411289
0.411573
0.411877
0.412209
0.412576
0.412983
0.413436
0.41394
0.414496
0.415106
0.415768
0.416478
0.417226
0.418003
0.418796
0.41959
0.420375
0.421133
0.421799
0.422217
0.201034
0.176405
0.151627
0.127382
0.104158
0.0822247
0.0616842
0.042527
0.0246186
0.0077654
0.19812
0.17325
0.148489
0.124524
0.101753
0.0803538
0.0603759
0.0417632
0.0243023
0.00785853
0.192669
0.166749
0.141597
0.117948
0.095963
0.0755906
0.056744
0.0393043
0.0228611
0.00788399
0.183799
0.155738
0.129764
0.10657
0.0857902
0.067028
0.0500589
0.0346367
0.0200992
0.00732676
0.170355
0.138906
0.112189
0.0901702
0.0713184
0.0548757
0.040577
0.0279748
0.0162523
0.00587075
0.150792
0.113784
0.0871302
0.0679666
0.0523726
0.0393719
0.0287779
0.0198312
0.0116932
0.00373538
0.124602
0.0785871
0.053584
0.0395662
0.0290461
0.0212004
0.0156815
0.0112071
0.00700973
0.00170273
0.0827788
0.0304152
0.0139419
0.00848458
0.00500399
0.00391653
0.00422411
0.00419742
0.00331372
0.000714178
-0.0105711
-0.0397759
-0.0264486
-0.017074
-0.0117188
-0.00636435
-0.00188438
0.000673538
0.00146057
0.000659853
-0.136894
-0.102384
-0.0525586
-0.0323514
-0.0205074
-0.0107087
-0.00393394
-0.000248088
0.00116371
0.000837221
)
;

boundaryField
{
    inlet
    {
        type            zeroGradient;
    }
    outlet
    {
        type            fixedValue;
        value           uniform 0;
    }
    upperWall
    {
        type            zeroGradient;
    }
    lowerWall
    {
        type            zeroGradient;
    }
    frontAndBack
    {
        type            empty;
    }
}


// ************************************************************************* //
