/*--------------------------------*- C++ -*----------------------------------*\
| =========                 |                                                 |
| \\      /  F ield         | OpenFOAM: The Open Source CFD Toolbox           |
|  \\    /   O peration     | Version:  2406                                  |
|   \\  /    A nd           | Website:  www.openfoam.com                      |
|    \\/     M anipulation  |                                                 |
\*---------------------------------------------------------------------------*/
FoamFile
{
    version     2.0;
    format      ascii;
    arch        "LSB;label=32;scalar=64";
    class       surfaceScalarField;
    location    "49";
    object      phi;
}
// * * * * * * * * * * * * * * * * * * * * * * * * * * * * * * * * * * * * * //

dimensions      [0 3 -1 0 0 0 0];

oriented        oriented;

internalField   nonuniform List<scalar> 
3480
(
0.0194039
-0.000403871
0.0199296
-0.000525746
0.0204151
-0.000485497
0.0208927
-0.000477616
0.0214111
-0.000518449
0.0220119
-0.000600801
0.0227541
-0.000742323
0.0237421
-0.000987951
0.0251978
-0.00145579
-0.0030051
0.0282028
0.0508803
-0.000284226
0.0509897
-0.000635141
0.0513063
-0.000802124
0.0517699
-0.000941265
0.0523694
-0.00111798
0.0531197
-0.00135119
0.0540506
-0.00167324
0.05521
-0.00214744
0.0566249
-0.00287084
-0.00408742
0.0577072
0.0749486
-0.000232866
0.0749366
-0.00062309
0.0750502
-0.000915798
0.0752939
-0.00118499
0.0756639
-0.00148799
0.0761629
-0.00185022
0.0767896
-0.00230001
0.0775233
-0.00288123
0.0782928
-0.00364032
-0.0046339
0.0788392
0.0909747
-0.00020755
0.0909341
-0.000582544
0.0909409
-0.000922623
0.0910159
-0.00125995
0.0911578
-0.00162999
0.0913621
-0.00205448
0.0916159
-0.00255388
0.0918872
-0.00315256
0.092116
-0.00386913
-0.00470777
0.0921899
0.0989683
-0.000175837
0.0988905
-0.000504759
0.0988064
-0.00083856
0.0987365
-0.00119003
0.0986782
-0.00157175
0.0986212
-0.00199751
0.0985489
-0.00248159
0.0984322
-0.00303578
0.0982269
-0.00366386
-0.00435502
0.0978742
0.0989488
-0.000124608
0.0988161
-0.000372129
0.09864
-0.000662419
0.0984372
-0.000987276
0.0982018
-0.0013363
0.0979205
-0.0017162
0.0975761
-0.00213724
0.0971438
-0.00260347
0.0965912
-0.00311121
-0.00364724
0.0958834
0.0909171
-4.17065e-05
0.0907161
-0.000171078
0.090453
-0.000399383
0.0901382
-0.000672483
0.0897596
-0.00095761
0.0893028
-0.00125941
0.0887511
-0.00158558
0.0880828
-0.00193506
0.087273
-0.00230144
-0.00267385
0.0862997
0.0748575
0.000100844
0.0745939
9.24786e-05
0.0742841
-8.95856e-05
0.073917
-0.000305281
0.0734711
-0.000511682
0.0729301
-0.000718429
0.072276
-0.000931466
0.0714888
-0.00114775
0.07055
-0.00136263
-0.00157055
0.0694467
0.0507742
0.000326698
0.0505804
0.000286288
0.0503886
0.000102225
0.0501275
-4.42255e-05
0.0497683
-0.000152379
0.0492968
-0.000246903
0.0487004
-0.000335033
0.0479688
-0.000416101
0.0470961
-0.000489877
-0.000556166
0.0460817
0.0193267
0.019613
0.0197152
0.019671
0.0195186
0.0192717
0.0189367
0.0185206
0.0180307
0.0174746
-7.19199e-05
7.19096e-05
-0.000311922
0.000239979
-0.000652161
0.000340219
-0.00102763
0.000375452
-0.00140434
0.000376698
-0.00176791
0.000363561
-0.00211316
0.000345243
-0.00243833
0.00032515
-0.00274241
0.000304059
-0.00302423
0.000281805
-0.00328228
0.000258015
-0.00351464
0.000232322
-0.00371913
0.000204446
-0.00389336
0.000174181
-0.00403482
0.000141407
-0.00414097
0.000106105
-0.00420936
6.83558e-05
-0.00423776
2.83641e-05
-0.00422424
-1.35406e-05
-0.00416738
-5.68715e-05
-0.00406632
-0.000101048
-0.00392087
-0.000145428
-0.00373153
-0.000189309
-0.00349955
-0.000231922
-0.00322699
-0.000272494
-0.00291664
-0.000310262
-0.00257201
-0.000344542
-0.00219719
-0.000374713
-0.0017968
-0.00040028
-0.00137582
-0.000420859
-0.000939483
-0.00043622
-0.000493031
-0.000446328
-4.17138e-05
-0.000451197
0.000409429
-0.000451019
-0.000446195
0.000855747
-0.000282463
0.00035435
-0.000901621
0.000859078
-0.00169536
0.00113392
-0.00254538
0.00122543
-0.00338438
0.00121566
-0.00418014
0.0011593
-0.00491901
0.00108408
-0.00559547
0.00100157
-0.00620687
0.000915409
-0.00675115
0.000826021
-0.00722602
0.000732806
-0.00762878
0.000634986
-0.00795634
0.000531899
-0.00820537
0.000423096
-0.00837247
0.000308408
-0.00845445
0.000187986
-0.00844851
6.23287e-05
-0.00835245
-6.77497e-05
-0.00816498
-0.000201026
-0.00788583
-0.000336021
-0.00751578
-0.000471051
-0.00705688
-0.000604253
-0.00651244
-0.000733628
-0.00588708
-0.000857129
-0.00518664
-0.000972736
-0.0044181
-0.00107859
-0.00358938
-0.00117301
-0.00270925
-0.00125459
-0.00178698
-0.00132227
-0.000832259
-0.0013753
0.000144997
-0.00141319
0.00113487
-0.00143593
0.00212794
-0.00144399
0.00311548
-0.00143828
-0.00141974
0.00408929
-0.00046646
0.000820781
-0.00137906
0.00177162
-0.00247348
0.00222829
-0.00359801
0.00234993
-0.00467311
0.00229072
-0.0056613
0.00214746
-0.00654705
0.00196979
-0.00732487
0.00177935
-0.00799322
0.0015837
-0.00855165
0.0013844
-0.00899973
0.00118081
-0.00933663
0.000971804
-0.00956117
0.000756354
-0.00967198
0.000533822
-0.00966774
0.000304092
-0.00954752
6.76977e-05
-0.00931098
-0.000174275
-0.00895876
-0.000420002
-0.00849254
-0.000667259
-0.00791507
-0.000913469
-0.00723032
-0.00115576
-0.00644347
-0.00139103
-0.00556096
-0.00161604
-0.00459039
-0.00182756
-0.00354048
-0.0020225
-0.00242083
-0.00219807
-0.00124181
-0.00235185
-1.4264e-05
-0.00248194
0.00125039
-0.00258674
0.00254076
-0.00266549
0.00384595
-0.00271819
0.00515535
-0.00274514
0.00645881
-0.00274726
0.00774675
-0.00272603
-0.00268328
0.00901048
-0.000595384
0.00141614
-0.00168165
0.00285782
-0.00290545
0.00345204
-0.00409489
0.00353932
-0.00517354
0.00336934
-0.00611114
0.00308502
-0.00689879
0.00275741
-0.00753667
0.00241718
-0.00802812
0.00207511
-0.00837711
0.00173333
-0.00858718
0.00139082
-0.00866127
0.00104583
-0.00860178
0.0006968
-0.00841087
0.00034284
-0.00809072
-1.61206e-05
-0.00764399
-0.000379083
-0.00707416
-0.000744149
-0.00638537
-0.00110882
-0.00558265
-0.00147
-0.00467203
-0.00182408
-0.00366056
-0.00216721
-0.0025562
-0.00249534
-0.00136792
-0.00280426
-0.000105491
-0.00308991
0.00122054
-0.00334845
0.00259913
-0.00357657
0.00401902
-0.00377165
0.00546882
-0.00393165
0.00693738
-0.0040552
0.00841376
-0.00414177
0.00988736
-0.00419168
0.0113482
-0.0042059
0.0127872
-0.00418612
0.0141959
-0.00413464
-0.00405424
0.015567
-0.000671387
0.0020875
-0.00178954
0.00397591
-0.00293905
0.0046015
-0.00395706
0.00455728
-0.00479163
0.00420386
-0.00543304
0.0037264
-0.00588701
0.00321133
-0.00616393
0.00269406
-0.00627457
0.00218571
-0.00622854
0.00168725
-0.00603402
0.00119624
-0.00569799
0.000709733
-0.00522658
0.000225322
-0.0046255
-0.000258311
-0.00390062
-0.000741061
-0.0030581
-0.00122167
-0.00210448
-0.00169782
-0.00104695
-0.0021664
0.000106637
-0.00262362
0.00134775
-0.00306521
0.00266703
-0.00348651
0.00405445
-0.00388276
0.00549947
-0.00424928
0.00699121
-0.00458164
0.0085186
-0.00487582
0.0100705
-0.00512847
0.0116359
-0.005337
0.0132039
-0.00549967
0.0147643
-0.00561559
0.0163074
-0.00568486
0.0178243
-0.00570846
0.0193067
-0.00568825
0.0207474
-0.00562683
0.0221404
-0.00552749
-0.00539408
0.0234803
-0.000699648
0.00278713
-0.00168117
0.00495737
-0.00250582
0.00542609
-0.00307683
0.00512824
-0.00339997
0.00452695
-0.00349978
0.00382616
-0.00340116
0.00311266
-0.00312571
0.00241856
-0.00269085
0.0017508
-0.00211039
0.00110673
-0.00139551
0.000481292
-0.00055575
-0.0001301
0.000400489
-0.000730994
0.00146513
-0.00132303
0.00262999
-0.001906
0.0038866
-0.00247836
0.00522618
-0.00303747
0.00663953
-0.0035798
0.00811694
-0.00410109
0.00964829
-0.0045966
0.0112231
-0.00506136
0.0128306
-0.00549033
0.01446
-0.00587872
0.0161004
-0.00622208
0.0177412
-0.00651662
0.019372
-0.00675931
0.020983
-0.00694804
0.022565
-0.00708171
0.0241096
-0.0071602
0.0256092
-0.00718448
0.0270573
-0.0071565
0.0284482
-0.00707912
0.0297774
-0.00695601
0.0310414
-0.00679152
-0.00659054
0.0322379
-0.000662769
0.00344987
-0.00126164
0.00555617
-0.00141807
0.00558246
-0.00120574
0.00491585
-0.000728143
0.00404929
-4.87163e-05
0.00314667
0.00079304
0.00227084
0.00177033
0.0014412
0.00286491
0.000656154
0.00406368
-9.21115e-05
0.00535679
-0.000811888
0.00673576
-0.00150914
0.00819183
-0.00218714
0.00971609
-0.00284737
0.0112996
-0.00348955
0.0129331
-0.00411195
0.0146071
-0.00471161
0.016312
-0.00528468
0.0180375
-0.00582667
0.0197735
-0.00633267
0.0215097
-0.00679764
0.023236
-0.00721666
0.0249423
-0.00758514
0.0266192
-0.00789905
0.0282577
-0.00815514
0.0298494
-0.00835107
0.0313868
-0.00848553
0.0328634
-0.00855834
0.0342736
-0.00857039
0.0356127
-0.00852371
0.0368775
-0.00842132
0.0380655
-0.00826717
0.0391755
-0.00806599
0.0402071
-0.00782316
-0.00754449
0.041161
-0.000462942
0.00391278
-0.000161233
0.0052544
0.000881811
0.00453934
0.00228122
0.00351638
0.00384064
0.0024898
0.00548918
0.00149806
0.0071968
0.000563148
0.00894835
-0.000310424
0.0107368
-0.00113242
0.0125586
-0.00191399
0.0144092
-0.00266252
0.0162829
-0.0033829
0.0181736
-0.00407795
0.0200747
-0.00474857
0.021979
-0.00539391
0.0238787
-0.00601168
0.0257654
-0.00659849
0.0276309
-0.00715019
0.0294662
-0.00766212
0.0312629
-0.00812943
0.0330125
-0.00854725
0.0347068
-0.00891103
0.0363383
-0.00921671
0.0379001
-0.00946097
0.0393862
-0.00964136
0.0407916
-0.00975649
0.0421121
-0.00980608
0.0433447
-0.00979102
0.0444876
-0.00971334
0.0455399
-0.00957614
0.0465021
-0.00938353
0.0473753
-0.00914046
0.0481619
-0.00885261
0.0488648
-0.00852614
-0.0081676
0.0494879
0.000513637
0.0033991
0.0029396
0.00282833
0.00586606
0.0016128
0.00876048
0.000621873
0.0115214
-0.000271228
0.0141533
-0.00113389
0.0166779
-0.00196153
0.0191149
-0.00274755
0.0214789
-0.00349649
0.0237798
-0.00421494
0.0260238
-0.00490665
0.028214
-0.00557314
0.0303505
-0.0062145
0.0324314
-0.00682961
0.0344535
-0.00741612
0.0364124
-0.00797062
0.0383028
-0.00848898
0.0401192
-0.00896663
0.0418557
-0.00939879
0.0435069
-0.00978069
0.0450674
-0.0101078
0.0465326
-0.0103763
0.0478984
-0.0105826
0.0491618
-0.0107244
0.0503206
-0.0108002
0.0513738
-0.0108097
0.0523214
-0.0107538
0.0531647
-0.0106344
0.0539058
-0.0104545
0.054548
-0.0102184
0.0550955
-0.00993108
0.0555532
-0.00959823
0.0559266
-0.00922618
0.056222
-0.00882163
-0.00839146
0.0564458
0.00658705
-0.00318804
0.0121274
-0.00271211
0.0166645
-0.0029244
0.0206057
-0.0033194
0.0241097
-0.00377532
0.0272769
-0.00430117
0.0301864
-0.0048711
0.0328946
-0.0054558
0.0354384
-0.00604039
0.0378416
-0.00661822
0.0401194
-0.00718455
0.0422813
-0.00773505
0.0443323
-0.00826558
0.0462746
-0.00877204
0.0481084
-0.00925001
0.0498325
-0.00969477
0.0514448
-0.0101014
0.052943
-0.0104649
0.0543245
-0.0107804
0.0555873
-0.0110435
0.0567296
-0.0112503
0.0577507
-0.0113973
0.0586503
-0.0114823
0.0594295
-0.0115036
0.0600902
-0.0114611
0.0606357
-0.0113553
0.0610701
-0.0111883
0.0613986
-0.0109629
0.0616274
-0.0106834
0.0617633
-0.0103544
0.0618138
-0.00998172
0.061787
-0.00957153
0.0616911
-0.0091304
0.0615346
-0.00866515
-0.00818257
0.0613255
0.0302528
-0.00523817
0.0334147
-0.00587408
0.0365482
-0.00605791
0.0395317
-0.00630298
0.0423542
-0.00659786
0.0449892
-0.00693623
0.0474372
-0.00731912
0.0497139
-0.00773262
0.0518342
-0.0081608
0.0538086
-0.00859261
0.0556441
-0.00902015
0.0573456
-0.00943664
0.0589159
-0.00983589
0.0603559
-0.0102122
0.0616659
-0.01056
0.0628452
-0.0108742
0.0638932
-0.0111495
0.0648095
-0.0113812
0.0655938
-0.0115648
0.0662469
-0.0116966
0.06677
-0.0117734
0.0671655
-0.0117929
0.067437
-0.0117537
0.0675889
-0.0116556
0.0676269
-0.0114991
0.0675579
-0.0112863
0.0673894
-0.0110198
0.06713
-0.0107036
0.0667889
-0.0103423
0.0663757
-0.00994128
0.0659003
-0.00950645
0.0653728
-0.00904405
0.0648028
-0.00856052
0.0641998
-0.00806231
-0.00755574
0.0635729
0.0580901
-0.00562114
0.0588701
-0.00665413
0.0600265
-0.00721437
0.0613648
-0.00764124
0.062793
-0.00802606
0.064237
-0.00838031
0.0656402
-0.0087224
0.0669702
-0.00906265
0.0682092
-0.00939981
0.0693458
-0.00972919
0.0703719
-0.0100464
0.0712821
-0.0103469
0.0720721
-0.010626
0.0727388
-0.0108789
0.0732798
-0.0111011
0.0736935
-0.0112879
0.0739793
-0.0114353
0.0741375
-0.0115393
0.0741694
-0.0115968
0.0740778
-0.011605
0.0738665
-0.0115621
0.0735405
-0.011467
0.0731063
-0.0113195
0.0725712
-0.0111205
0.0719439
-0.0108719
0.071234
-0.0105764
0.0704517
-0.0102375
0.0696078
-0.00985972
0.0687134
-0.00944791
0.0677796
-0.00900754
0.0668174
-0.0085443
0.0658373
-0.00806406
0.0648494
-0.00757266
0.0638628
-0.00707579
-0.00657886
0.0628858
0.0790002
-0.00578213
0.0790977
-0.00675163
0.0793096
-0.00742626
0.0796089
-0.00794055
0.0799618
-0.00837901
0.0803405
-0.00875904
0.0807117
-0.00909354
0.0810455
-0.00939647
0.0813201
-0.00967447
0.0815196
-0.00992862
0.0816314
-0.0101583
0.0816465
-0.0103619
0.081558
-0.0105375
0.0813614
-0.0106823
0.0810537
-0.0107934
0.0806338
-0.010868
0.0801021
-0.0109035
0.0794604
-0.0108977
0.0787123
-0.0108487
0.0778628
-0.0107554
0.0769181
-0.0106174
0.0758859
-0.0104348
0.0747753
-0.0102088
0.073596
-0.00994122
0.0723589
-0.00963479
0.0710754
-0.00929282
0.0697572
-0.00891927
0.068416
-0.00851857
0.0670636
-0.00809551
0.0657112
-0.00765509
0.0643692
-0.00720238
0.0630475
-0.00674242
0.0617548
-0.00628004
0.0604988
-0.00581984
-0.00536605
0.0592859
0.092021
-0.00561322
0.0917042
-0.00643484
0.0913598
-0.00708183
0.091009
-0.00758972
0.0906405
-0.0080105
0.0902453
-0.00836382
0.0898112
-0.00865943
0.0893234
-0.00890859
0.0887688
-0.00911984
0.0881374
-0.00929727
0.0874218
-0.00944257
0.0866162
-0.00955634
0.0857172
-0.00963845
0.0847231
-0.00968814
0.083634
-0.00970434
0.082452
-0.00968593
0.0811805
-0.00963194
0.0798245
-0.00954165
0.0783906
-0.00941477
0.0768867
-0.00925147
0.0753219
-0.00905247
0.0737063
-0.0088191
0.0720508
-0.00855328
0.0703672
-0.00825748
0.0686671
-0.00793469
0.0669627
-0.00758836
0.0652657
-0.00722223
0.0635875
-0.00684029
0.0619387
-0.00644667
0.0603291
-0.00604549
0.0587675
-0.00564077
0.0572614
-0.00523639
0.0558173
-0.00483594
0.0544402
-0.00444275
-0.00405977
0.0531338
0.0973306
-0.00506956
0.0966272
-0.00573145
0.0958273
-0.00628189
0.0949584
-0.0067208
0.0940221
-0.00707414
0.0930172
-0.00735889
0.0919419
-0.00758409
0.0907921
-0.00775873
0.0895634
-0.00789106
0.0882528
-0.00798667
0.0868592
-0.00804884
0.0853825
-0.00807968
0.0838247
-0.00808055
0.0821888
-0.00805223
0.0804797
-0.00799514
0.0787034
-0.00790952
0.0768672
-0.00779567
0.0749796
-0.00765404
0.0730503
-0.00748532
0.0710894
-0.00729055
0.0691081
-0.0070711
0.0671179
-0.00682873
0.0651303
-0.00656558
0.063157
-0.0062841
0.0612094
-0.00598701
0.0592983
-0.00567725
0.057434
-0.00535786
0.0556258
-0.00503195
0.0538817
-0.00470257
0.0522089
-0.00437268
0.0506133
-0.00404509
0.0490993
-0.00372238
0.0476702
-0.0034069
0.0463282
-0.00310072
-0.00280565
0.0450741
0.0949979
-0.00418399
0.0939455
-0.00467897
0.0927593
-0.00509564
0.0914639
-0.00542538
0.0900696
-0.00567979
0.0885824
-0.00587157
0.0870077
-0.00600936
0.08535
-0.00610096
0.083613
-0.00615392
0.0818006
-0.00617428
0.0799181
-0.00616625
0.0779714
-0.00613285
0.0759672
-0.00607631
0.0739133
-0.0059983
0.0718183
-0.00590007
0.0696915
-0.00578258
0.0675426
-0.00564675
0.0653822
-0.00549348
0.0632208
-0.00532382
0.0610692
-0.00513893
0.0589384
-0.0049402
0.056839
-0.00472919
0.0547812
-0.00450765
0.0527746
-0.00427745
0.0508283
-0.00404061
0.0489503
-0.00379917
0.0471478
-0.00355519
0.0454266
-0.00331066
0.0437916
-0.00306752
0.0422465
-0.00282753
0.0407938
-0.00259235
0.0394349
-0.00236344
0.0381701
-0.00214207
0.0369987
-0.00192935
-0.00172618
0.0359192
0.0851503
-0.00303454
0.0838307
-0.00335931
0.0823619
-0.00362682
0.0807664
-0.00382981
0.0790609
-0.00397414
0.0772587
-0.0040693
0.0753727
-0.00412329
0.0734148
-0.00414301
0.0713959
-0.00413495
0.0693262
-0.00410452
0.0672157
-0.00405574
0.0650745
-0.00399148
0.0629121
-0.00391392
0.0607386
-0.00382464
0.0585634
-0.00372484
0.0563963
-0.00361542
0.0542468
-0.00349717
0.0521242
-0.00337081
0.0500376
-0.00323712
0.0479957
-0.0030969
0.0460067
-0.00295109
0.0440782
-0.00280065
0.0422173
-0.00264665
0.0404302
-0.00249022
0.0387221
-0.00233248
0.0370976
-0.00217457
0.0355601
-0.00201758
0.034112
-0.00186255
0.032755
-0.00171044
0.0314897
-0.00156213
0.0303157
-0.00141837
0.0292322
-0.00127983
0.0282372
-0.00114705
0.0273284
-0.00102051
-0.000900546
0.0265028
0.068175
-0.00176273
0.0667432
-0.00192747
0.0651712
-0.00205467
0.0634829
-0.00214138
0.0617008
-0.00219197
0.0598451
-0.00221349
0.057934
-0.00221214
0.0559841
-0.00219297
0.0540095
-0.0021603
0.0520227
-0.0021176
0.0500345
-0.0020674
0.0480545
-0.0020114
0.0460914
-0.00195076
0.0441532
-0.00188632
0.0422471
-0.00181864
0.0403798
-0.00174812
0.0385578
-0.00167508
0.0367869
-0.00159981
0.0350725
-0.00152263
0.0334196
-0.0014439
0.0318326
-0.001364
0.0303154
-0.00128335
0.0288712
-0.00120241
0.0275027
-0.00112163
0.0262118
-0.0010415
0.0249997
-0.000962442
0.0238671
-0.000884902
0.0228139
-0.000809254
0.0218393
-0.000735856
0.0209423
-0.000665
0.0201209
-0.000596953
0.019373
-0.000531913
0.018696
-0.000470059
0.0180871
-0.000411504
-0.000356355
0.0175429
0.0449322
-0.000613098
0.0436622
-0.000657412
0.0422941
-0.000686506
0.0408534
-0.000700494
0.0393636
-0.000702161
0.0378453
-0.000695008
0.036315
-0.000681769
0.0347864
-0.000664334
0.0332703
-0.000644124
0.031775
-0.000622199
0.0303069
-0.000599242
0.0288713
-0.000575654
0.0274723
-0.000551671
0.0261135
-0.000527441
0.0247979
-0.000503043
0.0235284
-0.000478518
0.0223073
-0.000453889
0.0211367
-0.000429193
0.0200186
-0.000404477
0.0189546
-0.000379809
0.017946
-0.000355267
0.0169936
-0.00033095
0.0160982
-0.000306953
0.01526
-0.000283384
0.0144789
-0.000260336
0.0137544
-0.000237909
0.0130858
-0.000216179
0.0124718
-0.000195227
0.0119111
-0.000175107
0.011402
-0.000155877
0.0109426
-0.000137567
0.010531
-0.000120215
0.0101648
-0.00010383
0.00984173
-8.84335e-05
-7.4019e-05
0.00955941
0.0168615
0.0162041
0.0155176
0.0148172
0.014115
0.01342
0.0127383
0.0120739
0.0114298
0.0108076
0.0102084
0.00963278
0.00908112
0.00855369
0.00805066
0.00757215
0.00711827
0.00668909
0.00628462
0.00590482
0.00554956
0.00521862
0.00491167
0.0046283
0.00436797
0.00413007
0.00391389
0.00371867
0.00354357
0.0033877
0.00325014
0.00312993
0.0030261
0.00293767
0.00286366
0.00129301
-0.000437143
0.00171753
-0.000424399
0.00212619
-0.000408538
0.00251649
-0.000390173
0.00288653
-0.000369929
0.00323506
-0.000348415
0.00356138
-0.000326219
0.00386537
-0.000303883
0.00414736
-0.000281906
-0.000260724
0.00440817
0.005042
-0.00138958
0.0059671
-0.00134924
0.00685911
-0.00130028
0.00771355
-0.00124435
0.00852699
-0.00118312
0.00929705
-0.00111823
0.0100223
-0.00105128
0.0107024
-0.000983769
0.0113378
-0.000917074
-0.000852451
0.0119297
0.0102423
-0.0026212
0.0114355
-0.00254224
0.0125845
-0.00244905
0.0136847
-0.00234439
0.0147328
-0.00223104
0.0157265
-0.00211173
0.0166646
-0.00198912
0.0175467
-0.0018657
0.0183736
-0.0017438
-0.00162553
0.0191468
0.0168941
-0.00394816
0.0181719
-0.00381988
0.0193962
-0.00367314
0.0205637
-0.00351173
0.0216722
-0.00333947
0.0227208
-0.00316009
0.0237089
-0.00297716
0.0246374
-0.00279404
0.0255076
-0.00261387
-0.00243949
0.0263217
0.0247631
-0.00523085
0.0259856
-0.00504236
0.0271459
-0.00483331
0.0282427
-0.00460847
0.0292759
-0.00437253
0.030246
-0.00413005
0.0311542
-0.00388533
0.0320027
-0.0036424
0.0327939
-0.00340497
-0.0031764
0.0335309
0.0333654
-0.00635833
0.0344235
-0.0061004
0.0354126
-0.00582233
0.0363338
-0.00552967
0.0371892
-0.00522781
0.0379811
-0.0049219
0.0387126
-0.00461676
0.0393871
-0.00431684
0.0400083
-0.00402617
-0.00374839
0.0405804
0.0420388
-0.0072361
0.0428426
-0.00690426
0.0435755
-0.00655521
0.0442409
-0.00619502
0.0448426
-0.00582952
0.0453849
-0.00546419
0.0458722
-0.00510407
0.0463091
-0.00475376
0.0467003
-0.00441737
-0.00409854
0.0470504
0.0500354
-0.00778369
0.0505122
-0.00738111
0.0509233
-0.00696643
0.0512742
-0.00654594
0.0515702
-0.00612556
0.0518167
-0.00571076
0.0520191
-0.00530652
0.0521826
-0.00491728
0.0523121
-0.00454695
-0.00419895
0.0524125
0.0566046
-0.00794257
0.0567051
-0.00748175
0.0567541
-0.00701548
0.0567579
-0.00654989
0.0567229
-0.00609063
0.0566548
-0.00564282
0.0565593
-0.00521105
0.0564412
-0.00479934
0.0563054
-0.00441116
-0.00404948
0.0561558
0.0610722
-0.00768936
0.0607823
-0.00719193
0.060463
-0.00669631
0.060121
-0.00620807
0.0597625
-0.00573225
0.0593929
-0.00527333
0.0590169
-0.00483523
0.0586388
-0.00442133
0.058262
-0.00403447
-0.00367701
0.0578894
0.0629302
-0.00704686
0.0622795
-0.00654132
0.0616274
-0.00604435
0.0609798
-0.00556064
0.0603418
-0.00509436
0.0597174
-0.00464913
0.0591101
-0.00422803
0.0585223
-0.00383365
0.0579558
-0.00346812
-0.00313315
0.0574118
0.0619257
-0.00608694
0.0609889
-0.00560465
0.0600806
-0.00513612
0.0592048
-0.00468501
0.0583647
-0.00425445
0.0575626
-0.0038471
0.0567996
-0.00346517
0.0560762
-0.00311044
0.0553923
-0.00278433
-0.00248792
0.0547469
0.0581214
-0.00492254
0.0570094
-0.00449271
0.0559527
-0.00407955
0.0549532
-0.0036856
0.0540116
-0.00331299
0.0531278
-0.00296346
0.0523009
-0.00263838
0.0515292
-0.00233885
0.0508104
-0.00206567
-0.00181942
0.0501417
0.0519009
-0.00368962
0.0507426
-0.00333454
0.0496594
-0.00299643
0.0486506
-0.00267684
0.0477145
-0.00237702
0.0468489
-0.00209796
0.0460508
-0.0018404
0.0453167
-0.00160487
0.0446427
-0.00139177
-0.00120132
0.0440245
0.0439076
-0.00252321
0.0428277
-0.00225468
0.0418323
-0.00200107
0.0409186
-0.0017632
0.0400832
-0.00154168
0.0393221
-0.00133695
0.038631
-0.00114935
0.0380051
-0.000979076
0.0374395
-0.000826249
-0.00069093
0.036929
0.0349293
-0.0015333
0.0340259
-0.00135131
0.0332055
-0.00118064
0.0324639
-0.00102165
0.0317967
-0.000874541
0.0311992
-0.000739488
0.0306664
-0.000616573
0.0301931
-0.000505849
0.0297741
-0.000407323
-0.000320999
0.0294041
0.0257569
-0.000787449
0.025087
-0.000681411
0.0244889
-0.000582583
0.0239583
-0.000491048
0.0234906
-0.00040687
0.0230812
-0.000330065
0.0227252
-0.000260653
0.022418
-0.000198619
0.0221545
-0.000143967
-9.66772e-05
0.0219301
0.0170601
-0.00030466
0.0166352
-0.00025647
0.0162644
-0.000211792
0.015944
-0.000170648
0.0156701
-0.000133022
0.015439
-9.89238e-05
0.0152466
-6.83325e-05
0.0150892
-4.12577e-05
0.0149629
-1.76839e-05
2.37405e-06
0.0148638
0.00931536
-6.05957e-05
0.00910706
-4.81501e-05
0.00893196
-3.66861e-05
0.0087875
-2.61881e-05
0.00867113
-1.66605e-05
0.00858029
-8.09058e-06
0.00851242
-4.87199e-07
0.00846498
6.15988e-06
0.00843541
1.18409e-05
1.65586e-05
0.00842117
0.00280306
0.00275492
0.00271823
0.00269204
0.00267538
0.00266729
0.0026668
0.00267296
0.00268479
0.00270134
0.00464897
-0.000240726
0.00487126
-0.000222235
0.00507684
-0.00020553
0.00526771
-0.000190836
0.00544608
-0.000178347
0.00561431
-0.000168218
0.00577489
-0.00016059
0.00593046
-0.000155589
0.00608378
-0.000153345
0.00623773
-0.000153992
0.00639537
-0.000157693
0.00655994
-0.000164641
0.00673494
-0.000175079
0.00692416
-0.000189305
0.00713176
-0.000207696
0.00736236
-0.000230716
0.00762117
-0.000258933
0.00791407
-0.000293032
0.00824776
-0.00033383
0.00862988
-0.000382276
0.00906916
-0.000439445
0.0095755
-0.000506509
0.01016
-0.000584672
0.0108349
-0.000675045
0.0116131
-0.000778451
0.0125081
-0.000895098
0.013532
-0.00102412
0.0146949
-0.00116295
0.0160012
-0.00130651
0.0174474
-0.00144632
0.0190171
-0.00156973
0.0206766
-0.00165966
0.0223719
-0.00169546
0.0240273
-0.0016556
-0.00152375
0.0255509
0.0124802
-0.000791014
0.0129918
-0.00073374
0.0134679
-0.00068147
0.013912
-0.000634929
0.0143285
-0.000594734
0.0147217
-0.000561418
0.0150965
-0.000535451
0.0154582
-0.000517267
0.015812
-0.000507289
0.0161639
-0.000505955
0.0165199
-0.00051375
0.0168863
-0.000531239
0.0172701
-0.000559092
0.0176788
-0.000598123
0.0181202
-0.000649321
0.0186031
-0.000713886
0.0191371
-0.000793263
0.019733
-0.00088917
0.0204025
-0.00100362
0.0211588
-0.00113892
0.0220166
-0.00129765
0.0229923
-0.00148258
0.0241038
-0.0016965
0.0253704
-0.00194198
0.0268125
-0.00222088
0.0284507
-0.00253367
0.0303047
-0.00287842
0.032391
-0.00324948
0.03472
-0.00363567
0.0372918
-0.00401832
0.0400911
-0.00436928
0.0430809
-0.00464975
0.0461965
-0.00481132
0.0493407
-0.00480012
-0.00457012
0.0523868
0.0198687
-0.00151281
0.0205424
-0.00140733
0.0211716
-0.00131056
0.0217605
-0.00122381
0.022314
-0.00114819
0.0228374
-0.0010847
0.0233361
-0.00103423
0.0238164
-0.000997581
0.0242846
-0.000975554
0.0247475
-0.000968953
0.0252123
-0.000978652
0.0256866
-0.00100563
0.0261784
-0.00105102
0.0266963
-0.00111619
0.0272495
-0.00120273
0.027848
-0.00131258
0.0285026
-0.00144803
0.0292249
-0.00161177
0.030028
-0.00180694
0.0309259
-0.0020371
0.0319342
-0.00230623
0.0330699
-0.00261861
0.0343517
-0.00297859
0.0357997
-0.00339024
0.0374353
-0.00385671
0.0392808
-0.00437933
0.0413583
-0.00495619
0.0436889
-0.00558017
0.0462894
-0.00623631
0.0491694
-0.0068985
0.0523258
-0.00752584
0.0557351
-0.00805927
0.0593447
-0.00842117
0.063062
-0.00851783
-0.00826118
0.0667528
0.0270825
-0.00227347
0.0277934
-0.00211811
0.0284583
-0.00197542
0.0290817
-0.00184718
0.0296685
-0.00173496
0.030224
-0.00164013
0.0307537
-0.00156396
0.0312637
-0.00150759
0.0317602
-0.00147218
0.0322501
-0.00145886
0.0327402
-0.00146886
0.033238
-0.00150354
0.0337513
-0.00156446
0.0342884
-0.00165345
0.0348582
-0.00177266
0.0354701
-0.00192463
0.0361342
-0.00211236
0.0368616
-0.00233939
0.0376643
-0.00260978
0.0385552
-0.0029282
0.0395486
-0.00329987
0.0406602
-0.0037305
0.0419075
-0.00422605
0.0433094
-0.00479238
0.0448872
-0.00543464
0.046664
-0.00615625
0.048665
-0.0069573
0.050917
-0.00783222
0.0534469
-0.0087663
0.0562793
-0.00973095
0.0594307
-0.0106773
0.0629001
-0.0115289
0.0666548
-0.0121761
0.0706068
-0.01247
-0.0122611
0.0746063
0.0342172
-0.00295972
0.0348568
-0.00275759
0.0354537
-0.00257237
0.0360127
-0.00240615
0.0365385
-0.00226074
0.0370362
-0.00213779
0.037511
-0.00203875
0.0379684
-0.00196504
0.0384142
-0.001918
0.0388543
-0.00189902
0.0392949
-0.00190957
0.0397426
-0.00195131
0.0402042
-0.0020261
0.0406868
-0.00213613
0.0411979
-0.00228396
0.0417458
-0.00247261
0.0423389
-0.00270563
0.0429866
-0.00298721
0.0436989
-0.0033222
0.0444867
-0.00371619
0.0453623
-0.00417553
0.0463389
-0.00470732
0.0474321
-0.0053193
0.0486592
-0.00601959
0.0500407
-0.0068162
0.0516007
-0.00771626
0.053368
-0.00872446
0.0553766
-0.00984075
0.0576667
-0.0110563
0.0602835
-0.0123476
0.0632729
-0.0136667
0.0666718
-0.0149279
0.0704848
-0.0159891
0.0746399
-0.0166254
-0.0165918
0.0789704
0.0411074
-0.00348672
0.0415938
-0.00324398
0.0420441
-0.00302265
0.0424629
-0.00282489
0.0428547
-0.0026526
0.0432244
-0.00250745
0.0435766
-0.00239098
0.0439162
-0.00230466
0.044248
-0.00224989
0.0445771
-0.00222817
0.0449086
-0.00224108
0.0452476
-0.00229041
0.0455996
-0.00237821
0.0459703
-0.00250687
0.0463655
-0.0026792
0.0467913
-0.00289854
0.0472544
-0.00316882
0.0477618
-0.00349467
0.048321
-0.00388153
0.0489405
-0.00433574
0.0496296
-0.00486464
0.0503988
-0.00547665
0.0512609
-0.00618136
0.0522308
-0.00698949
0.0533274
-0.00791276
0.0545748
-0.00896352
0.0560044
-0.0101539
0.0576577
-0.0114939
0.0595895
-0.0129879
0.0618702
-0.0146282
0.064586
-0.0163824
0.0678344
-0.018176
0.0716967
-0.0198516
0.076194
-0.0211225
-0.0216029
0.0812049
0.0473641
-0.00380045
0.047646
-0.00352587
0.0479005
-0.00327716
0.0481319
-0.00305638
0.0483446
-0.0028653
0.0485426
-0.00270551
0.04873
-0.00257842
0.0489108
-0.00248541
0.0490886
-0.00242783
0.0492675
-0.00240711
0.0494512
-0.00242481
0.0496435
-0.00248273
0.0498481
-0.00258293
0.0500691
-0.00272786
0.0503102
-0.00292042
0.0505757
-0.00316407
0.0508698
-0.00346293
0.0511969
-0.00382186
0.051562
-0.00424666
0.0519704
-0.00474416
0.0524282
-0.00532244
0.0529426
-0.00599104
0.0535225
-0.00676122
0.0541795
-0.00764632
0.0549289
-0.00866209
0.0557928
-0.00982715
0.0568024
-0.0111632
0.0580039
-0.0126951
0.0594653
-0.014449
0.0612857
-0.0164481
0.063604
-0.0187001
0.0666052
-0.021177
0.0705067
-0.023752
0.0755771
-0.0261921
-0.0279445
0.0819194
0.0524882
-0.0038762
0.0525434
-0.00358119
0.0525822
-0.00331602
0.0526083
-0.00308247
0.052625
-0.00288208
0.0526356
-0.00271618
0.0526431
-0.00258597
0.0526503
-0.00249264
0.0526598
-0.00243735
0.052674
-0.00242138
0.0526953
-0.00244617
0.0527259
-0.00251338
0.0527679
-0.00262498
0.0528234
-0.00278334
0.0528942
-0.00299129
0.0529824
-0.00325224
0.0530897
-0.00357027
0.0532181
-0.00395027
0.0533695
-0.0043981
0.0535461
-0.00492078
0.0537505
-0.00552676
0.0539857
-0.00622624
0.0542563
-0.00703169
0.0545686
-0.00795848
0.0549326
-0.00902586
0.055364
-0.0102584
0.0558889
-0.0116878
0.0565503
-0.0133561
0.0574207
-0.0153188
0.0586223
-0.017649
0.0603596
-0.0204367
0.0629593
-0.0237754
0.0669
-0.0276915
0.072791
-0.0320816
-0.0358014
0.0806496
0.0559963
-0.00371677
0.0558301
-0.00341512
0.0556602
-0.00314622
0.0554892
-0.00291151
0.0553192
-0.00271216
0.0551521
-0.0025492
0.0549897
-0.00242357
0.0548332
-0.00233618
0.0546837
-0.00228798
0.0545423
-0.00228004
0.0544097
-0.00231358
0.0542863
-0.00239008
0.0541726
-0.00251132
0.0540687
-0.00267949
0.0539746
-0.00289721
0.05389
-0.0031677
0.0538145
-0.00349481
0.0537474
-0.00388322
0.0536879
-0.00433858
0.0536348
-0.00486771
0.053587
-0.00547897
0.0535434
-0.0061826
0.0535032
-0.0069914
0.0534664
-0.0079216
0.053435
-0.00899431
0.0534145
-0.0102376
0.0534171
-0.0116902
0.0534684
-0.013407
0.0536195
-0.0154695
0.0539736
-0.0180026
0.0547442
-0.0212064
0.0563744
-0.0254047
0.0597722
-0.0310876
0.0661324
-0.0384398
-0.0435454
0.0738774
0.0575234
-0.0033509
0.0571659
-0.0030577
0.0568182
-0.00279866
0.0564814
-0.0025748
0.0561561
-0.00238693
0.0558426
-0.00223577
0.0555409
-0.00212196
0.0552508
-0.00204616
0.0549718
-0.00200908
0.0547032
-0.00201155
0.0544442
-0.00205459
0.0541935
-0.00213946
0.0539498
-0.0022677
0.0537115
-0.00244124
0.0534766
-0.00266242
0.053243
-0.00293412
0.0530079
-0.00325984
0.0527685
-0.00364383
0.0525211
-0.00409124
0.0522617
-0.00460835
0.0519856
-0.00520289
0.0516874
-0.00588442
0.051361
-0.00666501
0.0509996
-0.00756018
0.0505958
-0.00859036
0.0501415
-0.00978322