/*--------------------------------*- C++ -*----------------------------------*\
| =========                 |                                                 |
| \\      /  F ield         | OpenFOAM: The Open Source CFD Toolbox           |
|  \\    /   O peration     | Version:  2406                                  |
|   \\  /    A nd           | Website:  www.openfoam.com                      |
|    \\/     M anipulation  |                                                 |
\*---------------------------------------------------------------------------*/
FoamFile
{
    version     2.0;
    format      ascii;
    arch        "LSB;label=32;scalar=64";
    class       volVectorField;
    location    "49";
    object      U;
}
// * * * * * * * * * * * * * * * * * * * * * * * * * * * * * * * * * * * * * //

dimensions      [0 1 -1 0 0 0 0];

internalField   nonuniform List<vector> 
1800
(
(0.190116 -0.00232919 0)
(0.196184 -0.00293741 0)
(0.201816 -0.00223712 0)
(0.20655 -0.00186492 0)
(0.211376 -0.00189957 0)
(0.216875 -0.00218286 0)
(0.223465 -0.00277939 0)
(0.231738 -0.00395653 0)
(0.24365 -0.00709783 0)
(0.255998 -0.0245032 0)
(0.506642 -0.00340722 0)
(0.507993 -0.00675647 0)
(0.511351 -0.00760716 0)
(0.515232 -0.00805195 0)
(0.520335 -0.00893215 0)
(0.527016 -0.0104039 0)
(0.535374 -0.0127182 0)
(0.545634 -0.0164618 0)
(0.55834 -0.0225902 0)
(0.571128 -0.0348031 0)
(0.747451 -0.00252879 0)
(0.748257 -0.00625883 0)
(0.749979 -0.00875514 0)
(0.751671 -0.0109652 0)
(0.754438 -0.0134938 0)
(0.758731 -0.0165945 0)
(0.764404 -0.020585 0)
(0.771227 -0.0260195 0)
(0.778865 -0.0336334 0)
(0.785977 -0.0447141 0)
(0.907843 -0.00212369 0)
(0.908516 -0.00595198 0)
(0.909554 -0.00926663 0)
(0.90991 -0.0124716 0)
(0.910675 -0.0159842 0)
(0.912352 -0.0200622 0)
(0.914731 -0.0249645 0)
(0.917449 -0.0310328 0)
(0.920079 -0.038586 0)
(0.921864 -0.0478051 0)
(0.987961 -0.00185725 0)
(0.988366 -0.00544251 0)
(0.988763 -0.00891808 0)
(0.987984 -0.0124774 0)
(0.987033 -0.016349 0)
(0.986407 -0.0207187 0)
(0.985864 -0.0257636 0)
(0.985021 -0.0316571 0)
(0.983509 -0.0384922 0)
(0.98086 -0.0461857 0)
(0.987918 -0.00147021 0)
(0.987977 -0.00445117 0)
(0.987659 -0.00764085 0)
(0.985762 -0.0110911 0)
(0.983268 -0.0148319 0)
(0.980644 -0.0189574 0)
(0.977625 -0.0235819 0)
(0.973838 -0.0287783 0)
(0.968984 -0.0345356 0)
(0.962759 -0.0407155 0)
(0.907715 -0.000842776 0)
(0.907372 -0.00286955 0)
(0.906317 -0.00547622 0)
(0.903394 -0.00846919 0)
(0.899629 -0.0116812 0)
(0.89543 -0.0151484 0)
(0.8905 -0.0189469 0)
(0.884485 -0.023087 0)
(0.877144 -0.0275093 0)
(0.868273 -0.0320814 0)
(0.747248 0.000244182 0)
(0.74645 -0.000510684 0)
(0.744884 -0.00248256 0)
(0.741436 -0.00488283 0)
(0.737106 -0.00733852 0)
(0.73218 -0.00989441 0)
(0.726313 -0.0126153 0)
(0.719176 -0.0154738 0)
(0.710579 -0.0183987 0)
(0.700391 -0.0212943 0)
(0.50641 0.00197747 0)
(0.505832 0.00263122 0)
(0.505225 0.000944425 0)
(0.502966 -0.00111888 0)
(0.499691 -0.00291686 0)
(0.495555 -0.00455094 0)
(0.490287 -0.00612188 0)
(0.483681 -0.00762451 0)
(0.475666 -0.0090338 0)
(0.466227 -0.0103243 0)
(0.189907 0.00181199 0)
(0.194464 0.0017567 0)
(0.197047 0.000610353 0)
(0.197254 -0.000146277 0)
(0.19614 -0.000550265 0)
(0.19412 -0.000850204 0)
(0.191216 -0.00110992 0)
(0.187456 -0.00131967 0)
(0.182913 -0.00148173 0)
(0.177668 -0.00160559 0)
(-8.61033e-05 7.2296e-05 0)
(-0.0016943 0.000502579 0)
(-0.00467756 0.000768902 0)
(-0.00835823 0.000854698 0)
(-0.0121773 0.00086318 0)
(-0.0159026 0.000844932 0)
(-0.0194555 0.000820031 0)
(-0.0228111 0.000794292 0)
(-0.0259597 0.000767605 0)
(-0.0288918 0.000738233 0)
(-0.0315945 0.000704559 0)
(-0.0340504 0.000665258 0)
(-0.036239 0.000619472 0)
(-0.0381372 0.000566526 0)
(-0.0397203 0.000505898 0)
(-0.0409629 0.000437266 0)
(-0.0418397 0.000360493 0)
(-0.0423271 0.000275673 0)
(-0.042404 0.000183483 0)
(-0.0420532 8.50757e-05 0)
(-0.0412635 -1.83328e-05 0)
(-0.0400295 -0.000125127 0)
(-0.0383525 -0.000233534 0)
(-0.0362414 -0.000341494 0)
(-0.0337127 -0.00044685 0)
(-0.0307907 -0.000547312 0)
(-0.0275072 -0.000640717 0)
(-0.0239003 -0.000724869 0)
(-0.020014 -0.000797868 0)
(-0.0158964 -0.000858224 0)
(-0.011599 -0.000905158 0)
(-0.00717422 -0.000938279 0)
(-0.00267554 -0.000956985 0)
(0.00184527 -0.000960708 0)
(0.00634075 -0.000950725 0)
(-0.000665478 0.00179374 0)
(-0.00543444 0.00483068 0)
(-0.0127072 0.00662253 0)
(-0.0211598 0.00727484 0)
(-0.0297305 0.0072926 0)
(-0.0379569 0.0070266 0)
(-0.0456505 0.00665143 0)
(-0.0527352 0.00623594 0)
(-0.059179 0.00579886 0)
(-0.0649617 0.00533984 0)
(-0.0700626 0.00485322 0)
(-0.0744568 0.00433302 0)
(-0.0781151 0.0037742 0)
(-0.0810049 0.00317313 0)
(-0.0830922 0.00252783 0)
(-0.0843434 0.00183823 0)
(-0.0847278 0.00110614 0)
(-0.0842199 0.00033612 0)
(-0.082802 -0.000464934 0)
(-0.0804667 -0.00128801 0)
(-0.0772155 -0.00212226 0)
(-0.0730627 -0.00295568 0)
(-0.0680351 -0.00377509 0)
(-0.0621724 -0.00456658 0)
(-0.0555273 -0.00531607 0)
(-0.048164 -0.00601023 0)
(-0.0401577 -0.00663699 0)
(-0.0315921 -0.00718588 0)
(-0.0225578 -0.00764872 0)
(-0.0131503 -0.00801889 0)
(-0.00346961 -0.00829184 0)
(0.00638388 -0.00846666 0)
(0.0163165 -0.00854574 0)
(0.0262385 -0.00853334 0)
(0.0360627 -0.00843559 0)
(-0.00120142 0.00557815 0)
(-0.00865718 0.0126245 0)
(-0.0189945 0.016287 0)
(-0.0303969 0.0174469 0)
(-0.0415472 0.0172175 0)
(-0.051923 0.0163364 0)
(-0.0613133 0.0151853 0)
(-0.0696365 0.0139282 0)
(-0.0768676 0.0126205 0)
(-0.0830011 0.0112716 0)
(-0.0880342 0.00987557 0)
(-0.0919605 0.00842268 0)
(-0.0947697 0.00690457 0)
(-0.0964485 0.00531569 0)
(-0.0969828 0.0036544 0)
(-0.0963604 0.00192377 0)
(-0.0945735 0.000131971 0)
(-0.0916244 -0.00170844 0)
(-0.0875247 -0.00358032 0)
(-0.082296 -0.00546307 0)
(-0.0759716 -0.0073338 0)
(-0.0685975 -0.00916746 0)
(-0.060232 -0.0109374 0)
(-0.0509454 -0.0126166 0)
(-0.0408196 -0.014179 0)
(-0.0299467 -0.0156008 0)
(-0.0184273 -0.0168605 0)
(-0.00636862 -0.0179407 0)
(0.00611525 -0.0188268 0)
(0.0189127 -0.0195106 0)
(0.0319146 -0.01999 0)
(0.0450108 -0.020266 0)
(0.0580972 -0.0203454 0)
(0.0710748 -0.0202393 0)
(0.0838519 -0.0199612 0)
(-0.00160455 0.0110018 0)
(-0.0108758 0.0229187 0)
(-0.0228042 0.0283109 0)
(-0.0352024 0.0295303 0)
(-0.0466816 0.0285401 0)
(-0.0568033 0.0265314 0)
(-0.065434 0.0241116 0)
(-0.0725534 0.0215469 0)
(-0.0781887 0.0189324 0)
(-0.0823801 0.0162884 0)
(-0.0851664 0.0136081 0)
(-0.0865796 0.0108778 0)
(-0.0866459 0.0080853 0)
(-0.0853873 0.0052234 0)
(-0.0828243 0.00229158 0)
(-0.0789786 -0.00070206 0)
(-0.0738841 -0.00374309 0)
(-0.0675775 -0.00680898 0)
(-0.0601038 -0.00987214 0)
(-0.0515183 -0.0129008 0)
(-0.0418868 -0.0158607 0)
(-0.0312847 -0.0187158 0)
(-0.0197966 -0.0214282 0)
(-0.0075166 -0.0239607 0)
(0.00545151 -0.0262771 0)
(0.0189995 -0.0283458 0)
(0.0330175 -0.0301414 0)
(0.0473912 -0.0316431 0)
(0.0620078 -0.0328361 0)
(0.0767567 -0.0337134 0)
(0.0915295 -0.0342755 0)
(0.106223 -0.0345281 0)
(0.120742 -0.0344835 0)
(0.134998 -0.0341601 0)
(0.148913 -0.0335806 0)
(-0.00192001 0.0174477 0)
(-0.0120335 0.0342864 0)
(-0.0237734 0.0406864 0)
(-0.0348968 0.0411476 0)
(-0.0442392 0.0386964 0)
(-0.0516149 0.0349941 0)
(-0.0570654 0.030848 0)
(-0.0606901 0.0266017 0)
(-0.0626007 0.0223724 0)
(-0.0629006 0.0181804 0)
(-0.0616783 0.0140111 0)
(-0.0590085 0.00984268 0)
(-0.0549553 0.00565726 0)
(-0.0495763 0.00144523 0)
(-0.0429278 -0.0027939 0)
(-0.0350726 -0.00704996 0)
(-0.0260722 -0.0113008 0)
(-0.0159949 -0.0155181 0)
(-0.00491494 -0.019667 0)
(0.00708495 -0.0237075 0)
(0.0199128 -0.0275957 0)
(0.0334718 -0.0312869 0)
(0.04766 -0.0347358 0)
(0.06237 -0.037899 0)
(0.0774918 -0.0407367 0)
(0.0929141 -0.0432147 0)
(0.108526 -0.0453062 0)
(0.124216 -0.0469911 0)
(0.139881 -0.0482572 0)
(0.15542 -0.0491016 0)
(0.170738 -0.0495299 0)
(0.185752 -0.0495558 0)
(0.200382 -0.0492002 0)
(0.214563 -0.0484908 0)
(0.228238 -0.0474605 0)
(-0.00219435 0.0244376 0)
(-0.0121223 0.04522 0)
(-0.0214527 0.0511927 0)
(-0.0285564 0.0497724 0)
(-0.0329942 0.0451212 0)
(-0.0350409 0.0392625 0)
(-0.034984 0.0331086 0)
(-0.0330628 0.0270188 0)
(-0.0294713 0.0210936 0)
(-0.0243628 0.01533 0)
(-0.0178599 0.00969385 0)
(-0.0100618 0.00414675 0)
(-0.00105665 -0.00134137 0)
(0.00907405 -0.00678717 0)
(0.0202459 -0.0121885 0)
(0.0323769 -0.0175304 0)
(0.0453822 -0.0227879 0)
(0.059172 -0.0279272 0)
(0.0736518 -0.0329079 0)
(0.0887223 -0.0376848 0)
(0.10428 -0.0422089 0)
(0.120219 -0.04643 0)
(0.13643 -0.0502996 0)
(0.152805 -0.0537721 0)
(0.169236 -0.0568076 0)
(0.185617 -0.0593733 0)
(0.201848 -0.0614447 0)
(0.217833 -0.0630066 0)
(0.233484 -0.0640537 0)
(0.248721 -0.0645902 0)
(0.263472 -0.0646306 0)
(0.277677 -0.0641979 0)
(0.291286 -0.0633234 0)
(0.304258 -0.0620452 0)
(0.316565 -0.060407 0)
(-0.00242418 0.031853 0)
(-0.0106534 0.0539538 0)
(-0.0143793 0.0570364 0)
(-0.0139052 0.0524405 0)
(-0.0102715 0.0450804 0)
(-0.00435907 0.0369502 0)
(0.00333556 0.028869 0)
(0.0124909 0.0211149 0)
(0.0228922 0.0137204 0)
(0.0343924 0.00663444 0)
(0.0468753 -0.000210665 0)
(0.0602605 -0.0068713 0)
(0.0744612 -0.0133837 0)
(0.0893872 -0.0197641 0)
(0.10495 -0.02601 0)
(0.12106 -0.0321039 0)
(0.137624 -0.0380177 0)
(0.154545 -0.0437143 0)
(0.171723 -0.0491493 0)
(0.189057 -0.0542743 0)
(0.206444 -0.0590381 0)
(0.223781 -0.0633903 0)
(0.240968 -0.067283 0)
(0.257907 -0.0706732 0)
(0.274504 -0.0735246 0)
(0.290674 -0.0758097 0)
(0.306335 -0.0775107 0)
(0.321419 -0.0786205 0)
(0.335863 -0.0791427 0)
(0.349618 -0.0790917 0)
(0.362643 -0.0784923 0)
(0.37491 -0.0773785 0)
(0.3864 -0.0757923 0)
(0.397107 -0.0737827 0)
(0.407031 -0.0714034 0)
(-0.00243198 0.0396303 0)
(-0.00506357 0.0575319 0)
(0.00230267 0.0541745 0)
(0.0151553 0.0455202 0)
(0.0302625 0.03568 0)
(0.0464295 0.0258263 0)
(0.0632779 0.0164455 0)
(0.0806106 0.00765068 0)
(0.0983273 -0.000632447 0)
(0.116393 -0.00850634 0)
(0.134773 -0.0160529 0)
(0.153412 -0.0233291 0)
(0.172252 -0.0303702 0)
(0.19123 -0.03719 0)
(0.210278 -0.043785 0)
(0.229319 -0.050136 0)
(0.248274 -0.0562121 0)
(0.267057 -0.0619737 0)
(0.285584 -0.0673751 0)
(0.303766 -0.0723674 0)
(0.321518 -0.0769008 0)
(0.338757 -0.0809274 0)
(0.355403 -0.0844034 0)
(0.371385 -0.0872913 0)
(0.386638 -0.0895623 0)
(0.401106 -0.0911971 0)
(0.414743 -0.0921873 0)
(0.427513 -0.0925361 0)
(0.439392 -0.0922581 0)
(0.450367 -0.0913789 0)
(0.460436 -0.0899343 0)
(0.469607 -0.0879692 0)
(0.477898 -0.0855359 0)
(0.485336 -0.0826928 0)
(0.491955 -0.0795025 0)
(0.0027718 0.0395321 0)
(0.0158601 0.0471283 0)
(0.0428368 0.0363479 0)
(0.0730114 0.0249154 0)
(0.101676 0.0143462 0)
(0.128613 0.00433668 0)
(0.154345 -0.0050412 0)
(0.179137 -0.0137657 0)
(0.20313 -0.0219502 0)
(0.226437 -0.0297209 0)
(0.249153 -0.0371558 0)
(0.271324 -0.0442956 0)
(0.292962 -0.0511612 0)
(0.314057 -0.0577564 0)
(0.334583 -0.0640691 0)
(0.354501 -0.0700731 0)
(0.373763 -0.0757321 0)
(0.392312 -0.081003 0)
(0.410092 -0.0858388 0)
(0.427045 -0.0901916 0)
(0.443116 -0.0940144 0)
(0.458255 -0.0972642 0)
(0.472418 -0.0999037 0)
(0.485569 -0.101904 0)
(0.497683 -0.103244 0)
(0.508743 -0.103917 0)
(0.518745 -0.103924 0)
(0.527694 -0.103279 0)
(0.535608 -0.10201 0)
(0.542514 -0.100151 0)
(0.54845 -0.0977493 0)
(0.553461 -0.0948592 0)
(0.557601 -0.091541 0)
(0.560929 -0.0878599 0)
(0.563507 -0.0838841 0)
(0.0560042 0.00524705 0)
(0.0969712 0.00325341 0)
(0.142889 -0.00495115 0)
(0.186783 -0.0127674 0)
(0.224534 -0.0198766 0)
(0.257636 -0.0269774 0)
(0.287807 -0.0341156 0)
(0.315819 -0.0411211 0)
(0.342034 -0.0479266 0)
(0.366726 -0.0545326 0)
(0.390101 -0.0609398 0)
(0.412285 -0.0671355 0)
(0.433344 -0.0730995 0)
(0.45331 -0.0788057 0)
(0.472193 -0.0842206 0)
(0.489988 -0.0893039 0)
(0.506676 -0.0940099 0)
(0.522236 -0.0982905 0)
(0.536641 -0.102097 0)
(0.549868 -0.105383 0)
(0.561897 -0.108104 0)
(0.572714 -0.110226 0)
(0.582316 -0.111717 0)
(0.590705 -0.112558 0)
(0.597898 -0.112741 0)
(0.603919 -0.112266 0)
(0.608806 -0.111148 0)
(0.612605 -0.109412 0)
(0.615374 -0.107093 0)
(0.617178 -0.104238 0)
(0.61809 -0.1009 0)
(0.618187 -0.09714 0)
(0.617552 -0.0930237 0)
(0.616268 -0.0886193 0)
(0.614419 -0.0839964 0)
(0.298218 -0.0514754 0)
(0.32127 -0.0532486 0)
(0.348516 -0.0523327 0)
(0.379978 -0.0532556 0)
(0.40994 -0.0556601 0)
(0.437244 -0.0591266 0)
(0.462526 -0.0633498 0)
(0.486124 -0.0680169 0)
(0.508109 -0.0728902 0)
(0.528568 -0.0778259 0)
(0.547601 -0.0827317 0)
(0.565279 -0.0875353 0)
(0.581636 -0.0921738 0)
(0.596689 -0.0965899 0)
(0.61044 -0.100729 0)
(0.622888 -0.104537 0)
(0.634027 -0.107961 0)
(0.64385 -0.110951 0)
(0.652354 -0.113457 0)
(0.659539 -0.115437 0)
(0.665415 -0.116854 0)
(0.67 -0.11768 0)
(0.673324 -0.117895 0)
(0.675428 -0.117489 0)
(0.676361 -0.116464 0)
(0.676187 -0.114833 0)
(0.674978 -0.11262 0)
(0.672815 -0.10986 0)
(0.669788 -0.106597 0)
(0.665992 -0.102882 0)
(0.661523 -0.0987745 0)
(0.656483 -0.0943378 0)
(0.650971 -0.089638 0)
(0.645082 -0.0847425 0)
(0.638911 -0.0797179 0)
(0.580936 -0.0532333 0)
(0.58562 -0.0641652 0)
(0.593453 -0.069413 0)
(0.606113 -0.0730689 0)
(0.620643 -0.076418 0)
(0.63525 -0.0797056 0)
(0.649517 -0.0830981 0)
(0.66323 -0.0866514 0)
(0.676131 -0.090309 0)
(0.688042 -0.0939875 0)
(0.698872 -0.0976146 0)
(0.708566 -0.101127 0)
(0.717078 -0.104465 0)
(0.72437 -0.107569 0)
(0.730414 -0.110385 0)
(0.735191 -0.112861 0)
(0.738689 -0.114946 0)
(0.740908 -0.116595 0)
(0.741854 -0.117769 0)
(0.741548 -0.118432 0)
(0.740022 -0.118559 0)
(0.737321 -0.118133 0)
(0.733501 -0.117146 0)
(0.728633 -0.115599 0)
(0.722798 -0.113506 0)
(0.716087 -0.110891 0)
(0.708599 -0.107786 0)
(0.70044 -0.104232 0)
(0.69172 -0.10028 0)
(0.68255 -0.0959831 0)
(0.673042 -0.0914015 0)
(0.663305 -0.0865968 0)
(0.65344 -0.0816312 0)
(0.643545 -0.0765667 0)
(0.633707 -0.0714626 0)
(0.79021 -0.0579387 0)
(0.791164 -0.0680366 0)
(0.791869 -0.0746378 0)
(0.794201 -0.0796434 0)
(0.797692 -0.083961 0)
(0.801519 -0.0877783 0)
(0.805321 -0.0912412 0)
(0.808889 -0.0944862 0)
(0.811988 -0.0975647 0)
(0.814403 -0.100472 0)
(0.815989 -0.103186 0)
(0.816643 -0.105682 0)
(0.816291 -0.107928 0)
(0.814875 -0.109886 0)
(0.812359 -0.111518 0)
(0.808722 -0.112787 0)
(0.803962 -0.113659 0)
(0.798089 -0.114101 0)
(0.79113 -0.114088 0)
(0.783128 -0.1136 0)
(0.774139 -0.112626 0)
(0.764233 -0.111162 0)
(0.753495 -0.109212 0)
(0.742018 -0.106792 0)
(0.729908 -0.103924 0)
(0.717275 -0.10064 0)
(0.704237 -0.0969796 0)
(0.69091 -0.0929867 0)
(0.677413 -0.0887118 0)
(0.663861 -0.0842082 0)
(0.650363 -0.0795311 0)
(0.637021 -0.0747358 0)
(0.623928 -0.0698768 0)
(0.611167 -0.0650062 0)
(0.598807 -0.0601727 0)
(0.921678 -0.0578613 0)
(0.919178 -0.0666786 0)
(0.915503 -0.0734732 0)
(0.911813 -0.0788338 0)
(0.908254 -0.083321 0)
(0.904518 -0.0871387 0)
(0.900405 -0.0904068 0)
(0.895816 -0.0932483 0)
(0.890634 -0.0957454 0)
(0.884734 -0.0979326 0)
(0.878019 -0.0998198 0)
(0.870423 -0.101405 0)
(0.861906 -0.10268 0)
(0.852442 -0.103626 0)
(0.842024 -0.104227 0)
(0.830663 -0.104461 0)
(0.818385 -0.104312 0)
(0.805233 -0.103766 0)
(0.791266 -0.102812 0)
(0.776556 -0.101447 0)
(0.761188 -0.0996725 0)
(0.745258 -0.097498 0)
(0.728874 -0.0949396 0)
(0.712148 -0.0920204 0)
(0.695199 -0.0887702 0)
(0.678147 -0.0852243 0)
(0.66111 -0.0814227 0)
(0.644206 -0.0774088 0)
(0.627545 -0.0732285 0)
(0.61123 -0.0689283 0)
(0.595353 -0.0645548 0)
(0.579997 -0.060153 0)
(0.565231 -0.0557655 0)
(0.551114 -0.0514322 0)
(0.537688 -0.0471892 0)
(0.976513 -0.0542316 0)
(0.970262 -0.0616239 0)
(0.962579 -0.0677134 0)
(0.954097 -0.0725955 0)
(0.945049 -0.0765868 0)
(0.935369 -0.0798707 0)
(0.924982 -0.0825494 0)
(0.913861 -0.0847209 0)
(0.901977 -0.0864689 0)
(0.889291 -0.0878451 0)
(0.875773 -0.0888774 0)
(0.861418 -0.0895804 0)
(0.846239 -0.0899611 0)
(0.83026 -0.0900205 0)
(0.813522 -0.0897564 0)
(0.796078 -0.089166 0)
(0.777996 -0.088247 0)
(0.759355 -0.0869997 0)
(0.740246 -0.0854277 0)
(0.720768 -0.0835386 0)
(0.701029 -0.0813445 0)
(0.681141 -0.0788625 0)
(0.661222 -0.0761144 0)
(0.641388 -0.0731263 0)
(0.621755 -0.0699284 0)
(0.602435 -0.0665537 0)
(0.583534 -0.0630376 0)
(0.565149 -0.0594163 0)
(0.547368 -0.0557266 0)
(0.530267 -0.0520043 0)
(0.513912 -0.0482839 0)
(0.498354 -0.0445976 0)
(0.483632 -0.0409749 0)
(0.469773 -0.0374426 0)
(0.456791 -0.034024 0)
(0.954859 -0.0469742 0)
(0.945164 -0.0527587 0)
(0.933888 -0.0576389 0)
(0.921392 -0.0615586 0)
(0.907902 -0.0646676 0)
(0.893485 -0.0671002 0)
(0.878168 -0.0689457 0)
(0.861995 -0.0702876 0)
(0.845011 -0.0712045 0)
(0.827255 -0.0717561 0)
(0.808767 -0.0719824 0)
(0.789604 -0.0719111 0)
(0.769831 -0.0715618 0)
(0.74952 -0.0709488 0)
(0.728753 -0.0700825 0)
(0.70762 -0.0689714 0)
(0.686217 -0.0676236 0)
(0.664644 -0.066048 0)
(0.643008 -0.0642549 0)
(0.621415 -0.0622572 0)
(0.599977 -0.0600701 0)
(0.578799 -0.0577116 0)
(0.557987 -0.0552022 0)
(0.537641 -0.0525647 0)
(0.517855 -0.0498236 0)
(0.498715 -0.0470044 0)
(0.480295 -0.044133 0)
(0.462662 -0.0412352 0)
(0.445871 -0.0383357 0)
(0.429962 -0.0354582 0)
(0.414968 -0.0326242 0)
(0.400908 -0.0298535 0)
(0.38779 -0.0271634 0)
(0.375612 -0.0245692 0)
(0.364363 -0.0220835 0)
(0.857692 -0.0365723 0)
(0.845339 -0.0406637 0)
(0.831343 -0.0440887 0)
(0.815954 -0.0467679 0)
(0.799397 -0.0487694 0)
(0.781825 -0.0501919 0)
(0.763356 -0.0511183 0)
(0.744109 -0.0516249 0)
(0.724199 -0.0517838 0)
(0.703731 -0.051655 0)
(0.682805 -0.0512827 0)
(0.661521 -0.0506994 0)
(0.639978 -0.0499299 0)
(0.618274 -0.048993 0)
(0.596506 -0.0479033 0)
(0.574771 -0.0466723 0)
(0.553165 -0.0453101 0)
(0.531781 -0.0438264 0)
(0.510713 -0.0422311 0)
(0.490048 -0.040535 0)
(0.469873 -0.0387502 0)
(0.450267 -0.0368898 0)
(0.431303 -0.0349682 0)
(0.413048 -0.0330004 0)
(0.39556 -0.0310023 0)
(0.378887 -0.0289894 0)
(0.363069 -0.0269772 0)
(0.348136 -0.0249802 0)
(0.334108 -0.0230121 0)
(0.320995 -0.0210855 0)
(0.3088 -0.0192116 0)
(0.297516 -0.0174 0)
(0.287128 -0.015659 0)
(0.277616 -0.0139956 0)
(0.268952 -0.0124152 0)
(0.688524 -0.0240244 0)
(0.674984 -0.0264167 0)
(0.659912 -0.0283261 0)
(0.643545 -0.0297056 0)
(0.626134 -0.0306018 0)
(0.607896 -0.0310946 0)
(0.58902 -0.0312582 0)
(0.569678 -0.0311575 0)
(0.550021 -0.0308504 0)
(0.530185 -0.0303839 0)
(0.510284 -0.029793 0)
(0.490419 -0.0291024 0)
(0.470683 -0.0283302 0)
(0.451157 -0.0274893 0)
(0.431918 -0.0265894 0)
(0.413035 -0.0256373 0)
(0.394573 -0.0246385 0)
(0.376594 -0.0235981 0)
(0.359154 -0.0225211 0)
(0.342305 -0.0214132 0)
(0.326095 -0.0202806 0)
(0.310564 -0.0191298 0)
(0.29575 -0.0179682 0)
(0.28168 -0.016803 0)
(0.268379 -0.0156417 0)
(0.255862 -0.0144914 0)
(0.244137 -0.0133591 0)
(0.233209 -0.0122508 0)
(0.223072 -0.0111724 0)
(0.213718 -0.0101287 0)
(0.20513 -0.00912409 0)
(0.19729 -0.00816205 0)
(0.190172 -0.00724552 0)
(0.18375 -0.00637666 0)
(0.177992 -0.00555719 0)
(0.45539 -0.0114514 0)
(0.443253 -0.0123521 0)
(0.430006 -0.0129766 0)
(0.415899 -0.0133231 0)
(0.401191 -0.0134357 0)
(0.386104 -0.0133724 0)
(0.370824 -0.0131817 0)
(0.3555 -0.0129001 0)
(0.340252 -0.0125562 0)
(0.325176 -0.0121712 0)
(0.310344 -0.0117595 0)
(0.295813 -0.0113297 0)
(0.28163 -0.0108874 0)
(0.267832 -0.010436 0)
(0.254453 -0.00997723 0)
(0.241521 -0.00951239 0)
(0.229061 -0.00904223 0)
(0.217097 -0.00856782 0)
(0.205649 -0.00809035 0)
(0.194735 -0.00761153 0)
(0.184368 -0.00713315 0)
(0.174561 -0.00665738 0)
(0.16532 -0.00618632 0)
(0.156652 -0.00572227 0)
(0.148556 -0.00526726 0)
(0.141029 -0.0048234 0)
(0.134065 -0.00439243 0)
(0.127655 -0.00397609 0)
(0.121785 -0.00357565 0)
(0.11644 -0.00319239 0)
(0.111603 -0.0028271 0)
(0.107253 -0.00248058 0)
(0.103369 -0.00215319 0)
(0.0999282 -0.00184532 0)
(0.0969073 -0.00155701 0)
(0.171801 -0.00169056 0)
(0.165422 -0.00172776 0)
(0.158671 -0.00171359 0)
(0.151706 -0.00165825 0)
(0.144669 -0.00158024 0)
(0.137665 -0.00149483 0)
(0.130769 -0.00140928 0)
(0.124029 -0.00132585 0)
(0.117481 -0.0012453 0)
(0.111145 -0.00116791 0)
(0.105035 -0.00109364 0)
(0.0991582 -0.00102244 0)
(0.09352 -0.000954361 0)
(0.0881233 -0.000889358 0)
(0.0829699 -0.000827163 0)
(0.0780612 -0.000767344 0)
(0.0733984 -0.000709495 0)
(0.0689823 -0.00065332 0)
(0.0648135 -0.000598714 0)
(0.0608918 -0.000545704 0)
(0.0572164 -0.000494443 0)
(0.0537855 -0.000445108 0)
(0.0505964 -0.000397899 0)
(0.0476455 -0.000352948 0)
(0.0449278 -0.000310362 0)
(0.0424378 -0.00027016 0)
(0.0401689 -0.000232354 0)
(0.0381135 -0.000196897 0)
(0.0362637 -0.000163766 0)
(0.0346107 -0.000132892 0)
(0.0331456 -0.000104243 0)
(0.0318589 -7.77407e-05 0)
(0.0307409 -5.33396e-05 0)
(0.0297819 -3.09466e-05 0)
(0.028972 -1.05065e-05 0)
(0.0107666 -0.000929359 0)
(0.0150826 -0.000898407 0)
(0.0192543 -0.000859586 0)
(0.0232537 -0.000814676 0)
(0.0270589 -0.000765484 0)
(0.030654 -0.000713707 0)
(0.0340294 -0.000660955 0)
(0.037181 -0.000608644 0)
(0.0401099 -0.000558047 0)
(0.0428221 -0.000510216 0)
(0.045711 -0.00826129 0)
(0.0551138 -0.00802018 0)
(0.0642111 -0.00772269 0)
(0.0729527 -0.00737982 0)
(0.0812992 -0.00700272 0)
(0.0892215 -0.0066024 0)
(0.0967009 -0.0061894 0)
(0.103728 -0.00577359 0)
(0.110304 -0.00536401 0)
(0.116437 -0.00496874 0)
(0.0963463 -0.0195279 0)
(0.108486 -0.0189583 0)
(0.120209 -0.0182736 0)
(0.131464 -0.0174954 0)
(0.142213 -0.016646 0)
(0.152427 -0.0157474 0)
(0.162088 -0.0148208 0)
(0.171188 -0.0138862 0)
(0.179731 -0.0129623 0)
(0.187727 -0.012066 0)
(0.162417 -0.0327718 0)
(0.175453 -0.0317635 0)
(0.187972 -0.0305874 0)
(0.199937 -0.0292765 0)
(0.211321 -0.027864 0)
(0.222109 -0.0263824 0)
(0.232292 -0.0248633 0)
(0.241873 -0.0233364 0)
(0.250863 -0.0218293 0)
(0.259279 -0.0203675 0)
(0.241359 -0.0461467 0)
(0.253891 -0.0445897 0)
(0.265809 -0.0428318 0)
(0.277096 -0.0409162 0)
(0.287746 -0.0388857 0)
(0.29776 -0.0367822 0)
(0.307147 -0.0346455 0)
(0.315926 -0.0325131 0)
(0.324117 -0.0304199 0)
(0.331751 -0.0283974 0)
(0.328186 -0.0584565 0)
(0.339113 -0.0562442 0)
(0.349347 -0.0538222 0)
(0.358894 -0.0512423 0)
(0.367772 -0.0485557 0)
(0.376001 -0.0458112 0)
(0.38361 -0.0430552 0)
(0.390632 -0.0403307 0)
(0.397101 -0.0376771 0)
(0.403057 -0.0351299 0)
(0.416183 -0.068712 0)
(0.424584 -0.0657677 0)
(0.43226 -0.0626305 0)
(0.439241 -0.0593591 0)
(0.445566 -0.0560105 0)
(0.451276 -0.0526383 0)
(0.456412 -0.0492928 0)
(0.461022 -0.0460198 0)
(0.465151 -0.0428609 0)
(0.468847 -0.039853 0)
(0.497796 -0.0760298 0)
(0.502905 -0.0723403 0)
(0.507331 -0.0684991 0)
(0.511128 -0.0645689 0)
(0.514348 -0.0606092 0)
(0.517048 -0.0566758 0)
(0.519279 -0.0528194 0)
(0.521096 -0.0490862 0)
(0.522549 -0.0455168 0)
(0.523687 -0.0421472 0)
(0.565403 -0.0796826 0)
(0.566682 -0.0753237 0)
(0.567413 -0.0708738 0)
(0.567661 -0.066396 0)
(0.56749 -0.061949 0)
(0.566961 -0.0575867 0)
(0.56613 -0.0533575 0)
(0.56505 -0.0493047 0)
(0.56377 -0.0454656 0)
(0.562333 -0.0418727 0)
(0.612087 -0.0792241 0)
(0.609352 -0.0743692 0)
(0.606288 -0.0694956 0)
(0.602966 -0.0646624 0)
(0.599449 -0.059924 0)
(0.595796 -0.0553291 0)
(0.592057 -0.050921 0)
(0.588277 -0.0467369 0)
(0.584495 -0.0428091 0)
(0.580741 -0.0391644 0)
(0.632543 -0.074629 0)
(0.626058 -0.0695369 0)
(0.619528 -0.0644989 0)
(0.613016 -0.0595668 0)
(0.606576 -0.0547874 0)
(0.600255 -0.0502015 0)
(0.59409 -0.0458447 0)
(0.588109 -0.0417469 0)
(0.582334 -0.0379332 0)
(0.576779 -0.034424 0)
(0.624005 -0.0663754 0)
(0.614506 -0.0613572 0)
(0.605269 -0.0564551 0)
(0.596339 -0.0517113 0)
(0.587753 -0.0471627 0)
(0.579538 -0.0428406 0)
(0.57171 -0.0387717 0)
(0.564278 -0.0349777 0)
(0.557243 -0.0314761 0)
(0.5506 -0.0282809 0)
(0.586909 -0.0554215 0)
(0.575517 -0.0507929 0)
(0.564668 -0.0463226 0)
(0.554384 -0.0420415 0)
(0.544677 -0.0379759 0)
(0.535552 -0.0341475 0)
(0.527002 -0.030574 0)
(0.519014 -0.0272693 0)
(0.511568 -0.0242443 0)
(0.504638 -0.021507 0)
(0.524987 -0.0430687 0)
(0.513029 -0.0390987 0)
(0.501822 -0.0353033 0)
(0.491365 -0.0317026 0)
(0.481645 -0.028313 0)
(0.472643 -0.0251476 0)
(0.464333 -0.0222165 0)
(0.456682 -0.0195274 0)
(0.449651 -0.0170858 0)
(0.443201 -0.0148953 0)
(0.44469 -0.0307391 0)
(0.433462 -0.0276051 0)
(0.423091 -0.0246357 0)
(0.413554 -0.0218422 0)
(0.404817 -0.0192332 0)
(0.396845 -0.0168154 0)
(0.389596 -0.0145934 0)
(0.383023 -0.0125706 0)
(0.377078 -0.0107488 0)
(0.37171 -0.00912936 0)
(0.354022 -0.019717 0)
(0.344564 -0.0174781 0)
(0.335955 -0.0153734 0)
(0.328155 -0.013408 0)
(0.321123 -0.0115855 0)
(0.314811 -0.00990836 0)
(0.309172 -0.00837817 0)
(0.304155 -0.00699574 0)
(0.299706 -0.00576153 0)
(0.295774 -0.00467546 0)
(0.261104 -0.0109223 0)
(0.254035 -0.00952005 0)
(0.247706 -0.00821078 0)
(0.242073 -0.00699615 0)
(0.237093 -0.00587706 0)
(0.232719 -0.00485413 0)
(0.228904 -0.00392748 0)
(0.2256 -0.00309717 0)
(0.222758 -0.002363 0)
(0.220331 -0.00172487 0)
(0.172866 -0.00478819 0)
(0.168337 -0.0040705 0)
(0.164367 -0.00340445 0)
(0.160921 -0.00279031 0)
(0.157959 -0.00222805 0)
(0.155443 -0.00171764 0)
(0.153335 -0.00125891 0)
(0.151596 -0.000851804 0)
(0.150187 -0.000496156 0)
(0.149069 -0.000191994 0)
(0.0942816 -0.00128838 0)
(0.092026 -0.00103927 0)
(0.0901152 -0.000809703 0)
(0.0885237 -0.000599447 0)
(0.0872258 -0.000408501 0)
(0.086196 -0.000236662 0)
(0.0854087 -8.39834e-05 0)
(0.0848383 4.96622e-05 0)
(0.0844595 0.000164187 0)
(0.0842467 0.000259638 0)
(0.0283013 8.07847e-06 0)
(0.0277599 2.48577e-05 0)
(0.027338 3.99145e-05 0)
(0.027026 5.32759e-05 0)
(0.0268141 6.49974e-05 0)
(0.0266926 7.50749e-05 0)
(0.026652 8.35352e-05 0)
(0.0266827 9.03696e-05 0)
(0.0267749 9.55772e-05 0)
(0.0269192 9.91056e-05 0)
(0.0453275 -0.000466057 0)
(0.0476396 -0.00042627 0)
(0.0497751 -0.000391436 0)
(0.051753 -0.00036198 0)
(0.0535945 -0.000338258 0)
(0.0553223 -0.000320529 0)
(0.0569609 -0.000309043 0)
(0.058536 -0.000304017 0)
(0.0600743 -0.000305719 0)
(0.0616043 -0.000314451 0)
(0.0631554 -0.000330627 0)
(0.0647593 -0.000354768 0)
(0.0664494 -0.000387572 0)
(0.068262 -0.000429921 0)
(0.0702367 -0.000482955 0)
(0.0724174 -0.000548094 0)
(0.0748529 -0.000627108 0)
(0.0775983 -0.000722144 0)
(0.0807165 -0.000835781 0)
(0.0842787 -0.000971028 0)
(0.0883668 -0.00113131 0)
(0.0930737 -0.00132034 0)
(0.0985043 -0.00154188 0)
(0.104776 -0.00179926 0)
(0.112015 -0.00209459 0)
(0.120355 -0.00242748 0)
(0.129926 -0.00279322 0)
(0.140842 -0.00318019 0)
(0.153183 -0.00356681 0)
(0.166959 -0.00391813 0)
(0.182077 -0.00418347 0)
(0.198297 -0.00429652 0)
(0.215188 -0.00418159 0)
(0.232099 -0.00376808 0)
(0.248182 -0.00302004 0)
(0.122144 -0.00459489 0)
(0.127448 -0.00424856 0)
(0.132378 -0.00393496 0)
(0.136971 -0.00365845 0)
(0.141264 -0.00342269 0)
(0.145301 -0.00323078 0)
(0.14913 -0.00308543 0)
(0.1528 -0.00298912 0)
(0.156364 -0.00294433 0)
(0.159879 -0.00295366 0)
(0.163404 -0.00302014 0)
(0.167 -0.00314732 0)
(0.170735 -0.00333959 0)
(0.174679 -0.00360235 0)
(0.17891 -0.0039423 0)
(0.183511 -0.00436763 0)
(0.188572 -0.0048883 0)
(0.194196 -0.00551625 0)
(0.200494 -0.00626557 0)
(0.207591 -0.0071525 0)
(0.215627 -0.00819523 0)
(0.224756 -0.00941338 0)
(0.23515 -0.0108268 0)
(0.246996 -0.0124533 0)
(0.260493 -0.0143055 0)
(0.275848 -0.0163854 0)
(0.293267 -0.0186768 0)
(0.312935 -0.0211349 0)
(0.334993 -0.0236735 0)
(0.359503 -0.0261509 0)
(0.386401 -0.0283567 0)
(0.415441 -0.0300072 0)
(0.446125 -0.030758 0)
(0.477654 -0.0302436 0)
(0.508904 -0.0281753 0)
(0.195197 -0.0112125 0)
(0.202167 -0.0104152 0)
(0.208672 -0.00968565 0)
(0.214752 -0.00903401 0)
(0.220453 -0.00846897 0)
(0.225824 -0.00799809 0)
(0.230921 -0.0076281 0)
(0.235801 -0.00736517 0)
(0.240528 -0.00721533 0)
(0.245167 -0.00718473 0)
(0.249788 -0.00728011 0)
(0.254465 -0.00750918 0)
(0.259275 -0.00788098 0)
(0.264302 -0.0084064 0)
(0.269635 -0.00909851 0)
(0.27537 -0.00997312 0)
(0.281608 -0.0110491 0)
(0.288464 -0.0123488 0)
(0.29606 -0.0138982 0)
(0.30453 -0.0157272 0)
(0.314024 -0.0178689 0)
(0.324703 -0.0203588 0)
(0.336747 -0.0232328 0)
(0.350349 -0.0265238 0)
(0.365717 -0.0302561 0)
(0.383072 -0.034437 0)
(0.402638 -0.039044 0)
(0.424633 -0.0440082 0)
(0.449253 -0.0491918 0)
(0.476638 -0.0543617 0)
(0.506832 -0.0591628 0)
(0.539719 -0.0630977 0)
(0.574942 -0.065537 0)
(0.611795 -0.0657649 0)
(0.649158 -0.0631549 0)
(0.267146 -0.0189736 0)
(0.274495 -0.0176681 0)
(0.281364 -0.0164688 0)
(0.287795 -0.0153915 0)
(0.293834 -0.0144499 0)
(0.299533 -0.0136562 0)
(0.304944 -0.0130214 0)
(0.310128 -0.0125556 0)
(0.315146 -0.0122686 0)
(0.320061 -0.0121703 0)
(0.324944 -0.0122714 0)
(0.329865 -0.0125838 0)
(0.334901 -0.0131211 0)
(0.340133 -0.0138996 0)
(0.345646 -0.0149382 0)
(0.351531 -0.0162596 0)
(0.357886 -0.0178907 0)
(0.364817 -0.019863 0)
(0.372438 -0.022213 0)
(0.380874 -0.0249824 0)
(0.390262 -0.0282177 0)
(0.40075 -0.0319689 0)
(0.412504 -0.0362877 0)
(0.425705 -0.0412233 0)
(0.440555 -0.0468156 0)
(0.457275 -0.0530855 0)
(0.476107 -0.060019 0)
(0.497311 -0.0675448 0)
(0.521159 -0.0755035 0)
(0.547914 -0.0836064 0)
(0.577792 -0.0913874 0)
(0.610893 -0.0981515 0)
(0.647089 -0.102954 0)
(0.685818 -0.104601 0)
(0.725944 -0.101954 0)
(0.338858 -0.0264741 0)
(0.345478 -0.0246754 0)
(0.35165 -0.0230238 0)
(0.357419 -0.021539 0)
(0.362832 -0.0202386 0)
(0.367936 -0.0191379 0)
(0.372786 -0.0182511 0)
(0.377433 -0.0175913 0)
(0.381935 -0.0171714 0)
(0.38635 -0.0170042 0)
(0.390739 -0.0171038 0)
(0.395164 -0.0174853 0)
(0.399694 -0.0181663 0)
(0.404397 -0.0191672 0)
(0.409347 -0.0205118 0)
(0.414622 -0.0222285 0)
(0.420306 -0.0243503 0)
(0.426488 -0.0269164 0)
(0.433264 -0.0299717 0)
(0.440738 -0.0335682 0)
(0.449026 -0.037764 0)
(0.458256 -0.0426236 0)
(0.46857 -0.0482153 0)
(0.480131 -0.0546085 0)
(0.493128 -0.0618675 0)
(0.50778 -0.0700417 0)
(0.524351 -0.0791497 0)
(0.54315 -0.0891536 0)
(0.564549 -0.0999212 0)
(0.588973 -0.11117 0)
(0.616887 -0.122389 0)
(0.64872 -0.132737 0)
(0.684758 -0.140945 0)
(0.724703 -0.145153 0)
(0.767559 -0.143391 0)
(0.408542 -0.0327209 0)
(0.413599 -0.0304783 0)
(0.418272 -0.0284268 0)
(0.422606 -0.026588 0)
(0.426648 -0.024981 0)
(0.430444 -0.0236229 0)
(0.434042 -0.0225292 0)
(0.437489 -0.0217146 0)
(0.440834 -0.0211932 0)
(0.444127 -0.0209799 0)
(0.447417 -0.0210903 0)
(0.450757 -0.0215419 0)
(0.454199 -0.0223547 0)
(0.457799 -0.023552 0)
(0.461614 -0.025161 0)
(0.465704 -0.027214 0)
(0.470133 -0.0297488 0)