/*--------------------------------*- C++ -*----------------------------------*\
| =========                 |                                                 |
| \\      /  F ield         | OpenFOAM: The Open Source CFD Toolbox           |
|  \\    /   O peration     | Version:  2406                                  |
|   \\  /    A nd           | Website:  www.openfoam.com                      |
|    \\/     M anipulation  |                                                 |
\*---------------------------------------------------------------------------*/
FoamFile
{
    version     2.0;
    format      ascii;
    arch        "LSB;label=32;scalar=64";
    class       volScalarField;
    location    "25";
    object      p;
}
// * * * * * * * * * * * * * * * * * * * * * * * * * * * * * * * * * * * * * //

dimensions      [0 2 -2 0 0 0 0];

internalField   nonuniform List<scalar> 
1800
(
1.53536
1.49882
1.45957
1.41991
1.37802
1.33328
1.28498
1.23202
1.17298
1.09046
1.54501
1.50169
1.4593
1.41903
1.37705
1.33229
1.28446
1.23284
1.17581
1.10945
1.55142
1.50465
1.46027
1.42018
1.379
1.33534
1.28952
1.24195
1.19323
1.14541
1.55723
1.50911
1.46376
1.42435
1.38471
1.34317
1.30062
1.25825
1.21743
1.18044
1.56335
1.51469
1.46908
1.43051
1.3925
1.35328
1.31399
1.27611
1.24089
1.20985
1.56885
1.5201
1.47482
1.43706
1.40039
1.36312
1.32644
1.29173
1.25997
1.23199
1.57253
1.52417
1.47972
1.44257
1.4067
1.37074
1.33578
1.30298
1.27299
1.24628
1.57337
1.52624
1.48304
1.4461
1.41037
1.375
1.34089
1.30889
1.27946
1.25294
1.56965
1.5258
1.48436
1.44727
1.41116
1.37571
1.34164
1.30956
1.27985
1.25283
1.56002
1.52266
1.4838
1.44671
1.41012
1.37428
1.3398
1.30718
1.2768
1.24903
1.09763
1.09694
1.09845
1.10286
1.10959
1.11789
1.12703
1.13635
1.14528
1.15336
1.16026
1.16574
1.16969
1.17208
1.17294
1.17238
1.17052
1.16754
1.16359
1.15885
1.15347
1.14761
1.14138
1.13491
1.12829
1.12159
1.11487
1.10819
1.10157
1.09504
1.08862
1.08231
1.07613
1.07007
1.06413
1.09843
1.09769
1.09912
1.10321
1.1094
1.11704
1.1255
1.13421
1.14263
1.15032
1.15695
1.16228
1.16618
1.1686
1.16958
1.16918
1.16755
1.16481
1.16113
1.15667
1.15157
1.14597
1.14
1.13377
1.12736
1.12086
1.11432
1.10778
1.10129
1.09488
1.08855
1.08232
1.07619
1.07018
1.06427
1.09687
1.0962
1.09776
1.10188
1.10793
1.11531
1.12347
1.13187
1.14003
1.14752
1.154
1.15926
1.16314
1.1656
1.16665
1.16638
1.16491
1.16235
1.15888
1.15463
1.14975
1.14438
1.13862
1.1326
1.12639
1.12006
1.11368
1.10729
1.10093
1.09462
1.08838
1.08223
1.07617
1.0702
1.06433
1.09164
1.09153
1.09381
1.09859
1.10515
1.11289
1.12127
1.1298
1.13801
1.14551
1.15198
1.1572
1.16105
1.16348
1.16452
1.16427
1.16282
1.16033
1.15694
1.1528
1.14805
1.14281
1.1372
1.13133
1.12527
1.1191
1.11286
1.1066
1.10037
1.09417
1.08803
1.08197
1.07598
1.07008
1.06426
1.08226
1.08354
1.08742
1.09363
1.10135
1.10996
1.11896
1.1279
1.13636
1.14397
1.15045
1.15562
1.15938
1.16172
1.16267
1.16234
1.16085
1.15834
1.15496
1.15087
1.14619
1.14106
1.13557
1.12983
1.12391
1.11788
1.11179
1.10568
1.09958
1.09351
1.08749
1.08153
1.07564
1.06982
1.06408
1.06812
1.07212
1.0789
1.08749
1.09703
1.10695
1.11685
1.12634
1.13507
1.14277
1.14921
1.15425
1.15784
1.15998
1.16075
1.16026
1.15865
1.15607
1.15267
1.1486
1.14398
1.13894
1.13357
1.12797
1.12221
1.11634
1.11042
1.10447
1.09853
1.09261
1.08674
1.08091
1.07514
1.06943
1.06378
1.04833
1.05717
1.06881
1.0809
1.09284
1.1044
1.11531
1.12534
1.13427
1.14194
1.14819
1.15296
1.15623
1.15807
1.15856
1.15785
1.15607
1.15338
1.14993
1.14586
1.1413
1.13636
1.13114
1.1257
1.12012
1.11444
1.10871
1.10296
1.09721
1.09148
1.08577
1.0801
1.07448
1.0689
1.06336
1.01863
1.03756
1.05779
1.07472
1.08951
1.10283
1.11472
1.12513
1.13406
1.14148
1.14735
1.15167
1.15448
1.15589
1.15602
1.155
1.15301
1.15019
1.14669
1.14264
1.13816
1.13334
1.12828
1.12303
1.11766
1.11221
1.10671
1.10118
1.09565
1.09013
1.08462
1.07913
1.07368
1.06825
1.06286
0.962322
1.01034
1.0467
1.06994
1.08778
1.10278
1.1154
1.12589
1.13451
1.14139
1.14663
1.15031
1.15252
1.15339
1.15307
1.15172
1.14949
1.14653
1.14299
1.13898
1.1346
1.12994
1.12507
1.12005
1.11492
1.10972
1.10447
1.0992
1.09391
1.08862
1.08333
1.07805
1.07278
1.06752
1.06228
0.890462
0.98747
1.04227
1.07015
1.08958
1.10524
1.11783
1.12782
1.13566
1.14166
1.14601
1.14884
1.15031
1.15055
1.14974
1.14803
1.14557
1.1425
1.13894
1.135
1.13075
1.12628
1.12164
1.11687
1.11201
1.10708
1.10211
1.0971
1.09207
1.08702
1.08196
1.0769
1.07183
1.06675
1.06167
0.987772
1.02216
1.06074
1.08214
1.09788
1.11141
1.12245
1.13103
1.13752
1.14224
1.14542
1.14724
1.14786
1.14743
1.14611
1.14405
1.14139
1.13823
1.13469
1.13085
1.12678
1.12252
1.11813
1.11363
1.10906
1.10441
1.09972
1.09499
1.09022
1.08542
1.0806
1.07575
1.07087
1.06597
1.06106
1.05525
1.06305
1.08437
1.09893
1.11027
1.1204
1.12881
1.13524
1.13986
1.14298
1.14479
1.14548
1.1452
1.14409
1.14229
1.13992
1.1371
1.13391
1.13044
1.12674
1.12286
1.11885
1.11472
1.1105
1.10621
1.10186
1.09744
1.09298
1.08847
1.08391
1.0793
1.07466
1.06997
1.06524
1.06048
1.10982
1.10403
1.11144
1.11883
1.12522
1.13117
1.1362
1.13991
1.14233
1.14364
1.14399
1.14352
1.14237
1.14063
1.13841
1.13581
1.13289
1.12972
1.12636
1.12283
1.11918
1.11541
1.11156
1.10762
1.1036
1.09952
1.09537
1.09116
1.08688
1.08254
1.07814
1.07368
1.06917
1.06459
1.05997
1.15255
1.14048
1.13846
1.13917
1.14047
1.14206
1.14347
1.14428
1.14441
1.14389
1.14283
1.14131
1.13939
1.13713
1.1346
1.13185
1.12891
1.12582
1.12261
1.11928
1.11586
1.11235
1.10875
1.10508
1.10132
1.09749
1.09358
1.08959
1.08552
1.08138
1.07715
1.07286
1.06849
1.06405
1.05954
1.1854
1.17011
1.16189
1.15702
1.1537
1.1513
1.14935
1.14749
1.14552
1.14341
1.14116
1.13877
1.13627
1.13366
1.13095
1.12815
1.12528
1.12232
1.11929
1.11618
1.113
1.10973
1.10638
1.10295
1.09942
1.09581
1.09211
1.08831
1.08442
1.08044
1.07637
1.07221
1.06796
1.06363
1.05922
1.20886
1.19154
1.17923
1.17016
1.16313
1.15751
1.15287
1.14886
1.14526
1.14194
1.13883
1.13588
1.13303
1.13025
1.12751
1.12478
1.12203
1.11926
1.11644
1.11356
1.11061
1.10757
1.10445
1.10123
1.09791
1.09449
1.09096
1.08733
1.08358
1.07973
1.07578
1.07173
1.06758
1.06333
1.059
1.22333
1.20452
1.18955
1.17759
1.16793
1.16004
1.15353
1.14808
1.14342
1.13937
1.1358
1.1326
1.12966
1.1269
1.12427
1.1217
1.11916
1.11662
1.11403
1.11138
1.10866
1.10584
1.10293
1.0999
1.09676
1.0935
1.09012
1.08661
1.08299
1.07925
1.07539
1.07142
1.06734
1.06316
1.05888
1.22959
1.20963
1.19298
1.17924
1.16797
1.15876
1.15122
1.14504
1.13992
1.13564
1.13201
1.12886
1.12607
1.12353
1.12114
1.11884
1.11657
1.11429
1.11196
1.10956
1.10707
1.10447
1.10174
1.09889
1.09591
1.09279
1.08954
1.08615
1.08262
1.07897
1.07519
1.07128
1.06726
1.06312
1.05888
1.22878
1.20791
1.19023
1.17555
1.16353
1.15381
1.14599
1.13974
1.13472
1.13066
1.12733
1.12454
1.12214
1.11998
1.11798
1.11604
1.11412
1.11216
1.11013
1.108
1.10575
1.10336
1.10083
1.09815
1.09532
1.09233
1.08919
1.0859
1.08246
1.07888
1.07516
1.0713
1.06731
1.06321
1.05899
1.22423
1.20265
1.18437
1.16927
1.15704
1.1473
1.13964
1.13368
1.12906
1.12545
1.1226
1.12029
1.11835
1.11665
1.11506
1.11352
1.11195
1.11031
1.10856
1.10669
1.10466
1.10248
1.10013
1.0976
1.09491
1.09204
1.089
1.08579
1.08243
1.07891
1.07523
1.07141
1.06746
1.06337
1.05917
1.0583
1.05257
1.04694
1.0414
1.03594
1.03054
1.0252
1.01991
1.01466
1.00943
1.05846
1.05274
1.04712
1.04157
1.0361
1.03069
1.02534
1.02003
1.01476
1.00951
1.05855
1.05285
1.04724
1.0417
1.03623
1.03081
1.02545
1.02013
1.01484
1.00958
1.05853
1.05287
1.04728
1.04176
1.0363
1.0309
1.02554
1.02022
1.01493
1.00967
1.0584
1.0528
1.04725
1.04177
1.03634
1.03096
1.02562
1.02031
1.01503
1.00977
1.05818
1.05265
1.04717
1.04174
1.03635
1.03101
1.0257
1.02041
1.01515
1.00991
1.05788
1.05243
1.04703
1.04167
1.03634
1.03104
1.02578
1.02053
1.0153
1.01009
1.05749
1.05216
1.04685
1.04157
1.03631
1.03108
1.02586
1.02066
1.01548
1.0103
1.05705
1.05184
1.04664
1.04145
1.03628
1.03111
1.02596
1.02081
1.01567
1.01054
1.05658
1.0515
1.04641
1.04133
1.03624
1.03115
1.02606
1.02097
1.01588
1.0108
1.05612
1.05116
1.04619
1.0412
1.0362
1.03119
1.02617
1.02114
1.0161
1.01106
1.05568
1.05084
1.04598
1.04109
1.03617
1.03123
1.02627
1.0213
1.01631
1.01131
1.05529
1.05057
1.0458
1.04099
1.03615
1.03127
1.02637
1.02145
1.01651
1.01155
1.05497
1.05034
1.04566
1.04092
1.03614
1.03132
1.02647
1.02158
1.01668
1.01176
1.05473
1.05018
1.04556
1.04088
1.03615
1.03137
1.02655
1.0217
1.01683
1.01193
1.05458
1.05008
1.04551
1.04087
1.03618
1.03143
1.02664
1.02181
1.01695
1.01206
1.05451
1.05005
1.04551
1.0409
1.03623
1.0315
1.02672
1.0219
1.01705
1.01217
1.05453
1.0501
1.04558
1.04098
1.03632
1.03159
1.02681
1.02199
1.01714
1.01225
1.05466
1.05023
1.04572
1.04112
1.03645
1.03172
1.02693
1.0221
1.01723
1.01233
1.05485
1.05043
1.04591
1.0413
1.03662
1.03187
1.02707
1.02222
1.01733
1.01241
1.00422
0.999027
0.993833
0.98863
0.983412
0.978167
0.972887
0.967561
0.962179
0.956727
0.951191
0.945554
0.939799
0.933901
0.927833
0.921563
0.915048
0.908241
0.90108
0.893488
0.88537
0.876608
0.867053
0.856516
0.844764
0.831503
0.816371
0.798929
0.778652
0.754942
0.727149
0.69463
0.65685
0.613525
0.564801
1.00428
0.999059
0.993839
0.98861
0.983363
0.978088
0.972775
0.967414
0.961992
0.956495
0.950909
0.945215
0.939393
0.933417
0.927258
0.92088
0.91424
0.907283
0.899944
0.892141
0.883776
0.874721
0.864822
0.853886
0.841671
0.827882
0.812156
0.794057
0.773074
0.748629
0.720106
0.686907
0.648559
0.604857
0.556034
1.00434
0.999098
0.993859
0.988609
0.983341
0.978043
0.972706
0.967319
0.961867
0.956339
0.950717
0.944982
0.939113
0.933084
0.926863
0.920413
0.913688
0.906634
0.899182
0.891248
0.88273
0.873499
0.863398
0.852231
0.839753
0.825664
0.809597
0.791106
0.769665
0.744672
0.715476
0.681438
0.642047
0.597098
0.546937
1.00442
0.999171
0.993924
0.988666
0.983389
0.978083
0.972737
0.96734
0.961881
0.956344
0.950714
0.944972
0.939097
0.933062
0.926837
0.920384
0.91366
0.906609
0.899165
0.891245
0.88275
0.873552
0.863497
0.852386
0.839977
0.825959
0.809949
0.791467
0.769929
0.744634
0.71479
0.679569
0.638259
0.590538
0.536893
1.00453
0.999287
0.994043
0.988789
0.983516
0.978215
0.972876
0.96749
0.962043
0.956523
0.950915
0.945201
0.939361
0.93337
0.9272
0.920815
0.914175
0.907228
0.899912
0.892149
0.883844
0.874877
0.865097
0.854309
0.842267
0.828651
0.813047
0.794918
0.773576
0.74815
0.717582
0.680681
0.636315
0.583786
0.523801
1.00468
0.999455
0.994226
0.988987
0.98373
0.978448
0.973132
0.967773
0.962361
0.956883
0.951326
0.945675
0.939911
0.934013
0.927956
0.921708
0.915234
0.908487
0.901413
0.893942
0.885987
0.877436
0.868148
0.857935
0.846551
0.833663
0.818827
0.801433
0.780659
0.755396
0.724203
0.685313
0.636811
0.577232
0.507154
1.00488
0.99968
0.994474
0.98926
0.984031
0.978782
0.973504
0.96819
0.962831
0.957419
0.95194
0.946384
0.940735
0.934976
0.929085
0.923038
0.916805
0.910347
0.903619
0.896562
0.8891
0.881137
0.872542
0.863142
0.852699
0.840879
0.827214
0.811032
0.791365
0.766833
0.735486
0.694728
0.641425
0.572551
0.488094
1.00513
0.999956
0.994782
0.989603
0.984412
0.979206
0.973978
0.968724
0.963437
0.958109
0.952733
0.9473
0.941798
0.936215
0.930536
0.924742
0.918811
0.912715
0.906418
0.899874
0.893025
0.885789
0.878058
0.869679
0.860437
0.850017
0.837956
0.823556
0.805749
0.782888
0.752447
0.710612
0.652149
0.570984
0.466087
1.00541
1.00027
0.995139
0.990001
0.984855
0.979701
0.974533
0.969349
0.964146
0.958918
0.953662
0.948372
0.943041
0.937662
0.932226
0.926722
0.921136
0.915451
0.909643
0.903681
0.897524
0.891112
0.884365
0.87716
0.869322
0.860583
0.850535
0.838533
0.823541
0.803838
0.776499
0.736435
0.675017
0.578852
0.440276
1.00571
1.00062
0.995525
0.990432
0.985337
0.980239
0.975137
0.97003
0.964918
0.959799
0.954672
0.949535
0.944388
0.939227
0.934051
0.928855
0.923634
0.918382
0.913088
0.907737
0.902306
0.896761
0.891048
0.885088
0.878757
0.871864
0.864105
0.855002
0.843762
0.829051
0.808486
0.777582
0.727706
0.64116
0.483234
1.00601
1.00097
0.99592
0.990874
0.98583
0.980789
0.975754
0.970726
0.965706
0.960696
0.9557
0.950718
0.945755
0.940812
0.935894
0.931004
0.926146
0.921321
0.916533
0.911781
0.907059
0.902358
0.897654
0.892909
0.888055
0.882985
0.877526
0.871409
0.864227
0.855366
0.843916
0.828665
0.809034
0.791128
0.803522
1.00631
1.00131
0.996302
0.9913
0.986305
0.98132
0.976348
0.971394
0.966462
0.961557
0.956683
0.951848
0.947057
0.94232
0.937643
0.933038
0.928514
0.924085
0.919761
0.915555
0.911479
0.907542
0.903746
0.900086
0.896544
0.893078
0.889618
0.886052
0.882228
0.877959
0.873057
0.867619
0.863575
0.869556
0.893673
1.00659
1.00162
0.99665
0.991688
0.986736
0.9818
0.976884
0.971997
0.967142
0.962329
0.957564
0.952858
0.948219
0.94366
0.939194
0.934835
0.930601
0.92651
0.922583
0.91884
0.915307
0.912006
0.908958
0.906183
0.903693
0.901487
0.899554
0.897863
0.896378
0.895067
0.893958
0.893399
0.895159
0.904299
0.918912
1.00682
1.00189
0.996948
0.992018
0.987101
0.982205
0.977336
0.972502
0.967711
0.962972
0.958296
0.953693
0.949177
0.944762
0.940464
0.936303
0.932298
0.928473
0.924855
0.921471
0.918353
0.915532
0.913042
0.910914
0.909176
0.907847
0.90694
0.906452
0.906382
0.90674
0.907583
0.909238
0.91301
0.921945
0.933979
1.00702
1.0021
0.997186
0.992278
0.987387
0.982519
0.977683
0.972888
0.968143
0.963458
0.958845
0.954318
0.94989
0.945578
0.941401
0.937379
0.933535
0.929896
0.926491
0.923351
0.920511
0.918008
0.915878
0.914158
0.912882
0.912074
0.911751
0.911917
0.912572
0.913723
0.915423
0.917922
0.922127
0.929991
0.939937
1.00717
1.00226
0.997359
0.992465
0.987587
0.982735
0.977918
0.973145
0.968426
0.963774
0.959199
0.954716
0.950341
0.94609
0.941983
0.938041
0.93429
0.930756
0.927469
0.924461
0.921769
0.919428
0.917477
0.915952
0.914887
0.914307
0.914228
0.914653
0.91558
0.917009
0.918974
0.921646
0.92562
0.932061
0.939682
1.00727
1.00237
0.997472
0.99258
0.987704
0.982856
0.978043
0.973276
0.968564
0.963922
0.959358
0.954891
0.950532
0.946302
0.942217
0.938302
0.934579
0.931076
0.927821
0.924847
0.922186
0.919876
0.917953
0.91645
0.915401
0.914832
0.914759
0.915191
0.916129
0.917574
0.919547
0.922143
0.925687
0.93076
0.936301
1.00735
1.00244
0.997535
0.992633
0.987749
0.98289
0.978067
0.973289
0.968568
0.963913
0.959338
0.954856
0.950484
0.946236
0.942133
0.938195
0.934445
0.930907
0.927612
0.924587
0.921866
0.91948
0.917465
0.915853
0.914676
0.913964
0.913739
0.914024
0.914835
0.916192
0.918115
0.92064
0.923863
0.927883
0.931777
1.00741
1.00248
0.997555
0.992634
0.987729
0.982848
0.978001
0.973198
0.968449
0.963764
0.959155
0.954635
0.950219
0.945923
0.941762
0.937759
0.933933
0.930308
0.92691
0.923767
0.920907
0.918362
0.916162
0.91434
0.912927
0.911956
0.911464
0.911491
0.912089
0.913315
0.915227
0.917848
0.921108
0.924678
0.927565
1.00747
1.00252
0.997564
0.992616
0.987683
0.982774
0.977896
0.97306
0.968275
0.96355
0.958897
0.954328
0.949857
0.945497
0.941265
0.937179
0.933259
0.929527
0.926006
0.922722
0.919702
0.916973
0.914564
0.912507
0.910833
0.909579
0.908791
0.908534
0.908895
0.909989
0.911937
0.914806
0.918456
0.922254
0.924924
0.511405
0.454669
0.396237
0.337639
0.280039
0.224193
0.17049
0.118979
0.069362
0.021842
0.5029
0.446866
0.389556
0.33234
0.276176
0.221657
0.169082
0.118478
0.0692551
0.0218431
0.49263
0.436079
0.379191
0.323168
0.268629
0.215889
0.165057
0.116046
0.0681529
0.0216582
0.479017
0.420144
0.362894
0.308077
0.255652
0.205486
0.15737
0.110977
0.0654754
0.0210618
0.459109
0.396096
0.338495
0.285806
0.236686
0.190373
0.146233
0.103609
0.0615033
0.0201039
0.430908
0.362154
0.30563
0.257112
0.213056
0.172049
0.133038
0.095032
0.0569331
0.0189926
0.393125
0.318181
0.266525
0.225277
0.188132
0.153532
0.120185
0.0869241
0.0527458
0.0180609
0.342195
0.265308
0.225955
0.195403
0.166306
0.138289
0.110155
0.0808745
0.049794
0.0175061
0.262285
0.201567
0.187988
0.171091
0.150307
0.12828
0.104241
0.0776683
0.0485027
0.017339
0.14084
0.134958
0.159735
0.154686
0.14062
0.12325
0.101904
0.0767565
0.048623
0.0176749
)
;

boundaryField
{
    inlet
    {
        type            zeroGradient;
    }
    outlet
    {
        type            fixedValue;
        value           uniform 0;
    }
    upperWall
    {
        type            zeroGradient;
    }
    lowerWall
    {
        type            zeroGradient;
    }
    frontAndBack
    {
        type            empty;
    }
}


// ************************************************************************* //
