/*--------------------------------*- C++ -*----------------------------------*\
| =========                 |                                                 |
| \\      /  F ield         | OpenFOAM: The Open Source CFD Toolbox           |
|  \\    /   O peration     | Version:  2406                                  |
|   \\  /    A nd           | Website:  www.openfoam.com                      |
|    \\/     M anipulation  |                                                 |
\*---------------------------------------------------------------------------*/
FoamFile
{
    version     2.0;
    format      ascii;
    arch        "LSB;label=32;scalar=64";
    class       surfaceScalarField;
    location    "25";
    object      phi;
}
// * * * * * * * * * * * * * * * * * * * * * * * * * * * * * * * * * * * * * //

dimensions      [0 3 -1 0 0 0 0];

oriented        oriented;

internalField   nonuniform List<scalar> 
3480
(
0.0193528
-0.000352764
0.0197399
-0.000387172
0.0200894
-0.000349477
0.020477
-0.000387613
0.0209688
-0.000491784
0.021648
-0.000679239
0.0226663
-0.00101833
0.0243218
-0.00165555
0.0273771
-0.00305529
-0.00730073
0.0346777
0.0509951
-0.000347869
0.0512775
-0.000669552
0.0517382
-0.000810275
0.0523499
-0.00099925
0.0531558
-0.00129773
0.0542333
-0.00175677
0.0557033
-0.00248847
0.0577512
-0.00370348
0.0605314
-0.00583568
-0.00977749
0.0630081
0.0749812
-0.000329062
0.0751101
-0.000798559
0.0754348
-0.00113492
0.0759362
-0.00150069
0.0766228
-0.00198444
0.0775224
-0.00265632
0.0786615
-0.00362765
0.0800262
-0.0050683
0.0814136
-0.00722307
-0.0103946
0.0820306
0.0909759
-0.000304952
0.0909929
-0.000815641
0.0911228
-0.00126491
0.0913701
-0.00174797
0.0917257
-0.00234005
0.0921779
-0.00310856
0.0926912
-0.004141
0.093169
-0.0055461
0.0933841
-0.00743815
-0.00988821
0.0928777
0.0989512
-0.000256142
0.0988631
-0.000727591
0.0987975
-0.00119938
0.0987637
-0.0017142
0.0987424
-0.0023187
0.0987009
-0.00306704
0.0985792
-0.00401933
0.0982681
-0.00523501
0.0975863
-0.00675627
-0.00857135
0.0962695
0.0989138
-0.000169968
0.0987218
-0.000535617
0.0984849
-0.000962455
0.0982062
-0.00143546
0.0978575
-0.00197005
0.0973972
-0.0026067
0.0967609
-0.00338298
0.0958517
-0.00432574
0.094538
-0.00544241
-0.00669978
0.0926665
0.0908695
-3.94822e-05
0.0905935
-0.00025959
0.0902413
-0.000610292
0.0897994
-0.000993562
0.0892314
-0.00140202
0.0884932
-0.00186843
0.0875253
-0.00241503
0.0862505
-0.00305089
0.0845793
-0.00377114
-0.00454632
0.082426
0.0748274
0.000133079
0.0745379
2.99553e-05
0.0741761
-0.000248444
0.0736958
-0.000513255
0.0730588
-0.000764984
0.0722269
-0.00103649
0.0711528
-0.00134092
0.0697824
-0.00168047
0.0680615
-0.0020501
-0.00243291
0.0659481
0.050846
0.000287075
0.0507114
0.000164553
0.0504855
-2.25526e-05
0.050115
-0.000142679
0.0495863
-0.000236283
0.0488794
-0.000329578
0.0479678
-0.000429205
0.0468225
-0.000535189
0.0454181
-0.0006456
-0.000755535
0.0437407
0.0192871
0.0194516
0.0194291
0.0192864
0.0190501
0.0187206
0.0182914
0.0177562
0.0171106
0.016355
-0.000143877
0.000143885
-0.000469332
0.000325471
-0.000829559
0.000360259
-0.00111549
0.000285972
-0.00127137
0.000155941
-0.00127842
7.12987e-06
-0.00114074
-0.000137591
-0.000875327
-0.000265296
-0.000505738
-0.000369453
-5.79194e-05
-0.000447664
0.000442426
-0.000500177
0.000971496
-0.000528888
0.0015084
-0.00053672
0.00203573
-0.000527137
0.00253969
-0.000503758
0.00300999
-0.000470118
0.00343963
-0.000429462
0.00382444
-0.00038465
0.00416267
-0.00033808
0.00445448
-0.000291686
0.00470152
-0.000246944
0.00490652
-0.000204927
0.00507291
-0.000166342
0.00520454
-0.000131605
0.00530542
-0.000100886
0.00537958
-7.41821e-05
0.00543087
-5.13453e-05
0.00546295
-3.21465e-05
0.00547916
-1.62899e-05
0.00548253
-3.45764e-06
0.00547574
6.68549e-06
0.00546117
1.4463e-05
0.00544087
2.01922e-05
0.0054166
2.41625e-05
2.66438e-05
0.00538985
-0.000355686
0.000499573
-0.00101581
0.000985685
-0.00168164
0.00102621
-0.00215495
0.00075944
-0.00233223
0.000333406
-0.00218093
-0.000143943
-0.00171435
-0.000603894
-0.000972509
-0.00100682
-8.55546e-06
-0.00133304
0.00112001
-0.00157583
0.00235692
-0.00173667
0.00365071
-0.00182223
0.00495647
-0.00184203
0.0062368
-0.00180701
0.00746196
-0.00172847
0.00860958
-0.00161731
0.00966407
-0.00148355
0.0106158
-0.00133603
0.0114603
-0.0011822
0.012197
-0.00102816
0.012829
-0.000878658
0.0133614
-0.000737197
0.0138014
-0.000606213
0.014157
-0.000487216
0.0144371
-0.000380967
0.0146505
-0.00028763
0.0148059
-0.000206928
0.0149119
-0.000138255
0.0149762
-8.07944e-05
0.0150061
-3.35949e-05
0.0150082
4.35523e-06
0.0149883
3.40815e-05
0.0149517
5.65873e-05
0.0149028
7.28262e-05
8.36864e-05
0.0148455
-0.000462559
0.000962187
-0.00123559
0.0017588
-0.00192238
0.00171314
-0.00229665
0.00113388
-0.00225572
0.000292665
-0.001781
-0.000618446
-0.000905542
-0.00147911
0.000309417
-0.0022215
0.00179035
-0.00281367
0.00346159
-0.00324675
0.00525156
-0.0035263
0.00709596
-0.00366629
0.00893961
-0.00368533
0.010737
-0.00360404
0.0124521
-0.00344328
0.0140581
-0.00322297
0.0155362
-0.00296129
0.0168747
-0.00267424
0.0180682
-0.00237538
0.019116
-0.00207583
0.0200219
-0.00178432
0.0207923
-0.00150744
0.021436
-0.00124983
0.0219634
-0.00101449
0.0223855
-0.00080303
0.0227138
-0.000615995
0.0229599
-0.000453062
0.0231349
-0.000313288
0.0232492
-0.00019529
0.0233129
-9.74041e-05
0.0233349
-1.78058e-05
0.0233234
4.53844e-05
0.0232858
9.40393e-05
0.0232284
0.000129965
0.000154866
0.0231571
-0.0004867
0.00144888
-0.00118932
0.00246156
-0.00165719
0.00218114
-0.00168148
0.00115831
-0.00120166
-0.000186986
-0.000240005
-0.00157992
0.00113815
-0.00285707
0.00284884
-0.00393198
0.00480416
-0.00476878
0.00692044
-0.0053628
0.00912232
-0.00572794
0.0113447
-0.00588842
0.0135333
-0.00587369
0.0156445
-0.005715
0.0176447
-0.00544319
0.0195092
-0.00508724
0.0212215
-0.00467333
0.0227718
-0.00422437
0.0241564
-0.00375972
0.025376
-0.00329525
0.0264354
-0.00284349
0.027342
-0.00241392
0.0281056
-0.00201332
0.0287373
-0.00164611
0.0292492
-0.0013148
0.0296535
-0.00102031
0.0299628
-0.000762329
0.0301891
-0.000539633
0.030344
-0.00035032
0.0304386
-0.00019204
0.0304829
-6.218e-05
0.0304861
4.20036e-05
0.0304567
0.000123269
0.0304022
0.000184312
0.000227705
0.0303293
-0.00044713
0.0018961
-0.000894895
0.00290935
-0.000890149
0.00217649
-0.0003053
0.000573568
0.000833497
-0.00132567
0.0024394
-0.0031857
0.00440709
-0.00482463
0.00663265
-0.0061574
0.00902192
-0.00715791
0.0114936
-0.00783433
0.0139796
-0.00821381
0.0164246
-0.0083332
0.0187845
-0.00823349
0.021026
-0.0079563
0.0231246
-0.00754158
0.0250637
-0.00702614
0.0268334
-0.00644288
0.0284295
-0.00582023
0.029852
-0.00518212
0.031105
-0.00454805
0.0321951
-0.00393338
0.033131
-0.00334971
0.0339231
-0.00280531
0.0345827
-0.00230563
0.0351217
-0.00185373
0.0355522
-0.00145077
0.0358863
-0.00109636
0.0361356
-0.000788978
0.0363115
-0.000526249
0.0364246
-0.00030522
0.0364849
-0.000122573
0.0365016
2.52024e-05
0.0364831
0.000141663
0.036437
0.000230312
0.000294527
0.0363701
-0.000324115
0.00222014
-0.000274477
0.00285976
0.000516907
0.00138513
0.00200095
-0.000910449
0.00401498
-0.00333966
0.00639467
-0.00556535
0.00900065
-0.00743055
0.0117217
-0.00887839
0.0144719
-0.00990797
0.0171857
-0.0105481
0.0198141
-0.0108421
0.0223209
-0.01084
0.0246807
-0.0105931
0.0268762
-0.0101517
0.0288974
-0.0095626
0.0307396
-0.00886822
0.0324027
-0.0081059
0.0338902
-0.00730756
0.035208
-0.00649977
0.036364
-0.00570397
0.0373677
-0.00493691
0.0382292
-0.0042111
0.0389594
-0.00353538
0.0395693
-0.00291547
0.0400701
-0.00235448
0.0404728
-0.0018534
0.040788
-0.00141161
0.0410263
-0.00102719
0.0411973
-0.00069729
0.0413104
-0.000418428
0.0413745
-0.000186699
0.0413976
2.02937e-06
0.0413872
0.000151961
0.0413502
0.000267255
0.000351938
0.0412926
-2.28353e-05
0.002243
0.000923721
0.00191311
0.00292916
-0.000620397
0.00562577
-0.00360712
0.00868513
-0.00639908
0.0118868
-0.008767
0.0150886
-0.0106325
0.018201
-0.0119908
0.0211685
-0.0128754
0.0239578
-0.0133373
0.02655
-0.0134344
0.0289365
-0.0132264
0.031115
-0.0127716
0.0330887
-0.0121254
0.0348642
-0.011338
0.0364506
-0.0104545
0.0378586
-0.00951389
0.0391001
-0.00854897
0.0401872
-0.00758675
0.041132
-0.00664872
0.0419466
-0.00575136
0.0426423
-0.00490674
0.0432302
-0.0041232
0.0437206
-0.00340585
0.0441234
-0.00275723
0.0444478
-0.00217778
0.0447025
-0.00166632
0.0448958
-0.00122042
0.0450352
-0.000836746
0.0451281
-0.000511334
0.0451811
-0.000239814
0.0452007
-1.75928e-05
0.0451926
0.000159998
0.0451622
0.000297572
0.000399615
0.0451144
0.000697279
0.00154565
0.00330827
-0.000698038
0.00709276
-0.00440503
0.0112441
-0.00775863
0.0153552
-0.0105102
0.0192443
-0.0126563
0.0228343
-0.0142226
0.0260992
-0.0152557
0.0290385
-0.0158148
0.0316645
-0.0159633
0.0339954
-0.0157654
0.0360527
-0.0152836
0.0378588
-0.0145778
0.0394369
-0.0137035
0.0408097
-0.0127108
0.0419989
-0.0116437
0.0430249
-0.01054
0.0439069
-0.0094309
0.0446619
-0.00834173
0.0453054
-0.00729213
0.0458509
-0.00629679
0.0463103
-0.00536611
0.046694
-0.00450689
0.0470111
-0.0037229
0.0472694
-0.00301554
0.0474759
-0.00238429
0.0476368
-0.00182718
0.0477575
-0.00134115
0.0478431
-0.000922361
0.0478982
-0.000566442
0.047927
-0.000268678
0.0479336
-2.41785e-05
0.0479215
0.000171988
0.0478944
0.000324686
0.000438637
0.0478553
0.0027576
-0.00121202
0.00843525
-0.00637592
0.0143872
-0.0103572
0.0198195
-0.0131911
0.0245874
-0.0152784
0.0287102
-0.0167792
0.0322476
-0.0177601
0.0352655
-0.0182738
0.0378261
-0.0183755
0.0399859
-0.0181232
0.041796
-0.0175756
0.0433029
-0.0167906
0.0445489
-0.015824
0.0455725
-0.0147271
0.0464081
-0.0135464
0.0470866
-0.0123221
0.0476347
-0.0110882
0.0480759
-0.00987213
0.04843
-0.00869578
0.0487134
-0.00757551
0.0489396
-0.00652306
0.0491197
-0.00554621
0.0492624
-0.00464951
0.0493743
-0.00383487
0.0494609
-0.00310216
0.0495263
-0.00244965
0.0495736
-0.00187448
0.0496054
-0.00137291
0.0496236
-0.000940635
0.0496301
-0.000572952
0.0496264
-0.00026495
0.0496138
-1.16174e-05
0.0495937
0.000192049
0.0495674
0.000350948
0.000469833
0.0495362
0.0112431
-0.0124553
0.0200792
-0.0152123
0.0268595
-0.0171378
0.0322642
-0.018596
0.0366197
-0.019634
0.0401362
-0.0202959
0.0429662
-0.0205903
0.0452246
-0.0205324
0.0470027
-0.0201538
0.0483769
-0.0194975
0.0494132
-0.018612
0.0501701
-0.0175476
0.0506992
-0.0163531
0.051046
-0.015074
0.0512502
-0.0137507
0.051346
-0.012418
0.051362
-0.0111043
0.0513222
-0.00983232
0.0512455
-0.00861917
0.0511471
-0.00747712
0.0510383
-0.0064143
0.0509275
-0.00543542
0.0508204
-0.00454243
0.0507207
-0.00373519
0.0506305
-0.00301193
0.0505505
-0.00236973
0.0504808
-0.00180481
0.0504208
-0.00131287
0.0503694
-0.000889218
0.0503254
-0.000529001
0.0502877
-0.00022726
0.0502551
2.09603e-05
0.0502267
0.000220537
0.0502014
0.000376212
0.000492569
0.0501786
0.0376066
-0.0153844
0.0414493
-0.0190552
0.0450044
-0.020693
0.0480652
-0.021657
0.0505882
-0.0221572
0.0525688
-0.0222767
0.0540467
-0.0220683
0.0550811
-0.0215669
0.0557354
-0.0208082
0.0560718
-0.019834
0.0561496
-0.0186899
0.0560236
-0.0174217
0.0557435
-0.0160731
0.0553531
-0.0146837
0.0548901
-0.0132879
0.0543862
-0.0119141
0.053867
-0.0105852
0.0533528
-0.00931817
0.0528588
-0.00812528
0.0523961
-0.00701444
0.0519718
-0.00599008
0.0515902
-0.00505385
0.051253
-0.00420525
0.05096
-0.0034422
0.0507095
-0.0027615
0.0504989
-0.00215918
0.0503249
-0.00163083
0.0501838
-0.00117172
0.0500716
-0.000777028
0.0499845
-0.000441901
0.0499188
-0.000161535
0.049871
6.87832e-05
0.0498379
0.000253624
0.0498168
0.000397396
0.000504342
0.049805
0.0629632
-0.0153396
0.0629969
-0.0190891
0.0633598
-0.021056
0.0637722
-0.0220695
0.0640718
-0.0224569
0.0641628
-0.0223678
0.0640053
-0.0219108
0.0636017
-0.0211633
0.0629788
-0.0201854
0.0621752
-0.0190305
0.0612341
-0.0177489
0.0601986
-0.0163864
0.0591094
-0.0149839
0.0580021
-0.0135765
0.0569071
-0.0121929
0.0558489
-0.010856
0.0548462
-0.00958265
0.0539128
-0.00838479
0.0530574
-0.00726996
0.052285
-0.00624212
0.0515973
-0.00530244
0.0509933
-0.00444996
0.0504702
-0.00368217
0.0500235
-0.00299552
0.0496478
-0.00238579
0.0493369
-0.00184837
0.0490846
-0.00137848
0.0488842
-0.000971333
0.0487294
-0.000622189
0.0486139
-0.000326445
0.0485321
-7.96399e-05
0.0484784
0.000122512
0.0484479
0.000284116
0.0484363
0.000409102
0.000501233
0.0484394
0.0810119
-0.014321
0.0793947
-0.0174718
0.0777657
-0.019427
0.0761802
-0.020484
0.0745996
-0.0208763
0.0729801
-0.0207483
0.0712912
-0.0202219
0.069526
-0.0193981
0.0676973
-0.0183567
0.0658304
-0.0171636
0.0639558
-0.0158743
0.0621052
-0.0145358
0.060308
-0.0131867
0.0585893
-0.0118579
0.0569694
-0.0105731
0.0554631
-0.00934978
0.0540802
-0.00819976
0.0528257
-0.00713038
0.051701
-0.00614527
0.050704
-0.00524523
0.0498304
-0.00442892
0.0490739
-0.00369354
0.048427
-0.00303528
0.0478812
-0.00244973
0.0474276
-0.00193221
0.0470571
-0.00147794
0.0467609
-0.00108222
0.04653
-0.000740482
0.0463562
-0.000448379
0.0462316
-0.00020177
0.0461487
3.2677e-06
0.0461008
0.000170444
0.0460817
0.00030327
0.0460858
0.00040509
0.000479081
0.046108
0.0912333
-0.0126765
0.0888417
-0.0150802
0.0861414
-0.0167267
0.0833188
-0.0176613
0.0804492
-0.0180066
0.0775707
-0.0178697
0.0747047
-0.0173559
0.0718703
-0.0165636
0.0690903
-0.0155766
0.0663903
-0.0144636
0.0637963
-0.0132802
0.0613318
-0.0120713
0.0590166
-0.0108714
0.0568653
-0.00970658
0.0548875
-0.00859539
0.053088
-0.00755028
0.0514669
-0.00657875
0.0500209
-0.00568445
0.0487437
-0.0048681
0.0476268
-0.00412833
0.0466601
-0.00346228
0.0458326
-0.00286616
0.045133
-0.00233567
0.0445495
-0.00186623
0.0440705
-0.00145327
0.0436849
-0.00109232
0.0433818
-0.000779138
0.0431511
-0.000509716
0.042983
-0.000280324
0.0428688
-8.74756e-05
0.0428
7.20641e-05
0.0427692
0.000201323
0.0427694
0.000303139
0.0427944
0.000380197
0.000435037
0.0428385
0.0941106
-0.0105175
0.0912582
-0.0122276
0.0879816
-0.01345
0.0844709
-0.0141504
0.0808495
-0.0143851
0.077207
-0.0142271
0.0736091
-0.0137578
0.0701054
-0.0130598
0.0667354
-0.0122066
0.0635313
-0.0112594
0.0605181
-0.010267
0.0577141
-0.0092672
0.0551307
-0.00828799
0.0527734
-0.00734923
0.0506421
-0.00646411
0.0487324
-0.00564058
0.0470362
-0.00488257
0.0455428
-0.00419109
0.0442398
-0.00356505
0.0431133
-0.00300192
0.0421493
-0.0024983
0.0413334
-0.0020503
0.0406515
-0.00165379
0.04009
-0.00130468
0.0396357
-0.00099899
0.0392763
-0.000732967
0.0390003
-0.000503116
0.0387968
-0.000306231
0.0386559
-0.000139358
0.0385683
1.96062e-07
0.0385255
0.000114917
0.0385198
0.000207088
0.0385441
0.000278855
0.0385922
0.000332215
0.000369071
0.0386582
0.090136
-0.00798679
0.0870157
-0.00910719
0.0834742
-0.00990828
0.079673
-0.010349
0.0757442
-0.0104562
0.0717971
-0.0102798
0.067919
-0.0098795
0.0641766
-0.00931724
0.0606195
-0.00864928
0.0572826
-0.00792241
0.054189
-0.00717326
0.0513512
-0.00642929
0.0487733
-0.00571005
0.0464528
-0.00502867
0.0443819
-0.00439316
0.042549
-0.00380773
0.0409402
-0.00327373
0.0395397
-0.00279061
0.0383311
-0.00235646
0.0372978
-0.0019686
0.0364234
-0.00162388
0.035692
-0.00131895
0.0350887
-0.00105048
0.0345993
-0.000815249
0.0342105
-0.000610216
0.0339101
-0.000432585
0.0336868
-0.000279798
0.0335302
-0.000149544
0.0334306
-3.97322e-05
0.0333793
5.15253e-05
0.0333684
0.000125944
0.0333904
0.000185102
0.0334389
0.000230454
0.0335078
0.000263369
0.000285125
0.0335918
0.0797475
-0.00530821
0.0765937
-0.00595331
0.073084
-0.00639844
0.0693527
-0.00661759
0.0655236
-0.00662696
0.0617044
-0.00646044
0.0579832
-0.00615825
0.0544273
-0.00576124
0.0510842
-0.00530607
0.0479845
-0.00482262
0.0451449
-0.00433367
0.0425713
-0.00385564
0.040261
-0.00339971
0.0382052
-0.00297287
0.036391
-0.00257899
0.0348029
-0.00221958
0.0334237
-0.00189456
0.0322359
-0.00160277
0.0312218
-0.0013424
0.0303645
-0.00111127
0.0296477
-0.000907053
0.0290562
-0.000727382
0.0285757
-0.00057
0.0281933
-0.000432755
0.0278969
-0.000313694
0.0276754
-0.00021102
0.0275188
-0.000123144
0.027418
-4.86235e-05
0.0273646
1.38052e-05
0.0273509
6.52908e-05
0.0273701
0.000106856
0.0274159
0.000139442
0.0274826
0.000163911
0.027565
0.000181067
0.000191671
0.0276586
0.0634346
-0.00279467
0.0605692
-0.00308785
0.0574461
-0.00327523
0.0541752
-0.00334672
0.0508617
-0.00331337
0.0475965
-0.0031952
0.0444528
-0.00301444
0.0414841
-0.00279253
0.038726
-0.00254799
0.0361987
-0.00229535
0.0339103
-0.0020452
0.0318594
-0.00180483
0.0300386
-0.00157888
0.0284357
-0.00136998
0.027036
-0.0011793
0.0258234
-0.00100699
0.0247813
-0.000852502
0.0238935
-0.000714883
0.023144
-0.000592936
0.0225182
-0.000485377
0.0220021
-0.000390892
0.021583
-0.000308226
0.0212493
-0.000236181
0.0209904
-0.000173675
0.0207965
-0.000119714
0.0206591
-7.34244e-05
0.0205701
-3.40218e-05
0.0205225
-8.23844e-07
0.0205097
2.67777e-05
0.0205258
4.93176e-05
0.0205656
6.72771e-05
0.0206241
8.10927e-05
0.020697
9.11613e-05
0.0207804
9.78592e-05
0.000101532
0.0208707
0.0418011
-0.000855042
0.0396438
-0.000930471
0.0373404
-0.000971776
0.0349713
-0.000977623
0.0326111
-0.000953132
0.0303216
-0.000905641
0.0281496
-0.000842462
0.0261272
-0.000770145
0.0242732
-0.000693983
0.0225958
-0.000617883
0.021095
-0.000544467
0.0197656
-0.000475402
0.0185983
-0.000411611
0.0175818
-0.000353533
0.0167037
-0.000301216
0.0159512
-0.000254497
0.0153118
-0.000213041
0.0147734
-0.000176461
0.0143248
-0.000144311
0.0139556
-0.000116174
0.0136564
-9.16208e-05
0.0134186
-7.02805e-05
0.0132343
-5.17861e-05
0.0130965
-3.58387e-05
0.0129991
-2.21442e-05
0.0129363
-1.04752e-05
0.012903
-6.04468e-07
0.0128947
7.6355e-06
0.0129072
1.44202e-05
0.0129368
1.98736e-05
0.0129801
2.41353e-05
0.013034
2.73022e-05
0.0130958
2.94929e-05
0.013163
3.07892e-05
3.12982e-05
0.0132333
0.0155
0.0145695
0.0135978
0.0126202
0.011667
0.0107614
0.00991893
0.00914878
0.0084548
0.00783691
0.00729245
0.00681704
0.00640543
0.00605189
0.00575068
0.00549618
0.00528314
0.00510668
0.00496238
0.00484621
0.0047546
0.00468433
0.00463255
0.00459673
0.00457459
0.00456413
0.00456354
0.0045712
0.00458563
0.00460552
0.00462967
0.00465699
0.0046865
0.0047173
0.00474861
0.00536188
2.78741e-05
0.00533373
2.80693e-05
0.00530623
2.7415e-05
0.00528009
2.60755e-05
0.00525584
2.41887e-05
0.00523392
2.18733e-05
0.00521465
1.92248e-05
0.0051983
1.63218e-05
0.00518507
1.32224e-05
9.96917e-06
0.00517509
0.0147832
8.99789e-05
0.0147186
9.24367e-05
0.0146541
9.171e-05
0.0145916
8.83731e-05
0.0145328
8.29205e-05
0.0144788
7.57777e-05
0.0144306
6.72965e-05
0.0143891
5.77666e-05
0.0143549
4.74102e-05
3.63923e-05
0.0143284
0.0230765
0.000170322
0.022991
0.000177776
0.0229041
0.000178523
0.0228186
0.000173719
0.022737
0.000164373
0.0226613
0.000151355
0.0225931
0.000135401
0.0225337
0.000117117
0.022484
9.69806e-05
7.53482e-05
0.022445
0.0302436
0.00025586
0.0301502
0.000271001
0.0300534
0.000275149
0.0299569
0.000270121
0.0298636
0.000257521
0.0297761
0.000238747
0.0296964
0.00021499
0.0296262
0.000187242
0.0295668
0.000156296
0.000122754
0.0295194
0.0362883
0.000337497
0.036197
0.000362195
0.0361006
0.00037135
0.0360032
0.000367432
0.0359079
0.000352646
0.0358177
0.000328927
0.0357346
0.000297943
0.0356607
0.000261091
0.0355974
0.000219507
0.000174064
0.035546
0.0412202
0.000409847
0.0411377
0.000444582
0.0410494
0.000459478
0.0409592
0.000457577
0.0408701
0.000441616
0.0407849
0.00041402
0.0407059
0.000376892
0.0406349
0.000332014
0.0405735
0.000280847
0.000224528
0.040523
0.0450537
0.000470418
0.0449842
0.000514036
0.0449093
0.000534247
0.0448323
0.000534525
0.0447558
0.000518019
0.0446822
0.000487537
0.0446135
0.000445536
0.0445513
0.000394114
0.0444971
0.000335005
0.000269575
0.044452
0.0478072
0.00051838
0.047753
0.000568215
0.047695
0.000592176
0.0476355
0.000593991
0.0475763
0.000577064
0.0475194
0.000544447
0.047466
0.000498832
0.0474176
0.000442532
0.0473751
0.000377475
0.000305191
0.0473394
0.0495013
0.00055327
0.0494638
0.000605601
0.0494251
0.000630913
0.049386
0.000633003
0.0493477
0.000615355
0.049311
0.000581115
0.0492767
0.000533069
0.0492456
0.000473628
0.0492182
0.000404812
0.000328239
0.0491952
0.0501579
0.000574008
0.0501388
0.000624716
0.050121
0.000648649
0.0501045
0.000649492
0.0500892
0.000630645
0.0500752
0.000595189
0.0500623
0.00054587
0.0500509
0.000485072
0.0500409
0.000414804
0.000336681
0.0500324
0.0498005
0.000578526
0.0498015
0.000623819
0.0498063
0.000643877
0.0498137
0.000642125
0.0498226
0.000621726
0.0498322
0.000585562
0.0498419
0.000536209
0.0498511
0.000475916
0.0498593
0.000406578
0.000329728
0.0498663
0.0484539
0.000564103
0.0484767
0.000601133
0.048505
0.000615559
0.0485368
0.000610417
0.04857
0.00058852
0.0486032
0.00055244
0.048635
0.000504481
0.0486642
0.000446657
0.0486902
0.000380674
0.000307908
0.048712
0.0461439
0.000528276
0.0461896
0.000555557
0.0462415
0.000563653
0.0462969
0.000555126
0.0463531
0.00053236
0.0464081
0.000497536
0.04646
0.000452612
0.0465074
0.000399304
0.0465491
0.000339065
0.000273063
0.0465839
0.0428968
0.000470078
0.0429648
0.000487617
0.0430387
0.00048983
0.0431151
0.000478766
0.0431912
0.000456331
0.0432646
0.000424274
0.0433331
0.000384168
0.043395
0.00033739
0.043449
0.000285105
0.000228245
0.0434939
0.0387372
0.000391215
0.0388245
0.000400362
0.0389163
0.000398128
0.0390091
0.000386046
0.0391
0.000365537
0.0391864
0.000337914
0.0392663
0.000304349
0.0393378
0.000265877
0.0393996
0.000223361
0.0001775
0.0394504
0.0336862
0.000296949
0.0337866
0.000299994
0.0338895
0.000295369
0.0339915
0.000284107
0.0340899
0.000267187
0.0341824
0.000245494
0.034267
0.000219839
0.034342
0.000190917
0.0344061
0.000159324
0.000125519
0.0344581
0.0277592
0.000196439
0.0278633
0.000196061
0.0279675
0.000191186
0.0280693
0.000182437
0.0281662
0.000170386
0.0282562
0.000155571
0.0283376
0.000138463
0.0284091
0.000119486
0.0284695
9.89808e-05
7.72246e-05
0.0285178
0.0209648
0.00010252
0.0210598
0.000101136
0.0211534
9.76929e-05
0.0212435
9.2472e-05
0.0213282
8.5752e-05
0.021406
7.77758e-05
0.0214758
6.87739e-05
0.0215364
5.89355e-05
0.0215869
4.84268e-05
3.7369e-05
0.0216268
0.0133049
3.10941e-05
0.0133758
3.0277e-05
0.0134447
2.89157e-05
0.0135101
2.71027e-05
0.013571
2.48989e-05
0.0136265
2.23858e-05
0.0136757
1.9612e-05
0.013718
1.66428e-05
0.0137529
1.35094e-05
1.02567e-05
0.01378
0.00477971
0.00481
0.00483893
0.00486604
0.00489094
0.00491333
0.00493295
0.00494959
0.0049631
0.00497336
0.0051685
6.58593e-06
0.00516543
3.08219e-06
0.00516599
-5.5125e-07
0.00517034
-4.33738e-06
0.00517869
-8.31918e-06
0.00519126
-1.25538e-05
0.00520841
-1.71212e-05
0.00523056
-2.21182e-05
0.00525826
-2.76697e-05
0.00529221
-3.39229e-05
0.0053333
-4.10618e-05
0.00538263
-4.9303e-05
0.00544156
-5.89141e-05
0.0055118
-7.0212e-05
0.00559541
-8.35871e-05
0.00569494
-9.95055e-05
0.00581349
-0.000118539
0.00595489
-0.000141375
0.00612375
-0.000168846
0.00632572
-0.000201947
0.0065676
-0.00024186
0.00685757
-0.000289955
0.00720538
-0.000347786
0.00762242
-0.00041702
0.00812177
-0.000499322
0.00871789
-0.000596094
0.00942599
-0.000708072
0.0102607
-0.000834643
0.0112336
-0.000972906
0.01235
-0.00111639
0.0136038
-0.0012537
0.0149713
-0.00136746
0.016406
-0.00143468
0.0178361
-0.00143011
-0.00133421
0.0191704
0.0143102
2.48148e-05
0.0143006
1.27253e-05
0.0142999
1.10409e-07
0.0143087
-1.30979e-05
0.0143275
-2.70299e-05
0.0143569
-4.18759e-05
0.0143977
-5.78949e-05
0.0144511
-7.5416e-05
0.0145183
-9.48515e-05
0.0146012
-0.000116704
0.0147017
-0.000141584
0.0148227
-0.000170226
0.0149674
-0.000203518
0.0151398
-0.000242522
0.0153448
-0.000288521
0.0155884
-0.000343052
0.0158778
-0.00040797
0.016222
-0.000485494
0.0166315
-0.000578275
0.017119
-0.000689456
0.0176999
-0.000822714
0.0183923
-0.00098227
0.0192174
-0.00117283
0.0201998
-0.00139939
0.0213674
-0.00166687
0.0227508
-0.00197936
0.0243817
-0.00233893
0.0262909
-0.00274374
0.0285034
-0.00318537
0.0310323
-0.00364516
0.0338688
-0.00409011
0.0369708
-0.00446938
0.0402504
-0.00471424
0.0435663
-0.00474595
-0.00449893
0.0467311
0.0224174
5.24559e-05
0.0224017
2.84226e-05
0.0223986
3.24988e-06
0.0224087
-2.31774e-05
0.0224328
-5.10948e-05
0.0224718
-8.08626e-05
0.0225269
-0.000112974
0.0225996
-0.000148066
0.0226917
-0.000186935
0.0228056
-0.000230555
0.0229442
-0.000280107
0.0231111
-0.000337013
0.0233106
-0.000402977
0.0235482
-0.000480039
0.0238303
-0.000570642
0.024165
-0.000677706
0.0245618
-0.000804719
0.0250322
-0.000955837
0.02559
-0.00113599
0.0262515
-0.00135097
0.0270364
-0.00160753
0.0279675
-0.00191338
0.0290718
-0.00227707
0.0303802
-0.00270772
0.0319277
-0.00321436
0.0337531
-0.00380473
0.0358976
-0.00448334
0.0384022
-0.00524829
0.0413035
-0.00608662
0.0446262
-0.00696781
0.0483717
-0.00783556
0.0525018
-0.0085995
0.0569186
-0.00913101
0.0614459
-0.00927318
-0.00888192
0.065829
0.0294848
8.70281e-05
0.0294638
4.93444e-05
0.0294573
9.74213e-06
0.0294661
-3.19254e-05
0.029491
-7.59953e-05
0.0295332
-0.000123002
0.0295939
-0.000173687
0.0296749
-0.000229019
0.0297782
-0.000290208
0.0299065
-0.000358743
0.0300628
-0.000436422
0.0302513
-0.00052541
0.0304766
-0.00062829
0.0307448
-0.000748148
0.0310629
-0.000888659
0.0314394
-0.0010542
0.0318847
-0.00124996
0.032411
-0.00148212
0.033033
-0.00175794
0.033768
-0.00208598
0.0346367
-0.00247614
0.0356631
-0.00293976
0.0368756
-0.00348953
0.038307
-0.0041391
0.0399951
-0.00490241
0.0419826
-0.0057922
0.0443168
-0.00681757
0.0470484
-0.00797984
0.0502278
-0.00926601
0.0538989
-0.0106389
0.0580864
-0.0120231
0.0627744
-0.0132875
0.0678726
-0.0142292
0.0731753
-0.0145759
-0.0140484
0.0783419
0.0355077
0.000125375
0.0354832
7.37969e-05
0.0354735
1.94308e-05
0.0354794
-3.78815e-05
0.035502
-9.85588e-05
0.0355423
-0.000163292
0.0356017
-0.000233054
0.0356818
-0.000309126
0.0357848
-0.000393116
0.0359131
-0.000487002
0.0360699
-0.000593178
0.036259
-0.000714514
0.0364852
-0.000854433
0.0367541
-0.00101701
0.0370726
-0.00120706
0.0374488
-0.00143034
0.0378925
-0.00169361
0.0384153
-0.00200491
0.0390311
-0.00237368
0.0397562
-0.00281101
0.0406099
-0.00332979
0.041615
-0.00394487
0.0427986
-0.00467304
0.0441923
-0.00553285
0.0458339
-0.00654397
0.0477676
-0.00772587
0.0500454
-0.00909538
0.0527277
-0.0106621
0.0558822
-0.0124205
0.0595799
-0.0143366
0.0638827
-0.0163259
0.0688153
-0.01822
0.0743108
-0.0197247
0.0801263
-0.0203912
-0.0196948
0.0857728
0.0404844
0.000163876
0.0404588
9.93873e-05
0.040447
3.12368e-05
0.0404498
-4.07239e-05
0.0404682
-0.000116971
0.0405033
-0.00019832
0.0405562
-0.000285938
0.0406285
-0.000381371
0.040722
-0.000486572
0.0408389
-0.000603943
0.0409822
-0.000736388
0.0411551
-0.000887388
0.0413618
-0.00106108
0.0416072
-0.00126238
0.0418973
-0.00149709
0.0422391
-0.00177208
0.042641
-0.00209546
0.0431129
-0.00247681
0.0436667
-0.00292739
0.0443162
-0.00346045
0.0450779
-0.00409147
0.0459715
-0.00483844
0.0470206
-0.00572206
0.0482536
-0.00676585
0.0497056
-0.0079959
0.0514199
-0.00944016
0.053451
-0.0111265
0.055868
-0.013079
0.0587568
-0.0153093
0.062221
-0.0178007
0.066372
-0.0204768
0.0712967
-0.0231447
0.076976
-0.0254038
0.0831236
-0.0265388
-0.0255682
0.0889971
0.0444171
0.000198823
0.044393
0.000123373
0.0443808
4.34794e-05
0.044381
-4.0986e-05
0.0443946
-0.000130532
0.0444224
-0.000226061
0.0444653
-0.000328887
0.0445247
-0.000440758
0.0446021
-0.000563891
0.0446992
-0.000701015
0.0448183
-0.000855429
0.044962
-0.00103108
0.0451336
-0.00123265
0.045337
-0.00146569
0.0455766
-0.00173672
0.0458581
-0.00205347
0.0461877
-0.00242501
0.0465729
-0.00286205
0.0470228
-0.00337721
0.0475477
-0.00398535
0.0481603
-0.00470395
0.0488754
-0.00555354
0.0497116
-0.00655821
0.0506919
-0.00774606
0.0518457
-0.00914971
0.0532121
-0.0108065
0.0548435
-0.0127579
0.0568122
-0.0150477
0.0592177
-0.0177148
0.0621936
-0.0207766
0.065906
-0.0241893
0.0705228
-0.0277615
0.0761043
-0.0309857
0.0823364
-0.0327711
-0.0313281
0.088096
0.0473114
0.000226814
0.0472917
0.000143069
0.0472809
5.42741e-05
0.0472796
-3.96722e-05
0.0472883
-0.000139292
0.0473078
-0.00024554
0.0473388
-0.00035982
0.047382
-0.000484014
0.0474387
-0.000620509
0.0475099
-0.000772249
0.0475973
-0.000942788
0.0477026
-0.00113637
0.047828
-0.00135802
0.0479761
-0.00161367
0.0481497
-0.0019103
0.0483523
-0.0022561
0.0485881
-0.00266075
0.0488617
-0.00313558
0.0491785
-0.003694
0.049545
-0.00435181
0.0499688
-0.00512772
0.0504593
-0.00604393
0.051028
-0.00712688
0.0516902
-0.00840822
0.0524665
-0.00992602
0.0533862
-0.0117261
0.0544921
-0.0138638
0.0558482
-0.0164039
0.0575519
-0.0194184
0.0597481
-0.0229729
0.0626424
-0.0270838
0.0664851
-0.0316047
0.0714512
-0.0359523
0.0772344
-0.0385549
-0.036264
0.0821696
0.0491768
0.000245113
0.0491637
0.00015622
0.049156
6.19176e-05
0.0491542
-3.78742e-05
0.0491586
-0.000143676
0.0491695
-0.000256461
0.0491874
-0.000377674
0.0492127
-0.000509251
0.0492458
-0.000653657
0.0492875
-0.000813926
0.0493385
-0.000993721
0.0493995
-0.0011974
0.0494716
-0.00143012
0.0495559
-0.00169794
0.0496536
-0.00200797
0.0497661
-0.00236854
0.0498948
-0.00278945
0.0500415
-0.00328217
0.0502077
-0.00386025
0.0503956
-0.00453968
0.0506074
-0.00533947
0.0508459
-0.00628232
0.0511146
-0.00739559
0.051419
-0.00871255
0.0517671
-0.0102742
0.0521725
-0.0121315
0.0526573
-0.0143486
0.0532593
-0.0170058
0.0540423
-0.0202014
0.0551134
-0.0240441
0.0566474
-0.0286181
0.0589082
-0.0338658
0.0622022
-0.0392469
0.0664644
-0.0428176
-0.0390279
0.069228
0.0500256
0.000251914
0.0500206
0.000161298
0.0500173
6.51988e-05
0.0500159
-3.64501e-05
0.0500163
-0.00014416
0.0500188
-0.000258892
0.0500232
-0.00038208
0.0500296
-0.000515645
0.050038
-0.000662035
0.0500483
-0.000824254
0.0500605
-0.00100592
0.0500745
-0.00121134
0.0500899
-0.00144557
0.0501066
-0.00171456
0.0501238
-0.00202523
0.050141
-0.0023857
0.0501571
-0.00280545
0.0501705
-0.00329559
0.0501794
-0.00386916
0.0501814
-0.00454158
0.0501731
-0.00533113
0.0501505
-0.00625973
0.0501088
-0.00735387
0.0500422
-0.00864593
0.0499442
-0.0101761
0.0498073
-0.0119946
0.0496239
-0.0141652
0.0493859
-0.0167678
0.0490846
-0.0199002
0.0487105
-0.02367
0.0482526
-0.0281604
0.0477037
-0.0333173
0.0470819
-0.0386254
0.0465306
-0.0422665
-0.0381959
0.0456986
0.0498717
0.000246515
0.0498753