/*--------------------------------*- C++ -*----------------------------------*\
| =========                 |                                                 |
| \\      /  F ield         | OpenFOAM: The Open Source CFD Toolbox           |
|  \\    /   O peration     | Version:  2406                                  |
|   \\  /    A nd           | Website:  www.openfoam.com                      |
|    \\/     M anipulation  |                                                 |
\*---------------------------------------------------------------------------*/
FoamFile
{
    version     2.0;
    format      ascii;
    arch        "LSB;label=32;scalar=64";
    class       volVectorField;
    location    "25";
    object      U;
}
// * * * * * * * * * * * * * * * * * * * * * * * * * * * * * * * * * * * * * //

dimensions      [0 1 -1 0 0 0 0];

internalField   nonuniform List<vector> 
1800
(
(0.187362 -0.00141283 0)
(0.195048 -0.00122869 0)
(0.199367 -0.00102176 0)
(0.202725 -0.00110785 0)
(0.206917 -0.00140615 0)
(0.21257 -0.00201988 0)
(0.220572 -0.00326342 0)
(0.23298 -0.00603548 0)
(0.256244 -0.0153548 0)
(0.290672 -0.0569062 0)
(0.503466 -0.00382054 0)
(0.509918 -0.00602262 0)
(0.515341 -0.0062475 0)
(0.520201 -0.00714428 0)
(0.526944 -0.00908395 0)
(0.536179 -0.012404 0)
(0.54862 -0.0181201 0)
(0.565748 -0.0283058 0)
(0.589997 -0.047676 0)
(0.616891 -0.0889645 0)
(0.743971 -0.00353165 0)
(0.74885 -0.00764954 0)
(0.753035 -0.0101493 0)
(0.756649 -0.0129705 0)
(0.762225 -0.0169713 0)
(0.770115 -0.022816 0)
(0.7803 -0.0316789 0)
(0.792875 -0.0455432 0)
(0.807338 -0.0677318 0)
(0.819164 -0.103592 0)
(0.904427 -0.00317128 0)
(0.908344 -0.0082307 0)
(0.911067 -0.0123921 0)
(0.912452 -0.0168421 0)
(0.915096 -0.0224324 0)
(0.919205 -0.0298962 0)
(0.924222 -0.0402532 0)
(0.929463 -0.0548973 0)
(0.933588 -0.0755238 0)
(0.933298 -0.103619 0)
(0.984586 -0.00280801 0)
(0.987726 -0.00788377 0)
(0.989 -0.0126902 0)
(0.988029 -0.0178822 0)
(0.987389 -0.0240795 0)
(0.987202 -0.0319049 0)
(0.986658 -0.0420972 0)
(0.984817 -0.0554692 0)
(0.980338 -0.0727123 0)
(0.971004 -0.0939277 0)
(0.984511 -0.00216443 0)
(0.986981 -0.00649656 0)
(0.986906 -0.0111131 0)
(0.983867 -0.0161902 0)
(0.980389 -0.022047 0)
(0.976499 -0.0291491 0)
(0.971298 -0.0379724 0)
(0.963854 -0.0489165 0)
(0.953066 -0.0621642 0)
(0.9375 -0.0774005 0)
(0.904212 -0.00109451 0)
(0.906227 -0.00411188 0)
(0.905151 -0.00802137 0)
(0.900721 -0.0123674 0)
(0.895376 -0.0171782 0)
(0.889008 -0.0227931 0)
(0.880729 -0.0294952 0)
(0.869735 -0.0374361 0)
(0.855211 -0.0465856 0)
(0.836272 -0.0565879 0)
(0.743654 0.000556188 0)
(0.745794 -0.000995564 0)
(0.744562 -0.00412848 0)
(0.739903 -0.00743277 0)
(0.734082 -0.0107842 0)
(0.726885 -0.0144898 0)
(0.717547 -0.0187265 0)
(0.705471 -0.0235333 0)
(0.690129 -0.0288367 0)
(0.671032 -0.0343896 0)
(0.50316 0.0023563 0)
(0.506897 0.00171638 0)
(0.506906 -0.000831808 0)
(0.5035 -0.0029226 0)
(0.498822 -0.00467253 0)
(0.49274 -0.0064424 0)
(0.484757 -0.0083473 0)
(0.474547 -0.0104008 0)
(0.461846 -0.0125679 0)
(0.446451 -0.0147427 0)
(0.187234 0.00116816 0)
(0.193546 0.000547326 0)
(0.194948 -2.1102e-05 0)
(0.19384 -0.000318375 0)
(0.19185 -0.000547263 0)
(0.189048 -0.000770287 0)
(0.185283 -0.00100219 0)
(0.180478 -0.00123238 0)
(0.174583 -0.0014489 0)
(0.16757 -0.00164251 0)
(-0.000409123 0.000397772 0)
(-0.00296389 0.00087871 0)
(-0.00654492 0.000983334 0)
(-0.00994176 0.000817507 0)
(-0.0122346 0.000531058 0)
(-0.0130644 0.00020641 0)
(-0.012387 -0.000106747 0)
(-0.0103271 -0.000381242 0)
(-0.00709858 -0.000603927 0)
(-0.00295611 -0.000770279 0)
(0.00183742 -0.000880803 0)
(0.00703193 -0.000939858 0)
(0.0124026 -0.000954491 0)
(0.0177573 -0.00093295 0)
(0.0229396 -0.000883631 0)
(0.0278298 -0.000814679 0)
(0.0323419 -0.00073331 0)
(0.036421 -0.000645756 0)
(0.0400384 -0.000556936 0)
(0.0431871 -0.000470678 0)
(0.045877 -0.000389614 0)
(0.0481309 -0.000315516 0)
(0.0499802 -0.000249288 0)
(0.0514618 -0.000191304 0)
(0.0526157 -0.000141414 0)
(0.0534822 -9.92267e-05 0)
(0.0541012 -6.40954e-05 0)
(0.0545102 -3.5329e-05 0)
(0.0547445 -1.21476e-05 0)
(0.0548359 6.16415e-06 0)
(0.054813 2.0322e-05 0)
(0.0547011 3.09364e-05 0)
(0.0545223 3.85892e-05 0)
(0.0542956 4.37511e-05 0)
(0.0540373 4.68571e-05 0)
(-0.0009918 0.00301654 0)
(-0.00671529 0.00623974 0)
(-0.0137233 0.00675319 0)
(-0.0197718 0.00529466 0)
(-0.0231844 0.0027966 0)
(-0.0233266 -5.7635e-05 0)
(-0.0201652 -0.00283487 0)
(-0.0140086 -0.00528606 0)
(-0.00534799 -0.00728507 0)
(0.0052473 -0.00878507 0)
(0.0171988 -0.00979066 0)
(0.0299634 -0.0103393 0)
(0.0430561 -0.0104877 0)
(0.0560641 -0.0103021 0)
(0.068652 -0.00985153 0)
(0.0805603 -0.00920313 0)
(0.0916006 -0.00841875 0)
(0.101649 -0.00755272 0)
(0.110636 -0.00665098 0)
(0.11854 -0.00575057 0)
(0.125374 -0.00488015 0)
(0.131181 -0.00406056 0)
(0.136026 -0.00330591 0)
(0.139984 -0.0026246 0)
(0.143142 -0.00202045 0)
(0.145588 -0.0014937 0)
(0.147412 -0.00104198 0)
(0.1487 -0.000661082 0)
(0.149533 -0.000345594 0)
(0.149987 -8.94551e-05 0)
(0.150132 0.000113656 0)
(0.15003 0.000270028 0)
(0.149736 0.000385743 0)
(0.149298 0.000466498 0)
(0.148758 0.000517537 0)
(-0.00131971 0.00720623 0)
(-0.00851495 0.0136931 0)
(-0.0162951 0.0139267 0)
(-0.0219969 0.0099971 0)
(-0.0238051 0.00392382 0)
(-0.0211922 -0.0028164 0)
(-0.0143133 -0.00927873 0)
(-0.00369157 -0.0149189 0)
(0.00996899 -0.0194683 0)
(0.0259048 -0.0228397 0)
(0.0433711 -0.0250602 0)
(0.0616832 -0.0262262 0)
(0.0802416 -0.0264728 0)
(0.0985424 -0.0259537 0)
(0.116179 -0.0248264 0)
(0.132839 -0.0232428 0)
(0.148295 -0.0213419 0)
(0.162399 -0.0192463 0)
(0.175066 -0.0170602 0)
(0.186269 -0.0148684 0)
(0.196026 -0.0127376 0)
(0.20439 -0.0107174 0)
(0.211438 -0.00884255 0)
(0.217267 -0.00713508 0)
(0.221987 -0.00560642 0)
(0.225712 -0.00425971 0)
(0.228556 -0.00309173 0)
(0.230635 -0.00209461 0)
(0.232057 -0.00125734 0)
(0.232924 -0.000566915 0)
(0.233331 -9.31189e-06 0)
(0.233365 0.000429749 0)
(0.233102 0.000764381 0)
(0.232613 0.00100805 0)
(0.231956 0.00117338 0)
(-0.0014978 0.012122 0)
(-0.00874971 0.0215075 0)
(-0.0150957 0.02029 0)
(-0.0178701 0.0126023 0)
(-0.0156275 0.00185122 0)
(-0.00829389 -0.00961082 0)
(0.00360181 -0.0203302 0)
(0.0192606 -0.0295016 0)
(0.0377985 -0.0367606 0)
(0.0583459 -0.0420213 0)
(0.0801023 -0.0453688 0)
(0.102364 -0.0469869 0)
(0.124533 -0.047112 0)
(0.146123 -0.046002 0)
(0.166748 -0.0439156 0)
(0.18612 -0.0410984 0)
(0.204036 -0.037774 0)
(0.220365 -0.0341385 0)
(0.235044 -0.0303585 0)
(0.248058 -0.0265706 0)
(0.259439 -0.0228825 0)
(0.269248 -0.0193758 0)
(0.277574 -0.0161082 0)
(0.284523 -0.0131177 0)
(0.290211 -0.0104251 0)
(0.294762 -0.00803794 0)
(0.2983 -0.00595306 0)
(0.300949 -0.00415953 0)
(0.302828 -0.00264081 0)
(0.30405 -0.0013767 0)
(0.30472 -0.000344837 0)
(0.304936 0.000477993 0)
(0.304786 0.00111503 0)
(0.304349 0.00158887 0)
(0.303696 0.00192089 0)
(-0.00162099 0.0169623 0)
(-0.00764082 0.0277517 0)
(-0.0102319 0.0232744 0)
(-0.00737093 0.010464 0)
(0.00140112 -0.00569949 0)
(0.0153759 -0.0220809 0)
(0.0335094 -0.0368757 0)
(0.0547198 -0.0491704 0)
(0.0780047 -0.0586176 0)
(0.102486 -0.0652129 0)
(0.127418 -0.0691494 0)
(0.152188 -0.0707279 0)
(0.176302 -0.0703 0)
(0.199376 -0.0682321 0)
(0.221124 -0.0648814 0)
(0.241343 -0.0605813 0)
(0.259903 -0.0556312 0)
(0.276737 -0.0502922 0)
(0.291825 -0.0447846 0)
(0.305191 -0.0392889 0)
(0.316887 -0.0339476 0)
(0.326994 -0.0288686 0)
(0.335609 -0.0241292 0)
(0.342839 -0.0197803 0)
(0.348804 -0.0158509 0)
(0.353622 -0.012352 0)
(0.357416 -0.00928062 0)
(0.360304 -0.00662306 0)
(0.362404 -0.0043579 0)
(0.363823 -0.00245846 0)
(0.364667 -0.000894809 0)
(0.36503 0.000364625 0)
(0.365002 0.00135173 0)
(0.364661 0.00209782 0)
(0.364079 0.00263292 0)
(-0.0016408 0.0211183 0)
(-0.00473439 0.0304635 0)
(-0.000569817 0.0201436 0)
(0.0111233 0.000855151 0)
(0.0290214 -0.0209538 0)
(0.0513658 -0.0417435 0)
(0.0766025 -0.0596935 0)
(0.103477 -0.0740223 0)
(0.131012 -0.0845587 0)
(0.158464 -0.091472 0)
(0.18527 -0.0951108 0)
(0.211015 -0.0959108 0)
(0.235395 -0.0943392 0)
(0.258201 -0.090861 0)
(0.2793 -0.0859168 0)
(0.298621 -0.0799097 0)
(0.316143 -0.0731968 0)
(0.331884 -0.0660859 0)
(0.345894 -0.0588347 0)
(0.358242 -0.0516524 0)
(0.369018 -0.0447036 0)
(0.378318 -0.0381121 0)
(0.386251 -0.0319662 0)
(0.392924 -0.0263237 0)
(0.398451 -0.0212172 0)
(0.402943 -0.0166585 0)
(0.406507 -0.012643 0)
(0.409249 -0.00915405 0)
(0.411272 -0.00616551 0)
(0.412671 -0.00364505 0)
(0.413536 -0.00155628 0)
(0.413953 0.000139374 0)
(0.413999 0.00148115 0)
(0.413745 0.00250781 0)
(0.413258 0.00325681 0)
(-0.00129725 0.0240364 0)
(0.00178653 0.0269478 0)
(0.0171762 0.00739013 0)
(0.0415671 -0.0192608 0)
(0.0710098 -0.0459901 0)
(0.102741 -0.0696702 0)
(0.135031 -0.0889856 0)
(0.166775 -0.103581 0)
(0.197277 -0.113613 0)
(0.226115 -0.119485 0)
(0.253048 -0.121717 0)
(0.277948 -0.120869 0)
(0.300766 -0.117502 0)
(0.321512 -0.112152 0)
(0.340236 -0.105315 0)
(0.35702 -0.0974377 0)
(0.371964 -0.0889073 0)
(0.385182 -0.0800547 0)
(0.396796 -0.0711533 0)
(0.406926 -0.0624226 0)
(0.415695 -0.0540328 0)
(0.42322 -0.0461103 0)
(0.429613 -0.0387436 0)
(0.43498 -0.0319891 0)
(0.439423 -0.0258766 0)
(0.443038 -0.0204146 0)
(0.445913 -0.0155945 0)
(0.448133 -0.0113951 0)
(0.449779 -0.00778556 0)
(0.450923 -0.00472856 0)
(0.451637 -0.00218243 0)
(0.451985 -0.000103131 0)
(0.452028 0.00155415 0)
(0.451823 0.00283379 0)
(0.45142 0.00377887 0)
(0.000180177 0.0237674 0)
(0.0168537 0.0119608 0)
(0.0502431 -0.0199998 0)
(0.0913613 -0.0530887 0)
(0.133407 -0.0821328 0)
(0.173686 -0.105762 0)
(0.211186 -0.123717 0)
(0.24549 -0.136258 0)
(0.276495 -0.1439 0)
(0.304279 -0.147253 0)
(0.329008 -0.146957 0)
(0.350888 -0.143642 0)
(0.370145 -0.137916 0)
(0.387007 -0.130343 0)
(0.401705 -0.121436 0)
(0.414462 -0.111648 0)
(0.425489 -0.101369 0)
(0.434985 -0.0909269 0)
(0.443131 -0.080587 0)
(0.450088 -0.0705596 0)
(0.456003 -0.0610041 0)
(0.461001 -0.0520358 0)
(0.465193 -0.0437325 0)
(0.468677 -0.0361405 0)
(0.471537 -0.0292807 0)
(0.473846 -0.0231537 0)
(0.475669 -0.0177442 0)
(0.477064 -0.0130249 0)
(0.478084 -0.00896022 0)
(0.478777 -0.00550812 0)
(0.479186 -0.00262296 0)
(0.479354 -0.000256885 0)
(0.479317 0.00163858 0)
(0.479113 0.00311136 0)
(0.478774 0.00420801 0)
(0.0110703 0.00518335 0)
(0.0550427 -0.0284236 0)
(0.113829 -0.0694149 0)
(0.172256 -0.102739 0)
(0.223673 -0.128399 0)
(0.267999 -0.147516 0)
(0.306127 -0.160799 0)
(0.338761 -0.168879 0)
(0.366519 -0.172398 0)
(0.389989 -0.172005 0)
(0.409714 -0.16834 0)
(0.426185 -0.16202 0)
(0.439847 -0.153634 0)
(0.451104 -0.143725 0)
(0.460319 -0.132782 0)
(0.467818 -0.121233 0)
(0.473889 -0.109441 0)
(0.478783 -0.0977053 0)
(0.482716 -0.0862644 0)
(0.485867 -0.0753016 0)
(0.488386 -0.0649515 0)
(0.490395 -0.0553068 0)
(0.49199 -0.0464256 0)
(0.493249 -0.0383375 0)
(0.494232 -0.0310494 0)
(0.494983 -0.0245504 0)
(0.49554 -0.0188166 0)
(0.49593 -0.0138141 0)
(0.496176 -0.00950175 0)
(0.496296 -0.00583411 0)
(0.496306 -0.00276265 0)
(0.496221 -0.000237408 0)
(0.496055 0.00179177 0)
(0.495819 0.00337419 0)
(0.495529 0.00455776 0)
(0.0866293 -0.0608545 0)
(0.162823 -0.109622 0)
(0.235737 -0.140683 0)
(0.297798 -0.162255 0)
(0.346695 -0.177658 0)
(0.38561 -0.188245 0)
(0.417 -0.194455 0)
(0.442219 -0.196605 0)
(0.462218 -0.195105 0)
(0.47781 -0.190448 0)
(0.489707 -0.183162 0)
(0.498534 -0.173788 0)
(0.504841 -0.162846 0)
(0.509114 -0.150825 0)
(0.511778 -0.138159 0)
(0.513201 -0.125227 0)
(0.513696 -0.112343 0)
(0.513525 -0.0997612 0)
(0.512902 -0.0876769 0)
(0.511995 -0.0762353 0)
(0.510936 -0.0655366 0)
(0.509821 -0.055644 0)
(0.508721 -0.0465903 0)
(0.507681 -0.0383845 0)
(0.506729 -0.0310169 0)
(0.505877 -0.0244643 0)
(0.505131 -0.018693 0)
(0.504484 -0.0136625 0)
(0.50393 -0.00932759 0)
(0.503456 -0.00563992 0)
(0.503051 -0.00254975 0)
(0.502703 -6.78692e-06 0)
(0.5024 0.00203884 0)
(0.502133 0.00363582 0)
(0.501895 0.00483127 0)
(0.375352 -0.154307 0)
(0.400593 -0.184163 0)
(0.431902 -0.198599 0)
(0.466084 -0.208328 0)
(0.494731 -0.214545 0)
(0.51713 -0.217485 0)
(0.534216 -0.217255 0)
(0.546629 -0.213984 0)
(0.554934 -0.207933 0)
(0.559743 -0.199479 0)
(0.56167 -0.189066 0)
(0.561297 -0.177162 0)
(0.559149 -0.164222 0)
(0.555695 -0.150669 0)
(0.551343 -0.136875 0)
(0.546438 -0.123157 0)
(0.541267 -0.10977 0)
(0.536057 -0.0969149 0)
(0.530985 -0.0847372 0)
(0.526181 -0.073338 0)
(0.521733 -0.0627797 0)
(0.517697 -0.0530934 0)
(0.514102 -0.0442859 0)
(0.510954 -0.0363451 0)
(0.508242 -0.0292457 0)
(0.505945 -0.0229523 0)
(0.504032 -0.0174234 0)
(0.502466 -0.012613 0)
(0.501209 -0.00847323 0)
(0.500222 -0.00495482 0)
(0.499468 -0.00200852 0)
(0.498908 0.000414486 0)
(0.498512 0.00236186 0)
(0.498247 0.00387978 0)
(0.498088 0.00501275 0)
(0.63536 -0.156633 0)
(0.631913 -0.195996 0)
(0.631085 -0.214971 0)
(0.635458 -0.22451 0)
(0.639737 -0.228335 0)
(0.641829 -0.227874 0)
(0.641453 -0.223994 0)
(0.638594 -0.21727 0)
(0.633389 -0.208174 0)
(0.626159 -0.197168 0)
(0.617325 -0.184716 0)
(0.607335 -0.17127 0)
(0.596615 -0.157248 0)
(0.58555 -0.143022 0)
(0.574471 -0.128905 0)
(0.563653 -0.115153 0)
(0.55331 -0.101963 0)
(0.543603 -0.0894796 0)
(0.534643 -0.0777996 0)
(0.526497 -0.0669813 0)
(0.519197 -0.0570512 0)
(0.512744 -0.0480112 0)
(0.507119 -0.0398448 0)
(0.502283 -0.0325225 0)
(0.498185 -0.0260059 0)
(0.494769 -0.0202511 0)
(0.491969 -0.015211 0)
(0.489722 -0.0108374 0)
(0.487962 -0.00708163 0)
(0.486625 -0.00389593 0)
(0.485653 -0.00123343 0)
(0.484988 0.000951309 0)
(0.484579 0.00270202 0)
(0.484379 0.00406073 0)
(0.484346 0.00506778 0)
(0.818841 -0.150333 0)
(0.803959 -0.185134 0)
(0.785868 -0.205626 0)
(0.769552 -0.216456 0)
(0.753998 -0.220449 0)
(0.738102 -0.219229 0)
(0.72155 -0.214052 0)
(0.704251 -0.20588 0)
(0.686236 -0.195456 0)
(0.66769 -0.183396 0)
(0.648903 -0.170238 0)
(0.630198 -0.156452 0)
(0.611889 -0.142436 0)
(0.594253 -0.128523 0)
(0.577518 -0.114975 0)
(0.561858 -0.101992 0)
(0.547395 -0.0897169 0)
(0.534201 -0.0782438 0)
(0.522307 -0.0676266 0)
(0.511708 -0.057887 0)
(0.502369 -0.0490219 0)
(0.494237 -0.0410104 0)
(0.48724 -0.0338192 0)
(0.481299 -0.0274066 0)
(0.476324 -0.0217267 0)
(0.472227 -0.0167314 0)
(0.468915 -0.0123721 0)
(0.466301 -0.00860134 0)
(0.464299 -0.00537285 0)
(0.462826 -0.00264244 0)
(0.461806 -0.000367719 0)
(0.461168 0.0014916 0)
(0.460848 0.00297392 0)
(0.460786 0.0041158 0)
(0.46093 0.00495218 0)
(0.923254 -0.136474 0)
(0.902269 -0.164004 0)
(0.875631 -0.182403 0)
(0.847497 -0.192796 0)
(0.818937 -0.196734 0)
(0.790136 -0.195477 0)
(0.761334 -0.190203 0)
(0.732763 -0.181956 0)
(0.704629 -0.171595 0)
(0.677166 -0.159825 0)
(0.650633 -0.147222 0)
(0.625285 -0.134255 0)
(0.601342 -0.121301 0)
(0.578979 -0.108646 0)
(0.558318 -0.0965037 0)
(0.539426 -0.0850228 0)
(0.522329 -0.0742988 0)
(0.507007 -0.0643841 0)
(0.49341 -0.0552982 0)
(0.481463 -0.0470356 0)
(0.471071 -0.039573 0)
(0.462129 -0.0328752 0)
(0.454523 -0.0268996 0)
(0.448136 -0.0215997 0)
(0.442853 -0.0169278 0)
(0.438557 -0.0128366 0)
(0.43514 -0.00928026 0)
(0.432496 -0.00621537 0)
(0.430525 -0.00360095 0)
(0.429135 -0.00139842 0)
(0.42824 0.000428282 0)
(0.42776 0.00191306 0)
(0.427623 0.0030878 0)
(0.427764 0.00398279 0)
(0.428123 0.00462667 0)
(0.95398 -0.117133 0)
(0.928536 -0.137387 0)
(0.897173 -0.151765 0)
(0.862725 -0.160108 0)
(0.82679 -0.163139 0)
(0.790277 -0.161713 0)
(0.753915 -0.156765 0)
(0.718284 -0.149213 0)
(0.683825 -0.13987 0)
(0.650884 -0.129406 0)
(0.619744 -0.118363 0)
(0.59062 -0.107164 0)
(0.563661 -0.0961297 0)
(0.538951 -0.0854936 0)
(0.516515 -0.0754149 0)
(0.496327 -0.0659945 0)
(0.478322 -0.0572879 0)
(0.462403 -0.0493157 0)
(0.448454 -0.0420735 0)
(0.436342 -0.0355393 0)
(0.425925 -0.0296797 0)
(0.417062 -0.024454 0)
(0.409607 -0.0198187 0)
(0.403423 -0.0157289 0)
(0.398376 -0.0121408 0)
(0.394338 -0.00901252 0)
(0.391189 -0.00630469 0)
(0.388817 -0.00398076 0)
(0.387119 -0.00200705 0)
(0.385998 -0.000352395 0)
(0.385366 0.00101185 0)
(0.385142 0.00211237 0)
(0.385252 0.00297402 0)
(0.385629 0.00362027 0)
(0.386213 0.00407322 0)
(0.915655 -0.0932486 0)
(0.887176 -0.107101 0)
(0.853407 -0.117072 0)
(0.816264 -0.122736 0)
(0.777292 -0.124423 0)
(0.73766 -0.122715 0)
(0.698331 -0.118307 0)
(0.660076 -0.111925 0)
(0.623471 -0.104226 0)
(0.58893 -0.0957611 0)
(0.556734 -0.0869678 0)
(0.527056 -0.0781777 0)
(0.499975 -0.0696312 0)
(0.475496 -0.0614939 0)
(0.453564 -0.0538703 0)
(0.434078 -0.0468193 0)
(0.416907 -0.0403647 0)
(0.401901 -0.0345062 0)
(0.388897 -0.0292264 0)
(0.377728 -0.0244971 0)
(0.36823 -0.0202837 0)
(0.360239 -0.0165488 0)
(0.353602 -0.0132537 0)
(0.348172 -0.0103612 0)
(0.343813 -0.00783543 0)
(0.340397 -0.00564341 0)
(0.337806 -0.00375441 0)
(0.335931 -0.00214094 0)
(0.334672 -0.000777498 0)
(0.333939 0.000358558 0)
(0.333647 0.00128835 0)
(0.333719 0.00203087 0)
(0.334088 0.0026042 0)
(0.334689 0.0030248 0)
(0.335466 0.00330865 0)
(0.812162 -0.0665518 0)
(0.782827 -0.0750747 0)
(0.749179 -0.0810643 0)
(0.712621 -0.0841925 0)
(0.674514 -0.0846475 0)
(0.636019 -0.0828329 0)
(0.598116 -0.079243 0)
(0.561583 -0.0743893 0)
(0.52699 -0.0687366 0)
(0.494717 -0.0626684 0)
(0.464993 -0.0564816 0)
(0.437923 -0.0503936 0)
(0.413517 -0.0445558 0)
(0.391714 -0.0390654 0)
(0.3724 -0.0339785 0)
(0.355429 -0.0293204 0)
(0.340636 -0.025095 0)
(0.327844 -0.021291 0)
(0.316878 -0.0178884 0)
(0.307562 -0.014861 0)
(0.299731 -0.0121807 0)
(0.293226 -0.00981809 0)
(0.287899 -0.00774489 0)
(0.283616 -0.00593387 0)
(0.28025 -0.00436018 0)
(0.277687 -0.00300074 0)
(0.27582 -0.00183513 0)
(0.274555 -0.000844614 0)
(0.273804 -1.2823e-05 0)
(0.273487 0.000675298 0)
(0.273531 0.00123302 0)
(0.273871 0.00167282 0)
(0.274447 0.00200584 0)
(0.275204 0.00224284 0)
(0.276095 0.0023936 0)
(0.647877 -0.0396937 0)
(0.620825 -0.0440505 0)
(0.590625 -0.0469179 0)
(0.558374 -0.0481409 0)
(0.525199 -0.047857 0)
(0.492095 -0.0463318 0)
(0.459888 -0.0438727 0)
(0.429212 -0.0407841 0)
(0.400508 -0.0373331 0)
(0.374046 -0.033733 0)
(0.349958 -0.0301421 0)
(0.328272 -0.0266709 0)
(0.308937 -0.0233921 0)
(0.291851 -0.0203483 0)
(0.276876 -0.0175604 0)
(0.263855 -0.0150332 0)
(0.252622 -0.0127615 0)
(0.243012 -0.010733 0)
(0.234863 -0.0089319 0)
(0.228022 -0.00734017 0)
(0.222345 -0.00593962 0)
(0.217699 -0.00471214 0)
(0.213963 -0.00364083 0)
(0.211024 -0.00270985 0)
(0.208783 -0.00190499 0)
(0.207147 -0.00121331 0)
(0.206034 -0.000623538 0)
(0.205368 -0.000125452 0)
(0.205081 0.000289738 0)
(0.205112 0.000630062 0)
(0.205404 0.000902526 0)
(0.205907 0.00111367 0)
(0.206574 0.00126932 0)
(0.207365 0.00137507 0)
(0.208242 0.00143602 0)
(0.428315 -0.0167204 0)
(0.4077 -0.0182327 0)
(0.385212 -0.0190874 0)
(0.361656 -0.0192572 0)
(0.337837 -0.018834 0)
(0.314451 -0.0179533 0)
(0.292043 -0.0167537 0)
(0.271007 -0.015362 0)
(0.251589 -0.0138822 0)
(0.23392 -0.0123924 0)
(0.218033 -0.0109467 0)
(0.203898 -0.00958017 0)
(0.191438 -0.00831316 0)
(0.180548 -0.0071558 0)
(0.171105 -0.00611025 0)
(0.162982 -0.00517415 0)
(0.156052 -0.00434156 0)
(0.150191 -0.00360535 0)
(0.145282 -0.00295711 0)
(0.141218 -0.00238881 0)
(0.137898 -0.00189218 0)
(0.135232 -0.00145995 0)
(0.13314 -0.00108494 0)
(0.131546 -0.000761204 0)
(0.130385 -0.000482958 0)
(0.129596 -0.000245618 0)
(0.129128 -4.46848e-05 0)
(0.128931 0.00012327 0)
(0.128961 0.000261714 0)
(0.129181 0.000373246 0)
(0.129553 0.000460625 0)
(0.130047 0.000525924 0)
(0.130632 0.000571461 0)
(0.131283 0.000599014 0)
(0.131976 0.000610651 0)
(0.159485 -0.00179584 0)
(0.150499 -0.00188185 0)
(0.140913 -0.00188551 0)
(0.131091 -0.00181556 0)
(0.121375 -0.00169306 0)
(0.112033 -0.00153882 0)
(0.10326 -0.00136996 0)
(0.0951786 -0.00119974 0)
(0.08785 -0.00103711 0)
(0.0812907 -0.000886994 0)
(0.0754846 -0.000751482 0)
(0.0703943 -0.000631007 0)
(0.0659704 -0.000525153 0)
(0.0621569 -0.000433028 0)
(0.0588955 -0.000353489 0)
(0.0561291 -0.000285245 0)
(0.0538029 -0.000226994 0)
(0.0518661 -0.000177468 0)
(0.0502721 -0.000135516 0)
(0.0489786 -0.000100091 0)
(0.0479477 -7.02846e-05 0)
(0.0471455 -4.52855e-05 0)
(0.0465417 -2.44051e-05 0)
(0.0461095 -7.03107e-06 0)
(0.0458249 7.34631e-06 0)
(0.0456665 1.91787e-05 0)
(0.0456155 2.88293e-05 0)
(0.0456545 3.66178e-05 0)
(0.0457684 4.27887e-05 0)
(0.0459431 4.75589e-05 0)
(0.0461661 5.10878e-05 0)
(0.046426 5.35206e-05 0)
(0.0467124 5.49579e-05 0)
(0.0470161 5.54985e-05 0)
(0.0473285 5.52085e-05 0)
(0.053761 4.82436e-05 0)
(0.0534781 4.82217e-05 0)
(0.053198 4.70212e-05 0)
(0.0529283 4.48605e-05 0)
(0.0526751 4.1892e-05 0)
(0.0524433 3.82683e-05 0)
(0.0522367 3.4085e-05 0)
(0.052058 2.94468e-05 0)
(0.0519097 2.44046e-05 0)
(0.0517932 1.9023e-05 0)
(0.148152 0.000543594 0)
(0.147512 0.000548901 0)
(0.146861 0.000537182 0)
(0.146222 0.000511679 0)
(0.145612 0.000475176 0)
(0.145045 0.000430019 0)
(0.144532 0.000378152 0)
(0.144082 0.000321125 0)
(0.143702 0.000260133 0)
(0.143397 0.000196008 0)
(0.231186 0.00127196 0)
(0.230346 0.00131428 0)
(0.229475 0.00130974 0)
(0.228607 0.00126662 0)
(0.227766 0.00119212 0)
(0.226975 0.00109243 0)
(0.226252 0.00097271 0)
(0.225611 0.00083721 0)
(0.225064 0.000689222 0)
(0.224619 0.000531199 0)
(0.302889 0.00213104 0)
(0.301982 0.00223757 0)
(0.301022 0.00225702 0)
(0.300047 0.00220412 0)
(0.299091 0.00209183 0)
(0.298182 0.00193137 0)
(0.297341 0.00173224 0)
(0.296588 0.0015023 0)
(0.295937 0.00124781 0)
(0.295401 0.000973426 0)
(0.363322 0.00298529 0)
(0.362444 0.0031811 0)
(0.361495 0.00324427 0)
(0.360518 0.00319636 0)
(0.359547 0.00305648 0)
(0.358613 0.00284136 0)
(0.357741 0.0025653 0)
(0.356952 0.00224027 0)
(0.356263 0.00187588 0)
(0.355687 0.00147948 0)
(0.412595 0.00376371 0)
(0.411809 0.00406177 0)
(0.410945 0.00418164 0)
(0.410044 0.00415116 0)
(0.40914 0.00399531 0)
(0.408263 0.00373607 0)
(0.407436 0.00339247 0)
(0.406682 0.00298052 0)
(0.406016 0.0025133 0)
(0.405454 0.00200092 0)
(0.450868 0.00443055 0)
(0.450207 0.0048276 0)
(0.449477 0.00500603 0)
(0.44871 0.00499883 0)
(0.447936 0.00483581 0)
(0.44718 0.00454342 0)
(0.446464 0.00414475 0)
(0.445806 0.00365942 0)
(0.445221 0.00310357 0)
(0.444722 0.00248985 0)
(0.478331 0.00497322 0)
(0.477814 0.00544932 0)
(0.477246 0.00567585 0)
(0.476654 0.0056893 0)
(0.476056 0.00552285 0)
(0.475471 0.00520619 0)
(0.474916 0.0047654 0)
(0.474404 0.00422281 0)
(0.473947 0.00359696 0)
(0.473554 0.00290255 0)
(0.495195 0.0053885 0)
(0.49483 0.00591016 0)
(0.494446 0.00616382 0)
(0.494055 0.00618759 0)
(0.493666 0.00601633 0)
(0.493288 0.00568145 0)
(0.492931 0.00521068 0)
(0.492603 0.00462796 0)
(0.492309 0.00395329 0)
(0.492056 0.00320264 0)
(0.501678 0.0056705 0)
(0.50148 0.00619662 0)
(0.501296 0.00645027 0)
(0.501125 0.00646931 0)
(0.500966 0.00628855 0)
(0.500819 0.00593951 0)
(0.500684 0.00545018 0)
(0.500563 0.00484485 0)
(0.500455 0.00414392 0)
(0.500363 0.00336379 0)
(0.498012 0.00580349 0)
(0.497999 0.00629267 0)
(0.498031 0.00651872 0)
(0.498094 0.00651753 0)
(0.498178 0.00632226 0)
(0.498273 0.00596305 0)
(0.498371 0.0054668 0)
(0.498467 0.00485693 0)
(0.498555 0.00415321 0)
(0.498631 0.00337158 0)
(0.484442 0.00576175 0)
(0.484636 0.00617938 0)
(0.484897 0.00635542 0)
(0.485203 0.0063224 0)
(0.485532 0.00611048 0)
(0.485868 0.00574717 0)
(0.486196 0.00525709 0)
(0.486503 0.00466175 0)
(0.486781 0.00397936 0)
(0.487022 0.00322462 0)
(0.461231 0.00551635 0)
(0.461647 0.00584004 0)
(0.462144 0.00595319 0)
(0.462687 0.00588401 0)
(0.463251 0.00565859 0)
(0.463811 0.00530088 0)
(0.46435 0.00483232 0)
(0.46485 0.00427171 0)
(0.465298 0.00363494 0)
(0.465683 0.00293487 0)
(0.428646 0.00504682 0)
(0.429288 0.00526915 0)
(0.430007 0.00531828 0)
(0.430766 0.0052173 0)
(0.431536 0.00498776 0)
(0.432288 0.00464932 0)
(0.433002 0.00421975 0)
(0.433658 0.00371453 0)
(0.434242 0.00314684 0)
(0.434739 0.0025272 0)
(0.38695 0.00435396 0)
(0.387792 0.00448244 0)
(0.388697 0.00447765 0)
(0.389628 0.0043574 0)
(0.390553 0.00413834 0)
(0.391445 0.00383572 0)
(0.392282 0.00346329 0)
(0.393043 0.00303306 0)
(0.393713 0.00255519 0)
(0.394279 0.00203778 0)
(0.336369 0.00347047 0)
(0.337353 0.00352467 0)
(0.338379 0.00348454 0)
(0.33941 0.00336298 0)
(0.340419 0.00317168 0)
(0.341379 0.00292173 0)
(0.342269 0.00262276 0)
(0.34307 0.00228352 0)
(0.343769 0.00191105 0)
(0.344352 0.00151126 0)
(0.277076 0.00246771 0)
(0.278108 0.00247404 0)
(0.279157 0.00242128 0)
(0.280193 0.00231737 0)
(0.281192 0.00217001 0)
(0.282131 0.00198601 0)
(0.282992 0.00177175 0)
(0.283759 0.00153255 0)
(0.284421 0.00127311 0)
(0.284967 0.000996871 0)
(0.209171 0.00145717 0)
(0.210123 0.00144317 0)
(0.211072 0.00139855 0)
(0.211995 0.00132752 0)
(0.212873 0.00123412 0)
(0.213689 0.00112196 0)
(0.21443 0.000994382 0)
(0.215084 0.000854207 0)
(0.215642 0.000703872 0)
(0.216096 0.000545175 0)
(0.13269 0.000607995 0)
(0.133406 0.000592953 0)
(0.134109 0.000567029 0)
(0.134784 0.000531971 0)
(0.135418 0.000489112 0)
(0.136002 0.000439975 0)
(0.136527 0.000385635 0)
(0.136986 0.0003273 0)
(0.137373 0.000265681 0)
(0.137684 0.00020159 0)
(0.0476422 5.41622e-05 0)
(0.0479506 5.24111e-05 0)
(0.0482479 5.00206e-05 0)
(0.0485291 4.70387e-05 0)
(0.04879 4.35287e-05 0)
(0.0490272 3.95378e-05 0)
(0.0492378 3.51266e-05 0)
(0.0494196 3.0337e-05 0)
(0.0495707 2.52203e-05 0)
(0.0496898 1.98052e-05 0)
(0.0517101 1.3312e-05 0)
(0.0516615 7.29683e-06 0)
(0.0516486 9.43182e-07 0)
(0.0516728 -5.76741e-06 0)
(0.0517357 -1.29212e-05 0)
(0.0518397 -2.05907e-05 0)
(0.0519874 -2.8927e-05 0)
(0.0521828 -3.80737e-05 0)
(0.0524306 -4.82672e-05 0)
(0.052737 -5.97482e-05 0)
(0.05311 -7.28713e-05 0)
(0.0535593 -8.80162e-05 0)
(0.0540972 -0.00010571 0)
(0.0547389 -0.000126541 0)
(0.0555029 -0.000151298 0)
(0.0564123 -0.000180886 0)
(0.0574951 -0.000216494 0)
(0.0587855 -0.000259518 0)
(0.0603255 -0.000311743 0)
(0.062166 -0.000375284 0)
(0.0643689 -0.000452763 0)
(0.0670088 -0.000547221 0)
(0.0701749 -0.00066223 0)
(0.073973 -0.000801637 0)
(0.0785256 -0.000969397 0)
(0.0839715 -0.0011688 0)
(0.0904611 -0.00140154 0)
(0.0981471 -0.00166583 0)
(0.107167 -0.00195392 0)
(0.117613 -0.00224861 0)
(0.129493 -0.00251985 0)
(0.142669 -0.00272246 0)
(0.156799 -0.0027986 0)
(0.171291 -0.00268873 0)
(0.185307 -0.00235552 0)
(0.143173 0.000129261 0)
(0.143033 6.00573e-05 0)
(0.14298 -1.17437e-05 0)
(0.14302 -8.66277e-05 0)
(0.143156 -0.000165399 0)
(0.143395 -0.00024923 0)
(0.143744 -0.000339653 0)
(0.144212 -0.00043863 0)
(0.144812 -0.000548573 0)
(0.145558 -0.000672441 0)
(0.146469 -0.000813799 0)
(0.14757 -0.000976968 0)
(0.14889 -0.00116714 0)
(0.150464 -0.0013906 0)
(0.152338 -0.0016549 0)
(0.154566 -0.00196921 0)
(0.157212 -0.00234458 0)
(0.160358 -0.00279437 0)
(0.164099 -0.00333459 0)
(0.168551 -0.00398437 0)
(0.173855 -0.0047662 0)
(0.180175 -0.00570609 0)
(0.187709 -0.00683312 0)
(0.196686 -0.0081783 0)
(0.207368 -0.00977199 0)
(0.22005 -0.0116391 0)
(0.235048 -0.0137911 0)
(0.252682 -0.0162138 0)
(0.273242 -0.0188492 0)
(0.296937 -0.021573 0)
(0.323811 -0.0241695 0)
(0.35364 -0.0263133 0)
(0.3858 -0.0275766 0)
(0.419152 -0.0274907 0)
(0.452018 -0.0256957 0)
(0.224284 0.000364692 0)
(0.224066 0.000190451 0)
(0.22397 8.35101e-06 0)
(0.224003 -0.000182532 0)
(0.224172 -0.000384025 0)
(0.224485 -0.000598819 0)
(0.224953 -0.000830602 0)
(0.225588 -0.00108407 0)
(0.226407 -0.00136512 0)
(0.227431 -0.00168093 0)
(0.228686 -0.00204023 0)
(0.230203 -0.00245352 0)
(0.232023 -0.00293344 0)
(0.234195 -0.00349514 0)
(0.236776 -0.00415681 0)
(0.23984 -0.00494027 0)
(0.243472 -0.00587172 0)
(0.247778 -0.0069824 0)
(0.252883 -0.00830957 0)
(0.258937 -0.00989716 0)
(0.266118 -0.0117965 0)
(0.274639 -0.014066 0)
(0.284748 -0.016771 0)
(0.296734 -0.0199803 0)
(0.310926 -0.0237613 0)
(0.327696 -0.0281703 0)
(0.347446 -0.0332357 0)
(0.370597 -0.0389332 0)
(0.397548 -0.0451486 0)
(0.428627 -0.0516283 0)
(0.463995 -0.0579221 0)
(0.503511 -0.0633308 0)
(0.546543 -0.066899 0)
(0.591756 -0.0675166 0)
(0.636974 -0.0642385 0)
(0.294988 0.000682315 0)
(0.294709 0.000376107 0)
(0.29457 5.49469e-05 0)
(0.294579 -0.000282532 0)
(0.294745 -0.000639224 0)
(0.295077 -0.00101963 0)
(0.295588 -0.00142995 0)
(0.296293 -0.00187819 0)
(0.297208 -0.00237438 0)
(0.298359 -0.00293082 0)
(0.299774 -0.00356239 0)
(0.301487 -0.004287 0)
(0.303543 -0.00512608 0)
(0.305995 -0.00610525 0)
(0.308908 -0.00725512 0)
(0.312358 -0.0086122 0)
(0.31644 -0.01022 0)
(0.321266 -0.0121302 0)
(0.326969 -0.0144041 0)
(0.333709 -0.0171134 0)
(0.341675 -0.0203416 0)
(0.351088 -0.0241839 0)
(0.36221 -0.0287463 0)
(0.375346 -0.0341416 0)
(0.390848 -0.0404828 0)
(0.40912 -0.0478685 0)
(0.430613 -0.0563604 0)
(0.455821 -0.0659455 0)
(0.485259 -0.0764794 0)
(0.51942 -0.0876052 0)
(0.558681 -0.0986467 0)
(0.603146 -0.108491 0)
(0.652375 -0.115515 0)
(0.704979 -0.117676 0)
(0.758257 -0.113035 0)
(0.355235 0.00105617 0)
(0.354919 0.000608812 0)
(0.354746 0.000138051 0)
(0.354725 -0.000357688 0)
(0.354865 -0.00088225 0)
(0.355177 -0.00144182 0)
(0.355672 -0.00204507 0)
(0.356365 -0.0027033 0)
(0.357275 -0.00343073 0)
(0.358424 -0.00424479 0)
(0.359841 -0.0051666 0)
(0.361561 -0.00622149 0)
(0.363625 -0.00743972 0)
(0.366085 -0.00885732 0)
(0.369004 -0.0105172 0)
(0.372456 -0.0124702 0)
(0.376529 -0.0147767 0)
(0.381332 -0.0175084 0)
(0.386989 -0.0207495 0)
(0.39365 -0.024599 0)
(0.401494 -0.0291715 0)
(0.41073 -0.0345987 0)
(0.421604 -0.0410282 0)
(0.43441 -0.0486208 0)
(0.449492 -0.0575426 0)
(0.467256 -0.0679507 0)
(0.488184 -0.0799669 0)
(0.512836 -0.0936324 0)
(0.541855 -0.108834 0)
(0.57595 -0.125186 0)
(0.615823 -0.141858 0)
(0.661988 -0.157331 0)
(0.714393 -0.16916 0)
(0.771692 -0.173905 0)
(0.830407 -0.167881 0)
(0.405006 0.00145055 0)
(0.404683 0.000866474 0)
(0.404494 0.000250051 0)
(0.404447 -0.000400293 0)
(0.404551 -0.0010891 0)
(0.404815 -0.00182398 0)
(0.405252 -0.00261575 0)
(0.405874 -0.00347868 0)
(0.406698 -0.00443074 0)
(0.407744 -0.00549405 0)
(0.409038 -0.00669533 0)
(0.410609 -0.00806665 0)
(0.412497 -0.00964617 0)
(0.414744 -0.0114792 0)
(0.417406 -0.0136196 0)
(0.420547 -0.0161308 0)
(0.424243 -0.0190883 0)
(0.428586 -0.0225807 0)
(0.433684 -0.0267128 0)
(0.439665 -0.0316074 0)
(0.446678 -0.0374076 0)
(0.454904 -0.0442787 0)