/*--------------------------------*- C++ -*----------------------------------*\
| =========                 |                                                 |
| \\      /  F ield         | OpenFOAM: The Open Source CFD Toolbox           |
|  \\    /   O peration     | Version:  2406                                  |
|   \\  /    A nd           | Website:  www.openfoam.com                      |
|    \\/     M anipulation  |                                                 |
\*---------------------------------------------------------------------------*/
FoamFile
{
    version     2.0;
    format      ascii;
    arch        "LSB;label=32;scalar=64";
    class       volScalarField;
    location    "38";
    object      p;
}
// * * * * * * * * * * * * * * * * * * * * * * * * * * * * * * * * * * * * * //

dimensions      [0 2 -2 0 0 0 0];

internalField   nonuniform List<scalar> 
1900
(
0.0494369
0.0466301
0.0430285
0.0390824
0.0347485
0.0299764
0.0247148
0.0188412
0.0121885
0.00372597
0.0513016
0.0472686
0.0430738
0.0390507
0.0347367
0.0299947
0.0248377
0.019218
0.013041
0.00630868
0.0526967
0.0479402
0.0433524
0.0393708
0.0352118
0.0306593
0.0258297
0.0208326
0.0158158
0.0111923
0.0540124
0.0489767
0.0441723
0.0402582
0.03632
0.0320732
0.027703
0.0234099
0.0193772
0.0159124
0.0553577
0.0502284
0.0453497
0.0415278
0.0378155
0.0338892
0.0299582
0.0262442
0.0228881
0.0200618
0.0565386
0.0514079
0.0465873
0.0428912
0.0393736
0.0357185
0.0321352
0.0288269
0.0258866
0.0233951
0.0573241
0.0522845
0.0476386
0.0440738
0.0406862
0.0372194
0.0338695
0.0308018
0.0280741
0.0257229
0.0575201
0.0527538
0.0483795
0.0448927
0.0415428
0.0381708
0.0349431
0.0319801
0.0293221
0.0269938
0.0568508
0.052778
0.0487775
0.0452784
0.0418739
0.0385106
0.0353063
0.032344
0.0296624
0.0272898
0.0551371
0.0522475
0.0487781
0.0453038
0.0418486
0.0384582
0.0352217
0.0322093
0.0294677
0.027032
0.0113376
0.011161
0.0111443
0.0114004
0.0119172
0.012669
0.0136317
0.0147805
0.016089
0.0175281
0.0190661
0.0206687
0.0223003
0.0239249
0.0255078
0.0270171
0.0284246
0.0297068
0.0308454
0.0318279
0.032647
0.0333001
0.0337898
0.034122
0.0343063
0.0343541
0.0342785
0.0340936
0.0338135
0.0334519
0.0330223
0.0325367
0.0320062
0.0314409
0.0308491
0.0115295
0.0113496
0.0113467
0.0116063
0.0121012
0.0128113
0.0137213
0.0148134
0.0160655
0.0174511
0.0189399
0.0204986
0.0220918
0.0236837
0.0252398
0.026728
0.0281199
0.0293917
0.0305249
0.0315062
0.0323275
0.0329865
0.0334849
0.0338287
0.0340268
0.0340902
0.0340316
0.0338647
0.0336031
0.0332604
0.0328494
0.0323821
0.0318692
0.0313206
0.0307447
0.0115243
0.0113292
0.0113324
0.011599
0.0120825
0.0127652
0.0136398
0.0146943
0.0159104
0.0172637
0.018725
0.0202609
0.0218358
0.0234136
0.0249593
0.0264402
0.0278277
0.0290974
0.0302302
0.0312129
0.0320375
0.0327015
0.0332066
0.0335587
0.0337663
0.0338408
0.0337945
0.0336409
0.0333936
0.0330657
0.03267
0.0322181
0.0317208
0.0311873
0.0306261
0.0111265
0.0109424
0.0109733
0.0112693
0.0117707
0.0124615
0.0133389
0.0143949
0.0156133
0.0169708
0.018438
0.0199812
0.0215645
0.0231511
0.0247051
0.0261933
0.0275865
0.0288605
0.0299965
0.0309811
0.0318068
0.0324714
0.0329772
0.0333302
0.0335396
0.033617
0.0335749
0.0334269
0.0331867
0.0328673
0.0324813
0.0320402
0.0315545
0.0310332
0.0304846
0.0102539
0.0101532
0.0102832
0.0106653
0.0112341
0.011978
0.012899
0.013992
0.015243
0.0166297
0.0181233
0.0196899
0.021293
0.0228956
0.0244618
0.0259584
0.0273561
0.028631
0.0297646
0.0307446
0.0315642
0.0322219
0.0327209
0.0330681
0.0332733
0.0333483
0.0333062
0.0331607
0.0329254
0.0326133
0.0322367
0.0318069
0.031334
0.0308268
0.0302929
0.00884156
0.00895267
0.00930919
0.00987358
0.010582
0.0114332
0.0124374
0.013595
0.0148968
0.0163243
0.0178501
0.0194413
0.021062
0.0226751
0.024245
0.025739
0.0271286
0.028391
0.0295089
0.0304711
0.0312724
0.0319125
0.0323955
0.0327293
0.0329244
0.0329931
0.0329487
0.0328049
0.032575
0.0322719
0.0319074
0.0314924
0.0310363
0.0305475
0.0300333
0.00680101
0.00734952
0.00814444
0.00902497
0.0099548
0.0109619
0.0120746
0.013309
0.0146673
0.0161351
0.0176872
0.0192922
0.0209154
0.0225212
0.0240751
0.0255456
0.0269061
0.0281352
0.0292179
0.0301448
0.0309122
0.0315215
0.0319782
0.0322909
0.0324708
0.0325303
0.0324827
0.0323415
0.0321196
0.0318292
0.0314814
0.0310864
0.0306529
0.0301886
0.0297
0.00370123
0.00528545
0.00693126
0.00828129
0.00949132
0.0106809
0.0119107
0.0132205
0.0146262
0.0161206
0.017681
0.019278
0.020879
0.0224507
0.0239607
0.0253801
0.0266845
0.0278556
0.0288805
0.0297524
0.0304698
0.0310355
0.0314563
0.0317416
0.0319028
0.0319522
0.0319028
0.0317673
0.0315577
0.0312854
0.0309604
0.0305919
0.0301877
0.0297546
0.0292983
-0.00224662
0.00247092
0.00582183
0.00775454
0.00925313
0.0106457
0.0119987
0.0133718
0.0148059
0.0163046
0.0178479
0.0194082
0.020956
0.0224612
0.0238951
0.0252325
0.0264525
0.0275399
0.0284852
0.0292842
0.0299376
0.0304497
0.0308282
0.0310829
0.0312249
0.0312662
0.0312186
0.0310938
0.0309026
0.030655
0.0303597
0.0300247
0.0296567
0.0292613
0.0288435
-0.0108373
-0.000523287
0.00508111
0.00754191
0.00928822
0.0108855
0.0123573
0.0137751
0.0152118
0.0166856
0.0181801
0.0196703
0.0211301
0.0225346
0.0238599
0.0250854
0.0261947
0.0271766
0.0280249
0.0287381
0.0293186
0.0297721
0.0301066
0.0303317
0.0304577
0.0304955
0.0304556
0.030348
0.030182
0.0299658
0.0297069
0.0294117
0.0290856
0.0287333
0.0283588
-0.00398325
0.0013664
0.0061095
0.0083111
0.00992973
0.0115326
0.0130348
0.0144482
0.0158444
0.0172507
0.0186554
0.0200364
0.0213721
0.0226427
0.0238303
0.0249195
0.0258986
0.0267605
0.027502
0.0281239
0.0286299
0.0290261
0.0293202
0.0295208
0.0296372
0.0296783
0.029653
0.0295694
0.0294348
0.0292559
0.0290384
0.0287873
0.0285069
0.0282008
0.0278721
0.00220805
0.00454546
0.00777909
0.00970145
0.0111636
0.0126357
0.0140567
0.0153926
0.0166881
0.017971
0.019236
0.0204656
0.0216424
0.0227517
0.0237805
0.0247185
0.0255585
0.0262963
0.0269312
0.0274653
0.0279026
0.0282489
0.0285108
0.0286955
0.0288103
0.0288623
0.0288582
0.0288041
0.0287056
0.0285674
0.0283939
0.0281886
0.0279548
0.027695
0.0274117
0.00838858
0.00875713
0.0104342
0.0118425
0.0130177
0.0142132
0.0154127
0.0165662
0.0176831
0.018781
0.0198576
0.0208994
0.0218923
0.0228245
0.0236869
0.0244726
0.0251773
0.0257989
0.0263377
0.0267959
0.0271771
0.0274857
0.0277267
0.0279054
0.028027
0.0280965
0.0281185
0.0280973
0.0280366
0.0279397
0.0278094
0.0276484
0.0274589
0.0272427
0.0270017
0.0136292
0.0130947
0.0136715
0.0144551
0.015224
0.0160528
0.016934
0.0178201
0.0186968
0.0195669
0.0204267
0.0212643
0.0220674
0.0228254
0.0235311
0.0241789
0.0247658
0.0252901
0.025752
0.0261528
0.0264946
0.0267801
0.0270124
0.0271946
0.0273301
0.0274216
0.0274722
0.0274843
0.0274602
0.027402
0.0273115
0.0271905
0.0270403
0.0268625
0.0266584
0.0180415
0.0170609
0.0168877
0.0170699
0.0173917
0.0178293
0.0183616
0.0189477
0.0195628
0.020198
0.0208444
0.0214897
0.0221211
0.0227285
0.0233039
0.0238421
0.0243393
0.0247933
0.0252028
0.0255676
0.0258881
0.0261651
0.0263997
0.0265934
0.0267473
0.026863
0.0269419
0.0269852
0.0269941
0.0269699
0.0269135
0.0268262
0.0267089
0.0265627
0.0263887
0.0214741
0.0202191
0.0195447
0.0192402
0.0191566
0.0192382
0.019452
0.019762
0.020141
0.0205717
0.0210397
0.0215302
0.0220291
0.022525
0.0230088
0.0234738
0.0239148
0.024328
0.0247105
0.0250604
0.0253762
0.0256572
0.0259028
0.0261131
0.0262879
0.0264276
0.0265326
0.0266033
0.0266403
0.0266441
0.0266154
0.0265549
0.0264634
0.0263418
0.0261911
0.0238029
0.0223565
0.0213526
0.0206955
0.0202948
0.0200962
0.020063
0.0201618
0.0203642
0.0206474
0.0209922
0.0213806
0.0217966
0.0222269
0.0226609
0.0230897
0.0235068
0.0239064
0.0242842
0.0246366
0.024961
0.0252551
0.0255177
0.0257474
0.0259436
0.0261058
0.026234
0.0263278
0.0263876
0.0264136
0.0264064
0.0263663
0.0262943
0.0261909
0.0260573
0.0250263
0.0234423
0.0222307
0.0213465
0.0207358
0.0203542
0.0201652
0.0201358
0.0202356
0.0204384
0.0207206
0.0210618
0.021444
0.0218522
0.0222739
0.0226989
0.0231187
0.0235267
0.0239169
0.0242851
0.0246275
0.0249415
0.0252247
0.0254758
0.0256932
0.0258765
0.0260249
0.0261385
0.026217
0.0262608
0.0262701
0.0262457
0.026188
0.0260981
0.0259767
0.0252533
0.0235699
0.0222366
0.0212288
0.02051
0.0200416
0.0197868
0.0197106
0.0197802
0.0199662
0.0202425
0.0205863
0.0209781
0.0214014
0.0218425
0.0222899
0.0227344
0.0231681
0.0235849
0.0239796
0.0243483
0.0246878
0.0249958
0.0252703
0.0255101
0.0257142
0.0258823
0.0260139
0.0261092
0.0261682
0.0261916
0.0261798
0.0261337
0.026054
0.0259419
0.0249301
0.0231793
0.0217811
0.0207187
0.019961
0.0194703
0.0192076
0.0191351
0.0192174
0.0194227
0.0197231
0.0200944
0.0205162
0.020971
0.0214442
0.0219239
0.0224001
0.0228647
0.0233111
0.0237342
0.0241297
0.0244945
0.024826
0.0251225
0.0253826
0.0256054
0.0257904
0.0259375
0.0260468
0.0261184
0.026153
0.0261512
0.0261139
0.026042
0.0259366
0.0302384
0.029615
0.0289838
0.0283491
0.0277142
0.0270814
0.0264528
0.0258296
0.0252127
0.0246026
0.0301487
0.0295387
0.0289198
0.0282963
0.0276712
0.0270473
0.0264264
0.0258099
0.0251988
0.0245937
0.0300442
0.0294476
0.0288412
0.0282293
0.0276149
0.0270007
0.0263885
0.0257799
0.0251757
0.0245767
0.0299154
0.0293314
0.0287374
0.0281374
0.0275343
0.0269308
0.0263286
0.0257291
0.0251334
0.024542
0.029739
0.0291705
0.0285919
0.0280069
0.0274184
0.0268287
0.0262395
0.0256522
0.0250676
0.0244865
0.0294996
0.0289515
0.0283933
0.0278281
0.0272588
0.0266874
0.0261155
0.0255443
0.0249746
0.0244072
0.0291926
0.0286709
0.0281387
0.0275989
0.027054
0.0265057
0.0259556
0.0254048
0.0248539
0.0243037
0.0288236
0.0283344
0.027834
0.027325
0.0268094
0.0262889
0.0257648
0.0252381
0.0247096
0.0241798
0.0284073
0.0279559
0.0274922
0.0270184
0.0265362
0.0260471
0.0255523
0.0250527
0.0245491
0.0240421
0.0279653
0.0275556
0.0271319
0.0266961
0.0262498
0.0257943
0.0253306
0.0248597
0.0243823
0.0238992
0.0275233
0.0271567
0.0267742
0.0263772
0.0259673
0.0255456
0.0251132
0.0246709
0.0242197
0.0237603
0.0271069
0.0267824
0.0264396
0.02608
0.0257049
0.0253154
0.0249126
0.0244974
0.0240708
0.0236336
0.0267375
0.0264514
0.0261449
0.0258191
0.0254754
0.0251148
0.0247385
0.0243474
0.0239427
0.0235253
0.0264292
0.0261763
0.0259007
0.0256038
0.0252867
0.0249506
0.0245965
0.0242258
0.0238394
0.0234385
0.0261881
0.0259619
0.0257113
0.0254374
0.0251416
0.0248249
0.0244886
0.0241339
0.0237621
0.0233743
0.0260123
0.0258064
0.0255747
0.0253182
0.0250383
0.0247362
0.0244132
0.0240705
0.0237094
0.0233312
0.0258943
0.0257031
0.0254849
0.0252408
0.0249722
0.0246804
0.0243666
0.0240323
0.0236786
0.0233071
0.025825
0.025644
0.0254352
0.0251995
0.0249385
0.0246535
0.0243458
0.0240168
0.023668
0.0233006
0.0257985
0.0256248
0.0254224
0.0251924
0.0249362
0.0246554
0.0243513
0.0240254
0.0236791
0.0233138
0.025799
0.0256303
0.0254321
0.0252056
0.0249523
0.0246738
0.0243715
0.024047
0.0237017
0.0233371
0.0239997
0.0234038
0.0228148
0.0222325
0.0216565
0.0210864
0.0205216
0.0199618
0.0194064
0.0188551
0.0183073
0.0177626
0.0172207
0.0166812
0.0161437
0.0156081
0.015074
0.0145412
0.0140095
0.0134787
0.0129487
0.0124193
0.0118904
0.0113619
0.0108337
0.0103058
0.00977795
0.00925025
0.00872259
0.00819494
0.00766725
0.00713948
0.00661162
0.00608364
0.00555551
0.023995
0.0234026
0.0228166
0.0222367
0.0216627
0.0210941
0.0205305
0.0199716
0.0194169
0.0188659
0.0183183
0.0177737
0.0172318
0.0166921
0.0161545
0.0156185
0.0150841
0.0145508
0.0140187
0.0134875
0.0129569
0.012427
0.0118976
0.0113686
0.0108399
0.0103115
0.00978315
0.00925496
0.00872683
0.00819872
0.0076706
0.00714242
0.00661416
0.00608581
0.00555733
0.0239833
0.0233955
0.0228134
0.0222368
0.0216654
0.0210991
0.0205374
0.0199799
0.0194263
0.0188761
0.0183291
0.0177849
0.0172431
0.0167035
0.0161657
0.0156296
0.0150948
0.0145612
0.0140287
0.0134969
0.0129659
0.0124355
0.0119055
0.011376
0.0108467
0.0103177
0.00978886
0.00926014
0.00873149
0.00820288
0.00767428
0.00714565
0.00661696
0.00608821
0.00555936
0.0239553
0.0233736
0.0227968
0.022225
0.0216577
0.0210949
0.0205362
0.0199812
0.0194297
0.0188813
0.0183357
0.0177926
0.0172517
0.0167127
0.0161754
0.0156395
0.0151048
0.0145712
0.0140385
0.0135066
0.0129753
0.0124446
0.0119142
0.0113842
0.0108545
0.010325
0.00979572
0.00926651
0.00873737
0.00820827
0.00767918
0.00715007
0.00662093
0.00609172
0.00556244
0.0239092
0.0233358
0.0227666
0.0222013
0.02164
0.0210822
0.0205279
0.0199768
0.0194285
0.0188828
0.0183395
0.0177983
0.0172588
0.016721
0.0161846
0.0156494
0.0151152
0.0145819
0.0140493
0.0135174
0.012986
0.012455
0.0119244
0.0113941
0.010864
0.010334
0.00980422
0.00927451
0.00874485
0.00821523
0.00768561
0.00715597
0.00662629
0.00609656
0.00556677
0.0238423
0.0232802
0.0227211
0.0221648
0.0216114
0.0210606
0.0205124
0.0199666
0.0194228
0.018881
0.0183409
0.0178024
0.0172652
0.0167292
0.0161942
0.0156601
0.0151267
0.014594
0.0140618
0.0135301
0.0129987
0.0124676
0.0119368
0.0114061
0.0108757
0.0103453
0.00981497
0.00928472
0.00875449
0.00822427
0.00769403
0.00716377
0.00663346
0.0061031
0.00557267
0.0237546
0.0232067
0.0226603
0.0221155
0.0215721
0.0210303
0.0204898
0.0199507
0.0194128
0.018876
0.0183401
0.0178052
0.0172709
0.0167374
0.0162043
0.0156718
0.0151397
0.0146078
0.0140763
0.0135449
0.0130137
0.0124827
0.0119517
0.0114208
0.01089
0.0103591
0.00982829
0.00929745
0.00876659
0.00823568
0.00770474
0.00717374
0.00664268
0.00611155
0.00558036
0.0236492
0.0231181
0.0225868
0.0220554
0.021524
0.0209927
0.0204614
0.0199303
0.0193994
0.0188685
0.0183378
0.0178071
0.0172765
0.0167459
0.0162154
0.0156848
0.0151542
0.0146235
0.0140928
0.013562
0.0130312
0.0125002
0.0119692
0.0114381
0.0109069
0.0103756
0.00984417
0.00931268
0.00878111
0.00824945
0.0077177
0.00718586
0.00665394
0.00612193
0.00558984
0.0235321
0.0230197
0.022505
0.0219885
0.0214703
0.0209506
0.0204296
0.0199074
0.0193842
0.01886
0.0183349
0.0178091
0.0172825
0.0167553
0.0162275
0.0156991
0.0151703
0.014641
0.0141113
0.0135812
0.0130507
0.0125199
0.0119889
0.0114576
0.010926
0.0103942
0.00986224
0.00933007
0.00879773
0.00826524
0.00773261
0.00719984
0.00666696
0.00613396
0.00560086
0.0234109
0.0229179
0.0224206
0.0219196
0.0214152
0.0209076
0.0203972
0.0198843
0.0193691
0.0188518
0.0183326
0.0178118
0.0172895
0.0167658
0.0162408
0.0157148
0.0151878
0.01466
0.0141313
0.0136019
0.0130719
0.0125413
0.0120102
0.0114787
0.0109468
0.0104145
0.00988187
0.00934898
0.00881583
0.00828245
0.00774888
0.00721512
0.00668121
0.00614715
0.00561296
0.0232934
0.0228196
0.0223396
0.0218538
0.0213628
0.0208671
0.0203672
0.0198633
0.0193559
0.0188454
0.018332
0.0178161
0.0172979
0.0167776
0.0162555
0.0157317
0.0152065
0.01468
0.0141523
0.0136236
0.013094
0.0125636
0.0120324
0.0115007
0.0109683
0.0104355
0.00990223
0.00936858
0.00883458
0.00830029
0.00776574
0.00723096
0.00669598
0.00616083
0.00562552
0.0231868
0.0227309
0.0222669
0.0217953
0.0213168
0.0208322
0.0203418
0.0198463
0.0193462
0.0188418
0.0183338
0.0178223
0.0173078
0.0167907
0.0162711
0.0157494
0.0152257
0.0147004
0.0141736
0.0136455
0.0131162
0.0125858
0.0120546
0.0115225
0.0109897
0.0104563
0.00992235
0.00938792
0.00885308
0.00831787
0.00778234
0.00724654
0.0067105
0.00617426
0.00563785
0.0230961
0.0226561
0.0222061
0.021747
0.0212796
0.0208045
0.0203226
0.0198344
0.0193405
0.0188416
0.0183381
0.0178305
0.0173192
0.0168047
0.0162872
0.0157672
0.0152449
0.0147205
0.0141944
0.0136666
0.0131375
0.0126071
0.0120756
0.0115432
0.0110099
0.0104759
0.00994129
0.00940609
0.00887041
0.0083343
0.00779783
0.00726105
0.00672401
0.00618674
0.00564928
0.0230242
0.0225974
0.0221592
0.0217104
0.0212521
0.020785
0.02031
0.0198278
0.0193391
0.0188445
0.0183447
0.0178402
0.0173315
0.016819
0.0163032
0.0157845
0.0152631
0.0147395
0.0142137
0.0136862
0.0131571
0.0126265
0.0120948
0.011562
0.0110282
0.0104936
0.00995825
0.00942231
0.00888582
0.00834888
0.00781153
0.00727385
0.00673589
0.00619768
0.00565927
0.0229716
0.0225552
0.0221262
0.0216855
0.0212343
0.0207734
0.0203038
0.0198262
0.0193414
0.0188502
0.0183532
0.0178509
0.0173441
0.0168332
0.0163185
0.0158007
0.0152799
0.0147566
0.0142311
0.0137036
0.0131744
0.0126436
0.0121115
0.0115782
0.0110439
0.0105087
0.0099727
0.00943605
0.00889885
0.00836113
0.00782301
0.00728452
0.00674576
0.00620672
0.00566751
0.0229372
0.0225284
0.0221061
0.0216714
0.0212253
0.0207689
0.0203031
0.0198288
0.0193468
0.0188579
0.0183628
0.0178622
0.0173566
0.0168466
0.0163327
0.0158153
0.0152949
0.0147717
0.0142462
0.0137185
0.0131891
0.012658
0.0121254
0.0115917
0.0110568
0.0105211
0.00998448
0.0094472
0.00890933
0.00837095
0.00783214
0.00729297
0.00675351
0.0062138
0.00567391
0.0229189
0.0225154
0.0220976
0.0216669
0.0212243
0.0207709
0.0203075
0.0198354
0.0193551
0.0188677
0.0183737
0.017874
0.017369
0.0168595
0.0163459
0.0158287
0.0153082
0.014785
0.0142593
0.0137314
0.0132015
0.01267
0.012137
0.0116028
0.0110674
0.0105311
0.00999389
0.00945606
0.00891756
0.00837862
0.00783919
0.00729946
0.00675939
0.00621914
0.00567866
0.0229161
0.0225156
0.0221006
0.0216722
0.0212315
0.0207796
0.0203177
0.0198465
0.0193671
0.0188803
0.0183868
0.0178873
0.0173825
0.016873
0.0163593
0.0158418
0.0153211
0.0147975
0.0142714
0.013743
0.0132127
0.0126806
0.0121471
0.0116123
0.0110764
0.0105394
0.0100017
0.00946324
0.00892424
0.00838467
0.00784475
0.00730443
0.00676391
0.00622311
0.00568221
0.022931
0.0225319
0.0221179
0.0216902
0.02125
0.0207985
0.0203366
0.0198654
0.0193858
0.0188986
0.0184047
0.0179047
0.0173993
0.0168892
0.0163748
0.0158567
0.0153352
0.0148109
0.014284
0.0137549
0.0132238
0.012691
0.0121567
0.0116212
0.0110845
0.0105469
0.0100085
0.00946944
0.00892978
0.00838966
0.00784915
0.00730833
0.00676728
0.00622605
0.00568468
0.0229547
0.0225557
0.0221417
0.0217137
0.0212732
0.0208211
0.0203586
0.0198867
0.0194064
0.0189184
0.0184237
0.0179229
0.0174167
0.0169057
0.0163905
0.0158715
0.0153492
0.0148241
0.0142964
0.0137664
0.0132346
0.012701
0.012166
0.0116298
0.0110924
0.0105541
0.0100151
0.00947537
0.00893513
0.00839443
0.00785339
0.00731207
0.00677053
0.00622886
0.00568709
0.00502722
0.00449877
0.00397014
0.00344134
0.00291237
0.00238321
0.0018539
0.00132457
0.000795145
0.000265374
0.00502873
0.00449998
0.00397109
0.00344206
0.0029129
0.00238348
0.00185397
0.00132534
0.000794867
0.000264812
0.0050304
0.00450134
0.00397215
0.00344286
0.00291347
0.00238382
0.00185407
0.00132555
0.000794875
0.000265067
0.00503308
0.00450362
0.00397406
0.00344441
0.00291468
0.00238475
0.00185472
0.00132583
0.000794721
0.000265087
0.0050369
0.00450695
0.00397691
0.0034468
0.00291662
0.00238626
0.00185586
0.00132649
0.000794692
0.000265031
0.00504217
0.0045116
0.00398095
0.00345023
0.00291945
0.00238851
0.00185756
0.00132759
0.000794963
0.000265023
0.00504909
0.00451775
0.00398633
0.00345485
0.0029233
0.0023916
0.00185992
0.00132916
0.000795558
0.000265062
0.00505766
0.0045254
0.00399307
0.00346067
0.0029282
0.00239558
0.00186299
0.00133128
0.000796553
0.000265213
0.00506766
0.00453437
0.00400099
0.00346755
0.00293403
0.00240035
0.0018667
0.00133391
0.000797955
0.000265518
0.00507865
0.00454425
0.00400975
0.00347517
0.00294051
0.00240569
0.00187089
0.00133691
0.000799691
0.000265959
0.00509008
0.00455452
0.00401886
0.00348311
0.00294728
0.00241128
0.00187529
0.00134011
0.000801626
0.000266481
0.00510128
0.00456459
0.00402779
0.0034909
0.00295392
0.00241677
0.00187962
0.00134326
0.000803599
0.000267002
0.00511166
0.0045739
0.00403604
0.00349808
0.00296003
0.00242181
0.00188358
0.00134614
0.000805445
0.000267443
0.00512071
0.004582
0.00404319
0.00350428
0.0029653
0.00242614
0.00188696
0.00134859
0.000807038
0.000267757
0.00512812
0.00458862
0.00404899
0.00350931
0.00296952
0.00242961
0.00188963
0.00135051
0.000808297
0.000267932
0.00513385
0.00459368
0.00405342
0.00351309
0.00297271
0.00243217
0.00189159
0.00135189
0.000809216
0.000268008
0.0051381
0.00459737
0.00405663
0.00351579
0.00297498
0.00243396
0.00189292
0.00135285
0.000809933
0.000268122
0.00514113
0.00460004
0.00405883
0.00351768
0.00297647
0.00243515
0.00189378
0.00135352
0.000810409
0.000268253
0.00514324
0.00460175
0.00406024
0.00351875
0.00297728
0.0024357
0.00189418
0.00135349
0.000810321
0.000268199
0.00514526
0.00460342
0.0040616
0.00351981
0.00297807
0.00243638
0.00189475
0.00135325
0.000811339
0.000269774
)
;

boundaryField
{
    inlet
    {
        type            zeroGradient;
    }
    outlet
    {
        type            fixedValue;
        value           uniform 0;
    }
    upperWall
    {
        type            zeroGradient;
    }
    lowerWall
    {
        type            zeroGradient;
    }
    frontAndBack
    {
        type            empty;
    }
}


// ************************************************************************* //
