/*--------------------------------*- C++ -*----------------------------------*\
| =========                 |                                                 |
| \\      /  F ield         | OpenFOAM: The Open Source CFD Toolbox           |
|  \\    /   O peration     | Version:  2406                                  |
|   \\  /    A nd           | Website:  www.openfoam.com                      |
|    \\/     M anipulation  |                                                 |
\*---------------------------------------------------------------------------*/
FoamFile
{
    version     2.0;
    format      ascii;
    arch        "LSB;label=32;scalar=64";
    class       surfaceScalarField;
    location    "38";
    object      phi;
}
// * * * * * * * * * * * * * * * * * * * * * * * * * * * * * * * * * * * * * //

dimensions      [0 3 -1 0 0 0 0];

oriented        oriented;

internalField   nonuniform List<scalar> 
3680
(
0.00975703
-0.000257028
0.0100623
-0.000305267
0.0103288
-0.000266494
0.0105914
-0.000262596
0.0108856
-0.000294269
0.0112445
-0.000358816
0.0117186
-0.000474133
0.0123991
-0.000680446
0.0135005
-0.00110149
-0.00240591
0.0159064
0.0254441
-0.000201148
0.0255556
-0.00041671
0.0257902
-0.000501096
0.0261075
-0.000579999
0.0265092
-0.000695928
0.0270145
-0.000864072
0.0276556
-0.00111531
0.0284818
-0.00150661
0.0295215
-0.0021412
-0.00325557
0.0303711
0.0374635
-0.000164609
0.0374704
-0.000423678
0.0375751
-0.000605752
0.0377724
-0.000777313
0.0380577
-0.000981291
0.0384335
-0.0012398
0.0389007
-0.00158255
0.0394474
-0.00205331
0.0400116
-0.00270543
-0.0036066
0.0403626
0.0454783
-0.000142896
0.0454502
-0.000395622
0.0454632
-0.000618749
0.0455292
-0.000843325
0.045646
-0.0010981
0.0458089
-0.00140267
0.0460055
-0.00177914
0.0462062
-0.00225398
0.0463512
-0.00285044
-0.00357991
0.0463245
0.049474
-0.000116859
0.0494145
-0.000336136
0.0493537
-0.000557938
0.0493046
-0.000794229
0.0492638
-0.00105736
0.0492225
-0.00136136
0.0491645
-0.00172114
0.0490606
-0.00215002
0.0488649
-0.00265479
-0.00322862
0.0485137
0.0494596
-7.6426e-05
0.0493594
-0.000235933
0.0492301
-0.000428693
0.0490822
-0.000646276
0.0489092
-0.000884412
0.0486999
-0.00115203
0.0484374
-0.00145863
0.0480962
-0.0018088
0.0476426
-0.00220116
-0.00262483
0.0470388
0.0454363
-1.27444e-05
0.0452904
-8.9998e-05
0.0451055
-0.000243826
0.044886
-0.000426709
0.0446207
-0.00061911
0.0442964
-0.000827761
0.0438961
-0.00105828
0.0433977
-0.00131033
0.0427765
-0.00158002
-0.00185836
0.0420101
0.037399
8.82197e-05
0.037227
8.21e-05
0.0370321
-4.89376e-05
0.0367987
-0.000193286
0.036508
-0.000328419
0.0361449
-0.000464627
0.0356929
-0.000606229
0.0351347
-0.000752156
0.0344549
-0.000900173
-0.00104581
0.0336424
0.0253737
0.000214554
0.0252844
0.000171343
0.0251859
4.96734e-05
0.0250296
-3.69928e-05
0.0248009
-9.97512e-05
0.0244918
-0.00015547
0.0240938
-0.000208238
0.0235999
-0.000258191
0.0230052
-0.000305466
-0.000349408
0.0223088
0.00971456
0.0098859
0.00993558
0.00989859
0.00979884
0.00964338
0.00943514
0.00917695
0.00887149
0.00852209
-6.54515e-05
6.54469e-05
-0.000248933
0.000183472
-0.00049261
0.000243669
-0.00074554
0.000252921
-0.000978725
0.000233177
-0.0011774
0.000198666
-0.00133445
0.000157048
-0.00144665
0.000112193
-0.00151277
6.6117e-05
-0.00153285
2.00741e-05
-0.00150794
-2.49148e-05
-0.00144003
-6.79004e-05
-0.0013321
-0.00010793
-0.00118795
-0.000144152
-0.0010121
-0.000175844
-0.000809635
-0.00020245
-0.000586005
-0.000223617
-0.000346789
-0.000239199
-9.74937e-05
-0.000249274
0.000156617
-0.000254086
0.000410649
-0.000254004
0.000660251
-0.00024957
0.000901686
-0.000241398
0.00113188
-0.000230152
0.00134842
-0.000216503
0.00154958
-0.000201109
0.00173421
-0.000184582
0.00190174
-0.000167474
0.00205206
-0.000150264
0.00218547
-0.000133353
0.00230259
-0.000117062
0.00240428
-0.000101636
0.00249159
-8.72495e-05
0.00256567
-7.40147e-05
-6.199e-05
0.00262771
-0.000203547
0.000268985
-0.000627603
0.000607501
-0.00114531
0.000761353
-0.00166444
0.000772036
-0.00212868
0.000697391
-0.00250781
0.000577781
-0.00278748
0.000436704
-0.00296226
0.000286962
-0.00303179
0.000135639
-0.00299886
-1.28585e-05
-0.00286846
-0.000155317
-0.00264743
-0.000288933
-0.00234412
-0.000411224
-0.00196818
-0.000520076
-0.00153019
-0.000613821
-0.00104133
-0.000691271
-0.000513084
-0.000751829
4.32121e-05
-0.000795448
0.000616448
-0.000822454
0.00119618
-0.000833751
0.00177295
-0.0008307
0.00233835
-0.000814891
0.00288516
-0.000788119
0.0034074
-0.000752294
0.00390035
-0.000709344
0.0043605
-0.000661143
0.00478549
-0.000609448
0.00517399
-0.000555852
0.00552561
-0.000501755
0.00584073
-0.000448343
0.00612039
-0.000396587
0.00636614
-0.000347247
0.00657991
-0.000300886
0.00676392
-0.000257889
-0.000218483
0.00692054
-0.000301645
0.000570617
-0.00087199
0.00117782
-0.00152312
0.00141247
-0.00214178
0.00139067
-0.00266403
0.00121962
-0.00305763
0.000971366
-0.00330936
0.000688421
-0.00341691
0.000394504
-0.00338421
0.000102932
-0.00321886
-0.000178211
-0.0029309
-0.000443272
-0.00253217
-0.000687656
-0.00203574
-0.000907641
-0.00145554
-0.00110026
-0.000805964
-0.00126337
-0.000101504
-0.0013957
0.000643427
-0.00149672
0.00141486
-0.00156683
0.00219975
-0.0016073
0.00298611
-0.00162005
0.00376307
-0.0016076
0.00452114
-0.00157288
0.00525221
-0.00151912
0.00594965
-0.00144965
0.00660821
-0.00136782
0.00722403
-0.00127686
0.00779448
-0.0011798
0.00831811
-0.00107938
0.00879448
-0.000978028
0.00922405
-0.000877807
0.009608
-0.00078043
0.00994812
-0.000687254
0.0102466
-0.000599309
0.0105062
-0.000517319
-0.000441741
0.0107295
-0.000352039
0.000922648
-0.000970105
0.00179587
-0.00162161
0.00206395
-0.00218699
0.00195602
-0.00261
0.00164262
-0.00286846
0.0012298
-0.00295841
0.000778363
-0.0028856
0.00032168
-0.00266079
-0.000121886
-0.00229734
-0.00054166
-0.00181034
-0.000930263
-0.00121574
-0.00128225
-0.000529845
-0.00159352
0.000230974
-0.00186106
0.00105054
-0.00208292
0.00191316
-0.00225829
0.002804
-0.00238753
0.00370922
-0.00247202
0.00461611
-0.00251416
0.0055133
-0.00251719
0.00639079
-0.00248503
0.00724001
-0.00242205
0.00805386
-0.00233292
0.00882667
-0.00222239
0.0095541
-0.00209518
0.0102331
-0.00195578
0.0108617
-0.00180837
0.0114391
-0.00165672
0.0119654
-0.00150417
0.0124412
-0.00135356
0.0128681
-0.00120724
0.013248
-0.00106709
0.0135833
-0.000934551
0.0138767
-0.00081064
-0.00069602
0.0141311
-0.000363398
0.00128603
-0.000928052
0.00236049
-0.00143933
0.00257519
-0.00179571
0.00231238
-0.00196684
0.00181372
-0.00195179
0.00121473
-0.00176202
0.00058858
-0.00141406
-2.63008e-05
-0.000925895
-0.000610057
-0.000316168
-0.00115139
0.000396516
-0.00164295
0.00119392
-0.00207966
0.00205842
-0.00245801
0.0029732
-0.00277583
0.00392247
-0.00303218
0.00489157
-0.00322738
0.00586708
-0.00336302
0.00683696
-0.00344187
0.00779059
-0.00346776
0.00871882
-0.00344539
0.00961398
-0.00338015
0.0104698
-0.00327785
0.0112814
-0.00314451
0.0120453
-0.00298619
0.0127589
-0.00280875
0.0134209
-0.00261774
0.0140308
-0.00241824
0.014589
-0.00221483
0.0150963
-0.00201148
0.0155544
-0.00181159
0.0159652
-0.00161795
0.0163309
-0.00143276
0.0166541
-0.0012577
0.0169375
-0.00109398
-0.000942342
0.0171839
-0.000338439
0.00162446
-0.00073438
0.00275641
-0.000942565
0.00278335
-0.000920379
0.00229017
-0.000686982
0.00158029
-0.000272013
0.000799738
0.000295511
2.10312e-05
0.00098958
-0.000720391
0.00178695
-0.00140744
0.00266641
-0.00203086
0.00360863
-0.00258518
0.00459588
-0.00306691
0.00561191
-0.00347405
0.00664195
-0.00380587
0.00767268
-0.0040629
0.00869229
-0.00424698
0.0096905
-0.00436121
0.0106586
-0.00440992
0.0115892
-0.00439843
0.0124768
-0.00433294
0.0133169
-0.00422021
0.0141064
-0.00406735
0.0148435
-0.00388157
0.0155273
-0.00366994
0.0161577
-0.00343921
0.0167357
-0.00319567
0.0172625
-0.00294501
0.01774
-0.00269226
0.0181703
-0.00244178
0.0185559
-0.00219718
0.0188994
-0.00196143
0.0192035
-0.00173683
0.019471
-0.0015251
0.0197044
-0.00132741
-0.00114449
0.0199066
-0.000255199
0.00187965
-0.000312121
0.0028133
-2.77995e-06
0.00247398
0.000589421
0.00169794
0.00137356
0.00079612
0.0022899
-0.00011663
0.0032985
-0.000987594
0.0043701
-0.00179202
0.00548179
-0.00251914
0.00661511
-0.0031642
0.00775453
-0.00372461
0.00888658
-0.00419897
0.00999949
-0.00458697
0.0110831
-0.00488946
0.0121287
-0.0051085
0.0131291
-0.00524744
0.0140788
-0.00531087
0.0149734
-0.00530454
0.0158102
-0.00523516
0.0165874
-0.00511019
0.0173047
-0.00493753
0.0179627
-0.00472529
0.0185626
-0.00448152
0.0191066
-0.00421397
0.0195974
-0.00392991
0.0200377
-0.00363601
0.0204309
-0.00333819
0.0207802
-0.00304161
0.0210891
-0.00275063
0.0213608
-0.00246884
0.0215984
-0.00219907
0.0218051
-0.00194349
0.0219836
-0.00170364
0.0221367
-0.00148049
-0.00127459
0.0222668
-3.07427e-05
0.00191038
0.000590798
0.00219173
0.00172211
0.00134263
0.00307806
0.000341957
0.00451435
-0.000640203
0.00596931
-0.00157161
0.00741071
-0.00242903
0.00881922
-0.00320057
0.0101829
-0.00388287
0.0114936
-0.00447489
0.0127448
-0.00497584
0.0139312
-0.00538538
0.0150484
-0.00570418
0.016093
-0.00593406
0.0170626
-0.00607816
0.0179561
-0.00614094
0.0187733
-0.00612809
0.0195152
-0.00604646
0.0201838
-0.00590374
0.0207818
-0.00570824
0.0213129
-0.00546861
0.0217811
-0.00519351
0.0221909
-0.00489139
0.0225472
-0.00457025
0.0228547
-0.00423744
0.0231183
-0.0038996
0.0233426
-0.0035625
0.023532
-0.00323107
0.0236908
-0.00290938
0.0238226
-0.00260069
0.023931
-0.00230749
0.0240191
-0.00203157
0.0240896
-0.00177411
0.0241449
-0.00153579
-0.0013168
0.0241871
0.000734307
0.00117605
0.00273426
0.000191715
0.0049934
-0.000916546
0.00717555
-0.00184024
0.00920914
-0.00267383
0.0110858
-0.00344834
0.0128129
-0.00415617
0.0144006
-0.00478822
0.0158576
-0.00533992
0.017191
-0.0058083
0.0184061
-0.00619093
0.0195071
-0.00648647
0.0204981
-0.00669513
0.0213828
-0.00681878
0.0221655
-0.00686089
0.022851
-0.00682645
0.0234446
-0.00672177
0.0239524
-0.00655423
0.0243807
-0.00633205
0.0247363
-0.00606389
0.0250263
-0.00575862
0.0252577
-0.00542495
0.0254375
-0.00507124
0.0255725
-0.00470525
0.025669
-0.00433399
0.025733
-0.00396364
0.02577
-0.00359948
0.0257848
-0.00324588
0.0257817
-0.00290636
0.0257646
-0.00258362
0.0257367
-0.00227961
0.0257007
-0.00199562
0.025659
-0.00173237
0.0256133
-0.00149012
-0.0012687
0.0255651
0.00446438
-0.00328837
0.00816246
-0.00350642
0.0111576
-0.00391171
0.0137009
-0.00438355
0.015897
-0.00486996
0.0178113
-0.0053627
0.0194915
-0.00583635
0.0209702
-0.00626698
0.0222698
-0.00663955
0.0234063
-0.00694482
0.0243922
-0.00717688
0.0252382
-0.00733244
0.0259537
-0.00741071
0.0265481
-0.00741318
0.0270305
-0.0073433
0.0274103
-0.00720624
0.027697
-0.00700852
0.0279004
-0.00675769
0.0280303
-0.00646198
0.0280964
-0.00612997
0.0281079
-0.00577022
0.028074
-0.00539103
0.0280029
-0.00500019
0.0279024
-0.00460477
0.0277794
-0.00421104
0.0276401
-0.0038244
0.0274899
-0.00344931
0.0273334
-0.00308936
0.0271743
-0.00274733
0.0270158
-0.0024252
0.0268605
-0.00212429
0.0267101
-0.00184532
0.0265662
-0.00158853
0.0264298
-0.00135374
-0.00114042
0.0263015
0.0171818
-0.00456377
0.0190916
-0.00541628
0.0209724
-0.00579255
0.0227206
-0.00613178
0.0243075
-0.0064569
0.0257108
-0.00676607
0.0269288
-0.00705434
0.02797
-0.00730817
0.0288445
-0.00751413
0.0295626
-0.00766286
0.0301342
-0.00774853
0.0305699
-0.00776815
0.0308804
-0.00772126
0.0310769
-0.00760971
0.0311709
-0.00743731
0.0311741
-0.00720949
0.0310985
-0.00693289
0.0309558
-0.006615
0.0307575
-0.00626375
0.0305148
-0.00588723
0.0302378
-0.0054933
0.0299362
-0.00508943
0.0296184
-0.00468243
0.029292
-0.00427838
0.0289634
-0.00388248
0.028638
-0.00349908
0.0283204
-0.00313167
0.0280139
-0.00278292
0.0277213
-0.00245474
0.0274444
-0.0021484
0.0271846
-0.00186457
0.0269427
-0.00160341
0.0267188
-0.00136472
0.026513
-0.00114793
-0.00095224
0.0263247
0.0305591
-0.00475179
0.0309404
-0.00579752
0.0315384
-0.00639059
0.0322118
-0.00680525
0.0328826
-0.00712769
0.0334944
-0.00737787
0.0340104
-0.00757037
0.0344126
-0.00771037
0.0346944
-0.00779591
0.0348556
-0.00782403
0.0349002
-0.00779317
0.0348354
-0.00770343
0.0346707
-0.00755654
0.0344168
-0.00735585
0.0340857
-0.00710618
0.0336897
-0.00681347
0.0332413
-0.0064845
0.0327528
-0.00612651
0.0322359
-0.0057469
0.0317016
-0.0053529
0.0311596
-0.00495138
0.0306188
-0.00454863
0.0300866
-0.00415024
0.0295692
-0.00376101
0.0290716
-0.00338495
0.0285978
-0.00302524
0.0281504
-0.00268433
0.0277314
-0.00236394
0.0273418
-0.00206518
0.026982
-0.00178863
0.0266517
-0.00153438
0.0263504
-0.00130217
0.0260771
-0.00109142
0.0258304
-0.000901317
-0.000730881
0.025609
0.0403032
-0.0046924
0.0401186
-0.00561289
0.0399756
-0.00624752
0.0398655
-0.00669522
0.0397597
-0.00702183
0.0396301
-0.0072483
0.0394501
-0.00739038
0.0392007
-0.00746102
0.0388721
-0.00746727
0.0384611
-0.00741307
0.0379699
-0.00730195
0.0374043
-0.00713784
0.0367731
-0.00692532
0.0360869
-0.00666962
0.0353574
-0.00637667
0.0345968
-0.00605287
0.0338172
-0.00570491
0.0330302
-0.0053395
0.0322465
-0.00496314
0.0314755
-0.00458194
0.0307256
-0.00420147
0.0300036
-0.00382662
0.0293149
-0.0034616
0.0286638
-0.00310987
0.028053
-0.00277419
0.0274844
-0.00245663
0.0269587
-0.00215864
0.0264758
-0.00188112
0.0260351
-0.00162449
0.0256352
-0.00138879
0.0252745
-0.0011737
0.024951
-0.000978652
0.0246624
-0.00080286
0.0244064
-0.000645395
-0.000505214
0.0241807
0.0460238
-0.00439172
0.0455369
-0.00512597
0.0449759
-0.00568645
0.0443725
-0.00609186
0.0437286
-0.00637788
0.0430417
-0.00656141
0.0423063
-0.00665501
0.0415171
-0.00667173
0.040672
-0.00662216
0.0397732
-0.00651428
0.0388263
-0.00635497
0.0378393
-0.00615083
0.0368223
-0.00590833
0.0357866
-0.00563392
0.0347439
-0.00533397
0.0337058
-0.00501474
0.0326832
-0.00468229
0.0316861
-0.00434231
0.030723
-0.00400004
0.0298012
-0.00366017
0.0289265
-0.00332676
0.0281032
-0.00300326
0.0273341
-0.00269249
0.0266208
-0.00239662
0.0259639
-0.0021173
0.0253629
-0.00185563
0.0248165
-0.00161227
0.0243229
-0.00138749
0.0238796
-0.00118122
0.0234839
-0.000993144
0.0231329
-0.000822719
0.0228235
-0.000669237
0.0225524
-0.00053187
0.0223167
-0.0004097
-0.000301753
0.0221132
0.0479551
-0.00383314
0.0472161
-0.00438691
0.0463565
-0.00482688
0.0454103
-0.00514561
0.0443917
-0.00535925
0.0433111
-0.00548075
0.0421769
-0.00552079
0.0409962
-0.00549108
0.0397769
-0.00540278
0.038528
-0.00526537
0.0372602
-0.00508707
0.0359847
-0.00487534
0.0347135
-0.00463705
0.0334581
-0.00437853
0.0322297
-0.00410557
0.0310385
-0.00382347
0.0298932
-0.00353698
0.0288013
-0.00325034
0.0277685
-0.00296725
0.0267992
-0.00269084
0.0258962
-0.00242371
0.0250609
-0.00216793
0.0242935
-0.00192509
0.0235932
-0.00169634
0.0229584
-0.00148243
0.0223865
-0.00128377
0.0218747
-0.00110048
0.0214197
-0.000932439
0.0210178
-0.00077932
0.0206653
-0.000640653
0.0203584
-0.000515843
0.0200933
-0.000404206
0.0198664
-0.000304993
0.0196741
-0.00021742
-0.00014067
0.019513
0.0462583
-0.00305262
0.0453108
-0.00343932
0.04423
-0.00374607
0.0430459
-0.00396143
0.0417791
-0.00409243
0.0404475
-0.00414918
0.0390682
-0.00414139
0.0376566
-0.00407942
0.0362273
-0.00397352
0.0347947
-0.00383272
0.0333724
-0.00366472
0.0319733
-0.00347615
0.0306091
-0.00327284
0.0292904
-0.00305978
0.0280261
-0.0028413
0.0268238
-0.00262108
0.0256891
-0.00240223
0.0246262
-0.00218739
0.0236377
-0.00197871
0.0227248
-0.00177792
0.0218875
-0.00158637
0.0211246
-0.00140506
0.0204342
-0.00123468
0.0198136
-0.00107567
0.0192594
-0.0009282
0.0187679
-0.000792292
0.0183352
-0.000667786
0.0179572
-0.000554403
0.0176296
-0.000451763
0.0173483
-0.00035941
0.0171093
-0.000276833
0.0169086
-0.00020348
0.0167423
-0.000138776
0.016607
-8.21283e-05
-3.29402e-05
0.0164992
0.0410856
-0.00212813
0.0400106
-0.00236421
0.0388092
-0.00254466
0.0375094
-0.00266161
0.0361363
-0.00271924
0.0347128
-0.00272567
0.0332607
-0.00268926
0.0317997
-0.00261839
0.0303472
-0.00252104
0.0289187
-0.00240411
0.0275273
-0.00227327
0.0261843
-0.00213312
0.0248989
-0.00198747
0.0236786
-0.0018394
0.0225287
-0.00169141
0.0214532
-0.00154549
0.0204542
-0.00140321
0.0195327
-0.00126584
0.0186883
-0.00113432
0.0179198
-0.00100937
0.0172249
-0.000891503
0.0166009
-0.000781044
0.0160444
-0.000678165
0.0155517
-0.000582911
0.0151187
-0.000495221
0.0147414
-0.000414949
0.0144155
-0.000341883
0.0141368
-0.000275757
0.0139013
-0.000216267
0.013705
-0.00016308
0.0135439
-0.000115843
0.0134146
-7.41901e-05
0.0133136
-3.77503e-05
0.0132375
-6.14591e-06
2.09936e-05
0.0131836
0.0326947
-0.00118047
0.0316228
-0.0012922
0.030449
-0.00137088
0.0292009
-0.00141345
0.027905
-0.00142334
0.0265858
-0.00140639
0.0252648
-0.00136829
0.0239608
-0.00131431
0.0226888
-0.00124907
0.0214612
-0.00117642
0.0202872
-0.00109928
0.0191741
-0.00101993
0.0181267
-0.000940077
0.0171484
-0.000861057
0.0162409
-0.000783853
0.0154046
-0.000709195
0.014639
-0.000637616
0.0139427
-0.000569499
0.0133135
-0.000505109
0.0127488
-0.000444615
0.0122454
-0.000388109
0.0118
-0.000335614
0.0114089
-0.000287107
0.0110685
-0.000242514
0.010775
-0.000201735
0.0105247
-0.000164639
0.0103139
-0.000131079
0.010139
-0.000100892
0.00999664
-7.39071e-05
0.00988347
-4.99438e-05
0.00979641
-2.88203e-05
0.00973253
-1.03513e-05
0.00968909
5.64754e-06
0.00966354
1.93594e-05
3.09674e-05
0.00965352
0.021516
-0.000387661
0.0206405
-0.000416683
0.0197034
-0.000433711
0.0187285
-0.000438531
0.0177383
-0.000433117
0.016752
-0.000420043
0.0157853
-0.000401521
0.0148503
-0.000379346
0.0139563
-0.000354967
0.0131094
-0.000329486
0.0123138
-0.000303681
0.011572
-0.000278102
0.0108851
-0.000253136
0.0102531
-0.000229059
0.00967531
-0.000206046
0.00915035
-0.000184213
0.00867637
-0.00016362
0.00825118
-0.000144302
0.00787235
-0.000126265
0.00753726
-0.000109508
0.00724316
-9.40069e-05
0.00698729
-7.97361e-05
0.00676684
-6.66543e-05
0.00657904
-5.47216e-05
0.00642119
-4.38863e-05
0.00629064
-3.41012e-05
0.00618485
-2.53102e-05
0.0061014
-1.74635e-05
0.00603798
-1.05039e-05
0.00599239
-4.38159e-06
0.00596257
9.6015e-07
0.00594661
5.57241e-06
0.00594271
9.51277e-06
0.0059492
1.28294e-05
1.55762e-05
0.00596454
0.00813443
0.00771775
0.00728404
0.00684552
0.00641241
0.00599237
0.00559085
0.00521151
0.00485655
0.00452707
0.00422339
0.00394529
0.00369216
0.0034631
0.00325706
0.00307285
0.00290923
0.00276493
0.00263867
0.00252916
0.00243515
0.00235542
0.00228876
0.00223404
0.00219015
0.00215605
0.00213074
0.00211327
0.00210277
0.00209838
0.00209934
0.0021049
0.00211441
0.00212723
0.0021428
0.00267896
-5.11909e-05
0.00272061
-4.15968e-05
0.00275382
-3.31613e-05
0.00277968
-2.58181e-05
0.00279921
-1.94885e-05
0.00281334
-1.4086e-05
0.00282289
-9.5213e-06
0.00282863
-5.70445e-06
0.0028312
-2.54885e-06
2.8809e-08
0.00283119
0.00705224
-0.000182767
0.00716149
-0.000150728
0.00725071
-0.00012227
0.00732223
-9.72316e-05
0.00737824
-7.54047e-05
0.0074208
-5.65519e-05
0.00745177
-4.04187e-05
0.00747288
-2.67443e-05
0.00748565
-1.527e-05
-5.74584e-06
0.00749147
0.0109197
-0.000372803
0.0110796
-0.00031054
0.0112122
-0.000254831
0.0113205
-0.000205434
0.0114072
-0.000162017
0.0114749
-0.000124188
0.0115261
-9.15137e-05
0.011563
-6.35415e-05
0.0115876
-3.98156e-05
-1.98885e-05
0.0116018
0.0143494
-0.000591039
0.0145347
-0.000495777
0.0146901
-0.000410097
0.0148184
-0.000333692
0.0149226
-0.000266122
0.0150053
-0.000206855
0.0150691
-0.000155296
0.0151165
-0.000110817
0.0151495
-7.27754e-05
-4.05348e-05
0.0151702
0.0173961
-0.000803187
0.017577
-0.000676589
0.0177293
-0.000562366
0.0178558
-0.000460131
0.0179591
-0.000369339
0.0180416
-0.00028933
0.0181057
-0.00021937
0.0181537
-0.000158676
0.0181874
-0.000106447
-6.18873e-05
0.0182088
0.0200801
-0.000976651
0.0202275
-0.000823878
0.020351
-0.000685885
0.0204531
-0.000562168
0.0205359
-0.000452058
0.0206013
-0.000354768
0.0206514
-0.000269434
0.020688
-0.000195141
0.0207125
-0.000130959
-7.59613e-05
0.0207266
0.0223763
-0.00108604
0.0224671
-0.000914667
0.0225412
-0.000759993
0.0226004
-0.000621358
0.0226463
-0.000497948
0.0226804
-0.000388838
0.0227041
-0.000293037
0.0227185
-0.000209519
0.0227248
-0.000137246
-7.51943e-05
0.022724
0.024218
-0.001117
0.0242393
-0.000935945
0.0242523
-0.000772945
0.0242581
-0.000627151
0.0242577
-0.000497584
0.0242521
-0.000383184
0.0242419
-0.000282845
0.0242278
-0.000195443
0.0242104
-0.000119859
-5.50021e-05
0.0241902
0.0255158
-0.00106765
0.025466
-0.000886246
0.0254167
-0.000723584
0.0253681
-0.000578622
0.0253208
-0.000450234
0.0252748
-0.000337239
0.0252304
-0.000238439
0.0251876
-0.000152641
0.0251464
-7.86772e-05
-1.54203e-05
0.0251068
0.0261817
-0.000947825
0.0260704
-0.000774979
0.0259675
-0.00062079
0.0258729
-0.000484072
0.0257863
-0.000363586
0.0257071
-0.000258079
0.0256349
-0.000166302
0.0255693
-8.70339e-05
0.0255097
-1.90948e-05
3.86402e-05
0.0254556
0.0261535
-0.000776662
0.0259986
-0.000620066
0.025859
-0.000481237
0.0257338
-0.000358914
0.025622
-0.000251817
0.0255225
-0.000158676
0.0254344
-7.8248e-05
0.0253567
-9.33601e-06
0.0252884
4.92027e-05
9.84445e-05
0.0252285
0.0254113
-0.000578995
0.0252357
-0.000444468
0.0250804
-0.00032606
0.024944
-0.000222521
0.0248247
-0.000132607
0.0247211
-5.5101e-05
0.0246316
1.1168e-05
0.0245549
6.7316e-05
0.0244897
0.000114395
0.000153392
0.0244347
0.0239828
-0.000381204
0.0238105
-0.000272215
0.0236615
-0.000177081
0.0235336
-9.46456e-05
0.0234247
-2.37767e-05
0.0233329
3.66169e-05
0.0232565
8.75727e-05
0.0231936
0.000130075
0.0231429
0.00016505
0.000193359
0.0231029
0.021939
-0.000207024
0.0217912
-0.000124498
0.0216672
-5.31613e-05
0.0215646
7.97509e-06
0.0214809
5.98646e-05
0.021414
0.000103417
0.021362
0.000139503
0.0213231
0.000168942
0.0212956
0.000192501
0.000210885
0.021278
0.0193798
-7.39273e-05
0.0192716
-1.63719e-05
0.0191856
3.27928e-05
0.0191192
7.43391e-05
0.01907
0.000109011
0.0190359
0.000137524
0.0190148
0.000160548
0.0190049
0.000178717
0.0190048
0.000192616
0.000202791
0.0190128
0.0164159
9.38393e-06
0.016354
4.54241e-05
0.016311
7.57472e-05
0.0162844
0.000100905
0.016272
0.000121425
0.0162716
0.000137808
0.0162816
0.000150528
0.0163002
0.000160026
0.0163261
0.000166713
0.000170969
0.0163579
0.0131489
4.40366e-05
0.0131309
6.33429e-05
0.0131273
7.92665e-05
0.013136
9.2142e-05
0.0131551
0.000102297
0.0131828
0.000110034
0.0132177
0.000115646
0.0132583
0.0001194
0.0133034
0.000121551
0.000122324
0.013352
0.00965685
4.06503e-05
0.00967156
4.8584e-05
0.00969583
5.49378e-05
0.00972804
5.98765e-05
0.00976674
6.35553e-05
0.0098106
6.61246e-05
0.00985848
6.77226e-05
0.00990936
6.84824e-05
0.00996235
6.8523e-05
6.79588e-05
0.0100167
0.00598735
1.77999e-05
0.00601634
1.95531e-05
0.00605035
2.08807e-05
0.00608835
2.18318e-05
0.00612942
2.24478e-05
0.00617273
2.27736e-05
0.00621757
2.28459e-05
0.00626332
2.27046e-05
0.00630944
2.2381e-05
2.19095e-05
0.00635547
0.0021606
0.00218015
0.00220102
0.00222285
0.00224529
0.00226806
0.0022909
0.0023136
0.00233598
0.00235789
0.0028291
2.10342e-06
0.00282537
3.74429e-06
0.00282035
5.01508e-06
0.00281438
5.97352e-06
0.0028077
6.66963e-06
0.00280054
7.14822e-06
0.00279308
7.44718e-06
0.00278546
7.60011e-06
0.0027778
7.63464e-06
0.0027702
7.57511e-06
0.00276272
7.44092e-06
0.00275544
7.24915e-06
0.00274839
7.01292e-06
0.00274161
6.74388e-06
0.00273512
6.45056e-06
0.00272894
6.14067e-06
0.00272308
5.81956e-06
0.00271755
5.49222e-06
0.00271235
5.1619e-06
0.00270748
4.8318e-06
0.00270294
4.50387e-06
0.00269872
4.1802e-06
0.00269483
3.862e-06
0.00269125
3.55072e-06
0.00268797
3.24723e-06
0.00268499
2.95261e-06
0.0026823
2.66758e-06
0.00267989
2.39308e-06
0.00267774
2.12977e-06
0.00267585
1.87854e-06
0.0026742
1.64001e-06
0.00267278
1.41503e-06
0.00267156
1.20418e-06
0.00267055
1.00825e-06
8.27717e-07
0.00266972
0.00749154
2.06536e-06
0.00748692
8.38397e-06
0.00747853
1.34119e-05
0.00746717
1.73324e-05
0.00745351
2.03108e-05
0.00743814
2.24938e-05
0.00742154
2.40108e-05
0.00740412
2.49744e-05
0.00738622
2.54823e-05
0.00736812
2.56178e-05
0.00735003
2.5452e-05
0.00733216
2.50448e-05
0.00731465
2.44464e-05
0.00729761
2.36986e-05
0.00728113
2.28358e-05
0.0072653
2.18865e-05
0.00725015
2.08738e-05
0.00723574
1.98166e-05
0.00722208
1.87301e-05
0.0072092
1.7627e-05
0.0071971
1.65172e-05
0.00718579
1.54094e-05
0.00717527
1.43103e-05
0.00716552
1.32259e-05
0.00715654
1.21613e-05
0.00714831
1.1121e-05
0.00714082
1.0109e-05
0.00713404
9.12914e-06
0.00712794
8.18477e-06
0.00712251
7.2794e-06
0.0071177
6.41593e-06
0.0071135
5.59756e-06
0.00710986
4.82689e-06
0.00710675
4.10676e-06
3.43941e-06
0.00710413
0.0116072
-3.32994e-06
0.0116053
1.02657e-05
0.0115975
2.12736e-05
0.0115848
3.00388e-05
0.0115682
3.68748e-05
0.0115486
4.20639e-05
0.0115268
4.58568e-05
0.0115033
4.84745e-05
0.0114786
5.01098e-05
0.0114532
5.09302e-05
0.0114276
5.10792e-05
0.0114019
5.06797e-05
0.0113764
4.98355e-05
0.0113514
4.86345e-05
0.011327
4.71502e-05
0.0113034
4.5444e-05
0.0112806
4.35668e-05
0.0112588
4.1561e-05
0.011238
3.94617e-05
0.0112183
3.72979e-05
0.0111996
3.50939e-05
0.0111821
3.28702e-05
0.0111657
3.0644e-05
0.0111504
2.84304e-05
0.0111363
2.62422e-05
0.0111233
2.4091e-05
0.0111113
2.19873e-05
0.0111005
1.99405e-05
0.0110907
1.79595e-05
0.0110819
1.60524e-05
0.011074
1.4227e-05
0.0110671
1.24903e-05
0.0110611
1.08489e-05
0.0110558
9.30916e-06
7.87646e-06
0.0110514
0.0151804
-1.34774e-05
0.0151817
8.9854e-06
0.0151756
2.74041e-05
0.0151633
4.22881e-05
0.0151461
5.41054e-05
0.0151249
6.32801e-05
0.0151006
7.01927e-05
0.0150739
7.51809e-05
0.0150454
7.85427e-05
0.0150158
8.05382e-05
0.0149854
8.13936e-05
0.0149548
8.13033e-05
0.0149241
8.04345e-05
0.0148938
7.8929e-05
0.014864
7.69077e-05
0.0148349
7.44721e-05
0.0148067
7.17081e-05
0.0147795
6.86878e-05
0.0147534
6.54718e-05
0.0147285
6.21113e-05
0.0147049
5.86495e-05
0.0146826
5.51234e-05
0.0146616
5.15648e-05
0.014642
4.80013e-05
0.0146237
4.44573e-05
0.0146068
4.09544e-05
0.0145912
3.75125e-05
0.014577
3.41492e-05
0.014564
3.08812e-05
0.0145523
2.77238e-05
0.0145418
2.46909e-05
0.0145325
2.17958e-05
0.0145243
1.90505e-05
0.0145171
1.6466e-05
1.40522e-05
0.0145109
0.0182195
-2.4217e-05
0.0182213
7.30946e-06
0.0182153
3.33952e-05
0.0182029
5.46955e-05
0.0181852
7.1815e-05
0.0181632
8.53052e-05
0.0181377
9.56639e-05
0.0181096
0.000103337
0.0180794
0.000108719
0.0180477
0.000112158
0.0180152
0.000113959
0.017982
0.000114387
0.0179488
0.00011367
0.0179157
0.000112005
0.017883
0.00010956
0.0178509
0.000106477
0.0178197
0.000102881
0.0177895
9.88729e-05
0.0177603
9.45426e-05
0.0177324
8.99651e-05
0.0177058
8.52047e-05
0.0176806
8.03173e-05
0.0176567
7.53512e-05
0.0176343
7.0349e-05
0.0176134
6.53483e-05
0.0175939
6.0383e-05
0.0175759
5.54839e-05
0.0175593
5.0679e-05
0.0175442
4.59941e-05
0.0175304
4.1453e-05
0.017518
3.70778e-05
0.0175069
3.28886e-05
0.017497
2.89041e-05
0.0174883
2.51411e-05
2.16151e-05
0.0174807
0.0207317
-2.92445e-05
0.020729
1.00594e-05
0.0207196
4.27713e-05
0.0207047
6.96599e-05
0.020685
9.14353e-05
0.0206616
0.000108747
0.0206351
0.000122185
0.0206062
0.000132279
0.0205754
0.000139502
0.0205432
0.000144272
0.0205102
0.000146957
0.0204767
0.00014788
0.020443
0.000147321
0.0204095
0.000145523
0.0203763
0.000142693
0.0203438
0.000139013
0.020312
0.000134636
0.0202811
0.000129693
0.0202513
0.0001243
0.0202227
0.000118553
0.0201953
0.000112536
0.0201692
0.000106324
0.0201446
9.99805e-05
0.0201213
9.35632e-05
0.0200995
8.7123e-05
0.0200791
8.07061e-05
0.0200602
7.43545e-05
0.0200427
6.81067e-05
0.0200267
6.19981e-05
0.0200121
5.60616e-05
0.0199988
5.03273e-05
0.0199868
4.48231e-05
0.0199761
3.95746e-05
0.0199667
3.46049e-05
2.9935e-05
0.0199583
0.0227172
-2.23694e-05
0.0227051
2.21813e-05
0.0226885
5.93593e-05
0.0226682
9.00077e-05
0.0226447
0.000114905
0.0226187
0.000134765
0.0225907
0.000150235
0.022561
0.0001619
0.0225303
0.000170282
0.0224987
0.000175846
0.0224666
0.000179003
0.0224344
0.000180112
0.0224022
0.000179489
0.0223703
0.000177407
0.0223388
0.000174103
0.022308
0.000169783
0.022278
0.000164622
0.0222489
0.000158775
0.0222208
0.000152373
0.0221938
0.000145529
0.0221679
0.000138345
0.0221433
0.000130908
0.02212
0.000123295
0.0220979
0.000115575
0.0220772
0.00010781
0.0220578
0.000100057
0.0220398
9.23676e-05
0.0220231
8.47894e-05
0.0220077
7.73663e-05
0.0219936
7.01392e-05
0.0219807
6.31457e-05
0.0219691
5.64206e-05
0.0219587
4.99958e-05
0.0219494
4.39002e-05
3.81599e-05
0.0219411
0.0241677
1.79507e-07
0.0241432
4.6689e-05
0.0241171
8.54709e-05
0.0240897
0.000117404
0.0240613
0.000143298
0.0240322
0.000163896
0.0240026
0.000179869
0.0239726
0.000191827
0.0239426
0.000200311
0.0239126
0.000205807
0.0238829
0.000208742
0.0238535
0.000209493
0.0238246
0.000208388
0.0237963
0.000205716
0.0237686
0.000201726
0.0237418
0.000196634
0.0237157
0.000190629
0.0236906
0.000183871
0.0236665
0.000176503
0.0236433
0.000168648
0.0236212
0.000160414
0.0236002
0.000151895
0.0235803
0.000143177
0.0235615
0.000134336
0.0235439
0.000125441
0.0235274
0.000116555
0.023512
0.000107737
0.0234977
9.90396e-05
0.0234845
9.0514e-05
0.0234724
8.22062e-05
0.0234614
7.41595e-05
0.0234514
6.64137e-05
0.0234424
5.90055e-05
0.0234343
5.19682e-05
4.53319e-05
0.0234271
0.0250688
3.82065e-05
0.0250322
8.32207e-05
0.0249971
0.000120572
0.0249634
0.000151139
0.024931
0.000175732
0.0248998
0.000195087
0.0248698
0.000209875
0.0248409
0.000220695
0.0248131
0.000228085
0.0247864
0.000232524
0.0247607
0.000234434
0.024736
0.000234186
0.0247123
0.000232104
0.0246895
0.000228472
0.0246677
0.000223537
0.0246468
0.000217511
0.0246269
0.00021058
0.0246078
0.000202905
0.0245897
0.000194627
0.0245725
0.000185867
0.0245561
0.000176733
0.0245407
0.000167322
0.0245261
0.000157718
0.0245125
0.000148
0.0244997
0.000138239
0.0244877
0.000128499
0.0244766
0.000118841
0.0244663
0.000109321
0.0244568
9.99917e-05
0.0244481
9.09025e-05
0.0244402
8.20989e-05
0.0244329
7.36234e-05
0.0244264
6.5515e-05
0.0244206
5.78095e-05
5.05389e-05
0.0244154
0.0254066
8.72337e-05
0.0253621
0.000127679
0.0253218
0.000160898
0.0252851
0.000187741
0.0252519
0.000208985
0.0252216
0.000225337
0.0251941
0.000237432
0.0251689
0.000245843
0.0251459
0.000251077
0.0251249
0.000253586
0.0251055
0.000253766
0.0250878