/*--------------------------------*- C++ -*----------------------------------*\
| =========                 |                                                 |
| \\      /  F ield         | OpenFOAM: The Open Source CFD Toolbox           |
|  \\    /   O peration     | Version:  2406                                  |
|   \\  /    A nd           | Website:  www.openfoam.com                      |
|    \\/     M anipulation  |                                                 |
\*---------------------------------------------------------------------------*/
FoamFile
{
    version     2.0;
    format      ascii;
    arch        "LSB;label=32;scalar=64";
    class       volVectorField;
    location    "38";
    object      U;
}
// * * * * * * * * * * * * * * * * * * * * * * * * * * * * * * * * * * * * * //

dimensions      [0 1 -1 0 0 0 0];

internalField   nonuniform List<vector> 
1900
(
(0.0950858 -0.00132522 0)
(0.0988997 -0.00143553 0)
(0.102021 -0.00103375 0)
(0.104584 -0.000904988 0)
(0.107278 -0.000986432 0)
(0.110469 -0.00121749 0)
(0.114503 -0.00168988 0)
(0.11998 -0.00266689 0)
(0.128695 -0.00558323 0)
(0.139584 -0.0192895 0)
(0.252541 -0.00240418 0)
(0.254177 -0.00422902 0)
(0.256716 -0.00441446 0)
(0.259389 -0.00459613 0)
(0.262844 -0.00521643 0)
(0.267328 -0.00635212 0)
(0.272993 -0.00824998 0)
(0.280177 -0.0114448 0)
(0.289457 -0.0170267 0)
(0.299058 -0.0284968 0)
(0.37295 -0.00184422 0)
(0.373893 -0.00429135 0)
(0.37528 -0.00575798 0)
(0.376659 -0.00708842 0)
(0.378895 -0.00873849 0)
(0.382191 -0.0109311 0)
(0.38643 -0.0139897 0)
(0.39151 -0.0184407 0)
(0.397212 -0.025057 0)
(0.402277 -0.0351644 0)
(0.453216 -0.00150016 0)
(0.453959 -0.0040852 0)
(0.454727 -0.00623286 0)
(0.454999 -0.00833623 0)
(0.455711 -0.0107357 0)
(0.457112 -0.0136578 0)
(0.458984 -0.0173713 0)
(0.461046 -0.0222302 0)
(0.462919 -0.028603 0)
(0.463799 -0.036777 0)
(0.4933 -0.00127324 0)
(0.493829 -0.00368538 0)
(0.494088 -0.00599317 0)
(0.493441 -0.0083865 0)
(0.492787 -0.0110654 0)
(0.492385 -0.0142028 0)
(0.49198 -0.0179846 0)
(0.491256 -0.0226026 0)
(0.489865 -0.0281883 0)
(0.487289 -0.0347154 0)
(0.493269 -0.000963787 0)
(0.493541 -0.00292598 0)
(0.493269 -0.00504677 0)
(0.491791 -0.00736578 0)
(0.489987 -0.00993365 0)
(0.488092 -0.0128603 0)
(0.485828 -0.0162637 0)
(0.482888 -0.0202263 0)
(0.478988 -0.0247611 0)
(0.47379 -0.0297578 0)
(0.453126 -0.000470221 0)
(0.453121 -0.00173196 0)
(0.45235 -0.00345871 0)
(0.450221 -0.00546054 0)
(0.447613 -0.00763975 0)
(0.444696 -0.0100601 0)
(0.441165 -0.0127893 0)
(0.436737 -0.0158409 0)
(0.43119 -0.0191758 0)
(0.424301 -0.0226815 0)
(0.372812 0.000373784 0)
(0.372609 -2.9928e-05 0)
(0.371659 -0.00138886 0)
(0.369408 -0.00301685 0)
(0.366644 -0.00467745 0)
(0.363419 -0.00642846 0)
(0.359422 -0.00831234 0)
(0.354418 -0.0103133 0)
(0.348257 -0.0123898 0)
(0.340816 -0.0144684 0)
(0.25239 0.0015549 0)
(0.252741 0.00179254 0)
(0.252665 0.000481702 0)
(0.251323 -0.000856503 0)
(0.2493 -0.00195096 0)
(0.246639 -0.00294634 0)
(0.243146 -0.00391439 0)
(0.238706 -0.00485926 0)
(0.233269 -0.00577259 0)
(0.226812 -0.00663168 0)
(0.0949796 0.00109292 0)
(0.0979511 0.000886624 0)
(0.0993526 0.000252687 0)
(0.0993418 -9.98055e-05 0)
(0.098597 -0.000297343 0)
(0.0973154 -0.000461288 0)
(0.095501 -0.000607232 0)
(0.0931676 -0.000729742 0)
(0.090345 -0.000831898 0)
(0.0870632 -0.000916788 0)
(-0.000137679 0.000131655 0)
(-0.00143621 0.000445389 0)
(-0.00363753 0.000612049 0)
(-0.00620341 0.000640138 0)
(-0.00868483 0.000600986 0)
(-0.0108686 0.000529971 0)
(-0.0126582 0.000443654 0)
(-0.0140085 0.000349319 0)
(-0.0149002 0.000250187 0)
(-0.0153287 0.000148263 0)
(-0.0152998 4.56315e-05 0)
(-0.0148291 -5.52462e-05 0)
(-0.0139417 -0.000151675 0)
(-0.0126715 -0.000241058 0)
(-0.0110606 -0.000321045 0)
(-0.00915745 -0.000389718 0)
(-0.00701511 -0.000445674 0)
(-0.00468912 -0.000488067 0)
(-0.00223535 -0.000516609 0)
(0.00029195 -0.000531386 0)
(0.00284196 -0.000533146 0)
(0.00536843 -0.000523578 0)
(0.00783072 -0.000504534 0)
(0.0101946 -0.000477863 0)
(0.0124327 -0.000445402 0)
(0.0145244 -0.000408942 0)
(0.0164553 -0.000370119 0)
(0.018217 -0.000330384 0)
(0.0198062 -0.000290951 0)
(0.021224 -0.000252809 0)
(0.0224752 -0.000216699 0)
(0.0235674 -0.000183162 0)
(0.0245102 -0.000152531 0)
(0.0253146 -0.000124988 0)
(0.0259927 -0.000100571 0)
(-0.000522877 0.00148511 0)
(-0.00388117 0.00359767 0)
(-0.00875426 0.00465082 0)
(-0.0141217 0.00480317 0)
(-0.0191452 0.00441547 0)
(-0.0234119 0.00374468 0)
(-0.0267258 0.00293647 0)
(-0.0290018 0.0020672 0)
(-0.0302178 0.00117776 0)
(-0.030389 0.000293521 0)
(-0.029556 -0.000565644 0)
(-0.0277791 -0.00138176 0)
(-0.0251348 -0.00213777 0)
(-0.0217138 -0.00281857 0)
(-0.0176179 -0.00341161 0)
(-0.0129569 -0.0039074 0)
(-0.00784477 -0.00430021 0)
(-0.0023968 -0.00458806 0)
(0.00327423 -0.00477222 0)
(0.00906073 -0.00485753 0)
(0.0148633 -0.00485177 0)
(0.0205918 -0.00476512 0)
(0.0261678 -0.00460913 0)
(0.0315253 -0.00439603 0)
(0.0366107 -0.00413824 0)
(0.0413831 -0.00384781 0)
(0.0458133 -0.00353604 0)
(0.0498829 -0.00321309 0)
(0.0535838 -0.00288784 0)
(0.0569162 -0.00256775 0)
(0.0598873 -0.00225883 0)
(0.0625105 -0.0019657 0)
(0.0648034 -0.00169171 0)
(0.0667871 -0.00143903 0)
(0.0684847 -0.00120888 0)
(-0.000814185 0.00405896 0)
(-0.00558293 0.00870591 0)
(-0.0119174 0.0106975 0)
(-0.0184954 0.0107395 0)
(-0.0243216 0.00961616 0)
(-0.0289505 0.00787565 0)
(-0.03219 0.00584334 0)
(-0.0339797 0.00370003 0)
(-0.0343359 0.00154727 0)
(-0.0333205 -0.000551989 0)
(-0.0310248 -0.00255284 0)
(-0.0275592 -0.0044173 0)
(-0.0230494 -0.00611302 0)
(-0.0176312 -0.00761318 0)
(-0.011447 -0.00889727 0)
(-0.00464259 -0.00995159 0)
(0.00263672 -0.0107693 0)
(0.0102488 -0.0113512 0)
(0.0180589 -0.0117045 0)
(0.0259412 -0.0118426 0)
(0.033781 -0.0117843 0)
(0.0414763 -0.0115516 0)
(0.048939 -0.0111692 0)
(0.0560954 -0.0106631 0)
(0.0628861 -0.0100596 0)
(0.0692658 -0.00938397 0)
(0.075202 -0.00866009 0)
(0.0806749 -0.00790963 0)
(0.0856752 -0.00715165 0)
(0.0902032 -0.00640241 0)
(0.0942675 -0.00567527 0)
(0.0978833 -0.00498079 0)
(0.101071 -0.00432687 0)
(0.103855 -0.00371898 0)
(0.106263 -0.0031605 0)
(-0.000990152 0.00742057 0)
(-0.00641802 0.0148802 0)
(-0.0130291 0.0175326 0)
(-0.0193412 0.0170225 0)
(-0.0243827 0.0147073 0)
(-0.0278147 0.0114748 0)
(-0.0295472 0.00784687 0)
(-0.0296068 0.00411535 0)
(-0.028084 0.000443866 0)
(-0.0251036 -0.0030698 0)
(-0.0208107 -0.00635775 0)
(-0.0153612 -0.00936719 0)
(-0.0089175 -0.0120567 0)
(-0.00164402 -0.0143945 0)
(0.00629571 -0.0163584 0)
(0.0147419 -0.0179365 0)
(0.0235423 -0.0191268 0)
(0.0325529 -0.0199374 0)
(0.0416409 -0.0203856 0)
(0.0506856 -0.0204968 0)
(0.0595801 -0.0203025 0)
(0.0682314 -0.0198392 0)
(0.0765615 -0.0191461 0)
(0.0845063 -0.018264 0)
(0.0920161 -0.0172333 0)
(0.0990541 -0.016093 0)
(0.105596 -0.0148795 0)
(0.111627 -0.0136259 0)
(0.117145 -0.0123613 0)
(0.122152 -0.0111107 0)
(0.126662 -0.0098948 0)
(0.130691 -0.00873015 0)
(0.134261 -0.00762932 0)
(0.137399 -0.00660128 0)
(0.14013 -0.0056518 0)
(-0.00110163 0.0110838 0)
(-0.00647403 0.0210415 0)
(-0.0121066 0.0236984 0)
(-0.0166136 0.0220148 0)
(-0.0192905 0.0180424 0)
(-0.0200498 0.0130105 0)
(-0.0189834 0.00760952 0)
(-0.0162456 0.00221375 0)
(-0.0120144 -0.00297587 0)
(-0.00647497 -0.00784496 0)
(0.00018555 -0.0123154 0)
(0.00778161 -0.0163316 0)
(0.0161332 -0.0198532 0)
(0.0250686 -0.0228522 0)
(0.0344248 -0.0253128 0)
(0.0440492 -0.0272312 0)
(0.0538013 -0.0286162 0)
(0.0635539 -0.0294877 0)
(0.0731936 -0.0298763 0)
(0.0826216 -0.0298215 0)
(0.091754 -0.0293695 0)
(0.100521 -0.0285714 0)
(0.108868 -0.0274811 0)
(0.116752 -0.0261529 0)
(0.124143 -0.0246402 0)
(0.131024 -0.0229939 0)
(0.137383 -0.0212609 0)
(0.143222 -0.0194837 0)
(0.148547 -0.0176995 0)
(0.15337 -0.0159401 0)
(0.15771 -0.0142318 0)
(0.161586 -0.0125956 0)
(0.165025 -0.0110476 0)
(0.168052 -0.00959926 0)
(0.170694 -0.00825805 0)
(-0.00116988 0.0147075 0)
(-0.00574082 0.0261573 0)
(-0.00891417 0.0277179 0)
(-0.00987254 0.0241102 0)
(-0.00853701 0.0180978 0)
(-0.00521642 0.0111519 0)
(-0.000226941 0.00404076 0)
(0.00614814 -0.0028461 0)
(0.0136657 -0.00931576 0)
(0.0221027 -0.0152577 0)
(0.0312584 -0.0206033 0)
(0.0409481 -0.0253075 0)
(0.0510024 -0.029341 0)
(0.0612662 -0.0326879 0)
(0.0715992 -0.0353453 0)
(0.081876 -0.0373234 0)
(0.0919864 -0.0386452 0)
(0.101835 -0.0393459 0)
(0.111343 -0.0394715 0)
(0.120445 -0.0390764 0)
(0.12909 -0.0382218 0)
(0.137243 -0.0369728 0)
(0.144878 -0.0353961 0)
(0.151983 -0.0335581 0)
(0.158553 -0.0315226 0)
(0.164592 -0.0293495 0)
(0.170112 -0.0270936 0)
(0.175128 -0.0248037 0)
(0.179662 -0.0225223 0)
(0.183735 -0.0202852 0)
(0.187375 -0.0181218 0)
(0.190607 -0.0160552 0)
(0.193458 -0.0141031 0)
(0.195956 -0.0122778 0)
(0.198128 -0.010587 0)
(-0.00115078 0.0181357 0)
(-0.00373242 0.0290287 0)
(-0.00236569 0.0278147 0)
(0.00235245 0.0215346 0)
(0.00940716 0.0133701 0)
(0.0180354 0.00472979 0)
(0.0277495 -0.00370973 0)
(0.0382236 -0.0116317 0)
(0.0491955 -0.0188869 0)
(0.0604647 -0.0254006 0)
(0.0718655 -0.0311304 0)
(0.0832544 -0.0360519 0)
(0.0945059 -0.0401537 0)
(0.10551 -0.0434371 0)
(0.116174 -0.0459154 0)
(0.126418 -0.0476152 0)
(0.136179 -0.0485755 0)
(0.145407 -0.048847 0)
(0.154067 -0.0484908 0)
(0.162138 -0.0475756 0)
(0.169609 -0.0461758 0)
(0.176481 -0.0443682 0)
(0.182765 -0.0422301 0)
(0.188479 -0.0398366 0)
(0.193645 -0.0372587 0)
(0.198293 -0.0345622 0)
(0.202452 -0.031806 0)
(0.206157 -0.0290422 0)
(0.20944 -0.0263149 0)
(0.212335 -0.023661 0)
(0.214874 -0.0211101 0)
(0.217088 -0.0186852 0)
(0.219008 -0.0164031 0)
(0.22066 -0.014275 0)
(0.222071 -0.0123075 0)
(-0.000812206 0.0209346 0)
(0.00145493 0.0275184 0)
(0.0106878 0.0215148 0)
(0.0236176 0.0123176 0)
(0.0378282 0.00250069 0)
(0.0523986 -0.00710039 0)
(0.0669541 -0.0160701 0)
(0.0812517 -0.0242252 0)
(0.0951427 -0.0315042 0)
(0.108535 -0.0378864 0)
(0.12136 -0.0433611 0)
(0.13356 -0.0479238 0)
(0.145088 -0.0515797 0)
(0.155903 -0.0543444 0)
(0.165976 -0.0562459 0)
(0.175292 -0.0573247 0)
(0.183842 -0.0576336 0)
(0.191632 -0.0572365 0)
(0.198676 -0.0562068 0)
(0.205 -0.0546242 0)
(0.210634 -0.0525729 0)
(0.215619 -0.0501378 0)
(0.219997 -0.0474025 0)
(0.223815 -0.044447 0)
(0.227121 -0.0413455 0)
(0.229965 -0.0381655 0)
(0.232393 -0.0349665 0)
(0.234451 -0.0317997 0)
(0.236182 -0.0287082 0)
(0.237627 -0.0257267 0)
(0.23882 -0.0228825 0)
(0.239795 -0.0201958 0)
(0.240582 -0.0176807 0)
(0.241206 -0.0153456 0)
(0.241688 -0.0131946 0)
(0.00330616 0.0171028 0)
(0.016619 0.0157602 0)
(0.0380243 0.00509453 0)
(0.0609353 -0.00554745 0)
(0.0822821 -0.0153226 0)
(0.101834 -0.0243297 0)
(0.119833 -0.0324998 0)
(0.1364 -0.0397715 0)
(0.151614 -0.0461357 0)
(0.165553 -0.0515921 0)
(0.178284 -0.0561358 0)
(0.189856 -0.0597644 0)
(0.200306 -0.0624854 0)
(0.209673 -0.0643198 0)
(0.217998 -0.0653023 0)
(0.225324 -0.0654815 0)
(0.231704 -0.0649188 0)
(0.237194 -0.0636865 0)
(0.241856 -0.0618653 0)
(0.245757 -0.0595415 0)
(0.248966 -0.0568036 0)
(0.251555 -0.0537399 0)
(0.253593 -0.0504357 0)
(0.25515 -0.0469707 0)
(0.256292 -0.0434181 0)
(0.257081 -0.0398427 0)
(0.257573 -0.0363008 0)
(0.25782 -0.0328397 0)
(0.257869 -0.0294978 0)
(0.25776 -0.0263055 0)
(0.257528 -0.0232853 0)
(0.257202 -0.0204529 0)
(0.256809 -0.0178183 0)
(0.256367 -0.0153859 0)
(0.255895 -0.0131562 0)
(0.0362382 -0.0079534 0)
(0.0653124 -0.0163582 0)
(0.0963394 -0.0245201 0)
(0.124833 -0.0317276 0)
(0.148756 -0.03836 0)
(0.169153 -0.0446978 0)
(0.187016 -0.0506305 0)
(0.202768 -0.0559829 0)
(0.216629 -0.0606445 0)
(0.228778 -0.0645503 0)
(0.239362 -0.0676569 0)
(0.248496 -0.0699395 0)
(0.256281 -0.0713938 0)
(0.262807 -0.0720357 0)
(0.268167 -0.0718994 0)
(0.272452 -0.0710359 0)
(0.275759 -0.0695097 0)
(0.278184 -0.0673963 0)
(0.279825 -0.0647786 0)
(0.28078 -0.0617439 0)
(0.281144 -0.0583805 0)
(0.28101 -0.0547745 0)
(0.280464 -0.0510076 0)
(0.279588 -0.0471551 0)
(0.278454 -0.0432843 0)
(0.277128 -0.0394538 0)
(0.275668 -0.0357131 0)
(0.274124 -0.0321024 0)
(0.272538 -0.0286537 0)
(0.270943 -0.0253905 0)
(0.269369 -0.0223295 0)
(0.267837 -0.0194809 0)
(0.266363 -0.0168494 0)
(0.26496 -0.0144352 0)
(0.263635 -0.0122351 0)
(0.169873 -0.0451257 0)
(0.183351 -0.0503879 0)
(0.199719 -0.0527053 0)
(0.218441 -0.0555926 0)
(0.23562 -0.0589657 0)
(0.250575 -0.0625463 0)
(0.263625 -0.066085 0)
(0.274909 -0.069339 0)
(0.284479 -0.0721236 0)
(0.292421 -0.074319 0)
(0.298842 -0.0758515 0)
(0.303852 -0.076681 0)
(0.307556 -0.0767953 0)
(0.310062 -0.0762076 0)
(0.311485 -0.0749521 0)
(0.31194 -0.0730806 0)
(0.311547 -0.0706586 0)
(0.310425 -0.0677614 0)
(0.308691 -0.0644705 0)
(0.306458 -0.0608698 0)
(0.303834 -0.0570426 0)
(0.300918 -0.0530684 0)
(0.297801 -0.0490211 0)
(0.294562 -0.0449671 0)
(0.291272 -0.0409647 0)
(0.287991 -0.0370628 0)
(0.284766 -0.0333017 0)
(0.281637 -0.029713 0)
(0.278636 -0.0263201 0)
(0.275785 -0.0231394 0)
(0.2731 -0.0201807 0)
(0.27059 -0.0174484 0)
(0.268261 -0.0149425 0)
(0.266114 -0.012659 0)
(0.264144 -0.0105911 0)
(0.306232 -0.046661 0)
(0.308161 -0.0576365 0)
(0.311866 -0.0632561 0)
(0.318419 -0.0670576 0)
(0.325568 -0.0701463 0)
(0.332117 -0.0727565 0)
(0.337782 -0.0749762 0)
(0.342401 -0.0767885 0)
(0.34584 -0.0781194 0)
(0.348054 -0.078899 0)
(0.349067 -0.0790825 0)
(0.348944 -0.0786497 0)
(0.347771 -0.0776034 0)
(0.345649 -0.075967 0)
(0.342693 -0.0737821 0)
(0.339025 -0.0711047 0)
(0.334771 -0.068002 0)
(0.330056 -0.0645478 0)
(0.325 -0.0608195 0)
(0.319717 -0.0568943 0)
(0.314312 -0.0528469 0)
(0.308877 -0.0487465 0)
(0.303495 -0.044656 0)
(0.298233 -0.0406299 0)
(0.293147 -0.0367149 0)
(0.288282 -0.0329486 0)
(0.28367 -0.0293608 0)
(0.279335 -0.0259733 0)
(0.27529 -0.0228013 0)
(0.271543 -0.0198536 0)
(0.268094 -0.0171337 0)
(0.264939 -0.0146411 0)
(0.262069 -0.0123712 0)
(0.259472 -0.0103171 0)
(0.257136 -0.00846948 0)
(0.404306 -0.0478766 0)
(0.402725 -0.0577954 0)
(0.400438 -0.0643035 0)
(0.399051 -0.06887 0)
(0.398137 -0.0722461 0)
(0.397066 -0.074677 0)
(0.395556 -0.0763356 0)
(0.393438 -0.0773381 0)
(0.39057 -0.0777297 0)
(0.386877 -0.0775242 0)
(0.382355 -0.0767345 0)
(0.377051 -0.0753824 0)
(0.371041 -0.0735004 0)
(0.364426 -0.0711324 0)
(0.357316 -0.0683327 0)
(0.349835 -0.065164 0)
(0.342103 -0.0616946 0)
(0.334242 -0.0579952 0)
(0.326362 -0.0541362 0)
(0.318566 -0.0501853 0)
(0.310942 -0.0462052 0)
(0.303567 -0.0422524 0)
(0.296502 -0.0383762 0)
(0.289794 -0.0346179 0)
(0.283479 -0.0310114 0)
(0.277579 -0.0275827 0)
(0.272106 -0.024351 0)
(0.267065 -0.0213291 0)
(0.26245 -0.0185244 0)
(0.258251 -0.0159392 0)
(0.254453 -0.0135723 0)
(0.251037 -0.011419 0)
(0.247982 -0.00947212 0)
(0.245265 -0.00772261 0)
(0.242862 -0.00615999 0)
(0.462421 -0.0460639 0)
(0.458371 -0.0542328 0)
(0.452804 -0.0603507 0)
(0.446818 -0.0647996 0)
(0.440597 -0.0679948 0)
(0.433978 -0.0701278 0)
(0.426875 -0.0713449 0)
(0.419255 -0.0717814 0)
(0.411085 -0.0715349 0)
(0.402359 -0.0706739 0)
(0.393113 -0.0692565 0)
(0.383419 -0.0673397 0)
(0.373371 -0.0649827 0)
(0.363078 -0.0622468 0)
(0.352657 -0.0591961 0)
(0.342224 -0.0558963 0)
(0.331894 -0.0524126 0)
(0.321771 -0.0488086 0)
(0.31195 -0.045144 0)
(0.302509 -0.0414734 0)
(0.293514 -0.0378453 0)
(0.285015 -0.0343018 0)
(0.277047 -0.0308776 0)
(0.269633 -0.0276007 0)
(0.262782 -0.0244927 0)
(0.256495 -0.0215688 0)
(0.250762 -0.0188393 0)
(0.245568 -0.0163092 0)
(0.240889 -0.01398 0)
(0.236702 -0.0118496 0)
(0.232976 -0.00991332 0)
(0.229682 -0.00816426 0)
(0.226787 -0.00659405 0)
(0.224261 -0.0051931 0)
(0.222072 -0.00395106 0)
(0.482871 -0.0417093 0)
(0.476348 -0.0480842 0)
(0.468194 -0.0531248 0)
(0.45904 -0.056825 0)
(0.449175 -0.0593876 0)
(0.438666 -0.0609529 0)
(0.427572 -0.0616365 0)
(0.415975 -0.0615608 0)
(0.403955 -0.0608372 0)
(0.39159 -0.0595582 0)
(0.378979 -0.0578046 0)
(0.366232 -0.0556513 0)
(0.353467 -0.0531692 0)
(0.340805 -0.0504255 0)
(0.328359 -0.047484 0)
(0.316237 -0.0444046 0)
(0.304534 -0.041243 0)
(0.293331 -0.0380501 0)
(0.282695 -0.0348708 0)
(0.272675 -0.0317445 0)
(0.263308 -0.0287043 0)
(0.254615 -0.0257773 0)
(0.246602 -0.0229851 0)
(0.239267 -0.0203435 0)
(0.232597 -0.0178638 0)
(0.22657 -0.0155529 0)
(0.22116 -0.013414 0)
(0.216334 -0.0114471 0)
(0.212059 -0.00964993 0)
(0.208296 -0.00801786 0)
(0.205009 -0.00654484 0)
(0.202158 -0.00522354 0)
(0.199707 -0.00404581 0)
(0.19762 -0.00300284 0)
(0.195861 -0.00208555 0)
(0.466936 -0.034881 0)
(0.458278 -0.0395388 0)
(0.448046 -0.0432631 0)
(0.436628 -0.0459475 0)
(0.424313 -0.0476793 0)
(0.41128 -0.048563 0)
(0.397685 -0.0486999 0)
(0.38369 -0.0482007 0)
(0.36945 -0.0471749 0)
(0.355106 -0.0457194 0)
(0.340798 -0.0439184 0)
(0.326658 -0.0418464 0)
(0.312813 -0.0395701 0)
(0.299373 -0.0371486 0)
(0.286438 -0.0346344 0)
(0.274088 -0.0320736 0)
(0.26239 -0.029506 0)
(0.251394 -0.0269662 0)
(0.241132 -0.0244828 0)
(0.231623 -0.0220798 0)
(0.222873 -0.0197759 0)
(0.214877 -0.0175858 0)
(0.207616 -0.0155197 0)
(0.201069 -0.0135849 0)
(0.195203 -0.0117851 0)
(0.189984 -0.0101217 0)
(0.185374 -0.00859392 0)
(0.18133 -0.00719921 0)
(0.177813 -0.00593356 0)
(0.174779 -0.00479202 0)
(0.172188 -0.00376869 0)
(0.169998 -0.00285724 0)
(0.168173 -0.00205081 0)
(0.166673 -0.00134244 0)
(0.165466 -0.000724941 0)
(0.415875 -0.0261327 0)
(0.405857 -0.0291946 0)
(0.394408 -0.0315847 0)
(0.381823 -0.0332078 0)
(0.36839 -0.0341085 0)
(0.35435 -0.0343724 0)
(0.33992 -0.0340913 0)
(0.325308 -0.0333623 0)
(0.310699 -0.03228 0)
(0.296258 -0.0309274 0)
(0.282127 -0.0293744 0)
(0.268428 -0.0276797 0)
(0.255265 -0.0258924 0)
(0.24272 -0.0240539 0)
(0.230857 -0.0221983 0)
(0.219722 -0.0203535 0)
(0.209345 -0.0185424 0)
(0.199742 -0.0167833 0)
(0.190914 -0.0150908 0)
(0.182854 -0.0134759 0)
(0.175543 -0.0119468 0)
(0.168957 -0.0105091 0)
(0.163063 -0.00916624 0)
(0.157826 -0.00791968 0)
(0.153208 -0.00676946 0)
(0.149167 -0.00571426 0)
(0.145661 -0.00475183 0)
(0.142649 -0.00387904 0)
(0.140088 -0.00309224 0)
(0.137938 -0.00238724 0)
(0.136161 -0.00175966 0)
(0.134718 -0.00120477 0)
(0.133574 -0.000717859 0)
(0.132697 -0.000294031 0)
(0.132054 7.14767e-05 0)
(0.332017 -0.0164212 0)
(0.321887 -0.0180738 0)
(0.310596 -0.0192798 0)
(0.298414 -0.0199912 0)
(0.285626 -0.0202464 0)
(0.272492 -0.0201156 0)
(0.259241 -0.0196725 0)
(0.246073 -0.0189882 0)
(0.233159 -0.0181276 0)
(0.220633 -0.017145 0)
(0.208604 -0.0160832 0)
(0.197152 -0.0149761 0)
(0.186339 -0.0138503 0)
(0.176204 -0.0127264 0)
(0.166771 -0.0116207 0)
(0.158052 -0.010545 0)
(0.150045 -0.00950873 0)
(0.14274 -0.00851843 0)
(0.136118 -0.00757904 0)
(0.130155 -0.00669381 0)
(0.124823 -0.00586479 0)
(0.120087 -0.00509288 0)
(0.115914 -0.00437817 0)
(0.112266 -0.00371997 0)
(0.109106 -0.00311707 0)
(0.106396 -0.00256775 0)
(0.104099 -0.00207003 0)
(0.102179 -0.00162161 0)
(0.100601 -0.00122005 0)
(0.0993314 -0.000862767 0)
(0.0983377 -0.000547134 0)
(0.0975901 -0.00027043 0)
(0.09706 -2.99976e-05 0)
(0.0967211 0.000176888 0)
(0.0965489 0.000352861 0)
(0.21935 -0.00738699 0)
(0.210972 -0.0079704 0)
(0.201854 -0.00833 0)
(0.192236 -0.00846026 0)
(0.182358 -0.00839433 0)
(0.172432 -0.00817676 0)
(0.162632 -0.00784772 0)
(0.153097 -0.00744144 0)
(0.143932 -0.00698626 0)
(0.135213 -0.00650423 0)
(0.126991 -0.00601131 0)
(0.119299 -0.0055191 0)
(0.112153 -0.00503585 0)
(0.105559 -0.00456748 0)
(0.0995122 -0.00411794 0)
(0.0940019 -0.0036899 0)
(0.0890117 -0.00328496 0)
(0.0845212 -0.00290417 0)
(0.080507 -0.00254794 0)
(0.0769437 -0.00221645 0)
(0.0738043 -0.0019094 0)
(0.0710612 -0.00162641 0)
(0.0686863 -0.00136674 0)
(0.0666518 -0.00112966 0)
(0.0649301 -0.000914197 0)
(0.0634944 -0.000719432 0)
(0.0623188 -0.000544284 0)
(0.0613784 -0.000387767 0)
(0.0606496 -0.000248763 0)
(0.0601097 -0.000126272 0)
(0.0597376 -1.91732e-05 0)
(0.0595133 7.35337e-05 0)
(0.0594182 0.000152969 0)
(0.0594351 0.000220094 0)
(0.0595479 0.000275974 0)
(0.0833643 -0.000979802 0)
(0.0793216 -0.00101135 0)
(0.0750443 -0.00100637 0)
(0.0706582 -0.000970011 0)
(0.0662791 -0.000913384 0)
(0.0619973 -0.000846337 0)
(0.0578779 -0.000775099 0)
(0.0539655 -0.000703421 0)
(0.0502887 -0.000633602 0)
(0.0468635 -0.000566862 0)
(0.0436964 -0.0005038 0)
(0.0407874 -0.000444774 0)
(0.038132 -0.000390056 0)
(0.0357226 -0.000339748 0)
(0.0335491 -0.000293781 0)
(0.0316001 -0.000251926 0)
(0.0298634 -0.000213899 0)
(0.0283265 -0.00017939 0)
(0.0269764 -0.000148129 0)
(0.0258003 -0.000119864 0)
(0.0247856 -9.43819e-05 0)
(0.0239196 -7.14813e-05 0)
(0.0231903 -5.09863e-05 0)
(0.0225861 -3.27185e-05 0)
(0.0220955 -1.65224e-05 0)
(0.021708 -2.23871e-06 0)
(0.0214132 1.02662e-05 0)
(0.0212015 2.1129e-05 0)
(0.0210637 3.04606e-05 0)
(0.0209912 3.83768e-05 0)
(0.0209759 4.4974e-05 0)
(0.0210102 5.03646e-05 0)
(0.0210871 5.46356e-05 0)
(0.0212002 5.7883e-05 0)
(0.0213435 6.01879e-05 0)
(0.0265565 -7.92229e-05 0)
(0.0270185 -6.07994e-05 0)
(0.0273903 -4.51106e-05 0)
(0.0276834 -3.19233e-05 0)
(0.0279082 -2.09948e-05 0)
(0.0280745 -1.20683e-05 0)
(0.0281912 -4.89927e-06 0)
(0.028266 7.54255e-07 0)
(0.0283061 5.11043e-06 0)
(0.0283177 8.37504e-06 0)
(0.0699206 -0.00100163 0)
(0.0711197 -0.000816994 0)
(0.0721065 -0.000654173 0)
(0.0729049 -0.000512004 0)
(0.0735375 -0.000389062 0)
(0.0740257 -0.000283771 0)
(0.074389 -0.00019448 0)
(0.0746456 -0.000119531 0)
(0.0748115 -5.73009e-05 0)
(0.0749013 -6.24192e-06 0)
(0.108323 -0.00265297 0)
(0.110066 -0.00219644 0)
(0.111522 -0.00178976 0)
(0.11272 -0.00143086 0)
(0.113689 -0.00111702 0)
(0.114455 -0.000845036 0)
(0.115043 -0.000611479 0)
(0.115478 -0.000412779 0)
(0.115781 -0.000245383 0)
(0.11597 -0.000105829 0)
(0.142487 -0.00478384 0)
(0.144498 -0.00399806 0)
(0.146194 -0.0032932 0)
(0.147605 -0.00266651 0)
(0.148761 -0.0021141 0)
(0.149689 -0.00163132 0)
(0.150416 -0.00121296 0)
(0.150966 -0.000853583 0)
(0.151363 -0.000547633 0)
(0.151627 -0.000289643 0)
(0.17298 -0.00702789 0)
(0.174939 -0.00590977 0)
(0.176598 -0.00490223 0)
(0.177986 -0.00400185 0)
(0.179129 -0.00320375 0)
(0.180052 -0.00250196 0)
(0.18078 -0.00188981 0)
(0.181335 -0.00136017 0)
(0.181738 -0.000905775 0)
(0.182009 -0.000519364 0)
(0.200001 -0.0090347 0)
(0.201599 -0.00762136 0)
(0.202948 -0.00634484 0)
(0.204071 -0.00520081 0)
(0.20499 -0.00418328 0)
(0.205726 -0.00328504 0)
(0.2063 -0.00249807 0)
(0.206729 -0.00181387 0)
(0.20703 -0.00122372 0)
(0.20722 -0.000718915 0)
(0.223263 -0.0105031 0)
(0.22426 -0.00886092 0)
(0.22508 -0.00737746 0)
(0.225743 -0.00604695 0)
(0.226265 -0.00486204 0)
(0.226661 -0.00381422 0)
(0.226947 -0.00289419 0)
(0.227134 -0.00209222 0)
(0.227235 -0.00139842 0)
(0.22726 -0.000802962 0)
(0.24205 -0.0112276 0)
(0.242308 -0.00944165 0)
(0.242476 -0.00783101 0)
(0.242568 -0.00638818 0)
(0.242593 -0.00510421 0)
(0.242561 -0.00396917 0)
(0.24248 -0.00297254 0)
(0.242357 -0.00210352 0)
(0.242199 -0.00135126 0)
(0.24201 -0.000705123 0)
(0.255405 -0.0111262 0)
(0.254908 -0.00928993 0)
(0.254411 -0.0076395 0)
(0.253921 -0.00616538 0)
(0.253441 -0.00485699 0)
(0.252974 -0.00370305 0)
(0.252522 -0.00269197 0)
(0.252086 -0.00181207 0)
(0.251666 -0.00105184 0)
(0.251262 -0.000400095 0)
(0.262394 -0.0102427 0)
(0.261238 -0.00844946 0)
(0.260168 -0.00684525 0)
(0.259182 -0.0054188 0)
(0.258276 -0.00415816 0)
(0.257448 -0.00305101 0)
(0.256693 -0.002085 0)
(0.256005 -0.00124793 0)
(0.25538 -0.000527962 0)
(0.254813 8.62867e-05 0)
(0.262349 -0.00872983 0)
(0.260721 -0.00706453 0)
(0.25925 -0.00558341 0)
(0.257929 -0.00427403 0)
(0.256746 -0.00312363 0)
(0.255693 -0.0021194 0)
(0.254757 -0.00124874 0)
(0.253931 -0.00049941 0)
(0.253203 0.000140353 0)
(0.252564 0.000681654 0)
(0.255044 -0.00681749 0)
(0.253181 -0.00534929 0)
(0.251531 -0.00405236 0)
(0.250077 -0.0029139 0)
(0.248802 -0.00192111 0)
(0.247692 -0.00106137 0)
(0.24673 -0.000322446 0)
(0.245902 0.000307402 0)
(0.245196 0.000839233 0)
(0.244598 0.00128348 0)
(0.24075 -0.00477285 0)
(0.238906 -0.00354919 0)
(0.237304 -0.00247677 0)
(0.235925 -0.00154334 0)
(0.234746 -0.000736849 0)
(0.233747 -4.55694e-05 0)
(0.23291 0.000541664 0)
(0.232218 0.00103545 0)
(0.231654 0.00144578 0)
(0.231204 0.00178201 0)
(0.220191 -0.00285706 0)
(0.218588 -0.00190009 0)
(0.217236 -0.00106906 0)
(0.216108 -0.000353094 0)
(0.215182 0.000258395 0)
(0.214434 0.000775477 0)
(0.213845 0.00120779 0)
(0.213395 0.00156443 0)
(0.213066 0.00185392 0)
(0.212845 0.00208417 0)
(0.194397 -0.00128461 0)
(0.193198 -0.000590741 0)
(0.192234 5.21643e-06 0)
(0.191478 0.000512131 0)
(0.190906 0.000938553 0)
(0.190494 0.00129264 0)
(0.190222 0.00158215 0)
(0.190072 0.00181438 0)
(0.190026 0.00199611 0)
(0.190069 0.00213361 0)
(0.164518 -0.000191236 0)
(0.163799 0.000265753 0)
(0.163281 0.000652795 0)
(0.162939 0.000976568 0)
(0.162749 0.00124336 0)
(0.162689 0.00145931 0)
(0.162742 0.00163007 0)
(0.162889 0.00176104 0)
(0.163115 0.00185713 0)
(0.163406 0.00192298 0)
(0.131617 0.000383481 0)
(0.13136 0.000646592 0)
(0.131257 0.000865381 0)
(0.131288 0.00104418 0)
(0.131432 0.00118724 0)
(0.13167 0.00129848 0)
(0.131986 0.00138169 0)
(0.132366 0.00144032 0)
(0.132798 0.00147766 0)
(0.133269 0.00149665 0)
(0.0965206 0.000500556 0)
(0.0966155 0.000622495 0)
(0.0968146 0.000721203 0)
(0.0971009 0.000799033 0)
(0.0974589 0.000858303 0)
(0.0978747 0.000901139 0)
(0.0983361 0.000929616 0)
(0.0988323 0.000945598 0)
(0.0993537 0.00095089 0)
(0.0998922 0.000947075 0)
(0.059742 0.000321543 0)
(0.0600039 0.000357839 0)
(0.0603216 0.000385741 0)
(0.0606841 0.000406218 0)
(0.0610816 0.000420068 0)
(0.0615054 0.000428179 0)
(0.0619479 0.000431255 0)
(0.0624023 0.000430084 0)
(0.0628628 0.000425264 0)
(0.0633247 0.000417475 0)
(0.0215115 6.1646e-05 0)
(0.0216993 6.23384e-05 0)
(0.0219024 6.23578e-05 0)
(0.0221168 6.17807e-05 0)
(0.0223389 6.06941e-05 0)
(0.0225656 5.91684e-05 0)
(0.0227943 5.72834e-05 0)
(0.0230225 5.51016e-05 0)
(0.0232483 5.26935e-05 0)
(0.0234701 5.01122e-05 0)
(0.0283061 1.07228e-05 0)
(0.028276 1.23169e-05 0)
(0.0282315 1.32982e-05 0)
(0.0281759 1.37959e-05 0)
(0.028112 1.39137e-05 0)
(0.0280424 1.37455e-05 0)
(0.0279689 1.33637e-05 0)
(0.0278931 1.28345e-05 0)
(0.0278164 1.22056e-05 0)
(0.0277399 1.15211e-05 0)
(0.0276644 1.08101e-05 0)
(0.0275904 1.01002e-05 0)
(0.0275187 9.40682e-06 0)
(0.0274494 8.74558e-06 0)
(0.027383 8.12239e-06 0)
(0.0273196 7.54454e-06 0)
(0.0272594 7.01169e-06 0)
(0.0272024 6.52575e-06 0)
(0.0271487 6.08267e-06 0)
(0.0270984 5.68124e-06 0)
(0.0270513 5.31556e-06 0)
(0.0270075 4.98301e-06 0)
(0.026967 4.67725e-06 0)
(0.0269296 4.39535e-06 0)
(0.0268954 4.13152e-06 0)
(0.0268641 3.88335e-06 0)
(0.0268358 3.64604e-06 0)
(0.0268103 3.41832e-06 0)
(0.0267875 3.19657e-06 0)
(0.0267674 2.98085e-06 0)
(0.0267497 2.76876e-06 0)
(0.0267343 2.56174e-06 0)
(0.0267212 2.35845e-06 0)
(0.0267101 2.16161e-06 0)
(0.0267009 1.97084e-06 0)
(0.074928 3.50836e-05 0)
(0.0749029 6.79899e-05 0)
(0.0748358 9.36861e-05 0)
(0.0747352 0.000113257 0)
(0.0746086 0.000127669 0)
(0.0744621 0.00013777 0)
(0.0743012 0.000144302 0)
(0.0741301 0.000147905 0)
(0.0739528 0.000149125 0)
(0.0737721 0.000148426 0)
(0.0735906 0.0001462 0)
(0.0734104 0.000142774 0)
(0.0732332 0.000138416 0)
(0.0730601 0.000133351 0)
(0.0728923 0.000127759 0)
(0.0727306 0.000121788 0)
(0.0725756 0.000115556 0)
(0.0724277 0.000109161 0)
(0.0722872 0.000102676 0)
(0.0721545 9.61655e-05 0)
(0.0720296 8.96771e-05 0)
(0.0719125 8.32521e-05 0)
(0.0718033 7.6923e-05 0)
(0.071702 7.07183e-05 0)
(0.0716084 6.46619e-05 0)
(0.0715224 5.87754e-05 0)
(0.0714438 5.30783e-05 0)
(0.0713725 4.75888e-05 0)
(0.0713082 4.23242e-05 0)
(0.0712506 3.73006e-05 0)
(0.0711995 3.2534e-05 0)
(0.0711545 2.8039e-05 0)
(0.0711154 2.38303e-05 0)
(0.0710817 1.99205e-05 0)
(0.0710532 1.63223e-05 0)
(0.116065 9.18359e-06 0)
(0.116079 0.00010274 0)
(0.116028 0.000177675 0)
(0.115922 0.000236577 0)
(0.115774 0.000281782 0)
(0.115591 0.000315381 0)
(0.115382 0.000339216 0)
(0.115154 0.000354903 0)
(0.114912 0.000363841 0)
(0.114661 0.000367238 0)
(0.114405 0.000366119 0)
(0.114147 0.000361357 0)
(0.113891 0.000353684 0)
(0.113638 0.000343713 0)
(0.113391 0.000331952 0)
(0.11315 0.000318821 0)
(0.112918 0.000304665 0)
(0.112695 0.000289768 0)
(0.112482 0.000274359 0)
(0.112279 0.000258631 0)
(0.112087 0.000242737 0)
(0.111906 0.000226809 0)
(0.111736 0.000210953 0)
(0.111578 0.000195264 0)
(0.111431 0.00017982 0)
(0.111295 0.000164694 0)
(0.11117 0.000149948 0)
(0.111056 0.000135643 0)
(0.110953 0.000121833 0)
(0.11086 0.00010857 0)
(0.110777 9.59023e-05 0)
(0.110703 8.38776e-05 0)
(0.110639 7.2537e-05 0)
(0.110582 6.19234e-05 0)
(0.110534 5.20717e-05 0)
(0.151777 -7.43253e-05 0)
(0.151831 0.000103325 0)
(0.151803 0.000247966 0)
(0.151709 0.000363893 0)
(0.151559 0.00045503 0)
(0.151364 0.000524919 0)
(0.151134 0.000576719 0)
(0.150877 0.000613225 0)
(0.1506 0.000636888 0)
(0.150308 0.000649837 0)
(0.150007 0.000653912 0)
(0.149701 0.00065069 0)
(0.149394 0.000641513 0)
(0.149089 0.000627518 0)
(0.148787 0.000609662 0)
(0.148492 0.00058875 0)
(0.148205 0.000565452 0)
(0.147928 0.000540329 0)
(0.147662 0.000513847 0)
(0.147407 0.000486397 0)
(0.147164 0.000458307 0)
(0.146934 0.000429855 0)
(0.146718 0.000401276 0)
(0.146515 0.000372776 0)
(0.146325 0.000344534 0)
(0.146149 0.000316709 0)
(0.145987 0.000289446 0)
(0.145838 0.000262875 0)
(0.145702 0.000237118 0)
(0.145579 0.000212287 0)
(0.145468 0.000188486 0)
(0.145369 0.000165814 0)
(0.145281 0.000144359 0)
(0.145204 0.000124204 0)
(0.145138 0.000105425 0)
(0.182166 -0.000193879 0)
(0.182225 7.74331e-05 0)
(0.1822 0.000300914 0)
(0.182106 0.000482459 0)
(0.181953 0.000627496 0)
(0.181752 0.000740961 0)
(0.181512 0.000827295 0)
(0.181242 0.00089046 0)
(0.180949 0.000933957 0)
(0.180639 0.000960858 0)
(0.180316 0.000973841 0)
(0.179987 0.000975222 0)
(0.179654 0.000966992 0)
(0.179322 0.000950857 0)
(0.178992 0.000928269 0)
(0.178668 0.000900458 0)
(0.178351 0.000868468 0)
(0.178043 0.00083318 0)
(0.177746 0.000795338 0)
(0.177461 0.000755575 0)
(0.177188 0.000714427 0)
(0.176928 0.000672357 0)
(0.176683 0.000629762 0)
(0.176452 0.000586992 0)
(0.176235 0.000544353 0)
(0.176033 0.000502121 0)
(0.175845 0.000460545 0)
(0.175673 0.000419853 0)
(0.175514 0.000380252 0)
(0.17537 0.000341935 0)