/*--------------------------------*- C++ -*----------------------------------*\
| =========                 |                                                 |
| \\      /  F ield         | OpenFOAM: The Open Source CFD Toolbox           |
|  \\    /   O peration     | Version:  2406                                  |
|   \\  /    A nd           | Website:  www.openfoam.com                      |
|    \\/     M anipulation  |                                                 |
\*---------------------------------------------------------------------------*/
FoamFile
{
    version     2.0;
    format      ascii;
    arch        "LSB;label=32;scalar=64";
    class       volScalarField;
    location    "69";
    object      p;
}
// * * * * * * * * * * * * * * * * * * * * * * * * * * * * * * * * * * * * * //

dimensions      [0 2 -2 0 0 0 0];

internalField   nonuniform List<scalar> 
2000
(
0.605024
0.600237
0.594792
0.589216
0.583452
0.577547
0.571572
0.56556
0.559524
0.553471
0.607101
0.600894
0.594841
0.589191
0.583422
0.577506
0.57153
0.565525
0.559495
0.553447
0.608188
0.601251
0.594816
0.589153
0.583401
0.577472
0.571491
0.56549
0.559467
0.553423
0.608759
0.601531
0.594838
0.589141
0.583398
0.577453
0.57146
0.56546
0.559441
0.553401
0.609166
0.601799
0.594905
0.589148
0.583402
0.577441
0.571431
0.565429
0.559413
0.553375
0.609474
0.602031
0.594989
0.589172
0.583416
0.577437
0.571409
0.5654
0.559385
0.553348
0.609702
0.602216
0.595072
0.589206
0.583436
0.57744
0.571395
0.565378
0.55936
0.553324
0.609864
0.602354
0.595143
0.58924
0.583458
0.577448
0.571388
0.565363
0.559342
0.553305
0.609969
0.602445
0.595193
0.589266
0.583476
0.577456
0.571386
0.565354
0.559331
0.553292
0.61002
0.602491
0.595219
0.589281
0.583486
0.577461
0.571385
0.565349
0.559325
0.553285
0.61002
0.602491
0.595219
0.589281
0.583486
0.577461
0.571385
0.565349
0.559325
0.553285
0.609969
0.602445
0.595193
0.589266
0.583476
0.577456
0.571386
0.565354
0.559331
0.553292
0.609864
0.602354
0.595143
0.58924
0.583458
0.577448
0.571388
0.565363
0.559342
0.553305
0.609702
0.602216
0.595072
0.589206
0.583436
0.577441
0.571395
0.565378
0.55936
0.553324
0.609474
0.602031
0.594989
0.589172
0.583416
0.577437
0.571409
0.5654
0.559384
0.553348
0.609166
0.601799
0.594905
0.589148
0.583402
0.577441
0.571431
0.565429
0.559413
0.553375
0.608759
0.601531
0.594838
0.58914
0.583398
0.577453
0.57146
0.56546
0.559441
0.553401
0.608188
0.601251
0.594816
0.589153
0.583401
0.577472
0.571491
0.56549
0.559467
0.553423
0.6071
0.600894
0.59484
0.58919
0.583422
0.577506
0.57153
0.565524
0.559495
0.553447
0.605024
0.600237
0.594792
0.589216
0.583452
0.577547
0.571572
0.56556
0.559524
0.553471
0.547406
0.541331
0.53525
0.529164
0.523074
0.51698
0.510883
0.504784
0.498683
0.492579
0.486474
0.480368
0.47426
0.468152
0.462042
0.455931
0.449819
0.443707
0.437593
0.43148
0.425365
0.41925
0.413134
0.407018
0.400902
0.394785
0.388668
0.38255
0.376432
0.370314
0.364195
0.358077
0.351958
0.345839
0.339719
0.547386
0.541315
0.535237
0.529153
0.523064
0.516971
0.510876
0.504777
0.498677
0.492574
0.48647
0.480364
0.474257
0.468148
0.462039
0.455928
0.449817
0.443705
0.437592
0.431478
0.425363
0.419249
0.413133
0.407017
0.400901
0.394784
0.388667
0.382549
0.376431
0.370313
0.364195
0.358076
0.351957
0.345838
0.339719
0.547366
0.541298
0.535222
0.529141
0.523054
0.516963
0.510868
0.504771
0.498671
0.492569
0.486466
0.48036
0.474253
0.468145
0.462036
0.455926
0.449815
0.443703
0.43759
0.431476
0.425362
0.419247
0.413132
0.407016
0.4009
0.394783
0.388666
0.382548
0.376431
0.370313
0.364194
0.358076
0.351957
0.345838
0.339718
0.547346
0.541281
0.535208
0.529128
0.523043
0.516954
0.510861
0.504764
0.498666
0.492565
0.486461
0.480357
0.47425
0.468143
0.462034
0.455924
0.449813
0.443701
0.437588
0.431475
0.425361
0.419246
0.413131
0.407015
0.400899
0.394782
0.388665
0.382548
0.37643
0.370312
0.364194
0.358075
0.351956
0.345837
0.339718
0.547322
0.54126
0.535191
0.529114
0.523031
0.516943
0.510851
0.504757
0.498659
0.492559
0.486457
0.480353
0.474247
0.468139
0.462031
0.455921
0.449811
0.443699
0.437586
0.431473
0.425359
0.419245
0.41313
0.407014
0.400898
0.394781
0.388664
0.382547
0.376429
0.370311
0.364193
0.358075
0.351956
0.345837
0.339718
0.547297
0.541238
0.535171
0.529097
0.523017
0.516931
0.510841
0.504747
0.498651
0.492552
0.486451
0.480348
0.474242
0.468136
0.462028
0.455918
0.449808
0.443697
0.437584
0.431471
0.425358
0.419243
0.413128
0.407013
0.400897
0.39478
0.388663
0.382546
0.376429
0.370311
0.364192
0.358074
0.351955
0.345836
0.339717
0.547273
0.541216
0.535151
0.52908
0.523002
0.516918
0.510829
0.504737
0.498643
0.492545
0.486445
0.480342
0.474238
0.468132
0.462024
0.455915
0.449805
0.443694
0.437582
0.43147
0.425356
0.419242
0.413127
0.407012
0.400896
0.394779
0.388662
0.382545
0.376428
0.37031
0.364192
0.358073
0.351955
0.345836
0.339717
0.547254
0.541197
0.535134
0.529065
0.522989
0.516906
0.510819
0.504728
0.498635
0.492538
0.486439
0.480337
0.474234
0.468128
0.462021
0.455912
0.449802
0.443692
0.43758
0.431468
0.425354
0.41924
0.413126
0.40701
0.400894
0.394778
0.388661
0.382544
0.376427
0.370309
0.364191
0.358073
0.351954
0.345835
0.339716
0.54724
0.541183
0.535122
0.529054
0.522979
0.516898
0.510811
0.504722
0.498629
0.492533
0.486435
0.480334
0.47423
0.468125
0.462018
0.45591
0.4498
0.44369
0.437578
0.431466
0.425353
0.419239
0.413124
0.407009
0.400893
0.394777
0.388661
0.382544
0.376426
0.370308
0.36419
0.358072
0.351953
0.345835
0.339715
0.547233
0.541176
0.535116
0.529049
0.522974
0.516893
0.510807
0.504718
0.498626
0.49253
0.486432
0.480331
0.474228
0.468123
0.462016
0.455908
0.449799
0.443689
0.437577
0.431465
0.425352
0.419238
0.413124
0.407009
0.400893
0.394777
0.38866
0.382543
0.376426
0.370308
0.36419
0.358072
0.351953
0.345834
0.339715
0.547233
0.541176
0.535116
0.529048
0.522974
0.516893
0.510807
0.504718
0.498625
0.49253
0.486432
0.480331
0.474228
0.468123
0.462016
0.455908
0.449799
0.443689
0.437577
0.431465
0.425352
0.419238
0.413124
0.407008
0.400893
0.394777
0.38866
0.382543
0.376426
0.370308
0.36419
0.358071
0.351953
0.345834
0.339715
0.54724
0.541183
0.535122
0.529054
0.522979
0.516897
0.510811
0.504721
0.498629
0.492533
0.486435
0.480333
0.47423
0.468125
0.462018
0.45591
0.4498
0.44369
0.437578
0.431466
0.425353
0.419239
0.413124
0.407009
0.400893
0.394777
0.38866
0.382543
0.376426
0.370308
0.36419
0.358072
0.351953
0.345834
0.339715
0.547254
0.541197
0.535134
0.529065
0.522989
0.516906
0.510819
0.504728
0.498635
0.492538
0.486439
0.480337
0.474233
0.468128
0.46202
0.455912
0.449802
0.443692
0.43758
0.431467
0.425354
0.41924
0.413125
0.40701
0.400894
0.394778
0.388661
0.382544
0.376426
0.370308
0.36419
0.358072
0.351953
0.345834
0.339715
0.547273
0.541216
0.535151
0.52908
0.523002
0.516918
0.510829
0.504737
0.498642
0.492545
0.486445
0.480342
0.474238
0.468131
0.462024
0.455915
0.449805
0.443694
0.437582
0.431469
0.425356
0.419241
0.413126
0.407011
0.400895
0.394779
0.388662
0.382544
0.376427
0.370309
0.364191
0.358072
0.351954
0.345835
0.339715
0.547297
0.541238
0.535171
0.529097
0.523016
0.516931
0.510841
0.504747
0.498651
0.492552
0.486451
0.480347
0.474242
0.468135
0.462027
0.455918
0.449808
0.443696
0.437584
0.431471
0.425357
0.419243
0.413128
0.407012
0.400896
0.39478
0.388663
0.382545
0.376428
0.37031
0.364191
0.358073
0.351954
0.345835
0.339716
0.547322
0.54126
0.535191
0.529114
0.523031
0.516943
0.510851
0.504756
0.498659
0.492559
0.486456
0.480352
0.474246
0.468139
0.462031
0.455921
0.44981
0.443698
0.437586
0.431473
0.425359
0.419244
0.413129
0.407013
0.400897
0.39478
0.388663
0.382546
0.376428
0.37031
0.364192
0.358073
0.351955
0.345835
0.339716
0.547346
0.541281
0.535208
0.529128
0.523043
0.516954
0.51086
0.504764
0.498665
0.492564
0.486461
0.480356
0.47425
0.468142
0.462033
0.455923
0.449812
0.4437
0.437588
0.431474
0.42536
0.419245
0.41313
0.407014
0.400898
0.394781
0.388664
0.382547
0.376429
0.370311
0.364192
0.358074
0.351955
0.345836
0.339717
0.547365
0.541298
0.535222
0.52914
0.523053
0.516962
0.510868
0.504771
0.498671
0.492569
0.486465
0.48036
0.474253
0.468145
0.462036
0.455925
0.449814
0.443702
0.437589
0.431476
0.425361
0.419247
0.413131
0.407015
0.400899
0.394782
0.388665
0.382547
0.37643
0.370311
0.364193
0.358074
0.351955
0.345836
0.339717
0.547386
0.541315
0.535236
0.529152
0.523064
0.516971
0.510876
0.504777
0.498677
0.492574
0.48647
0.480364
0.474257
0.468148
0.462039
0.455928
0.449816
0.443704
0.437591
0.431477
0.425363
0.419248
0.413132
0.407016
0.4009
0.394783
0.388666
0.382548
0.37643
0.370312
0.364194
0.358075
0.351956
0.345837
0.339717
0.547406
0.541331
0.53525
0.529164
0.523074
0.51698
0.510883
0.504784
0.498682
0.492579
0.486474
0.480368
0.47426
0.468151
0.462041
0.45593
0.449819
0.443706
0.437593
0.431479
0.425364
0.419249
0.413134
0.407018
0.400901
0.394784
0.388667
0.382549
0.376431
0.370313
0.364194
0.358076
0.351956
0.345837
0.339718
0.3336
0.32748
0.32136
0.31524
0.30912
0.303
0.29688
0.290759
0.284639
0.278518
0.333599
0.32748
0.32136
0.31524
0.30912
0.303
0.29688
0.290759
0.284639
0.278518
0.333599
0.327479
0.32136
0.31524
0.30912
0.303
0.296879
0.290759
0.284639
0.278518
0.333599
0.327479
0.321359
0.31524
0.30912
0.302999
0.296879
0.290759
0.284638
0.278518
0.333598
0.327479
0.321359
0.315239
0.309119
0.302999
0.296879
0.290759
0.284638
0.278518
0.333598
0.327478
0.321359
0.315239
0.309119
0.302999
0.296879
0.290758
0.284638
0.278517
0.333597
0.327478
0.321358
0.315238
0.309118
0.302998
0.296878
0.290758
0.284638
0.278517
0.333597
0.327477
0.321358
0.315238
0.309118
0.302998
0.296878
0.290758
0.284637
0.278517
0.333596
0.327477
0.321357
0.315237
0.309118
0.302997
0.296877
0.290757
0.284637
0.278516
0.333596
0.327476
0.321357
0.315237
0.309117
0.302997
0.296877
0.290757
0.284636
0.278516
0.333596
0.327476
0.321357
0.315237
0.309117
0.302997
0.296877
0.290756
0.284636
0.278516
0.333596
0.327476
0.321357
0.315237
0.309117
0.302997
0.296877
0.290756
0.284636
0.278515
0.333596
0.327476
0.321357
0.315237
0.309117
0.302997
0.296876
0.290756
0.284636
0.278515
0.333596
0.327477
0.321357
0.315237
0.309117
0.302997
0.296877
0.290756
0.284636
0.278515
0.333596
0.327477
0.321357
0.315237
0.309117
0.302997
0.296877
0.290756
0.284636
0.278515
0.333597
0.327477
0.321357
0.315237
0.309117
0.302997
0.296877
0.290756
0.284636
0.278515
0.333597
0.327477
0.321358
0.315238
0.309118
0.302997
0.296877
0.290757
0.284636
0.278515
0.333597
0.327478
0.321358
0.315238
0.309118
0.302998
0.296877
0.290757
0.284636
0.278516
0.333598
0.327478
0.321358
0.315238
0.309118
0.302998
0.296878
0.290757
0.284637
0.278516
0.333598
0.327479
0.321359
0.315239
0.309118
0.302998
0.296878
0.290757
0.284637
0.278516
0.272398
0.266277
0.260156
0.254035
0.247915
0.241794
0.235673
0.229552
0.22343
0.217309
0.211188
0.205067
0.198946
0.192825
0.186703
0.180582
0.174461
0.168339
0.162218
0.156097
0.149975
0.143854
0.137732
0.131611
0.12549
0.119368
0.113247
0.107125
0.101004
0.094882
0.0887605
0.082639
0.0765175
0.0703959
0.0642744
0.272398
0.266277
0.260156
0.254035
0.247914
0.241794
0.235673
0.229552
0.223431
0.217309
0.211188
0.205067
0.198946
0.192825
0.186703
0.180582
0.174461
0.16834
0.162218
0.156097
0.149975
0.143854
0.137733
0.131611
0.12549
0.119368
0.113247
0.107125
0.101004
0.0948822
0.0887607
0.0826391
0.0765176
0.0703961
0.0642745
0.272397
0.266277
0.260156
0.254035
0.247914
0.241794
0.235673
0.229552
0.223431
0.217309
0.211188
0.205067
0.198946
0.192825
0.186704
0.180582
0.174461
0.16834
0.162218
0.156097
0.149976
0.143854
0.137733
0.131611
0.12549
0.119368
0.113247
0.107125
0.101004
0.0948824
0.0887608
0.0826393
0.0765178
0.0703962
0.0642747
0.272397
0.266277
0.260156
0.254035
0.247914
0.241793
0.235673
0.229552
0.223431
0.217309
0.211188
0.205067
0.198946
0.192825
0.186704
0.180582
0.174461
0.16834
0.162218
0.156097
0.149976
0.143854
0.137733
0.131611
0.12549
0.119369
0.113247
0.107126
0.101004
0.0948825
0.088761
0.0826395
0.0765179
0.0703964
0.0642748
0.272397
0.266277
0.260156
0.254035
0.247914
0.241793
0.235672
0.229551
0.22343
0.217309
0.211188
0.205067
0.198946
0.192825
0.186704
0.180582
0.174461
0.16834
0.162218
0.156097
0.149976
0.143854
0.137733
0.131611
0.12549
0.119369
0.113247
0.107126
0.101004
0.0948826
0.0887611
0.0826396
0.076518
0.0703965
0.064275
0.272397
0.266276
0.260156
0.254035
0.247914
0.241793
0.235672
0.229551
0.22343
0.217309
0.211188
0.205067
0.198946
0.192825
0.186703
0.180582
0.174461
0.16834
0.162218
0.156097
0.149976
0.143854
0.137733
0.131611
0.12549
0.119369
0.113247
0.107126
0.101004
0.0948827
0.0887612
0.0826397
0.0765181
0.0703966
0.0642751
0.272397
0.266276
0.260155
0.254034
0.247914
0.241793
0.235672
0.229551
0.22343
0.217309
0.211188
0.205067
0.198946
0.192824
0.186703
0.180582
0.174461
0.168339
0.162218
0.156097
0.149975
0.143854
0.137733
0.131611
0.12549
0.119368
0.113247
0.107126
0.101004
0.0948826
0.0887612
0.0826397
0.0765182
0.0703967
0.0642752
0.272396
0.266276
0.260155
0.254034
0.247913
0.241792
0.235671
0.229551
0.22343
0.217308
0.211187
0.205066
0.198945
0.192824
0.186703
0.180582
0.17446
0.168339
0.162218
0.156096
0.149975
0.143854
0.137732
0.131611
0.12549
0.119368
0.113247
0.107125
0.101004
0.0948825
0.0887611
0.0826396
0.0765182
0.0703967
0.0642752
0.272396
0.266275
0.260154
0.254034
0.247913
0.241792
0.235671
0.22955
0.223429
0.217308
0.211187
0.205066
0.198945
0.192823
0.186702
0.180581
0.17446
0.168339
0.162217
0.156096
0.149975
0.143853
0.137732
0.131611
0.125489
0.119368
0.113247
0.107125
0.101004
0.0948824
0.0887609
0.0826395
0.0765181
0.0703966
0.0642752
0.272395
0.266275
0.260154
0.254033
0.247912
0.241792
0.235671
0.22955
0.223429
0.217308
0.211186
0.205065
0.198944
0.192823
0.186702
0.180581
0.174459
0.168338
0.162217
0.156096
0.149974
0.143853
0.137732
0.13161
0.125489
0.119368
0.113246
0.107125
0.101003
0.0948821
0.0887607
0.0826393
0.0765179
0.0703965
0.0642751
0.272395
0.266274
0.260154
0.254033
0.247912
0.241791
0.23567
0.229549
0.223428
0.217307
0.211186
0.205065
0.198944
0.192823
0.186701
0.18058
0.174459
0.168338
0.162216
0.156095
0.149974
0.143852
0.137731
0.13161
0.125488
0.119367
0.113246
0.107125
0.101003
0.0948818
0.0887605
0.0826391
0.0765178
0.0703964
0.064275
0.272395
0.266274
0.260153
0.254033
0.247912
0.241791
0.23567
0.229549
0.223428
0.217307
0.211186
0.205064
0.198943
0.192822
0.186701
0.18058
0.174458
0.168337
0.162216
0.156095
0.149973
0.143852
0.137731
0.131609
0.125488
0.119367
0.113245
0.107124
0.101003
0.0948815
0.0887602
0.0826389
0.0765176
0.0703962
0.0642749
0.272395
0.266274
0.260153
0.254032
0.247911
0.241791
0.23567
0.229549
0.223427
0.217306
0.211185
0.205064
0.198943
0.192822
0.1867
0.180579
0.174458
0.168337
0.162215
0.156094
0.149973
0.143852
0.13773
0.131609
0.125488
0.119366
0.113245
0.107124
0.101003
0.0948813
0.08876
0.0826387
0.0765174
0.0703961
0.0642748
0.272395
0.266274
0.260153
0.254032
0.247911
0.24179
0.235669
0.229548
0.223427
0.217306
0.211185
0.205064
0.198943
0.192821
0.1867
0.180579
0.174458
0.168336
0.162215
0.156094
0.149973
0.143851
0.13773
0.131609
0.125487
0.119366
0.113245
0.107124
0.101002
0.0948811
0.0887598
0.0826385
0.0765172
0.070396
0.0642747
0.272395
0.266274
0.260153
0.254032
0.247911
0.24179
0.235669
0.229548
0.223427
0.217306
0.211185
0.205064
0.198943
0.192821
0.1867
0.180579
0.174458
0.168336
0.162215
0.156094
0.149972
0.143851
0.13773
0.131609
0.125487
0.119366
0.113245
0.107123
0.101002
0.0948809
0.0887597
0.0826384
0.0765172
0.0703959
0.0642747
0.272395
0.266274
0.260153
0.254032
0.247911
0.24179
0.235669
0.229548
0.223427
0.217306
0.211185
0.205064
0.198942
0.192821
0.1867
0.180579
0.174457
0.168336
0.162215
0.156094
0.149972
0.143851
0.13773
0.131608
0.125487
0.119366
0.113245
0.107123
0.101002
0.0948809
0.0887597
0.0826384
0.0765172
0.0703959
0.0642747
0.272395
0.266274
0.260153
0.254032
0.247911
0.24179
0.235669
0.229548
0.223427
0.217306
0.211185
0.205064
0.198942
0.192821
0.1867
0.180579
0.174457
0.168336
0.162215
0.156094
0.149972
0.143851
0.13773
0.131609
0.125487
0.119366
0.113245
0.107123
0.101002
0.094881
0.0887597
0.0826385
0.0765173
0.070396
0.0642748
0.272395
0.266274
0.260153
0.254032
0.247912
0.241791
0.235669
0.229548
0.223427
0.217306
0.211185
0.205064
0.198943
0.192821
0.1867
0.180579
0.174458
0.168336
0.162215
0.156094
0.149972
0.143851
0.13773
0.131609
0.125487
0.119366
0.113245
0.107124
0.101002
0.0948811
0.0887599
0.0826386
0.0765174
0.0703962
0.0642749
0.272395
0.266274
0.260154
0.254033
0.247912
0.241791
0.23567
0.229549
0.223427
0.217306
0.211185
0.205064
0.198943
0.192822
0.1867
0.180579
0.174458
0.168337
0.162215
0.156094
0.149973
0.143851
0.13773
0.131609
0.125488
0.119366
0.113245
0.107124
0.101003
0.0948814
0.0887601
0.0826389
0.0765176
0.0703964
0.0642752
0.272395
0.266275
0.260154
0.254033
0.247912
0.241791
0.23567
0.229549
0.223428
0.217307
0.211185
0.205064
0.198943
0.192822
0.186701
0.180579
0.174458
0.168337
0.162215
0.156094
0.149973
0.143852
0.13773
0.131609
0.125488
0.119367
0.113245
0.107124
0.101003
0.0948816
0.0887603
0.0826391
0.0765179
0.0703966
0.0642754
0.0581529
0.0520313
0.0459098
0.0397883
0.0336669
0.0275454
0.021424
0.0153027
0.00918118
0.00306
0.058153
0.0520315
0.04591
0.0397885
0.033667
0.0275456
0.0214241
0.0153031
0.00918114
0.00305959
0.0581532
0.0520316
0.0459101
0.0397886
0.0336672
0.0275457
0.0214242
0.0153033
0.00918112
0.00305957
0.0581533
0.0520318
0.0459103
0.0397888
0.0336673
0.0275458
0.0214243
0.0153033
0.00918098
0.0030595
0.0581534
0.0520319
0.0459104
0.0397889
0.0336674
0.0275459
0.0214244
0.0153033
0.00918083
0.00305944
0.0581536
0.052032
0.0459105
0.039789
0.0336675
0.027546
0.0214245
0.0153034
0.00918074
0.00305944
0.0581536
0.0520321
0.0459106
0.0397891
0.0336676
0.0275461
0.0214245
0.0153034
0.00918068
0.00305946
0.0581537
0.0520322
0.0459107
0.0397892
0.0336677
0.0275462
0.0214247
0.0153035
0.0091807
0.00305955
0.0581537
0.0520322
0.0459108
0.0397893
0.0336678
0.0275463
0.0214248
0.0153037
0.0091808
0.0030597
0.0581537
0.0520323
0.0459108
0.0397894
0.0336679
0.0275465
0.021425
0.0153039
0.00918096
0.0030599
0.0581536
0.0520322
0.0459108
0.0397894
0.033668
0.0275466
0.0214251
0.015304
0.00918119
0.00306014
0.0581535
0.0520322
0.0459108
0.0397895
0.0336681
0.0275467
0.0214253
0.0153042
0.00918144
0.00306038
0.0581535
0.0520321
0.0459108
0.0397895
0.0336682
0.0275468
0.0214254
0.0153044
0.00918172
0.00306061
0.0581534
0.0520321
0.0459108
0.0397895
0.0336682
0.0275469
0.0214255
0.0153046
0.00918198
0.00306079
0.0581534
0.0520321
0.0459108
0.0397895
0.0336683
0.0275469
0.0214256
0.0153046
0.00918224
0.0030609
0.0581534
0.0520322
0.0459109
0.0397896
0.0336683
0.027547
0.0214256
0.0153047
0.00918244
0.00306092
0.0581535
0.0520322
0.045911
0.0397897
0.0336684
0.0275471
0.0214257
0.0153048
0.00918263
0.00306093
0.0581537
0.0520324
0.0459111
0.0397899
0.0336686
0.0275473
0.0214257
0.015305
0.00918286
0.00306088
0.0581539
0.0520326
0.0459113
0.0397901
0.0336688
0.0275474
0.021426
0.015305
0.00918295
0.00306081
0.0581541
0.0520328
0.0459116
0.0397903
0.033669
0.0275476
0.0214262
0.0153048
0.00918318
0.00306126
)
;

boundaryField
{
    inlet
    {
        type            zeroGradient;
    }
    outlet
    {
        type            fixedValue;
        value           uniform 0;
    }
    upperWall
    {
        type            zeroGradient;
    }
    lowerWall
    {
        type            zeroGradient;
    }
    frontAndBack
    {
        type            empty;
    }
}


// ************************************************************************* //
