/*--------------------------------*- C++ -*----------------------------------*\
| =========                 |                                                 |
| \\      /  F ield         | OpenFOAM: The Open Source CFD Toolbox           |
|  \\    /   O peration     | Version:  2406                                  |
|   \\  /    A nd           | Website:  www.openfoam.com                      |
|    \\/     M anipulation  |                                                 |
\*---------------------------------------------------------------------------*/
FoamFile
{
    version     2.0;
    format      ascii;
    arch        "LSB;label=32;scalar=64";
    class       volVectorField;
    location    "69";
    object      U;
}
// * * * * * * * * * * * * * * * * * * * * * * * * * * * * * * * * * * * * * //

dimensions      [0 1 -1 0 0 0 0];

internalField   nonuniform List<vector> 
2000
(
(0.0972586 -0.000521165 0)
(0.0991996 -0.000403916 0)
(0.100167 -0.000214909 0)
(0.100636 -0.000130349 0)
(0.100963 -8.30978e-05 0)
(0.101204 -5.05484e-05 0)
(0.101371 -3.123e-05 0)
(0.101488 -2.09196e-05 0)
(0.101576 -1.50094e-05 0)
(0.101643 -1.1185e-05 0)
(0.275772 -0.00114157 0)
(0.277043 -0.00144769 0)
(0.277831 -0.00102438 0)
(0.278174 -0.000697848 0)
(0.278525 -0.000501144 0)
(0.278872 -0.000360855 0)
(0.279154 -0.000260169 0)
(0.279374 -0.000192819 0)
(0.27955 -0.000147814 0)
(0.279695 -0.000116178 0)
(0.435915 -0.000769837 0)
(0.436725 -0.00129734 0)
(0.437109 -0.00118536 0)
(0.437085 -0.000979072 0)
(0.437203 -0.000806278 0)
(0.437435 -0.000649986 0)
(0.437665 -0.000514321 0)
(0.437865 -0.00040805 0)
(0.438041 -0.00032798 0)
(0.438196 -0.000266797 0)
(0.576108 -0.000449119 0)
(0.576803 -0.000952187 0)
(0.577061 -0.00104411 0)
(0.576819 -0.000988347 0)
(0.576709 -0.000902564 0)
(0.576766 -0.000794482 0)
(0.576865 -0.000677057 0)
(0.576969 -0.000569297 0)
(0.577077 -0.000478247 0)
(0.577183 -0.000402569 0)
(0.696241 -0.000279757 0)
(0.696912 -0.000673726 0)
(0.697191 -0.000822513 0)
(0.696893 -0.000848059 0)
(0.696659 -0.000831802 0)
(0.696586 -0.000781807 0)
(0.696566 -0.000706526 0)
(0.696563 -0.000624103 0)
(0.696578 -0.000545898 0)
(0.69661 -0.000475074 0)
(0.796332 -0.000182496 0)
(0.796989 -0.000469818 0)
(0.797317 -0.000611692 0)
(0.797039 -0.000666205 0)
(0.796766 -0.000685505 0)
(0.79663 -0.000674607 0)
(0.796538 -0.000636581 0)
(0.796457 -0.000584334 0)
(0.796397 -0.000528441 0)
(0.796358 -0.00047341 0)
(0.876396 -0.00012029 0)
(0.877035 -0.000321449 0)
(0.877403 -0.000435667 0)
(0.877161 -0.000491573 0)
(0.876889 -0.000521673 0)
(0.876733 -0.000529059 0)
(0.876611 -0.000514112 0)
(0.876489 -0.000484951 0)
(0.876381 -0.000449561 0)
(0.876293 -0.000411924 0)
(0.936438 -7.67287e-05 0)
(0.93706 -0.000209341 0)
(0.937453 -0.000290748 0)
(0.937243 -0.000335397 0)
(0.936983 -0.000362793 0)
(0.936826 -0.000374835 0)
(0.936695 -0.000371064 0)
(0.936557 -0.000356276 0)
(0.936425 -0.000335819 0)
(0.936309 -0.000312571 0)
(0.976464 -4.29375e-05 0)
(0.977074 -0.000118418 0)
(0.97748 -0.000166771 0)
(0.977291 -0.000194872 0)
(0.977041 -0.000213127 0)
(0.976889 -0.000222567 0)
(0.976757 -0.000222704 0)
(0.976614 -0.000216055 0)
(0.976473 -0.000205676 0)
(0.976343 -0.000193275 0)
(0.996477 -1.3843e-05 0)
(0.99708 -3.83514e-05 0)
(0.997492 -5.43471e-05 0)
(0.997312 -6.388e-05 0)
(0.997069 -7.02208e-05 0)
(0.996919 -7.36909e-05 0)
(0.996789 -7.40953e-05 0)
(0.996645 -7.22191e-05 0)
(0.9965 -6.90556e-05 0)
(0.996365 -6.51728e-05 0)
(0.996477 1.38516e-05 0)
(0.99708 3.83778e-05 0)
(0.997492 5.44007e-05 0)
(0.997312 6.39611e-05 0)
(0.997069 7.03171e-05 0)
(0.996919 7.3792e-05 0)
(0.996789 7.4201e-05 0)
(0.996645 7.2338e-05 0)
(0.9965 6.9196e-05 0)
(0.996365 6.53351e-05 0)
(0.976464 4.29458e-05 0)
(0.977074 0.000118444 0)
(0.97748 0.000166821 0)
(0.977291 0.00019495 0)
(0.977041 0.000213222 0)
(0.976889 0.000222667 0)
(0.976758 0.000222807 0)
(0.976614 0.000216171 0)
(0.976473 0.00020581 0)
(0.976343 0.000193429 0)
(0.936438 7.6739e-05 0)
(0.93706 0.000209369 0)
(0.937453 0.000290801 0)
(0.937243 0.000335469 0)
(0.936983 0.000362878 0)
(0.936826 0.000374928 0)
(0.936695 0.000371164 0)
(0.936557 0.000356386 0)
(0.936425 0.000335945 0)
(0.936309 0.000312713 0)
(0.876396 0.0001203 0)
(0.877035 0.000321477 0)
(0.877403 0.000435711 0)
(0.877161 0.000491634 0)
(0.876889 0.000521747 0)
(0.876733 0.000529143 0)
(0.876611 0.000514205 0)
(0.876489 0.000485054 0)
(0.876381 0.000449674 0)
(0.876293 0.000412049 0)
(0.796332 0.000182509 0)
(0.796989 0.000469843 0)
(0.797317 0.000611734 0)
(0.797039 0.000666256 0)
(0.796766 0.000685568 0)
(0.79663 0.000674686 0)
(0.796538 0.00063667 0)
(0.796457 0.000584428 0)
(0.796397 0.000528538 0)
(0.796358 0.000473515 0)
(0.696241 0.000279766 0)
(0.696912 0.000673748 0)
(0.697191 0.00082254 0)
(0.696893 0.000848099 0)
(0.69666 0.00083186 0)
(0.696586 0.000781882 0)
(0.696566 0.000706611 0)
(0.696563 0.000624187 0)
(0.696578 0.000545979 0)
(0.69661 0.000475158 0)
(0.576108 0.000449129 0)
(0.576803 0.000952208 0)
(0.577061 0.00104413 0)
(0.576819 0.000988379 0)
(0.576709 0.000902609 0)
(0.576766 0.000794545 0)
(0.576866 0.000677129 0)
(0.576969 0.000569368 0)
(0.577077 0.00047831 0)
(0.577184 0.000402632 0)
(0.435915 0.000769849 0)
(0.436725 0.00129736 0)
(0.437109 0.00118539 0)
(0.437085 0.000979103 0)
(0.437203 0.000806314 0)
(0.437435 0.000650029 0)
(0.437665 0.00051437 0)
(0.437865 0.000408097 0)
(0.438041 0.000328019 0)
(0.438196 0.000266831 0)
(0.275772 0.00114158 0)
(0.277043 0.00144771 0)
(0.277831 0.0010244 0)
(0.278174 0.000697872 0)
(0.278525 0.000501167 0)
(0.278872 0.000360878 0)
(0.279154 0.000260195 0)
(0.279374 0.000192843 0)
(0.27955 0.000147831 0)
(0.279695 0.000116188 0)
(0.0972586 0.000521168 0)
(0.0991996 0.000403929 0)
(0.100167 0.000214916 0)
(0.100636 0.00013035 0)
(0.100963 8.31032e-05 0)
(0.101204 5.05587e-05 0)
(0.101371 3.12372e-05 0)
(0.101488 2.09211e-05 0)
(0.101576 1.5009e-05 0)
(0.101643 1.11856e-05 0)
(0.101697 -8.58218e-06 0)
(0.10174 -6.77953e-06 0)
(0.101775 -5.49529e-06 0)
(0.101804 -4.54605e-06 0)
(0.101829 -3.82e-06 0)
(0.10185 -3.24928e-06 0)
(0.101868 -2.79231e-06 0)
(0.101883 -2.42292e-06 0)
(0.101897 -2.12239e-06 0)
(0.101909 -1.87585e-06 0)
(0.101919 -1.67058e-06 0)
(0.101929 -1.49653e-06 0)
(0.101937 -1.34617e-06 0)
(0.101945 -1.21462e-06 0)
(0.101952 -1.09859e-06 0)
(0.101958 -9.96078e-07 0)
(0.101963 -9.05311e-07 0)
(0.101968 -8.24906e-07 0)
(0.101973 -7.53257e-07 0)
(0.101977 -6.89088e-07 0)
(0.101981 -6.31052e-07 0)
(0.101984 -5.78276e-07 0)
(0.101988 -5.29911e-07 0)
(0.101991 -4.85564e-07 0)
(0.101993 -4.44765e-07 0)
(0.101996 -4.07371e-07 0)
(0.101998 -3.73043e-07 0)
(0.102 -3.41674e-07 0)
(0.102002 -3.12916e-07 0)
(0.102004 -2.86639e-07 0)
(0.102005 -2.6249e-07 0)
(0.102007 -2.4035e-07 0)
(0.102008 -2.19909e-07 0)
(0.102009 -2.01097e-07 0)
(0.10201 -1.83666e-07 0)
(0.279813 -9.30019e-05 0)
(0.279911 -7.56723e-05 0)
(0.279993 -6.25264e-05 0)
(0.280062 -5.23855e-05 0)
(0.28012 -4.44062e-05 0)
(0.280171 -3.80035e-05 0)
(0.280214 -3.27881e-05 0)
(0.280252 -2.85013e-05 0)
(0.280285 -2.49584e-05 0)
(0.280315 -2.20124e-05 0)
(0.28034 -1.95403e-05 0)
(0.280363 -1.7441e-05 0)
(0.280384 -1.56354e-05 0)
(0.280403 -1.40651e-05 0)
(0.280419 -1.26883e-05 0)
(0.280434 -1.14748e-05 0)
(0.280448 -1.04014e-05 0)
(0.28046 -9.44909e-06 0)
(0.280471 -8.60119e-06 0)
(0.280482 -7.84287e-06 0)
(0.280491 -7.16103e-06 0)
(0.2805 -6.54463e-06 0)
(0.280507 -5.98459e-06 0)
(0.280514 -5.47381e-06 0)
(0.280521 -5.00673e-06 0)
(0.280527 -4.57902e-06 0)
(0.280532 -4.18715e-06 0)
(0.280537 -3.82804e-06 0)
(0.280542 -3.49889e-06 0)
(0.280546 -3.19705e-06 0)
(0.28055 -2.91998e-06 0)
(0.280553 -2.66531e-06 0)
(0.280556 -2.43084e-06 0)
(0.280559 -2.21458e-06 0)
(0.280562 -2.01479e-06 0)
(0.438329 -0.000219162 0)
(0.438444 -0.000181788 0)
(0.438542 -0.000152336 0)
(0.438627 -0.00012895 0)
(0.438701 -0.000110154 0)
(0.438765 -9.48357e-05 0)
(0.438821 -8.22027e-05 0)
(0.43887 -7.1704e-05 0)
(0.438914 -6.29378e-05 0)
(0.438952 -5.55847e-05 0)
(0.438986 -4.93747e-05 0)
(0.439017 -4.40804e-05 0)
(0.439044 -3.95183e-05 0)
(0.439068 -3.55477e-05 0)
(0.439091 -3.20644e-05 0)
(0.439111 -2.89916e-05 0)
(0.439129 -2.62705e-05 0)
(0.439145 -2.38536e-05 0)
(0.43916 -2.16999e-05 0)
(0.439174 -1.97733e-05 0)
(0.439186 -1.80418e-05 0)
(0.439198 -1.64781e-05 0)
(0.439208 -1.50594e-05 0)
(0.439218 -1.37674e-05 0)
(0.439226 -1.25873e-05 0)
(0.439234 -1.15077e-05 0)
(0.439241 -1.05188e-05 0)
(0.439248 -9.61265e-06 0)
(0.439254 -8.78177e-06 0)
(0.43926 -8.01954e-06 0)
(0.439265 -7.3195e-06 0)
(0.439269 -6.67586e-06 0)
(0.439273 -6.08306e-06 0)
(0.439277 -5.53628e-06 0)
(0.439281 -5.03101e-06 0)
(0.577284 -0.000339708 0)
(0.577376 -0.000287782 0)
(0.577458 -0.000245168 0)
(0.577532 -0.000210241 0)
(0.577599 -0.000181465 0)
(0.577658 -0.000157542 0)
(0.57771 -0.000137483 0)
(0.577757 -0.000120573 0)
(0.577799 -0.000106279 0)
(0.577837 -9.41647e-05 0)
(0.57787 -8.38476e-05 0)
(0.577901 -7.49945e-05 0)
(0.577928 -6.73278e-05 0)
(0.577953 -6.06288e-05 0)
(0.577975 -5.47328e-05 0)
(0.577995 -4.95167e-05 0)
(0.578014 -4.48862e-05 0)
(0.57803 -4.07642e-05 0)
(0.578046 -3.70844e-05 0)
(0.57806 -3.37882e-05 0)
(0.578072 -3.08234e-05 0)
(0.578084 -2.81449e-05 0)
(0.578094 -2.57149e-05 0)
(0.578104 -2.35021e-05 0)
(0.578113 -2.14817e-05 0)
(0.578121 -1.96333e-05 0)
(0.578128 -1.79404e-05 0)
(0.578135 -1.63887e-05 0)
(0.578141 -1.49654e-05 0)
(0.578147 -1.3659e-05 0)
(0.578152 -1.24586e-05 0)
(0.578156 -1.13542e-05 0)
(0.578161 -1.03367e-05 0)
(0.578164 -9.39756e-06 0)
(0.578168 -8.52945e-06 0)
(0.696649 -0.000412085 0)
(0.696692 -0.000357087 0)
(0.696734 -0.000309902 0)
(0.696776 -0.000269836 0)
(0.696815 -0.000235865 0)
(0.696852 -0.00020694 0)
(0.696887 -0.000182184 0)
(0.696918 -0.000160939 0)
(0.696947 -0.000142704 0)
(0.696974 -0.000127048 0)
(0.696998 -0.000113571 0)
(0.697021 -0.000101903 0)
(0.697041 -9.17221e-05 0)
(0.697059 -8.27689e-05 0)
(0.697076 -7.48452e-05 0)
(0.697092 -6.78018e-05 0)
(0.697106 -6.15233e-05 0)
(0.697119 -5.59149e-05 0)
(0.69713 -5.08938e-05 0)
(0.697141 -4.63853e-05 0)
(0.697151 -4.23226e-05 0)
(0.69716 -3.86469e-05 0)
(0.697168 -3.53084e-05 0)
(0.697175 -3.22661e-05 0)
(0.697182 -2.94866e-05 0)
(0.697188 -2.69426e-05 0)
(0.697194 -2.46114e-05 0)
(0.697199 -2.24734e-05 0)
(0.697204 -2.05114e-05 0)
(0.697208 -1.87091e-05 0)
(0.697212 -1.7052e-05 0)
(0.697216 -1.55262e-05 0)
(0.697219 -1.41192e-05 0)
(0.697222 -1.28197e-05 0)
(0.697224 -1.16173e-05 0)
(0.796334 -0.000421096 0)
(0.79632 -0.000372858 0)
(0.796314 -0.000329604 0)
(0.796313 -0.000291542 0)
(0.796316 -0.000258301 0)
(0.796321 -0.000229264 0)
(0.796328 -0.000203845 0)
(0.796336 -0.000181594 0)
(0.796344 -0.000162161 0)
(0.796352 -0.000145229 0)
(0.79636 -0.000130469 0)
(0.796368 -0.000117552 0)
(0.796375 -0.000106175 0)
(0.796382 -9.60879e-05 0)
(0.796388 -8.70949e-05 0)
(0.796395 -7.90498e-05 0)
(0.7964 -7.18391e-05 0)
(0.796405 -6.53679e-05 0)
(0.79641 -5.95517e-05 0)
(0.796415 -5.43123e-05 0)
(0.796419 -4.95777e-05 0)
(0.796423 -4.52843e-05 0)
(0.796426 -4.13771e-05 0)
(0.796429 -3.78107e-05 0)
(0.796432 -3.45478e-05 0)
(0.796435 -3.15579e-05 0)
(0.796437 -2.88153e-05 0)
(0.796439 -2.62977e-05 0)
(0.796441 -2.3985e-05 0)
(0.796443 -2.18586e-05 0)
(0.796445 -1.99013e-05 0)
(0.796446 -1.8097e-05 0)
(0.796447 -1.64312e-05 0)
(0.796448 -1.48905e-05 0)
(0.796449 -1.34631e-05 0)
(0.87622 -0.000373954 0)
(0.87616 -0.000337207 0)
(0.876111 -0.000302944 0)
(0.87607 -0.00027182 0)
(0.876037 -0.000243896 0)
(0.876009 -0.000218912 0)
(0.875986 -0.000196556 0)
(0.875967 -0.000176595 0)
(0.875951 -0.000158854 0)
(0.875937 -0.00014316 0)
(0.875926 -0.0001293 0)
(0.875916 -0.000117031 0)
(0.875907 -0.000106115 0)
(0.8759 -9.63462e-05 0)
(0.875893 -8.75654e-05 0)
(0.875888 -7.96526e-05 0)
(0.875882 -7.25155e-05 0)
(0.875878 -6.60759e-05 0)
(0.875874 -6.02615e-05 0)
(0.87587 -5.50032e-05 0)
(0.875867 -5.02355e-05 0)
(0.875864 -4.58992e-05 0)
(0.875861 -4.19428e-05 0)
(0.875858 -3.83231e-05 0)
(0.875856 -3.50049e-05 0)
(0.875854 -3.19588e-05 0)
(0.875852 -2.91601e-05 0)
(0.87585 -2.65871e-05 0)
(0.875848 -2.42201e-05 0)
(0.875847 -2.20404e-05 0)
(0.875845 -2.00308e-05 0)
(0.875844 -1.81752e-05 0)
(0.875842 -1.64588e-05 0)
(0.875841 -1.4868e-05 0)
(0.87584 -1.33909e-05 0)
(0.936206 -0.000287967 0)
(0.936115 -0.00026323 0)
(0.936035 -0.000239455 0)
(0.935964 -0.000217318 0)
(0.935902 -0.00019703 0)
(0.935848 -0.000178518 0)
(0.935799 -0.000161644 0)
(0.935757 -0.000146316 0)
(0.935719 -0.000132479 0)
(0.935685 -0.00012007 0)
(0.935655 -0.000108978 0)
(0.935628 -9.90544e-05 0)
(0.935604 -9.01391e-05 0)
(0.935582 -8.20902e-05 0)
(0.935563 -7.47965e-05 0)
(0.935545 -6.81765e-05 0)
(0.935529 -6.21675e-05 0)
(0.935514 -5.67161e-05 0)
(0.935501 -5.17708e-05 0)
(0.935489 -4.72798e-05 0)
(0.935478 -4.31931e-05 0)
(0.935468 -3.94638e-05 0)
(0.935458 -3.60509e-05 0)
(0.93545 -3.29199e-05 0)
(0.935442 -3.00421e-05 0)
(0.935435 -2.7394e-05 0)
(0.935428 -2.49554e-05 0)
(0.935422 -2.27083e-05 0)
(0.935416 -2.06363e-05 0)
(0.935411 -1.87235e-05 0)
(0.935407 -1.69555e-05 0)
(0.935402 -1.53181e-05 0)
(0.935398 -1.37988e-05 0)
(0.935394 -1.23858e-05 0)
(0.935391 -1.10687e-05 0)
(0.976225 -0.000179709 0)
(0.976116 -0.000165716 0)
(0.976018 -0.000151995 0)
(0.975929 -0.00013901 0)
(0.975848 -0.00012694 0)
(0.975776 -0.000115778 0)
(0.97571 -0.000105468 0)
(0.975651 -9.59825e-05 0)
(0.975597 -8.73201e-05 0)
(0.975548 -7.94695e-05 0)
(0.975504 -7.23862e-05 0)
(0.975465 -6.59946e-05 0)
(0.975428 -6.02069e-05 0)
(0.975395 -5.49433e-05 0)
(0.975365 -5.01413e-05 0)
(0.975338 -4.5756e-05 0)
(0.975313 -4.17536e-05 0)
(0.97529 -3.81047e-05 0)
(0.975269 -3.47797e-05 0)
(0.97525 -3.17478e-05 0)
(0.975233 -2.89781e-05 0)
(0.975217 -2.64411e-05 0)
(0.975202 -2.41109e-05 0)
(0.975189 -2.19654e-05 0)
(0.975176 -1.99863e-05 0)
(0.975165 -1.81584e-05 0)
(0.975155 -1.64686e-05 0)
(0.975145 -1.49051e-05 0)
(0.975136 -1.34568e-05 0)
(0.975128 -1.21134e-05 0)
(0.975121 -1.08648e-05 0)
(0.975114 -9.70147e-06 0)
(0.975108 -8.6148e-06 0)
(0.975102 -7.59678e-06 0)
(0.975096 -6.64028e-06 0)
(0.996241 -6.08548e-05 0)
(0.996125 -5.63461e-05 0)
(0.996019 -5.18798e-05 0)
(0.995921 -4.7616e-05 0)
(0.995832 -4.36209e-05 0)
(0.99575 -3.98988e-05 0)
(0.995676 -3.64366e-05 0)
(0.995608 -3.32291e-05 0)
(0.995546 -3.02798e-05 0)
(0.99549 -2.75888e-05 0)
(0.995439 -2.51445e-05 0)
(0.995392 -2.29244e-05 0)
(0.995349 -2.0901e-05 0)
(0.99531 -1.90494e-05 0)
(0.995275 -1.735e-05 0)
(0.995242 -1.57892e-05 0)
(0.995212 -1.43562e-05 0)
(0.995185 -1.30417e-05 0)
(0.99516 -1.18359e-05 0)
(0.995137 -1.07282e-05 0)
(0.995116 -9.7081e-06 0)
(0.995096 -8.7655e-06 0)
(0.995079 -7.89143e-06 0)
(0.995062 -7.07829e-06 0)
(0.995048 -6.31969e-06 0)
(0.995034 -5.61026e-06 0)
(0.995021 -4.94521e-06 0)
(0.99501 -4.32021e-06 0)
(0.994999 -3.7311e-06 0)
(0.994989 -3.17393e-06 0)
(0.994981 -2.64487e-06 0)
(0.994972 -2.14039e-06 0)
(0.994965 -1.65711e-06 0)
(0.994958 -1.19205e-06 0)
(0.994951 -7.42429e-07 0)
(0.996241 6.1033e-05 0)
(0.996125 5.65372e-05 0)
(0.996019 5.2091e-05 0)
(0.995921 4.78609e-05 0)
(0.995832 4.39109e-05 0)
(0.99575 4.02386e-05 0)
(0.995676 3.68266e-05 0)
(0.995608 3.36698e-05 0)
(0.995546 3.0774e-05 0)
(0.99549 2.81422e-05 0)
(0.995439 2.57645e-05 0)
(0.995392 2.36188e-05 0)
(0.995349 2.16772e-05 0)
(0.99531 1.99138e-05 0)
(0.995275 1.8308e-05 0)
(0.995242 1.68457e-05 0)
(0.995212 1.55167e-05 0)
(0.995185 1.43126e-05 0)
(0.99516 1.32247e-05 0)
(0.995137 1.22438e-05 0)
(0.995116 1.13599e-05 0)
(0.995097 1.05636e-05 0)
(0.995079 9.84632e-06 0)
(0.995063 9.20076e-06 0)
(0.995048 8.62083e-06 0)
(0.995034 8.10187e-06 0)
(0.995022 7.63973e-06 0)
(0.99501 7.2311e-06 0)
(0.995 6.87262e-06 0)
(0.99499 6.56141e-06 0)
(0.994981 6.29438e-06 0)
(0.994973 6.0689e-06 0)
(0.994966 5.88223e-06 0)
(0.994959 5.73218e-06 0)
(0.994953 5.61651e-06 0)
(0.976225 0.000179878 0)
(0.976117 0.0001659 0)
(0.976018 0.0001522 0)
(0.975929 0.000139248 0)
(0.975848 0.00012722 0)
(0.975776 0.000116104 0)
(0.97571 0.000105841 0)
(0.975651 9.64049e-05 0)
(0.975597 8.77949e-05 0)
(0.975549 8.0002e-05 0)
(0.975505 7.29827e-05 0)
(0.975465 6.66618e-05 0)
(0.975429 6.09516e-05 0)
(0.975396 5.57714e-05 0)
(0.975366 5.10584e-05 0)
(0.975339 4.67673e-05 0)
(0.975314 4.28647e-05 0)
(0.975291 3.93217e-05 0)
(0.97527 3.61099e-05 0)
(0.975251 3.31992e-05 0)
(0.975234 3.05596e-05 0)
(0.975218 2.81622e-05 0)
(0.975203 2.59814e-05 0)
(0.97519 2.39956e-05 0)
(0.975178 2.2187e-05 0)
(0.975167 2.05409e-05 0)
(0.975156 1.9045e-05 0)
(0.975147 1.7688e-05 0)
(0.975138 1.64601e-05 0)
(0.975131 1.53514e-05 0)
(0.975123 1.43528e-05 0)
(0.975117 1.34555e-05 0)
(0.975111 1.26516e-05 0)
(0.975105 1.19337e-05 0)
(0.9751 1.12954e-05 0)
(0.936206 0.000288123 0)
(0.936115 0.000263403 0)
(0.936035 0.000239649 0)
(0.935965 0.000217542 0)
(0.935902 0.00019729 0)
(0.935848 0.000178818 0)
(0.9358 0.000161986 0)
(0.935757 0.000146703 0)
(0.935719 0.000132916 0)
(0.935685 0.000120561 0)
(0.935656 0.000109528 0)
(0.935629 9.96684e-05 0)
(0.935605 9.08225e-05 0)
(0.935583 8.28482e-05 0)
(0.935563 7.5635e-05 0)
(0.935546 6.91006e-05 0)
(0.93553 6.31832e-05 0)
(0.935515 5.7829e-05 0)
(0.935502 5.29875e-05 0)
(0.93549 4.86071e-05 0)
(0.935479 4.46388e-05 0)
(0.935469 4.1036e-05 0)
(0.93546 3.77588e-05 0)
(0.935452 3.47724e-05 0)
(0.935444 3.20496e-05 0)
(0.935437 2.95666e-05 0)
(0.935431 2.73044e-05 0)
(0.935425 2.52451e-05 0)
(0.93542 2.33734e-05 0)
(0.935415 2.16738e-05 0)
(0.935411 2.01327e-05 0)
(0.935407 1.87364e-05 0)
(0.935403 1.74733e-05 0)
(0.9354 1.63319e-05 0)
(0.935397 1.5303e-05 0)
(0.87622 0.000374093 0)
(0.876161 0.000337364 0)
(0.876111 0.000303123 0)
(0.87607 0.000272023 0)
(0.876037 0.000244126 0)
(0.876009 0.000219173 0)
(0.875986 0.000196853 0)
(0.875967 0.000176933 0)
(0.875951 0.000159237 0)
(0.875938 0.000143592 0)
(0.875926 0.000129782 0)
(0.875916 0.000117568 0)
(0.875908 0.00010671 0)
(0.875901 9.70049e-05 0)
(0.875894 8.82924e-05 0)
(0.875889 8.04542e-05 0)
(0.875884 7.33963e-05 0)
(0.875879 6.7042e-05 0)
(0.875875 6.13174e-05 0)
(0.875872 5.61552e-05 0)
(0.875869 5.1489e-05 0)
(0.875866 4.72618e-05 0)
(0.875863 4.34211e-05 0)
(0.875861 3.99262e-05 0)
(0.875859 3.67404e-05 0)
(0.875857 3.38369e-05 0)
(0.875855 3.11895e-05 0)
(0.875854 2.87787e-05 0)
(0.875853 2.65833e-05 0)
(0.875851 2.45872e-05 0)
(0.87585 2.27717e-05 0)
(0.875849 2.11231e-05 0)
(0.875849 1.96254e-05 0)
(0.875848 1.82674e-05 0)
(0.875847 1.7036e-05 0)
(0.796334 0.000421216 0)
(0.796321 0.000372996 0)
(0.796314 0.000329761 0)
(0.796314 0.000291716 0)
(0.796316 0.000258492 0)
(0.796322 0.000229478 0)
(0.796328 0.000204088 0)
(0.796336 0.000181871 0)
(0.796344 0.000162477 0)
(0.796352 0.000145584 0)
(0.79636 0.000130866 0)
(0.796368 0.000117992 0)
(0.796376 0.000106662 0)
(0.796383 9.66251e-05 0)
(0.796389 8.76874e-05 0)
(0.796396 7.97025e-05 0)
(0.796402 7.25568e-05 0)
(0.796407 6.61549e-05 0)
(0.796412 6.04123e-05 0)
(0.796417 5.52504e-05 0)
(0.796421 5.05981e-05 0)
(0.796425 4.6392e-05 0)
(0.796429 4.25782e-05 0)
(0.796432 3.91116e-05 0)
(0.796436 3.59557e-05 0)
(0.796439 3.30802e-05 0)
(0.796441 3.04597e-05 0)
(0.796444 2.80721e-05 0)
(0.796446 2.58977e-05 0)
(0.796449 2.39181e-05 0)
(0.796451 2.21167e-05 0)
(0.796453 2.04776e-05 0)
(0.796455 1.8987e-05 0)
(0.796456 1.76319e-05 0)
(0.796458 1.64009e-05 0)
(0.696649 0.000412184 0)
(0.696692 0.000357203 0)
(0.696734 0.000310032 0)
(0.696776 0.000269974 0)
(0.696815 0.000236013 0)
(0.696853 0.000207101 0)
(0.696887 0.000182366 0)
(0.696919 0.000161148 0)
(0.696948 0.000142944 0)
(0.696975 0.000127318 0)
(0.696999 0.000113873 0)
(0.697021 0.000102236 0)
(0.697042 9.20892e-05 0)
(0.69706 8.31724e-05 0)
(0.697077 7.52906e-05 0)
(0.697093 6.82914e-05 0)
(0.697107 6.20626e-05 0)
(0.69712 5.65054e-05 0)
(0.697132 5.15402e-05 0)
(0.697143 4.70887e-05 0)
(0.697153 4.3088e-05 0)
(0.697162 3.9476e-05 0)
(0.697171 3.62075e-05 0)
(0.697179 3.3238e-05 0)
(0.697186 3.05384e-05 0)
(0.697192 2.80777e-05 0)
(0.697198 2.58377e-05 0)
(0.697204 2.37946e-05 0)
(0.697209 2.19354e-05 0)
(0.697214 2.024e-05 0)
(0.697218 1.86983e-05 0)
(0.697223 1.72926e-05 0)
(0.697226 1.6015e-05 0)
(0.69723 1.485e-05 0)
(0.697233 1.37923e-05 0)
(0.577284 0.00033978 0)
(0.577376 0.000287869 0)
(0.577459 0.000245262 0)
(0.577533 0.000210338 0)
(0.577599 0.000181564 0)
(0.577658 0.000157649 0)
(0.577711 0.000137603 0)
(0.577758 0.000120713 0)
(0.5778 0.000106439 0)
(0.577837 9.43456e-05 0)
(0.577871 8.40488e-05 0)
(0.577901 7.52178e-05 0)
(0.577929 6.7573e-05 0)
(0.577954 6.08993e-05 0)
(0.577976 5.50298e-05 0)
(0.577997 4.98445e-05 0)
(0.578015 4.52458e-05 0)
(0.578032 4.11593e-05 0)
(0.578047 3.75155e-05 0)
(0.578062 3.42586e-05 0)
(0.578074 3.13333e-05 0)
(0.578086 2.86982e-05 0)
(0.578097 2.63125e-05 0)
(0.578107 2.41488e-05 0)
(0.578116 2.2179e-05 0)
(0.578125 2.03867e-05 0)
(0.578132 1.87517e-05 0)
(0.578139 1.72634e-05 0)
(0.578146 1.59055e-05 0)
(0.578152 1.46701e-05 0)
(0.578158 1.35431e-05 0)
(0.578163 1.25181e-05 0)
(0.578168 1.15826e-05 0)
(0.578172 1.07322e-05 0)
(0.578176 9.95584e-06 0)
(0.438329 0.0002192 0)
(0.438444 0.000181833 0)
(0.438543 0.000152385 0)
(0.438628 0.000128998 0)
(0.438701 0.000110201 0)
(0.438765 9.48868e-05 0)
(0.438821 8.22616e-05 0)
(0.438871 7.17741e-05 0)
(0.438914 6.302e-05 0)
(0.438952 5.56798e-05 0)
(0.438987 4.94819e-05 0)
(0.439017 4.42004e-05 0)
(0.439045 3.96508e-05 0)
(0.439069 3.56942e-05 0)
(0.439092 3.22256e-05 0)
(0.439112 2.91698e-05 0)
(0.43913 2.64666e-05 0)
(0.439147 2.40696e-05 0)
(0.439162 2.1936e-05 0)
(0.439176 2.00311e-05 0)
(0.439188 1.83212e-05 0)
(0.4392 1.67809e-05 0)
(0.439211 1.5386e-05 0)
(0.43922 1.41203e-05 0)
(0.439229 1.29673e-05 0)
(0.439237 1.19176e-05 0)
(0.439245 1.09597e-05 0)
(0.439252 1.00874e-05 0)
(0.439258 9.29145e-06 0)
(0.439264 8.56712e-06 0)
(0.43927 7.90603e-06 0)
(0.439275 7.30455e-06 0)
(0.439279 6.75515e-06 0)
(0.439284 6.25526e-06 0)
(0.439288 5.79835e-06 0)
(0.279813 9.30127e-05 0)
(0.279911 7.56856e-05 0)
(0.279993 6.25409e-05 0)
(0.280062 5.23977e-05 0)
(0.280121 4.44171e-05 0)
(0.280171 3.80147e-05 0)
(0.280215 3.28032e-05 0)
(0.280252 2.85209e-05 0)
(0.280286 2.49844e-05 0)
(0.280315 2.20437e-05 0)
(0.280341 1.95779e-05 0)
(0.280364 1.74832e-05 0)
(0.280385 1.56833e-05 0)
(0.280403 1.41176e-05 0)
(0.28042 1.27474e-05 0)
(0.280435 1.15398e-05 0)
(0.280449 1.04745e-05 0)
(0.280461 9.52941e-06 0)
(0.280473 8.69052e-06 0)
(0.280483 7.93966e-06 0)
(0.280492 7.26695e-06 0)
(0.280501 6.65819e-06 0)
(0.280509 6.10781e-06 0)
(0.280516 5.60552e-06 0)
(0.280523 5.1493e-06 0)
(0.280529 4.73151e-06 0)
(0.280535 4.35202e-06 0)
(0.28054 4.00429e-06 0)
(0.280545 3.68896e-06 0)
(0.280549 3.39985e-06 0)
(0.280553 3.13797e-06 0)
(0.280557 2.89743e-06 0)
(0.28056 2.67964e-06 0)
(0.280564 2.47908e-06 0)
(0.280567 2.29769e-06 0)
(0.101697 8.58254e-06 0)
(0.10174 6.77852e-06 0)
(0.101775 5.4929e-06 0)
(0.101804 4.54341e-06 0)
(0.101829 3.81752e-06 0)
(0.10185 3.24713e-06 0)
(0.101868 2.79037e-06 0)
(0.101883 2.42154e-06 0)
(0.101897 2.12185e-06 0)
(0.101909 1.87644e-06 0)
(0.101919 1.67206e-06 0)
(0.101929 1.49876e-06 0)
(0.101937 1.34881e-06 0)
(0.101945 1.21774e-06 0)
(0.101952 1.10213e-06 0)
(0.101958 1.00035e-06 0)
(0.101964 9.10277e-07 0)
(0.101969 8.30777e-07 0)
(0.101973 7.59799e-07 0)
(0.101978 6.96399e-07 0)
(0.101981 6.38824e-07 0)
(0.101985 5.86662e-07 0)
(0.101988 5.38675e-07 0)
(0.101991 4.94967e-07 0)
(0.101994 4.54635e-07 0)
(0.101997 4.18019e-07 0)
(0.101999 3.84284e-07 0)
(0.102001 3.53803e-07 0)
(0.102003 3.25704e-07 0)
(0.102005 3.00366e-07 0)
(0.102006 2.76899e-07 0)
(0.102008 2.55729e-07 0)
(0.102009 2.36e-07 0)
(0.102011 2.18214e-07 0)
(0.102012 2.01555e-07 0)
(0.102011 -1.67595e-07 0)
(0.102012 -1.52683e-07 0)
(0.102013 -1.38939e-07 0)
(0.102014 -1.26186e-07 0)
(0.102014 -1.14442e-07 0)
(0.102015 -1.03543e-07 0)
(0.102015 -9.35076e-08 0)
(0.102016 -8.41811e-08 0)
(0.102016 -7.5585e-08 0)
(0.102017 -6.75757e-08 0)
(0.280564 -1.82994e-06 0)
(0.280566 -1.6587e-06 0)
(0.280568 -1.4999e-06 0)
(0.28057 -1.35253e-06 0)
(0.280572 -1.21564e-06 0)
(0.280573 -1.08841e-06 0)
(0.280574 -9.70032e-07 0)
(0.280575 -8.59795e-07 0)
(0.280576 -7.57e-07 0)
(0.280577 -6.61024e-07 0)
(0.439284 -4.56348e-06 0)
(0.439287 -4.13019e-06 0)
(0.439289 -3.72821e-06 0)
(0.439291 -3.3548e-06 0)
(0.439293 -3.00764e-06 0)
(0.439295 -2.68447e-06 0)
(0.439297 -2.38336e-06 0)
(0.439298 -2.10239e-06 0)
(0.439299 -1.8399e-06 0)
(0.439301 -1.59424e-06 0)
(0.578171 -7.72566e-06 0)
(0.578174 -6.98035e-06 0)
(0.578176 -6.2883e-06 0)
(0.578179 -5.64488e-06 0)
(0.578181 -5.04593e-06 0)
(0.578182 -4.48766e-06 0)
(0.578184 -3.9666e-06 0)
(0.578185 -3.47957e-06 0)
(0.578186 -3.0236e-06 0)
(0.578187 -2.59599e-06 0)
(0.697227 -1.0503e-05 0)
(0.697229 -9.46878e-06 0)
(0.697231 -8.5074e-06 0)
(0.697232 -7.61246e-06 0)
(0.697234 -6.77816e-06 0)
(0.697235 -5.99926e-06 0)
(0.697236 -5.2709e-06 0)
(0.697237 -4.58867e-06 0)
(0.697238 -3.94846e-06 0)
(0.697238 -3.34654e-06 0)
(0.79645 -1.21383e-05 0)
(0.796451 -1.09067e-05 0)
(0.796452 -9.75996e-06 0)
(0.796452 -8.69042e-06 0)
(0.796452 -7.69129e-06 0)
(0.796453 -6.75633e-06 0)
(0.796453 -5.87983e-06 0)
(0.796453 -5.05649e-06 0)
(0.796453 -4.28147e-06 0)
(0.796453 -3.55031e-06 0)
(0.875839 -1.20167e-05 0)
(0.875838 -1.07359e-05 0)
(0.875836 -9.53994e-06 0)
(0.875835 -8.42122e-06 0)
(0.875834 -7.37273e-06 0)
(0.875833 -6.38808e-06 0)
(0.875832 -5.46138e-06 0)
(0.875831 -4.58721e-06 0)
(0.87583 -3.76056e-06 0)
(0.875829 -2.97686e-06 0)
(0.935388 -9.83834e-06 0)
(0.935385 -8.68644e-06 0)
(0.935382 -7.60562e-06 0)
(0.935379 -6.58926e-06 0)
(0.935377 -5.63128e-06 0)
(0.935374 -4.72612e-06 0)
(0.935372 -3.86861e-06 0)
(0.93537 -3.054e-06 0)
(0.935368 -2.27788e-06 0)
(0.935366 -1.53627e-06 0)
(0.975091 -5.73895e-06 0)
(0.975087 -4.88712e-06 0)
(0.975083 -4.07973e-06 0)
(0.975079 -3.31219e-06 0)
(0.975075 -2.58031e-06 0)
(0.975072 -1.88022e-06 0)
(0.975069 -1.20834e-06 0)
(0.975066 -5.61348e-07 0)
(0.975063 6.37819e-08 0)
(0.975061 6.69821e-07 0)
(0.994946 -3.05839e-07 0)
(0.99494 1.19955e-07 0)
(0.994935 5.36896e-07 0)
(0.994931 9.46832e-07 0)
(0.994926 1.35138e-06 0)
(0.994923 1.75212e-06 0)
(0.994919 2.15041e-06 0)
(0.994916 2.54758e-06 0)
(0.994913 2.94475e-06 0)
(0.99491 3.34298e-06 0)
(0.994947 5.53356e-06 0)
(0.994942 5.48157e-06 0)
(0.994937 5.45934e-06 0)
(0.994932 5.46544e-06 0)
(0.994928 5.49893e-06 0)
(0.994925 5.55859e-06 0)
(0.994921 5.6436e-06 0)
(0.994918 5.75281e-06 0)
(0.994915 5.88548e-06 0)
(0.994913 6.04051e-06 0)
(0.975095 1.07309e-05 0)
(0.975091 1.02352e-05 0)
(0.975087 9.8036e-06 0)
(0.975084 9.43235e-06 0)
(0.975081 9.11747e-06 0)
(0.975078 8.85578e-06 0)
(0.975075 8.64381e-06 0)
(0.975073 8.4788e-06 0)
(0.975071 8.35764e-06 0)
(0.975069 8.2779e-06 0)
(0.935394 1.43773e-05 0)
(0.935391 1.35477e-05 0)
(0.935389 1.28067e-05 0)
(0.935387 1.21488e-05 0)
(0.935385 1.15678e-05 0)
(0.935384 1.10589e-05 0)
(0.935382 1.06168e-05 0)
(0.935381 1.02374e-05 0)
(0.93538 9.91606e-06 0)
(0.935379 9.64927e-06 0)
(0.875847 1.59226e-05 0)
(0.875846 1.49164e-05 0)
(0.875846 1.40113e-05 0)
(0.875846 1.31978e-05 0)
(0.875846 1.24715e-05 0)
(0.875846 1.1824e-05 0)
(0.875846 1.12519e-05 0)
(0.875846 1.07477e-05 0)
(0.875846 1.03085e-05 0)
(0.875846 9.92778e-06 0)
(0.79646 1.52837e-05 0)
(0.796461 1.42715e-05 0)
(0.796462 1.33559e-05 0)
(0.796464 1.25299e-05 0)
(0.796465 1.17867e-05 0)
(0.796467 1.11203e-05 0)
(0.796468 1.05251e-05 0)
(0.796469 9.99581e-06 0)
(0.79647 9.52764e-06 0)
(0.796472 9.11614e-06 0)
(0.697236 1.28286e-05 0)
(0.697239 1.19555e-05 0)
(0.697242 1.11617e-05 0)
(0.697245 1.04454e-05 0)
(0.697247 9.79625e-06 0)
(0.697249 9.21382e-06 0)
(0.697252 8.68866e-06 0)
(0.697254 8.22101e-06 0)
(0.697256 7.80208e-06 0)
(0.697258 7.43277e-06 0)
(0.57818 9.25082e-06 0)
(0.578184 8.60773e-06 0)
(0.578187 8.0252e-06 0)
(0.57819 7.49498e-06 0)
(0.578193 7.01667e-06 0)
(0.578196 6.5828e-06 0)
(0.578198 6.19366e-06 0)
(0.578201 5.84228e-06 0)
(0.578203 5.52944e-06 0)
(0.578206 5.24861e-06 0)
(0.439291 5.38292e-06 0)
(0.439295 5.00335e-06 0)
(0.439298 4.65902e-06 0)
(0.439301 4.34496e-06 0)
(0.439304 4.06116e-06 0)
(0.439306 3.80304e-06 0)
(0.439309 3.57101e-06 0)
(0.439311 3.36076e-06 0)
(0.439313 3.17299e-06 0)
(0.439315 3.00358e-06 0)
(0.280569 2.13032e-06 0)
(0.280572 1.97936e-06 0)
(0.280574 1.83997e-06 0)
(0.280577 1.71484e-06 0)
(0.280579 1.59932e-06 0)
(0.280581 1.49629e-06 0)
(0.280582 1.40121e-06 0)
(0.280584 1.31708e-06 0)
(0.280586 1.23944e-06 0)
(0.280587 1.17139e-06 0)
(0.102013 1.86592e-07 0)
(0.102014 1.72532e-07 0)
(0.102015 1.5999e-07 0)
(0.102016 1.48172e-07 0)
(0.102017 1.37718e-07 0)
(0.102018 1.27826e-07 0)
(0.102018 1.19155e-07 0)
(0.102019 1.10897e-07 0)
(0.10202 1.03728e-07 0)
(0.10202 9.68379e-08 0)
(0.102017 -6.01805e-08 0)
(0.102017 -5.32693e-08 0)
(0.102018 -4.68769e-08 0)
(0.102018 -4.0886e-08 0)
(0.102018 -3.53379e-08 0)
(0.102018 -3.01259e-08 0)
(0.102018 -2.52965e-08 0)
(0.102018 -2.075e-08 0)
(0.102018 -1.65381e-08 0)
(0.102018 -1.25675e-08 0)
(0.102018 -8.89526e-09 0)
(0.102018 -5.43046e-09 0)
(0.102018 -2.23043e-09 0)
(0.102018 7.93718e-10 0)
(0.102018 3.58093e-09 0)
(0.102018 6.21859e-09 0)
(0.102018 8.6431e-09 0)
(0.102017 1.094e-08 0)
(0.102017 1.30456e-08 0)
(0.102017 1.50427e-08 0)
(0.102017 1.68683e-08 0)
(0.102017 1.86075e-08 0)
(0.102016 2.01856e-08 0)
(0.102016 2.16887e-08 0)
(0.102016 2.30582e-08 0)
(0.102016 2.43532e-08 0)
(0.102015 2.55347e-08 0)
(0.102015 2.66773e-08 0)
(0.102015 2.77492e-08 0)
(0.102015 2.88356e-08 0)
(0.102014 2.99309e-08 0)
(0.102014 3.11321e-08 0)
(0.102014 3.24658e-08 0)
(0.102014 3.39914e-08 0)
(0.102013 3.56559e-08 0)
(0.280578 -5.71263e-07 0)
(0.280579 -4.87195e-07 0)
(0.280579 -4.08315e-07 0)
(0.28058 -3.34205e-07 0)
(0.28058 -2.64459e-07 0)
(0.28058 -1.98759e-07 0)
(0.28058 -1.36788e-07 0)
(0.28058 -7.83129e-08 0)
(0.28058 -2.30937e-08 0)
(0.28058 2.90364e-08 0)
(0.28058 7.8254e-08 0)
(0.28058 1.24668e-07 0)
(0.28058 1.68415e-07 0)
(0.280579 2.09569e-07 0)
(0.280579 2.48229e-07 0)
(0.280579 2.84436e-07 0)
(0.280578 3.18263e-07 0)