/*--------------------------------*- C++ -*----------------------------------*\
| =========                 |                                                 |
| \\      /  F ield         | OpenFOAM: The Open Source CFD Toolbox           |
|  \\    /   O peration     | Version:  2406                                  |
|   \\  /    A nd           | Website:  www.openfoam.com                      |
|    \\/     M anipulation  |                                                 |
\*---------------------------------------------------------------------------*/
FoamFile
{
    version     2.0;
    format      ascii;
    arch        "LSB;label=32;scalar=64";
    class       volScalarField;
    location    "32";
    object      p;
}
// * * * * * * * * * * * * * * * * * * * * * * * * * * * * * * * * * * * * * //

dimensions      [0 2 -2 0 0 0 0];

internalField   nonuniform List<scalar> 
1800
(
0.961066
0.940069
0.91658
0.892553
0.866869
0.839046
0.808674
0.774947
0.736724
0.686033
0.967984
0.942319
0.916506
0.892211
0.866614
0.83891
0.809057
0.776667
0.740977
0.701128
0.973128
0.944887
0.917624
0.893601
0.868748
0.841979
0.813784
0.784621
0.755135
0.727308
0.978307
0.949075
0.921087
0.897595
0.873936
0.848781
0.823031
0.797669
0.773651
0.752629
0.983946
0.954367
0.926192
0.90332
0.880894
0.857454
0.834074
0.811886
0.791668
0.77439
0.989155
0.959552
0.931663
0.909435
0.888027
0.866032
0.844533
0.824572
0.806684
0.791346
0.992881
0.963579
0.936372
0.914672
0.893895
0.872892
0.852652
0.834011
0.817313
0.802777
0.994244
0.965882
0.939669
0.918182
0.897551
0.877034
0.857438
0.839367
0.823052
0.808638
0.992082
0.966149
0.941273
0.919624
0.898711
0.878216
0.858718
0.840633
0.824166
0.809476
0.98562
0.964139
0.941228
0.91951
0.898262
0.87757
0.857863
0.839475
0.822638
0.807553
0.719754
0.718891
0.719185
0.721276
0.725003
0.730094
0.736263
0.74322
0.750675
0.758347
0.765969
0.773298
0.780124
0.786272
0.791613
0.796058
0.799558
0.802104
0.803716
0.804444
0.804353
0.803524
0.802046
0.800009
0.797501
0.794608
0.791407
0.787968
0.784352
0.780614
0.776796
0.772936
0.769062
0.7652
0.761365
0.720689
0.719804
0.720125
0.722148
0.725654
0.730412
0.736199
0.742771
0.749868
0.757224
0.76458
0.771696
0.778358
0.784393
0.789665
0.794079
0.797583
0.800163
0.801837
0.802648
0.802658
0.801943
0.800589
0.798681
0.796305
0.793542
0.790469
0.787153
0.783653
0.780023
0.776305
0.772536
0.768745
0.764955
0.761185
0.720313
0.719386
0.719757
0.721811
0.725238
0.729829
0.735408
0.741768
0.748671
0.755861
0.763081
0.770092
0.776678
0.782662
0.787904
0.792309
0.795825
0.798434
0.800152
0.801022
0.801104
0.800473
0.79921
0.797401
0.795129
0.792474
0.789508
0.786298
0.782903
0.779372
0.775748
0.772066
0.768356
0.76464
0.760936
0.717574
0.716816
0.717456
0.719783
0.723415
0.728146
0.733822
0.740256
0.747217
0.754456
0.761718
0.76876
0.775367
0.781363
0.786609
0.791014
0.794525
0.79713
0.798847
0.799722
0.799818
0.79921
0.797982
0.796217
0.794
0.791407
0.788511
0.785377
0.78206
0.778609
0.775065
0.771462
0.767828
0.764184
0.760548
0.712068
0.711943
0.713337
0.716342
0.720534
0.725715
0.73175
0.738468
0.745653
0.753062
0.760447
0.76757
0.774221
0.780228
0.785461
0.789833
0.7933
0.795858
0.797529
0.798366
0.798435
0.797815
0.79659
0.794845
0.792663
0.79012
0.787286
0.784223
0.780985
0.777619
0.774162
0.770647
0.767099
0.763539
0.759983
0.703423
0.704719
0.707652
0.711927
0.717112
0.723053
0.729654
0.736788
0.744272
0.751884
0.759389
0.766562
0.773207
0.779164
0.784314
0.788585
0.791943
0.794392
0.795966
0.79672
0.796728
0.796071
0.794833
0.7931
0.790952
0.788463
0.785701
0.782723
0.779581
0.776317
0.772967
0.76956
0.766119
0.762664
0.759207
0.691104
0.695141
0.700849
0.707154
0.713772
0.720723
0.728023
0.735621
0.743391
0.751153
0.758699
0.765825
0.772357
0.778153
0.783116
0.787188
0.79035
0.792619
0.794036
0.794666
0.794583
0.793872
0.792615
0.790896
0.788792
0.786374
0.783702
0.780833
0.777811
0.774676
0.771458
0.768185
0.764877
0.761549
0.758216
0.672596
0.682718
0.693564
0.702762
0.711127
0.719242
0.727275
0.735282
0.743238
0.751023
0.758468
0.765399
0.77167
0.777166
0.781815
0.785577
0.788453
0.79047
0.791679
0.792148
0.791956
0.791183
0.789913
0.788221
0.786181
0.783856
0.781303
0.77857
0.775697
0.772719
0.769662
0.76655
0.763398
0.760222
0.757032
0.637607
0.665578
0.686383
0.699283
0.709561
0.718932
0.727661
0.735947
0.743916
0.75154
0.758699
0.765257
0.7711
0.776147
0.780352
0.783701
0.786209
0.787915
0.788878
0.789169
0.788862
0.788037
0.786769
0.785128
0.783179
0.780977
0.778573
0.776006
0.773311
0.770517
0.767646
0.764717
0.761744
0.758739
0.75571
0.588996
0.64832
0.6819
0.698103
0.709835
0.720195
0.729388
0.737708
0.745444
0.752672
0.759328
0.765318
0.770567
0.775026
0.778678
0.78153
0.783613
0.784976
0.785679
0.785791
0.785384
0.784529
0.78329
0.781731
0.779904
0.777857
0.77563
0.773256
0.770764
0.768176
0.76551
0.76278
0.76
0.757177
0.75432
0.63466
0.662627
0.689606
0.703485
0.713979
0.723871
0.732763
0.740647
0.747796
0.754335
0.760248
0.765478
0.769982
0.773742
0.776764
0.779073
0.780711
0.781728
0.782185
0.782143
0.781666
0.780812
0.779638
0.778192
0.776517
0.774651
0.772624
0.770463
0.768189
0.765819
0.763367
0.760845
0.758261
0.755624
0.75294
0.673649
0.684224
0.701444
0.712553
0.721352
0.72987
0.737709
0.744641
0.750819
0.756369
0.761309
0.765613
0.769262
0.772258
0.774623
0.776388
0.777598
0.778302
0.778551
0.778398
0.777892
0.77708
0.776003
0.774699
0.7732
0.771532
0.769718
0.767777
0.765725
0.763573
0.761333
0.759014
0.756622
0.754165
0.751646
0.708994
0.709314
0.717602
0.725037
0.731473
0.737847
0.74391
0.749358
0.754197
0.758504
0.762302
0.765581
0.768332
0.770565
0.772301
0.773571
0.774412
0.774863
0.774963
0.774751
0.774262
0.773528
0.772578
0.771436
0.770124
0.768659
0.767058
0.765332
0.763493
0.761549
0.759508
0.757377
0.755162
0.752868
0.7505
0.738088
0.733664
0.735685
0.739153
0.742749
0.746593
0.750479
0.754113
0.7574
0.760348
0.762961
0.765225
0.767129
0.768673
0.769869
0.770736
0.771297
0.771577
0.771598
0.771384
0.770954
0.770328
0.769522
0.76855
0.767425
0.766156
0.764754
0.763227
0.761581
0.759823
0.757958
0.755993
0.753932
0.751781
0.749544
0.761623
0.754806
0.752595
0.752476
0.753224
0.754567
0.756268
0.758069
0.759826
0.761489
0.763027
0.76441
0.765609
0.76661
0.767404
0.767993
0.768383
0.76858
0.768592
0.768427
0.768091
0.767593
0.766938
0.766133
0.765183
0.764093
0.762868
0.761514
0.760034
0.758434
0.756718
0.754892
0.752959
0.750925
0.748795
0.779242
0.77093
0.765899
0.762959
0.761274
0.760472
0.760302
0.760534
0.761008
0.761632
0.762338
0.763069
0.763776
0.764421
0.764977
0.765426
0.765755
0.765955
0.76602
0.765945
0.765728
0.765366
0.76486
0.76421
0.763416
0.762481
0.761407
0.760196
0.758854
0.757382
0.755786
0.75407
0.752239
0.750297
0.748251
0.790707
0.781329
0.774449
0.769514
0.766014
0.763615
0.762073
0.761176
0.760757
0.76069
0.760876
0.761228
0.761677
0.762162
0.762641
0.763076
0.763442
0.763716
0.763883
0.763928
0.763844
0.76362
0.763256
0.762744
0.762087
0.761283
0.760333
0.75924
0.758006
0.756635
0.755132
0.753501
0.751748
0.749876
0.747893
0.796292
0.786136
0.778095
0.771907
0.767254
0.763867
0.761512
0.759983
0.759099
0.75871
0.758688
0.758928
0.759336
0.759841
0.760382
0.760913
0.761397
0.761804
0.76211
0.762299
0.762356
0.762273
0.762042
0.761659
0.761121
0.760429
0.759583
0.758586
0.757439
0.756149
0.754717
0.753152
0.751457
0.749638
0.747702
0.796716
0.785986
0.777269
0.770415
0.765202
0.761388
0.75874
0.75704
0.75609
0.755717
0.755774
0.756135
0.756698
0.757377
0.758105
0.758827
0.759501
0.760093
0.760578
0.760936
0.761152
0.761216
0.761121
0.760862
0.760438
0.759849
0.759096
0.758181
0.75711
0.755885
0.754513
0.752999
0.75135
0.749571
0.747669
0.79439
0.783261
0.77418
0.76704
0.761645
0.757757
0.755129
0.753525
0.752728
0.752546
0.752818
0.753408
0.754204
0.755115
0.756069
0.757008
0.757886
0.75867
0.759333
0.759854
0.760219
0.760419
0.760446
0.760298
0.759973
0.759471
0.758796
0.75795
0.756939
0.755767
0.754441
0.752967
0.751352
0.749603
0.747726
0.757572
0.75383
0.750145
0.746522
0.742963
0.739467
0.736036
0.732668
0.729362
0.726116
0.757448
0.753755
0.750113
0.746526
0.742997
0.739527
0.736117
0.732768
0.729477
0.726244
0.757259
0.753619
0.750022
0.746475
0.74298
0.73954
0.736155
0.732826
0.729552
0.726334
0.756934
0.75335
0.749805
0.746304
0.74285
0.739445
0.736091
0.732788
0.729536
0.726335
0.756443
0.752929
0.749448
0.746004
0.742601
0.73924
0.735925
0.732654
0.729429
0.72625
0.755762
0.752335
0.748934
0.745562
0.742223
0.738919
0.735652
0.732422
0.72923
0.726077
0.754885
0.751565
0.748262
0.744978
0.741718
0.738483
0.735275
0.732095
0.728944
0.725822
0.753837
0.750642
0.747452
0.744272
0.741103
0.737948
0.734809
0.731686
0.728581
0.725495
0.752665
0.749608
0.746545
0.743477
0.740409
0.737342
0.734278
0.731218
0.728163
0.725116
0.751433
0.748522
0.745591
0.742642
0.739679
0.736703
0.733717
0.730721
0.727719
0.724711
0.750213
0.747447
0.744648
0.741817
0.738957
0.736071
0.733161
0.730229
0.727278
0.724307
0.749071
0.746444
0.743769
0.741048
0.738286
0.735484
0.732646
0.729773
0.726868
0.723932
0.748063
0.745561
0.742997
0.740376
0.7377
0.734973
0.732198
0.729378
0.726513
0.723608
0.747225
0.744829
0.742361
0.739824
0.737222
0.734559
0.731837
0.72906
0.72623
0.723349
0.746573
0.744264
0.741874
0.739405
0.736862
0.73425
0.731571
0.728829
0.726026
0.723165
0.746104
0.743863
0.741532
0.739116
0.736619
0.734046
0.7314
0.728685
0.725903
0.723057
0.745803
0.743613
0.741326
0.738949
0.736486
0.733942
0.73132
0.728625
0.725859
0.723025
0.745654
0.743499
0.741245
0.738895
0.736457
0.733933
0.731329
0.728648
0.725894
0.723069
0.745651
0.743523
0.741291
0.73896
0.736537
0.734027
0.731434
0.728762
0.726016
0.723198
0.745729
0.743619
0.741402
0.739084
0.736671
0.73417
0.731584
0.728919
0.726178
0.723365
0.72293
0.719801
0.716731
0.713718
0.710763
0.707867
0.705032
0.70226
0.699556
0.696924
0.694369
0.691899
0.689521
0.687245
0.685081
0.68304
0.681136
0.679382
0.677794
0.676387
0.675177
0.674179
0.673408
0.672876
0.672593
0.672567
0.672803
0.673306
0.67409
0.675178
0.676612
0.67843
0.680598
0.682833
0.684425
0.723069
0.719951
0.71689
0.713886
0.71094
0.708054
0.70523
0.702471
0.699782
0.697166
0.694632
0.692185
0.689835
0.687591
0.685464
0.683467
0.681614
0.679918
0.678396
0.677063
0.675938
0.675035
0.67437
0.673957
0.673805
0.673919
0.674303
0.674952
0.675864
0.677036
0.678473
0.680182
0.682156
0.684287
0.686032
0.723171
0.720063
0.71701
0.714014
0.711075
0.708196
0.705379
0.702628
0.699948
0.697343
0.694821
0.69239
0.690058
0.687836
0.685735
0.683769
0.681952
0.6803
0.678828
0.677556
0.6765
0.675679
0.675108
0.674802
0.674773
0.675024
0.675554
0.676352
0.677399
0.678669
0.68014
0.681813
0.683767
0.686173
0.688538
0.723186
0.720089
0.717045
0.714054
0.711119
0.708241
0.705424
0.702672
0.699989
0.697381
0.694855
0.692419
0.690083
0.687858
0.685755
0.683787
0.681971
0.680322
0.678859
0.677598
0.676561
0.675767
0.675233
0.674977
0.67501
0.675339
0.675962
0.676861
0.67801
0.679369
0.680905
0.682628
0.684734
0.687733
0.691062
0.723117
0.720032
0.716994
0.714006
0.711069
0.708186
0.70536
0.702595
0.699896
0.697268
0.694719
0.692257
0.68989
0.687631
0.685491
0.683483
0.681624
0.679929
0.678418
0.677109
0.676022
0.675179
0.674601
0.674304
0.674306
0.674614
0.675228
0.676133
0.677299
0.678684
0.680246
0.682004
0.684279
0.687976
0.692439
0.722964
0.719891
0.71686
0.713871
0.710928
0.708032
0.705187
0.702396
0.699665
0.696999
0.694404
0.691889
0.689463
0.687135
0.684918
0.682824
0.680869
0.679069
0.677442
0.676006
0.674782
0.673791
0.673054
0.67259
0.672416
0.672544
0.672975
0.673699
0.674689
0.675905
0.677298
0.678893
0.681111
0.685389
0.690924
0.722731
0.719672
0.716645
0.713653
0.710698
0.707781
0.704907
0.702078
0.699298
0.696574
0.693911
0.691316
0.688797
0.686364
0.684027
0.681797
0.679688
0.677716
0.675894
0.674242
0.672776
0.671515
0.670478
0.66968
0.669137
0.668856
0.668837
0.669069
0.669523
0.670157
0.670914
0.671794
0.673349
0.677625
0.683642
0.722429
0.719384
0.716362
0.713363
0.710391
0.707447
0.704533
0.701653
0.698811
0.696011
0.693257
0.690556
0.687914
0.685338
0.682838
0.680423
0.678102
0.675888
0.673793
0.67183
0.67001
0.668347
0.666851
0.665528
0.664382
0.663405
0.662579
0.661871
0.661226
0.660564
0.659777
0.658816
0.658239
0.661051
0.666688
0.722076
0.719046
0.716027
0.713019
0.710026
0.707048
0.704087
0.701146
0.698229
0.695336
0.692473
0.689644
0.686852
0.684103
0.681402
0.678756
0.676172
0.673655
0.671212
0.668849
0.666569
0.664375
0.662263
0.660221
0.658226
0.656241
0.654198
0.652001
0.649499
0.64648
0.642651
0.637665
0.631709
0.628829
0.634697
0.721698
0.718682
0.715664
0.712645
0.709627
0.70661
0.703597
0.700588
0.697585
0.69459
0.691605
0.68863
0.685668
0.682722
0.679793
0.676883
0.673992
0.671123
0.668273
0.665438
0.662612
0.65978
0.656919
0.65399
0.650933
0.647655
0.64401
0.639773
0.634592
0.627918
0.618882
0.606093
0.587438
0.562114
0.545322
0.72132
0.718316
0.715298
0.712266
0.709221
0.706164
0.703095
0.700014
0.696922
0.693818
0.690702
0.687574
0.684432
0.681275
0.678101
0.674906
0.671686
0.668433
0.665139
0.661787
0.658357
0.654817
0.65112
0.647196
0.642939
0.638188
0.632693
0.62606
0.617641
0.606325
0.590092
0.564988
0.522472
0.441862
0.28388
0.720967
0.717974
0.714955
0.711908
0.708836
0.705738
0.702613
0.69946
0.696279
0.693067
0.689822
0.68654
0.683217
0.679849
0.676427
0.672944
0.669388
0.665745
0.661995
0.658112
0.654061
0.649792
0.645233
0.640284
0.634797
0.62855
0.621207
0.612241
0.600803
0.58547
0.563771
0.531257
0.479897
0.395603
0.268174
0.720662
0.717677
0.714655
0.711594
0.708496
0.705358
0.702181
0.698961
0.695696
0.692383
0.689016
0.685589
0.682096
0.678526
0.67487
0.671112
0.667236
0.663218
0.659031
0.654638
0.649988
0.645018
0.639635
0.633715
0.627078
0.619467
0.610501
0.599612
0.585928
0.568108
0.544063
0.510611
0.463264
0.396335
0.307786
0.720419
0.717441
0.714415
0.711341
0.708219
0.705047
0.701824
0.698545
0.695206
0.691804
0.688329
0.684775
0.681131
0.677384
0.673519
0.669516
0.665353
0.661001
0.656421
0.651569
0.646383
0.640785
0.634671
0.627898
0.620272
0.611524
0.601271
0.58897
0.573844
0.554782
0.530229
0.498095
0.455838
0.400735
0.332123
0.720247
0.717273
0.714245
0.71116
0.708019
0.70482
0.701559
0.698232
0.694835
0.691359
0.687798
0.68414
0.680374
0.676481
0.672446
0.668242
0.663843
0.659213
0.654309
0.649076
0.643445
0.637329
0.630614
0.623149
0.614739
0.605117
0.593926
0.580679
0.564723
0.54518
0.520921
0.490551
0.452552
0.405635
0.350144
0.720149
0.71718
0.714149
0.711058
0.707903
0.704684
0.701396
0.698036
0.694595
0.691068
0.687444
0.683712
0.679856
0.675858
0.671697
0.667346
0.662773
0.657938
0.652792
0.647275
0.641312
0.634809
0.627647
0.619675
0.610697
0.600463
0.588646
0.574828
0.558467
0.538891
0.515284
0.486736
0.452387
0.411722
0.365315
0.720125
0.71716
0.71413
0.711035
0.707874
0.704644
0.70134
0.69796
0.694495
0.690937
0.687276
0.683499
0.67959
0.675529
0.671292
0.666853
0.662173
0.657212
0.651916
0.646222
0.64005
0.633304
0.625859
0.617567
0.608236
0.597631
0.585453
0.571342
0.554846
0.535444
0.512541
0.485537
0.453928
0.417524
0.37678
0.720176
0.717216
0.714189
0.711095
0.707933
0.7047
0.701393
0.698006
0.694534
0.690966
0.687294
0.683502
0.679576
0.675494
0.671233
0.666762
0.662047
0.657041
0.651692
0.645932
0.639682
0.632839
0.625285
0.616863
0.607393
0.596642
0.58434
0.570152
0.553695
0.53453
0.5122
0.48626
0.456389
0.422496
0.384922
0.72031
0.717355
0.714332
0.711243
0.708085
0.704857
0.701555
0.698175
0.694711
0.691153
0.687492
0.683715
0.679806
0.675745
0.671509
0.667067
0.662385
0.657419
0.652115
0.646407
0.640215
0.633439
0.625957
0.617621
0.608245
0.597607
0.585439
0.571425
0.555201
0.536364
0.514501
0.48923
0.460275
0.427566
0.391358
0.720483
0.717532
0.714515
0.711432
0.708282
0.705063
0.701772
0.698406
0.694957
0.69142
0.687783
0.684036
0.680162
0.676144
0.671959
0.667578
0.662968
0.658087
0.652883
0.647293
0.641239
0.634624
0.627328
0.619205
0.610073
0.59971
0.58785
0.574175
0.558321
0.539884
0.518442
0.493605
0.465078
0.432759
0.396842
-0.0108828
0.00930345
0.0496116
0.058303
0.0576058
0.0539507
0.0468308
0.0364424
0.0235694
0.00867754
0.11368
0.0738994
0.0768486
0.0739117
0.066608
0.0586547
0.0492071
0.0375656
0.0238375
0.00857245
0.201885
0.139382
0.114244
0.0976524
0.0823154
0.0685287
0.0551531
0.0409418
0.0253919
0.00878968
0.253455
0.192701
0.155094
0.127906
0.104627
0.0841901
0.0655211
0.0473221
0.0287172
0.00957743
0.289451
0.235586
0.19364
0.159574
0.12978
0.103153
0.0788844
0.0559589
0.0334398
0.0110341
0.315411
0.267361
0.224721
0.187004
0.152794
0.121417
0.0923752
0.0650157
0.0385471
0.012768
0.33307
0.289048
0.247031
0.207672
0.170776
0.136142
0.10356
0.0726823
0.0429225
0.0141589
0.344548
0.302898
0.261532
0.221396
0.182878
0.146142
0.111199
0.0779159
0.0458676
0.0149048
0.352309
0.311499
0.270168
0.22934
0.189686
0.151588
0.115211
0.0805271
0.0472067
0.0151161
0.357904
0.316915
0.275065
0.233452
0.192891
0.153888
0.116683
0.0812817
0.0474725
0.0151295
)
;

boundaryField
{
    inlet
    {
        type            zeroGradient;
    }
    outlet
    {
        type            fixedValue;
        value           uniform 0;
    }
    upperWall
    {
        type            zeroGradient;
    }
    lowerWall
    {
        type            zeroGradient;
    }
    frontAndBack
    {
        type            empty;
    }
}


// ************************************************************************* //
