/*--------------------------------*- C++ -*----------------------------------*\
| =========                 |                                                 |
| \\      /  F ield         | OpenFOAM: The Open Source CFD Toolbox           |
|  \\    /   O peration     | Version:  2406                                  |
|   \\  /    A nd           | Website:  www.openfoam.com                      |
|    \\/     M anipulation  |                                                 |
\*---------------------------------------------------------------------------*/
FoamFile
{
    version     2.0;
    format      ascii;
    arch        "LSB;label=32;scalar=64";
    class       surfaceScalarField;
    location    "32";
    object      phi;
}
// * * * * * * * * * * * * * * * * * * * * * * * * * * * * * * * * * * * * * //

dimensions      [0 3 -1 0 0 0 0];

oriented        oriented;

internalField   nonuniform List<scalar> 
3480
(
0.0193739
-0.000373929
0.0198135
-0.000439566
0.0202133
-0.000399837
0.0206474
-0.000434053
0.0211806
-0.000533247
0.0218824
-0.000701738
0.022874
-0.00099159
0.024387
-0.001513
0.0269934
-0.00260644
-0.0058951
0.0328884
0.0509681
-0.000342023
0.0512339
-0.000705361
0.051706
-0.000871966
0.0523359
-0.00106395
0.0531519
-0.00134927
0.0542128
-0.0017626
0.0556067
-0.00238549
0.057464
-0.00337029
0.0598683
-0.00501074
-0.00794051
0.0619136
0.0749727
-0.000314741
0.0750717
-0.000804365
0.0753671
-0.00116741
0.0758431
-0.00153991
0.0764985
-0.00200468
0.0773491
-0.00261324
0.0784077
-0.00344407
0.0796526
-0.00461524
0.0809246
-0.00628277
-0.00864383
0.081628
0.0909786
-0.000293376
0.090983
-0.000808776
0.0910885
-0.00127288
0.0913065
-0.00175792
0.0916283
-0.00232652
0.0920425
-0.0030274
0.0925191
-0.00392065
0.092983
-0.00507917
0.0932724
-0.00657214
-0.00843831
0.0930669
0.0989597
-0.00025313
0.0988773
-0.000726297
0.0988077
-0.00120335
0.0987656
-0.00171577
0.0987359
-0.00229685
0.0986934
-0.00298485
0.0985937
-0.00382098
0.0983578
-0.00484322
0.0978594
-0.00607379
-0.00749787
0.096919
0.0989265
-0.000179596
0.0987499
-0.000549739
0.0985229
-0.000976317
0.0982537
-0.0014466
0.0979205
-0.00196359
0.0974914
-0.00255573
0.0969201
-0.00324964
0.0961374
-0.00406043
0.0950513
-0.00498768
-0.00600397
0.0935575
0.0908823
-6.19028e-05
0.0906167
-0.000284101
0.0902711
-0.000630739
0.0898398
-0.00101526
0.0892924
-0.00141616
0.088595
-0.00185825
0.0877037
-0.00235828
0.0865621
-0.00291884
0.0851067
-0.00353226
-0.00417525
0.0832781
0.0748278
0.000110273
0.0745255
1.82627e-05
0.0741538
-0.000258994
0.0736724
-0.000533832
0.0730448
-0.000788553
0.0722404
-0.00105374
0.0712228
-0.00134061
0.0699517
-0.00164774
0.0683889
-0.00196943
-0.00229276
0.0665065
0.0508166
0.000293708
0.0506532
0.00018165
0.0504157
-2.14842e-05
0.0500359
-0.00015398
0.0494999
-0.000252456
0.0487939
-0.000347758
0.0478985
-0.000445151
0.0467941
-0.000543261
0.0454654
-0.000640668
-0.000734108
0.0439067
0.0192937
0.0194754
0.0194539
0.0192999
0.0190475
0.0186997
0.0182546
0.0177113
0.0170707
0.0163365
-0.000137698
0.000137687
-0.000507478
0.000369754
-0.000975833
0.00046833
-0.00142988
0.000454022
-0.0018053
0.000375397
-0.00207074
0.000265411
-0.00221446
0.000143697
-0.00223608
2.16113e-05
-0.00214197
-9.41233e-05
-0.00194267
-0.000199297
-0.00165157
-0.00029108
-0.00128385
-0.000367692
-0.000855597
-0.00042821
-0.000383039
-0.000472495
0.000118096
-0.000501057
0.000633148
-0.000514955
0.00114893
-0.000515671
0.00165408
-0.000505023
0.00213922
-0.00048499
0.00259696
-0.000457591
0.0030219
-0.000424781
0.00341045
-0.000388377
0.00376062
-0.000349995
0.00407181
-0.00031102
0.00434457
-0.000272587
0.00458032
-0.000235588
0.00478116
-0.000200681
0.00494963
-0.000168321
0.00508854
-0.00013878
0.00520085
-0.000112186
0.00528949
-8.85442e-05
0.00535735
-6.77728e-05
0.00540714
-4.97203e-05
0.00544138
-3.41943e-05
-2.0971e-05
0.00546239
-0.000403881
0.000541542
-0.00123429
0.00120009
-0.00220241
0.00143639
-0.00310094
0.00135249
-0.00380517
0.00107957
-0.00425308
0.000713271
-0.00442343
0.000314013
-0.00431999
-8.18569e-05
-0.0039613
-0.000452814
-0.00337492
-0.000785651
-0.00259359
-0.00107234
-0.00165274
-0.00130844
-0.000588517
-0.0014923
0.000563644
-0.00162448
0.00177002
-0.00170722
0.00299977
-0.00174445
0.0042256
-0.00174121
0.00542405
-0.00170316
0.00657576
-0.00163634
0.00766537
-0.00154683
0.00868148
-0.0014405
0.00961627
-0.00132277
0.0104652
-0.0011985
0.0112265
-0.0010719
0.0119007
-0.000946446
0.0124905
-0.000824934
0.0129996
-0.000709484
0.0134333
-0.00060161
0.0137971
-0.000502294
0.0140972
-0.000412061
0.01434
-0.000331069
0.0145316
-0.000259178
0.014678
-0.00019603
0.0147851
-0.000141104
-9.37749e-05
0.014858
-0.000573752
0.00111527
-0.00164508
0.00227137
-0.00280293
0.00259419
-0.00379848
0.002348
-0.00449523
0.00177627
-0.00483268
0.00105069
-0.00479859
0.00027989
-0.00440945
-0.000470996
-0.00369837
-0.00116388
-0.00270762
-0.00177637
-0.00148383
-0.00229608
-7.48241e-05
-0.00271736
0.00147221
-0.00303922
0.00311234
-0.00326447
0.00480437
-0.00339907
0.00651121
-0.0034511
0.00820042
-0.00343019
0.00984445
-0.00334694
0.0114207
-0.00321233
0.0129114
-0.00303725
0.0143034
-0.00283213
0.0155875
-0.00260656
0.0167584
-0.00236914
0.0178142
-0.00212733
0.0187554
-0.00188735
0.019585
-0.00165423
0.0203077
-0.00143187
0.0209295
-0.0012231
0.0214573
-0.00102982
0.0218986
-0.000853135
0.0222612
-0.000693478
0.022553
-0.000550742
0.0227815
-0.000424401
0.0229541
-0.00031362
-0.000217347
0.0230778
-0.000646583
0.00176183
-0.00175258
0.00337733
-0.00282526
0.00366682
-0.00361251
0.00313521
-0.0040038
0.00216753
-0.0039685
0.00101536
-0.0035205
-0.000168135
-0.00269706
-0.00129444
-0.00154767
-0.00231326
-0.000126732
-0.00319728
0.00151044
-0.0039332
0.00330999
-0.00451685
0.00522149
-0.00495064
0.00719882
-0.00524171
0.00920067
-0.0054008
0.0111909
-0.00544121
0.0131388
-0.00537788
0.0150187
-0.00522667
0.0168102
-0.00500363
0.0184976
-0.00472443
0.0200696
-0.00440386
0.0215187
-0.00405547
0.0228411
-0.00369134
0.0240359
-0.00332187
0.0251047
-0.00295582
0.0260509
-0.00260024
0.0268799
-0.00226062
0.0275981
-0.00194102
0.0282126
-0.00164419
0.0287315
-0.00137176
0.0291626
-0.00112445
0.0295143
-0.000902203
0.0297944
-0.000704358
0.0300107
-0.000529802
-0.000377094
0.0301705
-0.000643717
0.00240554
-0.00157862
0.00431217
-0.00228065
0.0043688
-0.00255175
0.00340627
-0.00234969
0.00196542
-0.00169889
0.000364517
-0.000650873
-0.00121618
0.000732579
-0.00267791
0.00238754
-0.00396823
0.00425226
-0.00506199
0.00626918
-0.00595011
0.00838596
-0.0066336
0.0105558
-0.00712047
0.0127378
-0.00742367
0.0148968
-0.00755973
0.0170033
-0.00754759
0.0190331
-0.00740762
0.0209673
-0.00716071
0.0227914
-0.00682757
0.0244951
-0.00642805
0.0260721
-0.00598064
0.0275189
-0.00550207
0.0288348
-0.00500714
0.0300217
-0.00450851
0.0310828
-0.00401675
0.0320231
-0.00354036
0.0328486
-0.00308591
0.033566
-0.00265826
0.0341826
-0.00226067
0.0347061
-0.00189508
0.0351442
-0.00156232
0.0355044
-0.00126228
0.0357943
-0.000994133
0.0360211
-0.000756484
-0.000547537
0.0361916
-0.000562252
0.00296776
-0.00108199
0.00483185
-0.00107782
0.00436456
-0.000496798
0.00282519
0.000583654
0.000884909
0.00206661
-0.00111849
0.00386063
-0.00301024
0.00588428
-0.0047016
0.00806761
-0.00615158
0.010351
-0.00734541
0.0126837
-0.00828285
0.0150228
-0.00897268
0.0173322
-0.00942986
0.0195822
-0.00967371
0.0217491
-0.00972658
0.0238143
-0.00961275
0.0257641
-0.00935737
0.027589
-0.00898563
0.0292835
-0.00852192
0.0308448
-0.00798927
0.032273
-0.00740877
0.0335703
-0.0067993
0.0347406
-0.00617729
0.0357889
-0.00555668
0.0367212
-0.00494891
0.0375441
-0.00436313
0.0382646
-0.00380628
0.0388899
-0.00328338
0.0394271
-0.00279776
0.0398834
-0.00235125
0.0402657
-0.00194453
0.0405808
-0.00157723
0.040835
-0.00124825
0.0410345
-0.000955858
-0.000697901
0.0411849
-0.000336516
0.00330425
-6.55675e-05
0.00456083
0.00108939
0.00320954
0.0028945
0.00102002
0.00511135
-0.00133199
0.00757696
-0.00358415
0.010178
-0.00561129
0.0128331
-0.00735681
0.0154839
-0.00880247
0.0180873
-0.00994886
0.0206107
-0.0108063
0.0230293
-0.0113913
0.0253245
-0.0117251
0.0274832
-0.0118324
0.0294968
-0.0117402
0.0313607
-0.0114767
0.0330739
-0.0110706
0.0346382
-0.0105499
0.0360577
-0.00994142
0.0373383
-0.00926984
0.0384872
-0.00855759
0.0395123
-0.00782437
0.0404221
-0.00708707
0.0412253
-0.00635975
0.0419302
-0.0056538
0.0425452
-0.00497806
0.0430781
-0.0043391
0.0435363
-0.00374147
0.0439266
-0.00318801
0.0442555
-0.00268007
0.0445288
-0.00221782
0.0447521
-0.00180043
0.0449303
-0.00142637
0.045068
-0.0010935
-0.000799289
0.0451694
0.000233349
0.00307087
0.00202731
0.0027668
0.00494358
0.000293218
0.0083176
-0.00235406
0.0118033
-0.00481772
0.015238
-0.00701888
0.0185386
-0.00891204
0.0216623
-0.0104805
0.0245874
-0.0117276
0.0273035
-0.0126651
0.0298068
-0.0133097
0.0320974
-0.013682
0.0341786
-0.0138064
0.0360565
-0.0137103
0.0377393
-0.0134231
0.0392373
-0.0129748
0.0405623
-0.0123957
0.0417272
-0.0117149
0.0427455
-0.0109597
0.0436307
-0.0101551
0.0443965
-0.00932337
0.0450557
-0.00848359
0.0456206
-0.00765193
0.0461023
-0.00684152
0.0465112
-0.00606269
0.0468564
-0.00532323
0.047146
-0.00462863
0.0473869
-0.00398243
0.0475855
-0.00338652
0.0477468
-0.00284142
0.0478756
-0.00234653
0.0479756
-0.00190041
0.0480502
-0.00150095
0.0481023
-0.00114557
-0.000831357
0.0481344
0.00199169
0.00107915
0.00673376
-0.00197537
0.0119597
-0.00493282
0.016913
-0.00730742
0.0214236
-0.00932836
0.0254751
-0.0110704
0.0290917
-0.0125287
0.0323061
-0.0136951
0.0351502
-0.0145717
0.0376528
-0.0151679
0.0398407
-0.0154976
0.0417385
-0.0155799
0.0433703
-0.0154383
0.0447597
-0.0150998
0.04593
-0.0145935
0.0469043
-0.0139491
0.0477051
-0.0131966
0.0483542
-0.0123641
0.0488723
-0.0114779
0.0492788
-0.0105617
0.0495913
-0.00963603
0.0498261
-0.00871836
0.049997
-0.00782297
0.0501166
-0.00696116
0.0501954
-0.00614148
0.0502421
-0.00536999
0.0502641
-0.00465067
0.0502673
-0.00398565
0.0502563
-0.00337561
0.0502349
-0.00282002
0.0502058
-0.00231741
0.050171
-0.00186562
0.050132
-0.00146198
0.0500898
-0.00110343
-0.000786745
0.0500452
0.00988098
-0.00880192
0.01804
-0.0101345
0.0245499
-0.0114428
0.0299515
-0.0127091
0.0344909
-0.0138679
0.0383246
-0.0149042
0.0415663
-0.0157705
0.044299
-0.0164278
0.0465851
-0.016858
0.0484753
-0.0170581
0.0500132
-0.0170356
0.0512384
-0.0168052
0.0521877
-0.0163878
0.0528961
-0.0158083
0.0533966
-0.015094
0.0537204
-0.014273
0.0538967
-0.013373
0.0539526
-0.0124201
0.0539126
-0.011438
0.0537986
-0.0104478
0.0536297
-0.00946725
0.0534225
-0.0085112
0.0531907
-0.00759129
0.0529458
-0.00671636
0.0526969
-0.00589267
0.0524511
-0.0051243
0.0522138
-0.00441341
0.0519887
-0.00376064
0.0517784
-0.00316535
0.0515843
-0.00262598
0.051407
-0.00214021
0.0512466
-0.00170523
0.0511024
-0.00131786
0.0509737
-0.000974713
-0.000672295
0.0508592
0.0357812
-0.0116948
0.039819
-0.0141724
0.0436924
-0.0153162
0.0471813
-0.0161981
0.0502253
-0.016912
0.0527911
-0.01747
0.0548903
-0.0178698
0.0565566
-0.0180942
0.0578288
-0.0181302
0.0587463
-0.0179758
0.0593493
-0.0176386
0.0596777
-0.0171336
0.0597707
-0.0164809
0.0596663
-0.015704
0.0594008
-0.0148286
0.059008
-0.0138803
0.0585187
-0.0128839
0.057961
-0.0118624
0.0573592
-0.0108363
0.0567344
-0.00982298
0.0561039
-0.00883693
0.0554823
-0.00788961
0.0548805
-0.00698969
0.0543073
-0.00614326
0.0537688
-0.00535421
0.0532689
-0.00462453
0.0528101
-0.00395467
0.0523932
-0.00334383
0.052018
-0.00279026
0.0516834
-0.0022915
0.0513877
-0.00184457
0.0511286
-0.0014462
0.0509035
-0.00109288
0.0507098
-0.000781062
-0.000507163
0.0505446
0.0621817
-0.0119629
0.0627552
-0.0147459
0.0637317
-0.0162927
0.0648056
-0.0172721
0.0658039
-0.0179103
0.0666115
-0.0182776
0.0671638
-0.0184222
0.0674394
-0.0183698
0.0674426
-0.0181335
0.0671926
-0.0177257
0.066717
-0.0171631
0.0660486
-0.0164653
0.0652228
-0.0156551
0.0642748
-0.0147561
0.0632389
-0.0137927
0.0621466
-0.012788
0.0610264
-0.0117638
0.0599032
-0.0107393
0.0587977
-0.00973091
0.057727
-0.00875236
0.0567043
-0.00781436
0.0557396
-0.00692497
0.0548396
-0.0060898
0.0540086
-0.00531232
0.0532484
-0.0045942
0.0525594
-0.00393563
0.0519402
-0.0033356
0.0513885
-0.00279221
0.050901
-0.0023029
0.050474
-0.00186462
0.0501034
-0.00147405
0.0497848
-0.00112769
0.0495138
-0.00082199
0.0492861
-0.000553421
-0.000318528
0.0490974
0.0811886
-0.0115235
0.080362
-0.0139193
0.0795801
-0.0155108
0.0788432
-0.0165352
0.0780911
-0.0171583
0.0772652
-0.0174517
0.0763165
-0.0174735
0.0752186
-0.0172719
0.0739669
-0.0168818
0.0725725
-0.0163314
0.0710568
-0.0156474
0.0694473
-0.0148559
0.0677746
-0.0139823
0.0660695
-0.013051
0.0643613
-0.0120846
0.0626768
-0.0111035
0.0610387
-0.0101258
0.059466
-0.00916664
0.0579736
-0.00823853
0.0565723
-0.00735111
0.0552694
-0.00651155
0.054069
-0.00572471
0.0529726
-0.0049935
0.0519794
-0.00431918
0.0510867
-0.00370164
0.0502907
-0.00313974
0.0495865
-0.00263149
0.0489685
-0.00217432
0.0484307
-0.00176526
0.0479671
-0.00140108
0.0475714
-0.00107843
0.0472375
-0.000793904
0.0469596
-0.000544156
0.046732
-0.000325919
-0.000136057
0.0465494
0.0920784
-0.010535
0.0905577
-0.0123985
0.0888097
-0.0137628
0.0869405
-0.014666
0.0849772
-0.015195
0.0829297
-0.0154041
0.0807991
-0.0153429
0.0785883
-0.015061
0.0763082
-0.0146016
0.0739777
-0.0140009
0.0716213
-0.0132909
0.0692662
-0.0125007
0.0669402
-0.0116562
0.0646695
-0.0107803
0.0624778
-0.00989282
0.0603849
-0.00901058
0.0584066
-0.00814745
0.0565544
-0.00731442
0.0548357
-0.0065199
0.0532545
-0.00576994
0.0518115
-0.00506855
0.0505047
-0.00441799
0.0493302
-0.00381908
0.0482824
-0.00327146
0.0473546
-0.00277392
0.0465392
-0.0023245
0.0458284
-0.00192079
0.045214
-0.00156004
0.044688
-0.0012393
0.0442423
-0.000955519
0.0438694
-0.000705631
0.043562
-0.000486619
0.0433133
-0.00029556
0.043117
-0.000129649
1.37708e-05
0.0429671
0.0953916
-0.00900754
0.0933599
-0.0103667
0.0909966
-0.0113994
0.0884124
-0.0120816
0.0856698
-0.0124524
0.0828169
-0.0125511
0.0798925
-0.0124184
0.0769295
-0.012098
0.0739594
-0.0116313
0.0710132
-0.0110546
0.0681214
-0.0103991
0.0653123
-0.0096915
0.0626109
-0.00895478
0.0600386
-0.00820787
0.057612
-0.00746619
0.0553435
-0.00674199
0.0532407
-0.00604467
0.0513075
-0.00538117
0.0495439
-0.00475632
0.0479472
-0.00417319
0.046512
-0.00363336
0.0452312
-0.00313728
0.0440965
-0.00268442
0.0430986
-0.00227358
0.0422276
-0.001903
0.0414736
-0.00157057
0.0408266
-0.00127391
0.040277
-0.00101054
0.0398155
-0.000777857
0.0394332
-0.000573312
0.0391218
-0.000394368
0.0388737
-0.000238594
0.0386817
-0.000103647
0.0385393
1.26753e-05
0.000112454
0.0384406
0.0915835
-0.00703355
0.0891641
-0.00794716
0.0864022
-0.00863743
0.0833942
-0.00907355
0.0802156
-0.00927368
0.0769324
-0.00926784
0.0736034
-0.0090893
0.0702794
-0.00877394
0.0670045
-0.0083563
0.0638165
-0.00786656
0.0607476
-0.00732999
0.0578236
-0.00676743
0.0550647
-0.00619571
0.052485
-0.00562807
0.0500935
-0.00507465
0.0478945
-0.00454293
0.0458881
-0.00403821
0.044071
-0.00356403
0.0424372
-0.0031225
0.0409787
-0.0027146
0.0396857
-0.00234043
0.0385478
-0.00199941
0.0375539
-0.00169049
0.0366925
-0.00141223
0.0359523
-0.00116293
0.0353224
-0.000940754
0.0347922
-0.000743768
0.0343516
-0.000570004
0.0339912
-0.000417503
0.0337021
-0.000284354
0.0334764
-0.000168705
0.0333065
-6.87956e-05
0.0331858
1.70491e-05
0.033108
9.03903e-05
0.000152693
0.0330677
0.0810447
-0.00480007
0.0784339
-0.00533628
0.0755208
-0.00572429
0.0723915
-0.00594414
0.0691254
-0.00600747
0.0657949
-0.00593723
0.0624647
-0.00575903
0.0591898
-0.00549897
0.0560151
-0.00518146
0.0529758
-0.00482716
0.0500985
-0.00445267
0.0474022
-0.00407097
0.0448985
-0.003692
0.0425936
-0.00332312
0.0404886
-0.00296958
0.0385806
-0.00263492
0.0368638
-0.00232137
0.03533
-0.00203016
0.0339692
-0.00176175
0.0327707
-0.00151603
0.0317227
-0.00129249
0.0308135
-0.00109028
0.0300314
-0.000908398
0.0293647
-0.000745651
0.0288025
-0.000600796
0.0283342
-0.000472526
0.0279499
-0.000359543
0.0276404
-0.000260544
0.0273971
-0.000174281
0.0272122
-9.95276e-05
0.0270786
-3.51398e-05
0.0269898
1.99922e-05
0.0269399
6.68811e-05
0.0269238
0.000106503
0.000139738
0.0269367
0.0642998
-0.00259339
0.0618017
-0.00283804
0.0590771
-0.00299965
0.0562037
-0.00307066
0.0532564
-0.00306008
0.0503024
-0.00298313
0.047399
-0.00285559
0.0445924
-0.00269232
0.0419175
-0.00250642
0.0393988
-0.0023084
0.0370524
-0.00210621
0.0348872
-0.00190572
0.0329063
-0.00171111
0.0311085
-0.00152525
0.029489
-0.00135
0.0280405
-0.00118642
0.0267541
-0.00103503
0.0256199
-0.000895911
0.024627
-0.000768898
0.0237645
-0.000653608
0.0230215
-0.000549533
0.0223872
-0.000456074
0.0218513
-0.00037258
0.021404
-0.000298372
0.0210359
-0.000232758
0.0207383
-0.000175055
0.0205033
-0.000124585
0.0203234
-8.0702e-05
0.0201918
-4.27736e-05
0.0201024
-1.02098e-05
0.0200497
1.756e-05
0.0200286
4.10581e-05
0.0200347
6.07891e-05
0.020064
7.72068e-05
9.07477e-05
0.0201131
0.0421299
-0.000816471
0.0401698
-0.000877956
0.0380814
-0.000911207
0.0359264
-0.000915563
0.033762
-0.000895663
0.0316366
-0.000857664
0.0295883
-0.000807158
0.0276449
-0.000748924
0.0258254
-0.000686799
0.0241407
-0.000623657
0.022596
-0.00056146
0.0211918
-0.000501547
0.0199255
-0.000444762
0.0187919
-0.000391633
0.0177843
-0.000342402
0.016895
-0.000297156
0.0161158
-0.00025583
0.0154382
-0.000218308
0.0148537
-0.000184402
0.0143539
-0.000153926
0.013931
-0.000126652
0.0135772
-0.000102372
0.0132855
-8.08547e-05
0.0130489
-6.18934e-05
0.0128614
-4.52648e-05
0.012717
-3.0776e-05
0.0126106
-1.822e-05
0.0125373
-7.42144e-06
0.0124926
1.80697e-06
0.0124728
9.6218e-06
0.0124741
1.61907e-05
0.0124935
2.16494e-05
0.0125282
2.61435e-05
0.0125756
2.97895e-05
3.27132e-05
0.0126337
0.0155201
0.0146421
0.0137309
0.0128154
0.0119197
0.0110621
0.0102549
0.009506
0.00881921
0.00819556
0.0076341
0.00713256
0.0066878
0.00629617
0.00595377
0.00565661
0.00540078
0.00518247
0.00499806
0.00484413
0.00471747
0.00461509
0.00453423
0.00447233
0.00442706
0.00439627
0.00437805
0.00437062
0.00437242
0.00438204
0.00439823
0.00441988
0.00444602
0.00447581
0.00450853
0.00547222
-9.81712e-06
0.00547271
-4.92168e-07
0.00546546
7.23295e-06
0.00545185
1.35811e-05
0.00543305
1.87598e-05
0.00541003
2.29653e-05
0.00538359
2.63737e-05
0.00535437
2.91493e-05
0.00532286
3.14378e-05
3.33752e-05
0.0052894
0.0149015
-5.33541e-05
0.0149202
-1.91262e-05
0.0149177
9.62727e-06
0.0148976
3.36034e-05
0.0148628
5.34704e-05
0.0148158
6.98581e-05
0.0147587
8.33555e-05
0.0146932
9.45063e-05
0.0146206
0.000103812
0.000111735
0.0145421
0.0231589
-0.000134389
0.0232033
-6.34778e-05
0.0232162
-3.32079e-06
0.0232024
4.73618e-05
0.023166
8.98082e-05
0.0231106
0.000125205
0.0230392
0.00015467
0.0229543
0.000179254
0.0228581
0.000199931
0.000217611
0.0227521
0.0302808
-0.000244572
0.0303478
-0.000130443
0.0303774
-3.28536e-05
0.0303747
5.00515e-05
0.0303444
0.000120089
0.0302905
0.000179011
0.0302167
0.000228491
0.0301257
0.000270112
0.0300202
0.00030536
0.000335632
0.0299021
0.0363123
-0.000365213
0.0363892
-0.00020726
0.0364277
-7.13385e-05
0.0364329
4.49141e-05
0.0364092
0.000143825
0.0363605
0.000227655
0.0362904
0.000298575
0.0362018
0.000358655
0.0360972
0.000409857
0.000454039
0.0359788
0.0412917
-0.000471926
0.0413598
-0.00027529
0.0413937
-0.000105255
0.0413977
4.09469e-05
0.0413755
0.000166053
0.0413304
0.000272725
0.0412654
0.000363533
0.0411831
0.000440937
0.0410856
0.000507284
0.000564813
0.0409748
0.0452385
-0.000540937
0.0452787
-0.000315473
0.0452933
-0.000119844
0.0452853
4.90156e-05
0.0452572
0.000194135
0.0452115
0.000318457
0.0451502
0.000424823
0.0450751
0.000515961
0.0449879
0.000594486
0.000662906
0.0448897
0.0481487
-0.000555185
0.048147
-0.00031382
0.0481312
-0.000103987
0.0481026
7.75768e-05
0.0480627
0.000234069
0.0480126
0.000368588
0.0479532
0.000484116
0.0478857
0.000583522
0.0478106
0.000669559
0.000744881
0.0477286
0.0499986
-0.000508529
0.0499501
-0.00026537
0.0499
-5.38652e-05
0.0498482
0.000129333
0.0497948
0.000287472
0.0497397
0.00042368
0.0496829
0.000540958
0.0496242
0.000642188
0.0495636
0.000730145
0.000807501
0.049501
0.0507577
-0.000407086
0.0506679
-0.000175596
0.0505884
2.55892e-05
0.050518
0.000199783
0.0504553
0.00035016
0.0503992
0.000479762
0.0503487
0.000591497
0.0503027
0.00068815
0.0502605
0.000772399
0.000846831
0.0502211
0.0504052
-0.000267669
0.0502887
-5.9163e-05
0.0501926
0.000121653
0.0501144
0.000277924
0.050052
0.000412644
0.0500031
0.00052866
0.0499659
0.000628684
0.0499388
0.000715306
0.0499202
0.000791012
0.000858207
0.0499088
0.0489437
-0.000113977
0.048821
6.343e-05
0.0487259
0.000216725
0.0486551
0.000348772
0.0486054
0.000462279
0.0485743
0.00055981
0.0485592
0.00064379
0.048558
0.000716533
0.0485688
0.000780254
0.000837098
0.04859
0.046407
2.84204e-05
0.0463
0.000170334
0.0462244
0.000292333
0.0461762
0.000396907
0.0461521
0.000486394
0.046149
0.000562991
0.046164
0.000628776
0.0461949
0.000685717
0.0462395
0.000735706
0.000780572
0.0462961
0.0428582
0.000137204
0.0427856
0.000242984
0.0427446
0.000333302
0.0427313
0.000410196
0.0427421
0.000475575
0.0427739
0.000531221
0.0428239
0.000578815
0.0428897
0.000619949
0.0429694
0.000656151
0.000688903
0.0430611
0.0383801
0.000197615
0.0383531
0.000269972
0.0383552
0.000331193
0.0383826
0.000382844
0.0384318
0.000426364
0.0384999
0.000463112
0.0385844
0.000494351
0.0386832
0.000521292
0.0387943
0.000545083
0.000566856
0.0389164
0.03306
0.000205315
0.0330804
0.000249522
0.0331251
0.000286475
0.0331907
0.000317259
0.0332743
0.000342872
0.0333732
0.00036425
0.0334853
0.000382267
0.0336089
0.000397756
0.0337426
0.000411515
0.000424325
0.0338852
0.0269746
0.000167429
0.0270338
0.000190325
0.0271112
0.000209149
0.027204
0.000224537
0.0273099
0.000237106
0.0274268
0.000247406
0.0275532
0.000255977
0.0276878
0.00026331
0.0278295
0.000269896
0.000276203
0.0279778
0.0201787
0.000101799
0.0202584
0.000110734
0.0203498
0.00011788
0.0204509
0.000123554
0.0205601
0.000128036
0.020676
0.000131598
0.0207977
0.000134487
0.0209242
0.000136945
0.0210551
0.000139199
0.000141477
0.02119
0.0127005
3.50127e-05
0.0127745
3.67958e-05
0.0128544
3.81437e-05
0.0129389
3.9149e-05
0.0130272
3.98795e-05
0.0131185
4.04156e-05
0.0132123
4.08158e-05
0.0133082
4.11532e-05
0.0134061
4.1481e-05
4.18699e-05
0.0135059
0.00454355
0.00458036
0.00461851
0.00465767
0.00469757
0.004738
0.00477883
0.00482
0.0048615
0.00490339
0.00525424
3.50819e-05
0.00521748
3.66723e-05
0.00517915
3.82491e-05
0.00513915
3.99127e-05
0.00509732
4.17557e-05
0.00505337
4.38716e-05
0.00500695
4.63498e-05
0.0049576
4.92832e-05
0.00490478
5.2763e-05
0.00484784
5.68861e-05
0.00478604
6.17491e-05
0.00471855
6.74547e-05
0.00464441
7.41056e-05
0.00456257
8.18093e-05
0.00447188
9.06709e-05
0.00437107
0.000100797
0.00425877
0.000112284
0.00413354
0.000125226
0.00399384
0.000139697
0.00383809
0.000155754
0.00366467
0.00017343
0.00347194
0.000192736
0.00325829
0.000213662
0.0030221
0.000236201
0.00276175
0.000260359
0.00247561
0.000286161
0.00216209
0.000313525
0.00182025
0.000341864
0.00145117
0.000369096
0.0010614
0.00038979
0.00066885
0.000392571
0.000310587
0.000358289
4.75398e-05
0.000263061
-5.22232e-05
9.9779e-05
-5.22212e-05
0.0144582
0.000118701
0.0143696
0.000125106
0.0142763
0.000131322
0.0141784
0.0001377
0.0140754
0.000144581
0.0139668
0.000152297
0.0138518
0.000161177
0.0137293
0.000171556
0.0135982
0.000183772
0.0134568
0.000198177
0.0133033
0.000215134
0.0131356
0.000235024
0.0129514
0.00025824
0.0127479
0.000285194
0.0125222
0.000316308
0.012271
0.000352015
0.0119905
0.000392743
0.0116768
0.000438916
0.0113256
0.00049093
0.0109322
0.000549149
0.0104917
0.000613882
0.0099991
0.000685386
0.00944893
0.000763856
0.00883571
0.000849443
0.00815387
0.000942239
0.0073979
0.00104216
0.00656302
0.00114844
0.00564658
0.00125835
0.00465157
0.00136416
0.00359355
0.00144786
0.00251222
0.00147398
0.00148605
0.0013845
0.000640942
0.00110823
0.000125841
0.000614902
7.36229e-05
0.0226375
0.000233139
0.0225151
0.000247311
0.0223854
0.000260875
0.0222484
0.00027455
0.0221038
0.000289031
0.021951
0.000305003
0.0217889
0.000323147
0.0216161
0.000344156
0.021431
0.000368739
0.0212315
0.000397632
0.0210149
0.000431604
0.0207783
0.000471463
0.0205184
0.000518061
0.0202313
0.000572295
0.0199124
0.000635105
0.0195569
0.000707475
0.0191592
0.00079042
0.0187131
0.000884975
0.0182119
0.000992182
0.0176479
0.00111307
0.0170132
0.00124862
0.0162988
0.00139978
0.0154953
0.0015674
0.0145925
0.00175226
0.0135798
0.00195493
0.0124465
0.00217549
0.0111825
0.00241253
0.00978011
0.00266078
0.00823853
0.00290579
0.00657195
0.00311451
0.00482438
0.0032216
0.00309164
0.00311733
0.00154444
0.00265546
0.000430503
0.00172888
0.000504129
0.0297729
0.000362242
0.0296337
0.000386433
0.029485
0.000409388
0.0293272
0.000432249
0.02916
0.000456128
0.0289827
0.000482126
0.0287944
0.00051135
0.0285935
0.000544923
0.0283781
0.000584007
0.0281458
0.000629812
0.0278937
0.000683612
0.0276183
0.000746758
0.0273156
0.000820684
0.0269809
0.000906923
0.0266089
0.00100711
0.0261933
0.00112298
0.0257273
0.00125638
0.025203
0.00140924
0.0246116
0.00158361
0.0239431
0.00178158
0.0231863
0.00200534
0.0223291
0.00225708
0.0213574
0.00253904
0.0202563
0.00285341
0.0190091
0.00320218
0.017598
0.00358665
0.0160045
0.00400607
0.014211
0.00445427
0.0122046
0.00491229
0.00998494
0.00533419
0.00758228
0.00562435
0.00508982
0.00560983
0.00271582
0.00502953
0.00084034
0.00360441
0.00134448
0.0358479
0.000492964
0.035706
0.000528311
0.0355536
0.000561696
0.035391
0.000594686
0.0352182
0.000628821
0.0350346
0.000665636
0.0348392
0.000706681
0.0346304
0.000753542
0.0344065
0.000807868
0.0341648
0.000871386
0.0339024
0.00094593
0.0336156
0.00103345
0.0333002
0.00113606
0.032951
0.00125602
0.0325623
0.00139578
0.0321272
0.00155799
0.031638
0.00174551
0.0310858
0.00196145
0.0304602
0.00220915
0.0297496
0.0024922
0.0289405
0.00281447
0.0280175
0.00318012
0.0269629
0.00359357
0.0257568
0.00405956
0.0243761
0.0045829
0.0227948
0.00516803
0.0209834
0.0058175
0.0189096
0.00652811
0.01654
0.00728192
0.0138468
0.00802745
0.0108264
0.00864485
0.00754397
0.00889232
0.00422506
0.00834855
0.00139986
0.0064297
0.00274436
0.040852
0.000615665
0.0407184
0.000661896
0.0405745
0.000705497
0.0404207
0.00074842
0.0402568
0.000792592
0.0400824
0.000839951
0.0398965
0.000892467
0.0396978
0.000952171
0.0394844
0.00102119
0.039254
0.00110175
0.0390035
0.00119627
0.0387296
0.00130731
0.0384279
0.00143766
0.0380935
0.00159037
0.0377205
0.00176877
0.0373019
0.00197649
0.0368299
0.00221757
0.0362949
0.00249641
0.0356861
0.0028179
0.0349908
0.00318746
0.0341943
0.00361107
0.0332789
0.00409543
0.0322245
0.00464805
0.0310068
0.00527731
0.0295971
0.00599258
0.0279613
0.00680388
0.0260581
0.00772076
0.0238375
0.00874873
0.0212397
0.00987981
0.0181969
0.0110703
0.0146488
0.012193
0.0105941
0.0129471
0.00622605
0.0127167
0.00220809
0.0104479
0.00495249
0.0447817
0.000723634
0.0446645
0.000779006
0.0445387
0.000831301
0.0444043
0.000882767
0.0442611
0.000935649
0.0441088
0.000992216
0.0439464
0.00105479
0.0437727
0.0011258
0.0435861
0.00120777
0.0433843
0.00130343
0.0431649
0.00141567
0.0429244
0.00154766
0.0426592
0.00170284
0.0423645
0.00188501
0.0420349
0.00209835
0.0416639
0.00234753
0.0412437
0.00263772
0.0407653
0.00297473
0.0402182
0.00336508
0.0395895
0.00381615
0.0388642
0.00433632
0.0380245
0.00493523
0.0370485
0.00562402
0.0359101
0.00641574
0.034577
0.00732575
0.0330088
0.00837207
0.0311544
0.00957522
0.0289471
0.010956
0.0262989
0.0125281
0.0230939
0.0142754
0.0191915
0.0160955
0.0144686
0.01767
0.00898562
0.0182001
0.0034486
0.0159852
0.00840116
0.0476401
0.000812053
0.0475455
0.000873576
0.0474449
0.000931907
0.0473381
0.000989486
0.0472249
0.00104877
0.0471048
0.00111227
0.046977
0.00118257
0.0468404
0.00126238
0.0466935
0.00135458
0.0465347
0.00146225
0.0463616
0.00158873
0.0461715
0.00173768
0.0459612
0.00191311
0.0457267
0.00211948
0.0454633
0.00236176
0.0451653
0.00264551
0.044826
0.00297703
0.0444373
0.00336341
0.0439897
0.00381275
0.0434715
0.00433436
0.0428688
0.004939
0.0421648
0.00563929
0.0413386
0.00645019
0.0403647
0.00738973
0.0392105
0.00848
0.0378341
0.00974845
0.03618
0.0112293
0.0341717
0.0129645
0.0316996
0.0150003
0.0286028
0.0173722
0.0246468
0.0200516
0.0195226
0.0227946
0.0129744
0.0247484
0.00544971
0.0235103
0.0138509
0.0494362
0.000876858
0.049369
0.00094076
0.0492991
0.00100173
0.0492263
0.00106228
0.0491501
0.00112498
0.0490699
0.00119245
0.048985
0.00126744
0.0488945
0.00135285
0.0487973
0.00145176
0.048692
0.00156753
0.048577
0.00170379
0.04845
0.00186458
0.0483088
0.00205435
0.0481502
0.00227809
0.0479706
0.00254138
0.0477655
0.00285055
0.0475298
0.00321279
0.0472569
0.00363631
0.0469391
0.00413056
0.046567
0.00470649
0.0461291
0.00537695
0.0456113
0.00615715
0.0449961
0.00706542
0.0442616
0.00812425
0.0433797
0.00936188
0.0423137
0.0108146
0.0410129
0.0125301
0.0394053
0.0145721
0.0373806
0.017025
0.0347605
0.0199924
0.0312426
0.0235697
0.0263141
0.0277231
0.0191865
0.0318764
0.00918554
0.0335111
0.0230364
0.0501841
0.000913968
0.0501485
0.000976293
0.050114
0.00103628
0.0500799
0.00109641
0.0500456
0.00115924
0.0500107
0.00122742
0.0499744
0.00130371
0.0499362
0.00139109
0.0498953
0.00149273
0.0498507
0.00161211
0.0498015
0.00175304
0.0497463
0.00191977
0.0496837
0.00211702
0.0496116
0.00235011
0.049528
0.00262507
0.0494298
0.00294873
0.0493137
0.00332893
0.0491754
0.00377468
0.0490096
0.00429638
0.0488099
0.0049062
0.0485684
0.00561844
0.0482754
0.00645017
0.0479189
0.00742203
0.0474837
0.00855949
0.0469509
0.00989473
0.0462958
0.0114696
0.0454855
0.0133405
0.0444726
0.0155851
0.0431835
0.0183141
0.0414907
0.0216852
0.039149
0.0259112
0.0356539
0.0312183
0.0299484
0.0375816
0.0197508
0.0437086
0.0427871
0.0499036
0.000919241
0.0499035
0.000976437
0.0499077
0.00103212
0.0499155
0.00108866
0.0499263
0.00114849
0.0499396
0.00121415
0.049955
0.00128835
0.0499722
0.00137399
0.0499907
0.00147422
0.0500104
0.00159249
0.0500308
0.00173265
0.0500516
0.00189897
0.0500724
0.00209627
0.0500926
0.00232999
0.0501113
0.00260635