/*--------------------------------*- C++ -*----------------------------------*\
| =========                 |                                                 |
| \\      /  F ield         | OpenFOAM: The Open Source CFD Toolbox           |
|  \\    /   O peration     | Version:  2406                                  |
|   \\  /    A nd           | Website:  www.openfoam.com                      |
|    \\/     M anipulation  |                                                 |
\*---------------------------------------------------------------------------*/
FoamFile
{
    version     2.0;
    format      ascii;
    arch        "LSB;label=32;scalar=64";
    class       surfaceScalarField;
    location    "28";
    object      phi;
}
// * * * * * * * * * * * * * * * * * * * * * * * * * * * * * * * * * * * * * //

dimensions      [0 3 -1 0 0 0 0];

oriented        oriented;

internalField   nonuniform List<scalar> 
3270
(
0.0193755
-0.000375481
0.01982
-0.000444535
0.0202283
-0.00040829
0.020674
-0.000445729
0.0212237
-0.000549749
0.0219489
-0.000725242
0.0229735
-0.00102459
0.0245339
-0.00156044
0.0272139
-0.00268
-0.00603958
0.0332534
0.0509711
-0.000346639
0.0512449
-0.000718383
0.0517304
-0.000893873
0.05238
-0.00109535
0.0532228
-0.00139263
0.0543195
-0.001822
0.0557615
-0.0024666
0.0576838
-0.00348277
0.0601753
-0.00517159
-0.00818251
0.0623182
0.0749752
-0.000321896
0.0750816
-0.000824804
0.0753892
-0.0012016
0.0758827
-0.00158895
0.0765617
-0.00207171
0.077443
-0.00270328
0.0785404
-0.00356411
0.0798334
-0.00477579
0.0811614
-0.00649966
-0.00894012
0.081919
0.0909803
-0.000302185
0.0909892
-0.000833861
0.0911022
-0.00131467
0.0913309
-0.00181779
0.0916668
-0.0024076
0.092098
-0.00313459
0.0925946
-0.00406073
0.0930804
-0.00526159
0.0933903
-0.00680957
-0.00874649
0.0931967
0.0989601
-0.000262371
0.0988787
-0.000752546
0.0988109
-0.00124693
0.0987711
-0.00177803
0.0987438
-0.00238035
0.0987027
-0.00309356
0.0986026
-0.00396066
0.0983624
-0.0050214
0.0978525
-0.00629964
-0.00778155
0.0968877
0.0989256
-0.000188027
0.0987468
-0.000573746
0.0985157
-0.00101593
0.0982405
-0.00150293
0.0978984
-0.00203824
0.0974563
-0.00265144
0.0968664
-0.00337073
0.0960574
-0.00421235
0.0949341
-0.00517633
-0.00623517
0.0933879
0.0908804
-6.84203e-05
0.0906096
-0.000302977
0.0902551
-0.000661536
0.0898108
-0.00105866
0.0892454
-0.00147284
0.0885236
-0.0019297
0.0876003
-0.00244735
0.0864171
-0.00302904
0.0849075
-0.00366672
-0.00433661
0.0830091
0.0748251
0.000106473
0.0745156
6.52653e-06
0.0741319
-0.000277882
0.0736333
-0.000560083
0.0729826
-0.000822146
0.072148
-0.00109513
0.0710922
-0.00139145
0.0697731
-0.00170991
0.0681506
-0.00204409
-0.00238053
0.0661946
0.0508141
0.000292379
0.0506433
0.000177318
0.0503936
-2.81809e-05
0.0499969
-0.000163444
0.0494388
-0.000264113
0.0487051
-0.000361393
0.0477755
-0.000461749
0.0466292
-0.000563594
0.04525
-0.000664752
-0.000761627
0.0436311
0.0192924
0.0194697
0.0194415
0.0192781
0.0190139
0.0186526
0.0181908
0.0176272
0.0169625
0.0162009
-0.000142907
0.000142878
-0.000523079
0.0003801
-0.00100219
0.000479047
-0.00146459
0.00046233
-0.00184399
0.00037935
-0.00210736
0.00026333
-0.00224122
0.00013384
-0.00224333
2.13745e-06
-0.00211812
-0.000125152
-0.00187427
-0.00024374
-0.00152338
-0.000350729
-0.00107894
-0.000444214
-0.000555439
-0.000523213
3.24556e-05
-0.000587544
0.000670696
-0.000637834
0.00134649
-0.000675335
0.00204896
-0.000701972
0.00276961
-0.000720128
0.00350271
-0.000732557
0.00424547
-0.000742215
0.0049982
-0.000752206
0.00576432
-0.000765621
0.00655024
-0.000785477
0.00736517
-0.000814544
0.00822071
-0.000855214
0.00913015
-0.000909196
0.0101075
-0.000977159
0.0111657
-0.00105812
0.0123144
-0.0011487
0.0135564
-0.0012421
0.0148835
-0.00132719
0.0162711
-0.00138781
0.0176742
-0.00140334
0.0190252
-0.00135129
-0.00121368
0.0202386
-0.000414365
0.000557176
-0.00126189
0.00122745
-0.00224473
0.00146173
-0.00314988
0.00136734
-0.0038484
0.00107777
-0.00427449
0.000689364
-0.00440328
0.000262636
-0.00423496
-0.000166078
-0.00378466
-0.000575242
-0.00307669
-0.000951372
-0.00214074
-0.0012862
-0.00100927
-0.00157506
0.000284544
-0.00181625
0.00170828
-0.00201037
0.00323186
-0.00216037
0.00482885
-0.00227119
0.00647726
-0.00234916
0.00816018
-0.00240178
0.00986637
-0.00243746
0.0115905
-0.00246511
0.0133335
-0.00249392
0.015102
-0.00253304
0.0169089
-0.00259133
0.0187722
-0.00267699
0.0207147
-0.0027971
0.0227629
-0.00295688
0.0249448
-0.00315873
0.0272875
-0.00340061
0.0298128
-0.00367402
0.0325318
-0.00396135
0.0354373
-0.00423302
0.0384943
-0.00444516
0.0416301
-0.00453979
0.044728
-0.00444976
-0.00411528
0.0476289
-0.000583876
0.00114099
-0.00166849
0.00231192
-0.00283259
0.0026257
-0.00382053
0.00235518
-0.0044906
0.00174775
-0.00477776
0.000976483
-0.00466569
0.000150589
-0.00416699
-0.000664676
-0.00331131
-0.00143073
-0.00213761
-0.00212479
-0.000689355
-0.00273404
0.000988652
-0.00325255
0.00285242
-0.00367938
0.00486095
-0.00401815
0.00697741
-0.00427598
0.00917001
-0.00446286
0.0114129
-0.00459103
0.0136867
-0.00467451
0.0159788
-0.00472853
0.0182838
-0.00476908
0.0206033
-0.00481246
0.022946
-0.00487488
0.0253275
-0.004972
0.0277697
-0.00511848
0.0303003
-0.00532716
0.032952
-0.00560807
0.0357602
-0.00596675
0.0387617
-0.00640188
0.0419895
-0.00690182
0.045468
-0.00744007
0.0492044
-0.00796963
0.0531762
-0.00841739
0.0573167
-0.0086807
0.0614979
-0.00863156
-0.00814191
0.0655241
-0.000652597
0.00179354
-0.00176124
0.00342047
-0.00282347
0.00368782
-0.00358063
0.00311225
-0.00391723
0.00208428
-0.00379857
0.00085778
-0.00323493
-0.000413048
-0.00226054
-0.001639
-0.000922275
-0.00276887
0.000727903
-0.00377476
0.00263696
-0.00464281
0.00475364
-0.00536885
0.00703046
-0.00595572
0.00942469
-0.00641182
0.0118992
-0.00674986
0.0144232
-0.00698612
0.0169725
-0.0071395
0.0195297
-0.00723095
0.0220847
-0.00728271
0.0246343
-0.00731784
0.0271822
-0.00735962
0.0297392
-0.00743117
0.0323228
-0.00755492
0.034957
-0.0077521
0.0376721
-0.00804187
0.0405046
-0.00844019
0.0434959
-0.00895784
0.0466917
-0.00959748
0.0501389
-0.010349
0.0538816
-0.0111829
0.0579528
-0.012041
0.0623594
-0.0128242
0.0670584
-0.01338
0.0719215
-0.013495
-0.0129258
0.0767052
-0.000643766
0.00243728
-0.00156667
0.00434326
-0.00223639
0.00435744
-0.00245005
0.00332582
-0.00216197
0.00179611
-0.00139394
8.96839e-05
-0.000195109
-0.00161194
0.00137426
-0.00320838
0.00325146
-0.00464606
0.00537588
-0.00589908
0.00769128
-0.00695808
0.0101469
-0.00782421
0.0126979
-0.00850645
0.015306
-0.00901953
0.0179395
-0.00938293
0.0205734
-0.00961955
0.0231896
-0.00975512
0.0257764
-0.00981713
0.0283287
-0.00983438
0.0308477
-0.00983618
0.0333407
-0.00985203
0.0358212
-0.00991108
0.0383087
-0.0100419
0.0408289
-0.0102718
0.0434139
-0.0106265
0.0461032
-0.0111291
0.0489437
-0.0117981
0.0519909
-0.0126445
0.0553088
-0.0136668
0.0589683
-0.0148424
0.0630411
-0.0161137
0.0675825
-0.0173655
0.0725954
-0.0183928
0.0779557
-0.0188551
-0.0182937
0.0833238
-0.000555673
0.0029929
-0.00104629
0.00483379
-0.000984637
0.00429568
-0.000316397
0.00265746
0.000881575
0.000598027
0.00251311
-0.00154197
0.00448699
-0.00358591
0.0067215
-0.005443
0.00914643
-0.00707105
0.011702
-0.00845469
0.0143376
-0.00959365
0.0170108
-0.0104973
0.0196865
-0.011182
0.0223369
-0.0116697
0.0249407
-0.0119864
0.0274828
-0.0121613
0.0299544
-0.0122263
0.032352
-0.0122143
0.0346777
-0.0121596
0.0369384
-0.0120964
0.0391459
-0.012059
0.0413166
-0.0120813
0.0434719
-0.0121967
0.0456385
-0.0124379
0.0478494
-0.0128371
0.0501456
-0.013425
0.0525785
-0.0142306
0.0552127
-0.0152784
0.0581307
-0.0165846
0.0614361
-0.0181474
0.0652527
-0.0199299
0.0697108
-0.0218232
0.0748961
-0.0235775
0.0807094
-0.0246679
-0.0242079
0.0866242
-0.000322483
0.00331536
-1.75211e-06
0.00451297
0.00123902
0.00305481
0.0031618
0.000734587
0.00552504
-0.00176532
0.00816375
-0.00418081
0.0109624
-0.0063847
0.0138381
-0.00831886
0.0167309
-0.00996397
0.0195965
-0.0113204
0.0224016
-0.0123988
0.0251211
-0.0132169
0.0277369
-0.0137977
0.0302365
-0.0141693
0.0326132
-0.0143629
0.0348649
-0.0144128
0.036994
-0.0143551
0.0390068
-0.0142269
0.0409132
-0.0140657
0.0427263
-0.0139091
0.0444618
-0.0137942
0.0461389
-0.013758
0.0477796
-0.013837
0.04941
-0.014068
0.0510617
-0.0144885
0.0527744
-0.0151374
0.0545997
-0.0160556
0.0566077
-0.0172861
0.0588958
-0.0188722
0.0616003
-0.0208515
0.0649075
-0.0232365
0.0690483
-0.0259632
0.0742366
-0.028765
0.0804359
-0.0308661
-0.0305847
0.0868136
0.000258988
0.00305634
0.00213191
0.00263996
0.00516645
2.0193e-05
0.00868634
-0.00278541
0.0123388
-0.00541795
0.0159567
-0.00779882
0.0194541
-0.00988225
0.0227857
-0.0116507
0.0259282
-0.0131066
0.0288696
-0.014262
0.0316048
-0.0151342
0.0341335
-0.0157456
0.0364586
-0.0161229
0.0385866
-0.0162972
0.0405266
-0.0163028
0.0422905
-0.0161766
0.0438922
-0.0159566
0.0453474
-0.0156819
0.0466733
-0.0153913
0.0478878
-0.0151233
0.0490098
-0.014916
0.050059
-0.0148069
0.051056
-0.0148338
0.0520238
-0.0150354
0.0529887
-0.0154531
0.0539838
-0.0161321
0.0550538
-0.0171253
0.0562638
-0.0184957
0.0577133
-0.0203213
0.0595582
-0.0226959
0.0620402
-0.0257177
0.0655059
-0.0294281
0.0703364
-0.0335943
0.0765558
-0.0370845
-0.0367864
0.0827589
0.00204723
0.00100905
0.00691407
-0.00222704
0.0122901
-0.00535596
0.0174038
-0.00789933
0.02208
-0.0100943
0.0262994
-0.0120184
0.0300844
-0.0136674
0.0334661
-0.0150325
0.0364746
-0.0161153
0.0391375
-0.0169251
0.04148
-0.0174769
0.0435261
-0.0177917
0.0452991
-0.017896
0.0468226
-0.0178207
0.0481201
-0.0176003
0.0492152
-0.0172716
0.0501314
-0.0168728
0.0508917
-0.016442
0.051518
-0.0160174
0.052031
-0.0156362
0.0524502
-0.015335
0.0527933
-0.0151498
0.053077
-0.0151173
0.0533172
-0.0152755
0.0535307
-0.0156664
0.0537375
-0.0163386
0.0539646
-0.0173522
0.0542549
-0.0187856
0.0546803
-0.0207463
0.0553686
-0.0233837
0.0565479
-0.0268962
0.058609
-0.0314881
0.0621125
-0.0370967
0.0673318
-0.0423023
-0.0411148
0.0716614
0.0100618
-0.00905287
0.0183767
-0.0105421
0.0250283
-0.0120078
0.0305644
-0.0134356
0.0352315
-0.0147616
0.0391851
-0.0159721
0.0425375
-0.01702
0.0453701
-0.0178653
0.0477436
-0.018489
0.0497069
-0.0188885
0.0513022
-0.0190723
0.0525679
-0.0190575
0.05354
-0.0188681
0.0542527
-0.0185334
0.0547388
-0.0180864
0.0550292
-0.017562
0.0551527
-0.0169963
0.0551358
-0.0164251
0.0550019
-0.0158835
0.0547715
-0.0154057
0.0544611
-0.0150246
0.0540843
-0.0147729
0.0536505
-0.0146834
0.0531662
-0.0147911
0.0526346
-0.0151348
0.0520569
-0.0157609
0.0514333
-0.0167285
0.0507649
-0.0181172
0.0500581
-0.0200392
0.0493302
-0.0226554
0.0486208
-0.0261862
0.0480111
-0.0308774
0.0476656
-0.0367503
0.047984
-0.0426196
-0.0418715
0.0487413
0.0362126
-0.0120122
0.0403287
-0.0146585
0.0442773
-0.0159564
0.047836
-0.0169945
0.0509421
-0.0178678
0.0535583
-0.0185886
0.0556932
-0.0191551
0.0573777
-0.0195498
0.058648
-0.0197595
0.0595421
-0.0197826
0.0600982
-0.0196284
0.0603548
-0.0193141
0.0603501
-0.0188635
0.0601213
-0.0183046
0.0597035
-0.0176686
0.0591295
-0.016988
0.0584287
-0.0162954
0.0576267
-0.0156231
0.0567447
-0.0150016
0.0557994
-0.0144603
0.0548021
-0.0140274
0.0537592
-0.0137301
0.0526717
-0.013596
0.0515347
-0.0136542
0.050337
-0.0139372
0.04906
-0.0144841
0.0476753
-0.0153439
0.0461394
-0.0165813
0.0443821
-0.018282
0.0422802
-0.0205534
0.0395943
-0.0235001
0.0358283
-0.027111
0.0299389
-0.0308602
0.0196618
-0.0323423
-0.0222097
0.0626431
-0.0123372
0.0632526
-0.015268
0.0642546
-0.0169585
0.0653412
-0.0180812
0.0663375
-0.0188641
0.0671258
-0.019377
0.0676385
-0.0196678
0.0678511
-0.0197624
0.0677658
-0.0196742
0.0673998
-0.0194166
0.0667794
-0.019008
0.0659362
-0.0184709
0.0649042
-0.0178315
0.0637178
-0.0171182
0.0624097
-0.0163604
0.0610097
-0.015588
0.0595436
-0.0148294
0.0580325
-0.014112
0.0564921
-0.0134612
0.0549324
-0.0129008
0.0533577
-0.0124528
0.0517661
-0.0121386
0.0501492
-0.0119792
0.0484915
-0.0119967
0.0467695
-0.0122155
0.0449491
-0.012664
0.042982
-0.0133772
0.0407973
-0.014397
0.0382863
-0.0157713
0.0352721
-0.0175395
0.0314546
-0.0196828
0.0263235
-0.02198
0.0190933
-0.0236304
0.00909481
-0.0223441
-0.013115
0.0815095
-0.0119277
0.0806873
-0.0144459
0.0798901
-0.0161613
0.0791178
-0.0173089
0.0783087
-0.018055
0.0774022
-0.0184705
0.0763474
-0.0186129
0.0751155
-0.0185305
0.0737004
-0.0182589
0.0721118
-0.017828
0.0703703
-0.0172664
0.0685024
-0.0166029
0.0665378
-0.0158667
0.064506
-0.0150863
0.0624346
-0.0142891
0.0603477
-0.0135011
0.0582647
-0.0127463
0.0561993
-0.0120467
0.0541596
-0.0114217
0.0521478
-0.0108892
0.0501599
-0.0104651
0.0481855
-0.0101646
0.0462081
-0.0100021
0.0442037
-0.00999266
0.0421401
-0.0101523
0.0399749
-0.0104992
0.0376509
-0.0110537
0.0350899
-0.0118366
0.0321808
-0.0128627
0.0287603
-0.0141196
0.0245911
-0.0155141
0.0193594
-0.016749
0.0128021
-0.0170737
0.00534898
-0.0148919
-0.00776615
0.0921999
-0.0109309
0.0906465
-0.0128924
0.0888424
-0.0143571
0.0868932
-0.0153596
0.0848244
-0.0159861
0.0826443
-0.0162903
0.0803527
-0.0163213
0.0779514
-0.016129
0.0754503
-0.0157577
0.0728679
-0.0152454
0.0702281
-0.0146264
0.0675576
-0.0139323
0.0648833
-0.0131923
0.0622301
-0.012433
0.0596194
-0.0116783
0.0570677
-0.0109495
0.0545864
-0.010265
0.0521808
-0.00964114
0.0498505
-0.00909156
0.0475894
-0.00862826
0.0453857
-0.00826168
0.043222
-0.00800124
0.0410753
-0.00785581
0.0389164
-0.00783418
0.0367089
-0.00794546
0.0344083
-0.00819916
0.0319582
-0.00860432
0.0292872
-0.00916628
0.0263015
-0.00987784
0.0228791
-0.010698
0.0188713
-0.0115072
0.0141443
-0.0120229
0.0087413
-0.011672
0.00333618
-0.00948782
-0.00443011
0.0953159
-0.00935898
0.0932159
-0.0107922
0.0907595
-0.0119005
0.0880566
-0.0126566
0.085169
-0.0130983
0.0821437
-0.0132648
0.0790191
-0.0131965
0.0758278
-0.0129375
0.072601
-0.0125308
0.0693701
-0.0120143
0.0661653
-0.0114213
0.0630143
-0.0107812
0.0599415
-0.0101192
0.0569661
-0.00945746
0.0541022
-0.00881433
0.0513581
-0.00820534
0.0487363
-0.00764329
0.0462337
-0.00713868
0.043842
-0.00670007
0.041548
-0.00633447
0.0393337
-0.00604772
0.0371769
-0.00584483
0.0350509
-0.00573028
0.0329246
-0.00570836
0.0307617
-0.00578319
0.0285204
-0.00595846
0.0261514
-0.00623608
0.0235968
-0.00661248
0.0207881
-0.00706991
0.0176477
-0.00755854
0.0141037
-0.00796415
0.0101399
-0.00806013
0.00592692
-0.00746015
0.00208723
-0.00564925
-0.00234302
0.0913416
-0.00731251
0.0888266
-0.00827704
0.0859448
-0.00901855
0.0827924
-0.00950394
0.0794446
-0.0097503
0.0759674
-0.00978736
0.0724199
-0.00964864
0.0688534
-0.00937078
0.0653125
-0.00898962
0.0618355
-0.00853697
0.0584542
-0.00803984
0.0551941
-0.00752086
0.0520738
-0.00699875
0.0491052
-0.00648876
0.046294
-0.0060031
0.0436401
-0.00555141
0.0411379
-0.00514117
0.0387773
-0.00477815
0.0365438
-0.00446673
0.0344193
-0.00421028
0.0323826
-0.00401135
0.0304093
-0.00387199
0.0284725
-0.00379387
0.026542
-0.00377847
0.0245853
-0.003827
0.0225662
-0.00394009
0.0204458
-0.00411634
0.0181815
-0.00434903
0.0157297
-0.00461889
0.0130509
-0.00488065
0.0101283
-0.00504251
0.00701049
-0.00494328
0.0038981
-0.00434898
0.00127793
-0.00303008
-0.0010652
0.0806872
-0.00499045
0.0779671
-0.00555684
0.0749234
-0.00597464
0.0716422
-0.0062225
0.0682034
-0.00631132
0.0646803
-0.00626403
0.0611385
-0.00610662
0.0576339
-0.005866
0.0542121
-0.00556759
0.0509086
-0.00523323
0.0477496
-0.00488068
0.0447529
-0.00452403
0.0419286
-0.00417436
0.0392801
-0.00384018
0.0368049
-0.00352794
0.0344959
-0.00324239
0.0323416
-0.00298698
0.0303274
-0.00276412
0.0284359
-0.00257547
0.0266475
-0.00242213
0.0249406
-0.0023048
0.0232921
-0.0022239
0.0216774
-0.00217967
0.0200707
-0.00217226
0.0184448
-0.00220167
0.0167716
-0.00226746
0.0150223
-0.00236772
0.0131691
-0.00249656
0.0111884
-0.00263896
0.00906875
-0.00276184
0.00682763
-0.00280221
0.00454201
-0.00265857
0.00239576
-0.0022037
0.000727473
-0.00136263
-0.000337818
0.063899
-0.00269477
0.0612955
-0.00295323
0.0584492
-0.00312819
0.0554382
-0.0032114
0.0523386
-0.00321151
0.0492186
-0.00314382
0.0461366
-0.00302448
0.0431397
-0.00286891
0.0402631
-0.00269081
0.0375313
-0.0025013
0.0349597
-0.00230892
0.0325557
-0.00212004
0.0303208
-0.00193934
0.0282508
-0.00177022
0.0263379
-0.00161506
0.0245708
-0.00147547
0.0229362
-0.00135247
0.0214185
-0.00124667
0.0200011
-0.00115835
0.0186663
-0.00108762
0.0173956
-0.00103441
0.0161698
-0.000998564
0.0149696
-0.000979878
0.013775
-0.000978153
0.012566
-0.000993161
0.0113225
-0.00102454
0.0100254
-0.00107122
0.00865811
-0.00112998
0.00721099
-0.00119254
0.00568901
-0.00124058
0.00412577
-0.00123972
0.00260314
-0.00113669
0.00127008
-0.000871508
0.000338551
-0.000431835
6.52501e-07
0.0417838
-0.000847353
0.0397429
-0.000912246
0.0375636
-0.000948845
0.0353085
-0.000956173
0.0330359
-0.00093874
0.0307949
-0.000902702
0.0286245
-0.000853862
0.0265529
-0.000797191
0.024599
-0.000736792
0.0227735
-0.000675697
0.0210807
-0.000616047
0.0195199
-0.000559264
0.0180869
-0.000506334
0.0167746
-0.000457882
0.0155737
-0.000414314
0.014474
-0.000375823
0.0134639
-0.0003425
0.0125313
-0.000314317
0.011664
-0.000291215
0.0108492
-0.000273073
0.0100742
-0.000259769
0.00932649
-0.000251148
0.00859332
-0.000247076
0.0078622
-0.000247428
0.00712074
-0.00025213
0.00635686
-0.000261117
0.00555934
-0.000274196
0.00471942
-0.000290582
0.00383422
-0.000307901
0.00291355
-0.00032047
0.00199044
-0.000317176
0.00113363
-0.000280466
0.000452154
-0.000190685
6.73732e-05
-4.75707e-05
6.7965e-05
0.0153535
0.0144413
0.0134925
0.0125363
0.0115976
0.0106949
0.00984107
0.0090439
0.00830712
0.00763144
0.0070154
0.00645614
0.0059498
0.00549191
0.00507759
0.00470175
0.00435923
0.00404489
0.00375365
0.00348054
0.00322074
0.00296955
0.00272243
0.00247495
0.00222277
0.0019616
0.00168734
0.0013967
0.00108873
0.000768199
0.000450959
0.000170427
-2.03336e-05
-6.7965e-05
0.0212244
-0.000986121
0.021914
-0.000689932
0.0222795
-0.000365779
0.0223304
-5.11664e-05
0.0220982
0.000232071
0.0216225
0.000475478
0.0209445
0.00067782
0.0201024
0.000841982
0.0191299
0.000972479
0.00107246
0.0180574
0.0501515
-0.00350938
0.0521413
-0.00268034
0.0535118
-0.00173685
0.0542435
-0.000783385
0.054361
0.000114163
0.0539139
0.000922269
0.0529639
0.00162755
0.0515748
0.00223089
0.0498071
0.00274004
0.00316038
0.0477191
0.0691463
-0.00713209
0.0721492
-0.00568365
0.074416
-0.00400397
0.0759144
-0.00228211
0.07666
-0.000631685
0.0766954
0.000886677
0.0760764
0.00224644
0.0748604
0.00344671
0.0731002
0.00450028
0.0054148
0.0708458
0.0810494
-0.0114764
0.0846646
-0.00929907
0.0874418
-0.00678128
0.0893874
-0.00422785
0.0905522
-0.00179665
0.0910038
0.000435038
0.0908075
0.00244271
0.0900111
0.00424319
0.0886404
0.00587094
0.00734682
0.0867085
0.0880878
-0.0162404
0.0918459
-0.0130571
0.0945698
-0.00950514
0.0963929
-0.00605096
0.0974739
-0.00287761
0.0979595
-5.04796e-05
0.0979549
0.00244733
0.0975043
0.00469384
0.0965946
0.00678079
0.00876892
0.0951725
0.0914308
-0.0210466
0.0946214
-0.0162473
0.0964706
-0.011354
0.097406
-0.0069861
0.0977869
-0.00325828
0.0978737
-0.000137142
0.0978053
0.00251588
0.0975997
0.00489957
0.0971729
0.00720755
0.00958697
0.096355
0.0908171
-0.0250492
0.0921494
-0.0175787
0.0919696
-0.0111734
0.0912221
-0.00623791
0.0904745
-0.00251005
0.0900157
0.000322063
0.0899193
0.00261265
0.0901089
0.00471005
0.0903794
0.00693723
0.00960961
0.0903569
0.0839163
-0.0262054
0.0814007
-0.0150617
0.078214
-0.00798547
0.0756472
-0.00366991
0.07409
-0.000951993
0.0735508
0.000862042
0.0738807
0.00228309
0.0748837
0.00370749
0.0762592
0.00556181
0.00854898
0.0773198
0.0656452
-0.0201881
0.0579887
-0.00740402
0.0527686
-0.00276422
0.0499253
-0.000825607
0.0488492
0.00012499
0.0490265
0.000685373
0.0501507
0.00115928
0.052105
0.00175338
0.054824
0.00284273
0.00600536
0.0573675
0.0285534
0.0211496
0.0183855
0.01756
0.0176852
0.0183706
0.0195299
0.0212833
0.024126
0.0301312
0.0169153
0.00114205
0.0157365
0.00117879
0.0145548
0.00118169
0.0134003
0.00115454
0.0122957
0.00110467
0.0112561
0.00103963
0.0102904
0.000965683
0.00940266
0.00088778
0.00859298
0.000809706
0.00785887
0.000734129
0.00719614
0.000662739
0.00659957
0.000596561
0.0060634
0.000536151
0.00558157
0.000481787
0.00514798
0.000433531
0.00475657
0.000391336
0.00440142
0.000355052
0.00407679
0.000324511
0.00377715
0.000299499
0.00349718
0.000279816
0.00323176
0.000265235
0.00297601
0.000255557
0.00272521
0.000250579
0.00247483
0.00025015
0.00222043
0.000254151
0.00195766
0.000262504
0.00168238
0.00027499
0.00139126
0.000290817
0.00108333
0.000307599
0.000763321
0.00031966
0.000447078
0.000315873
0.000167892
0.000278829
-2.14576e-05
0.000188956
-6.81269e-05
4.63097e-05
-6.81999e-05
0.0453728
0.00348836
0.0428396
0.00371195
0.0401984
0.00382291
0.037525
0.00382805
0.0348835
0.00374626
0.0323239
0.00359932
0.0298826
0.00340712
0.0275835
0.00318692
0.0254404
0.00295292
0.0234586
0.00271604
0.0216372
0.00248415
0.019971
0.00226273
0.0184516
0.00205548
0.0170685
0.00186483
0.0158096
0.00169229
0.0146621
0.00153866
0.0136126
0.00140431
0.0126475
0.0012893
0.0117531
0.0011935
0.0109159
0.00111662
0.0101224
0.00105831
0.00935922
0.00101818
0.00861339
0.000995837
0.007872
0.00099092
0.00712239
0.00100309
0.00635229
0.00103189
0.00555034
0.00107616
0.00470768
0.00113264
0.00382136
0.00119302
0.00290108
0.00123899
0.00197976
0.00123624
0.00112584
0.00113174
0.000447844
0.00086601
6.6046e-05
0.000427158
-2.26535e-06
0.0681562
0.0061779
0.0651129
0.00675538
0.0618159
0.00711999
0.0583673
0.00727671
0.0548585
0.00725521
0.0513665
0.00709145
0.0479536
0.00682015
0.0446672
0.00647349
0.0415406
0.00607965
0.0385952
0.00566157
0.0358424
0.00523701
0.0332858
0.00481941
0.0309226
0.00441875
0.0287451
0.00404231
0.026742
0.00369522
0.0248995
0.00338105
0.0232015
0.00310212
0.0216306
0.00285993
0.0201684
0.00265534
0.0187959
0.00248878
0.0174933
0.00236039
0.0162409
0.00227012
0.0150183
0.00221784
0.0138052
0.00220339
0.012581
0.00222652
0.0113256
0.00228657
0.0100194
0.00238149
0.00864592
0.00250526
0.00719521
0.00264279
0.0056722
0.002761
0.00411035
0.00279705
0.00259122
0.00264988
0.00126287
0.00219309
0.000336001
0.00135316
0.000333614
0.0842392
0.00864729
0.0812998
0.00969486
0.0779936
0.0104263
0.0744275
0.0108429
0.0706978
0.0109851
0.0668893
0.0109001
0.0630759
0.0106336
0.059319
0.0102306
0.0556669
0.00973187
0.0521565
0.00917209
0.048814
0.00857965
0.0456561
0.00797745
0.0426912
0.00738372
0.0399207
0.00681279
0.0373402
0.00627568
0.0349404
0.00578078
0.032708
0.00533436
0.0306266
0.00494105
0.0286774
0.00460427
0.0268393
0.00432646
0.0250898
0.00410945
0.0234048
0.0039546
0.021759
0.00386306
0.0201259
0.00383583
0.018478
0.00387374
0.0167867
0.00397706
0.0150232
0.00414416
0.0131594
0.00436812
0.0111718
0.00462948
0.00904873
0.00488298
0.00680775
0.00503699
0.00452549
0.00493095
0.00238524
0.00433237
0.000723346
0.00301373
0.0010568
0.0931954
0.0106245
0.0907094
0.012181
0.0878197
0.0133161
0.0846248
0.0140379
0.0812047
0.0144054
0.0776309
0.0144739
0.073969
0.0142957
0.0702767
0.0139231
0.0666042
0.0134045
0.0629948
0.0127816
0.0594845
0.01209
0.0561015
0.0113605
0.0528663
0.010619
0.0497919
0.00988718
0.0468844
0.00918312
0.0441436
0.00852152
0.0415635
0.00791428
0.0391334
0.00737097
0.0368382
0.00689922
0.0346591
0.0065052
0.0325742
0.00619394
0.0305585
0.00596975
0.0285846
0.00583649
0.0266219
0.00579788
0.0246374
0.00585754
0.0225949
0.00601875
0.0204552
0.00628304
0.0181758
0.00664655
0.0157131
0.00709126
0.0130278
0.00756724
0.0101032
0.00796039
0.00698824
0.00804489
0.00388259
0.00743625
0.00127128
0.00562392
0.0023279
0.0949889
0.0119908
0.0931267
0.0140434
0.090906
0.0155368
0.0884135
0.0165304
0.0856988
0.0171202
0.0828036
0.0173692
0.0797663
0.017333
0.0766233
0.0170661
0.0734118
0.016616
0.0701696
0.0160239
0.0669333
0.0153264
0.0637368
0.0145572
0.060609
0.0137468
0.0575734
0.0129227
0.0546472
0.0121093
0.051841
0.0113277
0.0491587
0.0105964
0.0465985
0.00993097
0.0441527
0.00934481
0.0418083
0.00884928
0.0395476
0.00845425
0.0373484
0.00816854
0.0351839
0.00800046
0.0330229
0.00795827
0.0308292
0.00805059
0.0285608
0.00828645
0.0261686
0.00867444
0.0235948
0.00921951
0.020771
0.00991406
0.0176205
0.0107168
0.0140717
0.0115081
0.0101091
0.0120061
0.00590405
0.0116404
0.0020764
0.00945003
0.00440415
0.089694
0.0126537
0.0885649
0.0151725
0.0872052
0.0168964
0.08568
0.0180555
0.0839928
0.0188074
0.0821402
0.0192217
0.0801184
0.0193547
0.0779307
0.0192537
0.0755919
0.0189548
0.0731267
0.018489
0.0705658
0.0178872
0.0679429
0.0171801
0.0652912
0.0163985
0.0626413
0.0155726
0.0600195
0.014731
0.0574464
0.0139007
0.0549365
0.0131061
0.0524979
0.0123695
0.050132
0.0117105
0.0478343
0.0111468
0.045594
0.0106942
0.0433946
0.0103676
0.0412135
0.0101811
0.039022
0.0101493
0.0367842
0.0102879
0.0344555
0.0106146
0.0319801
0.0111492
0.0292867
0.0119122
0.0262823
0.0129177
0.0228456
0.0141528
0.0188292
0.0155237
0.0141012
0.0167335
0.00870633
0.0170339
0.00331819
0.0148373
0.00772221
0.0774092
0.0125642
0.0771687
0.0154129
0.0769496
0.0171154
0.0767197
0.0182852
0.0764016
0.0191253
0.0759273
0.0196957
0.075245
0.0200368
0.0743282
0.0201704
0.073174
0.0201088
0.0717969
0.0198661
0.0702222
0.0194617
0.0684823
0.0189199
0.0666122
0.0182685
0.0646468
0.0175378
0.0626189
0.0167589
0.0605569
0.0159626
0.058484
0.0151789
0.0564174
0.0144358
0.0543682
0.0137596
0.0523406
0.0131742
0.0503324
0.0127021
0.048335
0.0123648
0.0463326
0.0121831
0.0443024
0.0121792
0.0422127
0.0123772
0.0400216
0.0128053
0.0376725
0.0134978
0.0350878
0.0144964
0.0321569
0.0158481
0.0287178
0.0175914
0.0245349
0.0197062
0.0192977
0.0219703
0.0127477
0.0235836
0.00531832
0.0222662
0.0130405
0.0582698
0.0116616
0.0594495
0.0142329
0.060971
0.0155936
0.0625344
0.0167216
0.0639657
0.0176938
0.0651493
0.0185119
0.0660192
0.0191667
0.0665512
0.0196382
0.0667473
0.0199124
0.0666251
0.019988
0.066212
0.0198746
0.0655415
0.0195902
0.0646504
0.0191595
0.0635761
0.018612
0.0623546
0.0179802
0.0610193
0.0172978
0.0595992
0.0165988
0.0581186
0.0159163
0.056596
0.015282
0.055044
0.0147261
0.0534688
0.0142772
0.0518704
0.0139631
0.0502417
0.0138117
0.0485685
0.0138523
0.0468281
0.0141174
0.0449871
0.014646
0.0429978
0.0154869
0.0407898
0.0167043
0.038255
0.0183829
0.0352175
0.0206288
0.0313793
0.0235447
0.0262344
0.0271157
0.0190062
0.0308122
0.00904042
0.0322326
0.0220811
0.03331
0.00848245
0.0375652
0.00997736
0.0416841
0.0114744
0.0454412
0.0129642
0.0487645
0.0143701
0.0516121
0.015664
0.0539849
0.0167935
0.0559059
0.0177169
0.0574042
0.0184138
0.058512
0.01888
0.0592634
0.0191229
0.0596945
0.0191588
0.0598424
0.0190115
0.0597439
0.0187104
0.0594351
0.0182888
0.0589502
0.0177827
0.0583203
0.0172287
0.057573
0.0166635
0.0567318
0.0161232
0.0558151
0.0156428
0.0548362
0.015256
0.0538032
0.014996
0.0527184
0.0148965
0.051578
0.0149926
0.0503719
0.0153236
0.0490819
0.015936
0.0476802
0.0168888
0.0461233
0.0182612
0.0443415
0.020165
0.0422115
0.0227593
0.0394951
0.0262619
0.0356991
0.0309128
0.02979
0.0367226
0.0195313
0.0424925
0.0416128
0.00934436
-0.000862109
0.0171981
0.0021231
0.0235937
0.00507838
0.0290052
0.00755228
0.0336419
0.00973302
0.0376328
0.0116727
0.04107
0.0133559
0.0440189
0.0147676
0.0465279
0.0159045
0.0486359
0.0167716
0.0503776
0.0173809
0.0517853
0.0177508
0.0528908
0.0179057
0.0537254
0.0178755
0.0543202
0.017694
0.0547053
0.0173975
0.0549095
0.0170244
0.0549598
0.0166132
0.0548807
0.0162024
0.0546934
0.0158301
0.0544161
0.0155334
0.054063
0.0153492
0.0536451
0.0153146
0.0531693
0.0154686
0.0526397
0.0158533
0.052058
0.016518
0.0514242
0.0175228
0.0507394
0.0189464
0.0500091
0.0208958
0.0492492
0.0235199
0.0484968
0.0270153
0.0478287
0.0315822
0.0474027
0.0371501
0.0476055
0.042291
0.0410307
0.0481888
0.00197124
-0.00283359
0.00656645
-0.00247264
0.0116694
-2.50063e-05
0.016572
0.00264927
0.0211065
0.00519812
0.0252469
0.0075319
0.0290051
0.00959732
0.0324015
0.0113708
0.0354566
0.0128491
0.0381887
0.0140391
0.0406156
0.0149538
0.0427545
0.0156116
0.0446235
0.0160365
0.0462419
0.016257
0.04763
0.0163058
0.0488091
0.0162183
0.0498014
0.0160321
0.050629
0.0157856
0.0513137
0.0155179
0.0518762
0.0152677
0.0523364
0.0150734
0.0527124
0.0149733
0.0530215
0.0150058
0.05328
0.0152103
0.0535052
0.0156285
0.0537168
0.0163067
0.0539419
0.0172981
0.0542224
0.0186664
0.0546289
0.02049
0.0552865
0.0228632
0.0564185
0.0258844
0.058407
0.0295949
0.0617976
0.0337608
0.0668414
0.0372485
0.0369529
0.0709203
0.000280468
-0.00311426
0.00207425
-0.00426696
0.00496008
-0.00291133
0.00832142
-0.000712527
0.0118346
0.00168451
0.0153435
0.00402261
0.0187652
0.00617524
0.0220534
0.00808226
0.0251811
0.009721
0.0281322
0.0110877
0.0308966
0.0121891
0.033469
0.013039
0.0358481
0.0136573
0.0380361
0.0140689
0.0400391
0.0143028
0.041866
0.0143915
0.0435288
0.0143694
0.0450416
0.014273
0.0464204
0.0141393
0.0476826
0.0140057
0.0488467
0.0139096
0.0499323
0.0138881
0.05096
0.0139784
0.0519526
0.014218
0.0529366
0.0146449
0.0539447
0.015299
0.0550211
0.016222
0.0562301
0.0174579
0.0576694
0.0190513
0.0594922
0.0210411
0.0619355
0.0234419
0.0653388
0.0261925
0.0700711
0.0290294
0.0761389
0.0311815
0.0309756
0.082117
-0.000283817
-0.00283067
3.98606e-05
-0.00459117
0.00122732
-0.00409928
0.00306443
-0.00255009
0.00533196
-0.000583447
0.00787865
0.00147553
0.0105972
0.00345629
0.0134094
0.00526977
0.016257
0.00687309
0.0190957
0.00824878
0.0218908
0.00939383
0.024615
0.0103146
0.0272477
0.0110246
0.0297739
0.0115427
0.0321842
0.0118927
0.0344742
0.0121017
0.0366442
0.0121997
0.0386989
0.0122186
0.0406467
0.0121918
0.0424997
0.0121531
0.0442731
0.0121367
0.045985
0.0121766
0.0476572
0.0123066
0.0493156
0.01256
0.0509913
0.0129696
0.0527236
0.0135671
0.0545634
0.0143825
0.05658
0.0154417
0.0588694
0.0167623
0.0615659
0.018345
0.0648526
0.0201557
0.0689557
0.0220898
0.0740823
0.0239033
0.0801856
0.0250786
0.0247403
0.0864212
-0.000515697
-0.00231517
-0.000969895
-0.00413744
-0.000905337
-0.00416428
-0.000265493
-0.00319034
0.000883126
-0.00173244
0.00245414
-9.58262e-05
0.00436431
0.00154582
0.00653801
0.00309582
0.00890932
0.00450158
0.0114211
0.00573689
0.014024
0.00679085
0.0166758
0.00766279
0.019341