/*--------------------------------*- C++ -*----------------------------------*\
| =========                 |                                                 |
| \\      /  F ield         | OpenFOAM: The Open Source CFD Toolbox           |
|  \\    /   O peration     | Version:  2406                                  |
|   \\  /    A nd           | Website:  www.openfoam.com                      |
|    \\/     M anipulation  |                                                 |
\*---------------------------------------------------------------------------*/
FoamFile
{
    version     2.0;
    format      ascii;
    arch        "LSB;label=32;scalar=64";
    class       volVectorField;
    location    "28";
    object      U;
}
// * * * * * * * * * * * * * * * * * * * * * * * * * * * * * * * * * * * * * //

dimensions      [0 1 -1 0 0 0 0];

internalField   nonuniform List<vector> 
1700
(
(0.188052 -0.00169446 0)
(0.195456 -0.00166762 0)
(0.200438 -0.00130879 0)
(0.204419 -0.00136571 0)
(0.209187 -0.00169055 0)
(0.215397 -0.00229086 0)
(0.223793 -0.00343375 0)
(0.235969 -0.00583527 0)
(0.256743 -0.0133219 0)
(0.284644 -0.0467991 0)
(0.50442 -0.00390103 0)
(0.509434 -0.00671421 0)
(0.515023 -0.00719722 0)
(0.520339 -0.00809999 0)
(0.527447 -0.0099909 0)
(0.537003 -0.013068 0)
(0.549498 -0.0180612 0)
(0.565942 -0.0264926 0)
(0.587979 -0.0416327 0)
(0.61149 -0.0729797 0)
(0.745144 -0.00342856 0)
(0.748592 -0.00796763 0)
(0.752548 -0.0109149 0)
(0.756192 -0.0139521 0)
(0.761664 -0.017946 0)
(0.769431 -0.0234107 0)
(0.779356 -0.0312036 0)
(0.791342 -0.0427661 0)
(0.804894 -0.0603655 0)
(0.816635 -0.087789 0)
(0.905647 -0.00308301 0)
(0.908316 -0.00837491 0)
(0.910835 -0.0129059 0)
(0.912213 -0.0175867 0)
(0.914621 -0.0231661 0)
(0.918489 -0.030203 0)
(0.923308 -0.0394281 0)
(0.928433 -0.0518291 0)
(0.93284 -0.0685188 0)
(0.934239 -0.0904407 0)
(0.985812 -0.00279411 0)
(0.987825 -0.00804542 0)
(0.989024 -0.0131132 0)
(0.988198 -0.0184841 0)
(0.987447 -0.0246518 0)
(0.98717 -0.0320784 0)
(0.986703 -0.0412882 0)
(0.985247 -0.052839 0)
(0.981814 -0.0671545 0)
(0.974894 -0.0842368 0)
(0.985741 -0.00225911 0)
(0.987135 -0.00678664 0)
(0.987062 -0.0115912 0)
(0.984255 -0.0168127 0)
(0.980771 -0.0226547 0)
(0.976935 -0.0294545 0)
(0.972022 -0.0375599 0)
(0.965249 -0.0472296 0)
(0.955806 -0.0585401 0)
(0.942706 -0.0712199 0)
(0.90544 -0.00132595 0)
(0.906323 -0.00455281 0)
(0.905192 -0.0085776 0)
(0.900904 -0.0130486 0)
(0.895496 -0.0178846 0)
(0.889164 -0.0233335 0)
(0.881166 -0.0296146 0)
(0.870809 -0.0368068 0)
(0.857485 -0.0448365 0)
(0.840574 -0.0534122 0)
(0.744828 0.000219077 0)
(0.745599 -0.00141461 0)
(0.744138 -0.00457828 0)
(0.739419 -0.00801866 0)
(0.733377 -0.0114571 0)
(0.726059 -0.0151391 0)
(0.716786 -0.0192171 0)
(0.705029 -0.0236898 0)
(0.690397 -0.0284621 0)
(0.672554 -0.0333325 0)
(0.504089 0.00215719 0)
(0.506238 0.00169395 0)
(0.506042 -0.000937295 0)
(0.502505 -0.00326224 0)
(0.497498 -0.00514754 0)
(0.49111 -0.00697032 0)
(0.482895 -0.00886649 0)
(0.47257 -0.0108294 0)
(0.459967 -0.0128161 0)
(0.444978 -0.0147421 0)
(0.187857 0.00130606 0)
(0.193589 0.000715571 0)
(0.195117 -7.07026e-05 0)
(0.1939 -0.000447005 0)
(0.191638 -0.000690587 0)
(0.188527 -0.000934641 0)
(0.184435 -0.00118344 0)
(0.179316 -0.00141231 0)
(0.173173 -0.00160953 0)
(0.166029 -0.00177357 0)
(-0.000325906 0.000315118 0)
(-0.00310154 0.000924888 0)
(-0.00755029 0.00119215 0)
(-0.0124439 0.0011654 0)
(-0.0167654 0.000993214 0)
(-0.0200291 0.000751974 0)
(-0.02203 0.000482643 0)
(-0.0227052 0.000207025 0)
(-0.0220728 -6.22064e-05 0)
(-0.0202033 -0.00031656 0)
(-0.0172008 -0.000549094 0)
(-0.013193 -0.000754515 0)
(-0.00832147 -0.000929173 0)
(-0.00273403 -0.0010714 0)
(0.00342426 -0.00118084 0)
(0.0100186 -0.00125996 0)
(0.0169299 -0.00131389 0)
(0.0240602 -0.00134872 0)
(0.0313378 -0.0013712 0)
(0.0387198 -0.00138882 0)
(0.0461935 -0.00140915 0)
(0.0537777 -0.00143983 0)
(0.0615219 -0.001488 0)
(0.0695048 -0.00156021 0)
(0.0778314 -0.00166174 0)
(0.0866279 -0.00179599 0)
(0.0960334 -0.00196321 0)
(0.106187 -0.00215884 0)
(0.117206 -0.00237114 0)
(0.129162 -0.00257839 0)
(0.142036 -0.00274626 0)
(0.155674 -0.00282708 0)
(0.169736 -0.00276329 0)
(0.183658 -0.00249857 0)
(0.19666 -0.00200022 0)
(-0.00105799 0.00317591 0)
(-0.00793928 0.0074379 0)
(-0.0174771 0.00913814 0)
(-0.0273292 0.00876362 0)
(-0.0355827 0.0071481 0)
(-0.0413028 0.00489962 0)
(-0.0440952 0.00239191 0)
(-0.0438706 -0.000154652 0)
(-0.0407247 -0.00260893 0)
(-0.0348657 -0.00488698 0)
(-0.0265705 -0.00693445 0)
(-0.0161553 -0.00871715 0)
(-0.00395284 -0.0102187 0)
(0.00970485 -0.011437 0)
(0.0245039 -0.0123856 0)
(0.0401614 -0.0130912 0)
(0.0564324 -0.0135921 0)
(0.0731211 -0.0139339 0)
(0.0900858 -0.0141689 0)
(0.107243 -0.0143527 0)
(0.124571 -0.0145435 0)
(0.142106 -0.014799 0)
(0.159949 -0.0151752 0)
(0.178253 -0.0157235 0)
(0.197226 -0.0164879 0)
(0.217117 -0.0174993 0)
(0.238203 -0.0187694 0)
(0.260767 -0.0202789 0)
(0.285063 -0.0219645 0)
(0.311271 -0.0237009 0)
(0.339429 -0.025284 0)
(0.369347 -0.0264184 0)
(0.400508 -0.0267277 0)
(0.431977 -0.0257977 0)
(0.462364 -0.0232937 0)
(-0.00154767 0.00827654 0)
(-0.0108741 0.0174062 0)
(-0.0226354 0.0203213 0)
(-0.0338953 0.0187591 0)
(-0.0424407 0.0145367 0)
(-0.0473083 0.00897123 0)
(-0.0481699 0.00290162 0)
(-0.0450512 -0.00316433 0)
(-0.0381881 -0.00892465 0)
(-0.0279365 -0.014194 0)
(-0.0147178 -0.0188624 0)
(0.00101964 -0.0228709 0)
(0.0188269 -0.0262014 0)
(0.0382777 -0.028871 0)
(0.0589815 -0.0309268 0)
(0.0805929 -0.0324395 0)
(0.102822 -0.0334994 0)
(0.125442 -0.0342116 0)
(0.148293 -0.0346923 0)
(0.171283 -0.0350644 0)
(0.194394 -0.035454 0)
(0.217678 -0.0359865 0)
(0.241256 -0.0367833 0)
(0.265317 -0.0379568 0)
(0.290111 -0.0396045 0)
(0.315942 -0.0417993 0)
(0.343156 -0.0445763 0)
(0.37212 -0.0479123 0)
(0.403193 -0.0516983 0)
(0.436677 -0.0557035 0)
(0.472752 -0.0595355 0)
(0.511371 -0.0626053 0)
(0.552126 -0.0641207 0)
(0.59408 -0.0631477 0)
(0.635631 -0.0588286 0)
(-0.00181822 0.014654 0)
(-0.0119512 0.0288685 0)
(-0.0233805 0.0321341 0)
(-0.0329451 0.028229 0)
(-0.0385974 0.0202795 0)
(-0.0396947 0.0104205 0)
(-0.0362064 -1.11848e-05 0)
(-0.0284017 -0.010223 0)
(-0.0167089 -0.0197497 0)
(-0.0016342 -0.0283247 0)
(0.0162887 -0.0358031 0)
(0.036534 -0.0421273 0)
(0.0586068 -0.0473013 0)
(0.0820541 -0.051381 0)
(0.106476 -0.0544614 0)
(0.131531 -0.0566723 0)
(0.156945 -0.0581672 0)
(0.182508 -0.059121 0)
(0.208085 -0.0597207 0)
(0.233607 -0.0601625 0)
(0.259078 -0.0606448 0)
(0.28457 -0.0613659 0)
(0.310226 -0.0625166 0)
(0.336252 -0.0642768 0)
(0.362922 -0.0668055 0)
(0.39057 -0.0702302 0)
(0.419587 -0.0746269 0)
(0.450413 -0.0799934 0)
(0.483517 -0.0862069 0)
(0.519366 -0.0929691 0)
(0.558368 -0.099731 0)
(0.600759 -0.105614 0)
(0.646426 -0.109345 0)
(0.694596 -0.109277 0)
(0.743506 -0.1037 0)
(-0.00198666 0.0213172 0)
(-0.0114493 0.0395526 0)
(-0.0199282 0.0415325 0)
(-0.0246434 0.0338631 0)
(-0.024294 0.0212252 0)
(-0.0189014 0.00655293 0)
(-0.00891065 -0.0084156 0)
(0.00509735 -0.022696 0)
(0.0224878 -0.0357351 0)
(0.0426396 -0.047245 0)
(0.0649672 -0.057097 0)
(0.0889345 -0.0652672 0)
(0.114064 -0.0718094 0)
(0.139939 -0.0768356 0)
(0.166211 -0.0805051 0)
(0.192596 -0.0830134 0)
(0.21888 -0.084584 0)
(0.244913 -0.0854603 0)
(0.270612 -0.0858995 0)
(0.295958 -0.0861657 0)
(0.320994 -0.0865253 0)
(0.345824 -0.0872424 0)
(0.370612 -0.0885739 0)
(0.395584 -0.0907645 0)
(0.421029 -0.094039 0)
(0.447303 -0.0985897 0)
(0.474836 -0.104558 0)
(0.504138 -0.112 0)
(0.535807 -0.120841 0)
(0.570521 -0.130789 0)
(0.60901 -0.14123 0)
(0.651955 -0.151052 0)
(0.699755 -0.158461 0)
(0.751986 -0.160786 0)
(0.806646 -0.15481 0)
(-0.00207029 0.0275767 0)
(-0.00922132 0.0473121 0)
(-0.0116186 0.0454657 0)
(-0.00791514 0.0324416 0)
(0.00163687 0.0144767 0)
(0.0160296 -0.00496242 0)
(0.0342884 -0.0239953 0)
(0.0555285 -0.0416079 0)
(0.0789895 -0.0572897 0)
(0.104026 -0.0708132 0)
(0.130092 -0.08212 0)
(0.156725 -0.0912561 0)
(0.183541 -0.0983473 0)
(0.210226 -0.103575 0)
(0.236536 -0.10717 0)
(0.26229 -0.109393 0)
(0.287369 -0.110535 0)
(0.311715 -0.110903 0)
(0.335319 -0.110813 0)
(0.358229 -0.110589 0)
(0.380536 -0.110552 0)
(0.402384 -0.111022 0)
(0.423959 -0.112312 0)
(0.445501 -0.114725 0)
(0.467307 -0.118553 0)
(0.489742 -0.124064 0)
(0.513261 -0.131489 0)
(0.538435 -0.140997 0)
(0.56599 -0.152637 0)
(0.596845 -0.166248 0)
(0.632141 -0.181295 0)
(0.673188 -0.196577 0)
(0.721238 -0.209775 0)
(0.776557 -0.216726 0)
(0.836947 -0.211385 0)
(-0.00191432 0.0330132 0)
(-0.00392096 0.0495334 0)
(0.00423936 0.0402182 0)
(0.0206626 0.0204421 0)
(0.0425691 -0.00273316 0)
(0.0679268 -0.026051 0)
(0.0953708 -0.0478566 0)
(0.123929 -0.0673492 0)
(0.152903 -0.0842004 0)
(0.181788 -0.0983299 0)
(0.210208 -0.109789 0)
(0.237878 -0.118718 0)
(0.264585 -0.125317 0)
(0.29018 -0.129841 0)
(0.314567 -0.132581 0)
(0.337704 -0.133859 0)
(0.359593 -0.134019 0)
(0.380281 -0.133417 0)
(0.399847 -0.132416 0)
(0.418409 -0.13138 0)
(0.436111 -0.130673 0)
(0.453127 -0.130651 0)
(0.469661 -0.13167 0)
(0.485953 -0.134083 0)
(0.502288 -0.13824 0)
(0.519014 -0.144494 0)
(0.536578 -0.153191 0)
(0.555571 -0.164663 0)
(0.576805 -0.179187 0)
(0.601419 -0.1969 0)
(0.630996 -0.21759 0)
(0.667631 -0.240244 0)
(0.713813 -0.262084 0)
(0.770977 -0.276633 0)
(0.837086 -0.272318 0)
(-0.000938199 0.0363125 0)
(0.00886565 0.0413872 0)
(0.0345608 0.0206606 0)
(0.0685005 -0.00593286 0)
(0.105031 -0.0326951 0)
(0.141687 -0.0576619 0)
(0.177426 -0.0799106 0)
(0.211669 -0.0990783 0)
(0.244091 -0.115111 0)
(0.274529 -0.128099 0)
(0.302914 -0.138201 0)
(0.329224 -0.145631 0)
(0.353475 -0.150649 0)
(0.375716 -0.153558 0)
(0.396025 -0.154695 0)
(0.414508 -0.154419 0)
(0.431296 -0.153108 0)
(0.446538 -0.151148 0)
(0.460399 -0.148927 0)
(0.473056 -0.146831 0)
(0.484693 -0.145241 0)
(0.495502 -0.144535 0)
(0.505685 -0.14509 0)
(0.515457 -0.147291 0)
(0.52506 -0.151536 0)
(0.534783 -0.158255 0)
(0.545004 -0.167922 0)
(0.556248 -0.181074 0)
(0.569303 -0.198318 0)
(0.585388 -0.2203 0)
(0.606412 -0.247529 0)
(0.63525 -0.279774 0)
(0.67589 -0.314313 0)
(0.731125 -0.341363 0)
(0.799293 -0.337718 0)
(0.00833976 0.0239876 0)
(0.0433705 0.00979578 0)
(0.094978 -0.0211339 0)
(0.149018 -0.0502089 0)
(0.198531 -0.0758808 0)
(0.242984 -0.0984206 0)
(0.282931 -0.117789 0)
(0.318719 -0.133963 0)
(0.350619 -0.147032 0)
(0.378914 -0.157142 0)
(0.403876 -0.16448 0)
(0.425754 -0.169277 0)
(0.444786 -0.171807 0)
(0.461206 -0.172387 0)
(0.475248 -0.171368 0)
(0.487149 -0.169122 0)
(0.497146 -0.166036 0)
(0.505471 -0.162502 0)
(0.51235 -0.158909 0)
(0.517998 -0.155642 0)
(0.522615 -0.153079 0)
(0.526386 -0.151593 0)
(0.529485 -0.151563 0)
(0.532072 -0.15338 0)
(0.534308 -0.157467 0)
(0.53637 -0.164305 0)
(0.538485 -0.174475 0)
(0.540985 -0.18871 0)
(0.544412 -0.207976 0)
(0.549712 -0.233558 0)
(0.558579 -0.26706 0)
(0.573983 -0.309921 0)
(0.600876 -0.361077 0)
(0.643205 -0.408861 0)
(0.700562 -0.411601 0)
(0.0786366 -0.0344039 0)
(0.147393 -0.0645045 0)
(0.217125 -0.088762 0)
(0.279533 -0.108956 0)
(0.330914 -0.126537 0)
(0.373668 -0.14215 0)
(0.409936 -0.155628 0)
(0.44073 -0.166706 0)
(0.466659 -0.175271 0)
(0.488238 -0.181344 0)
(0.505928 -0.185037 0)
(0.520135 -0.186537 0)
(0.531232 -0.186094 0)
(0.53957 -0.184011 0)
(0.545481 -0.180626 0)
(0.549287 -0.176302 0)
(0.551285 -0.171411 0)
(0.551755 -0.166328 0)
(0.550947 -0.161424 0)
(0.549079 -0.15706 0)
(0.54634 -0.153587 0)
(0.542878 -0.151355 0)
(0.538809 -0.150714 0)
(0.534212 -0.152038 0)
(0.529136 -0.155738 0)
(0.523602 -0.162301 0)
(0.517616 -0.172344 0)
(0.511186 -0.186692 0)
(0.504352 -0.206508 0)
(0.497247 -0.233472 0)
(0.490206 -0.269932 0)
(0.484006 -0.318631 0)
(0.480479 -0.38025 0)
(0.480912 -0.443238 0)
(0.491593 -0.451005 0)
(0.358541 -0.118189 0)
(0.387483 -0.138173 0)
(0.422151 -0.148833 0)
(0.460893 -0.158839 0)
(0.495189 -0.168443 0)
(0.523772 -0.177219 0)
(0.547379 -0.184722 0)
(0.566406 -0.19055 0)
(0.581119 -0.194459 0)
(0.591855 -0.196377 0)
(0.599006 -0.196362 0)
(0.602969 -0.19457 0)
(0.60413 -0.191229 0)
(0.602869 -0.186623 0)
(0.599549 -0.18107 0)
(0.594511 -0.174909 0)
(0.588067 -0.168485 0)
(0.580494 -0.16214 0)
(0.572027 -0.156207 0)
(0.562856 -0.151005 0)
(0.553121 -0.146843 0)
(0.542913 -0.144024 0)
(0.532269 -0.142855 0)
(0.521169 -0.143657 0)
(0.509537 -0.146797 0)
(0.497228 -0.152708 0)
(0.484016 -0.161948 0)
(0.469563 -0.175263 0)
(0.453342 -0.19369 0)
(0.434487 -0.218653 0)
(0.411418 -0.251926 0)
(0.380931 -0.294879 0)
(0.335718 -0.344877 0)
(0.259667 -0.380494 0)
(0.132196 -0.295442 0)
(0.628944 -0.123186 0)
(0.631257 -0.153895 0)
(0.636651 -0.170183 0)
(0.647563 -0.180868 0)
(0.658849 -0.188715 0)
(0.668017 -0.194414 0)
(0.674541 -0.198262 0)
(0.678181 -0.200333 0)
(0.678811 -0.200626 0)
(0.676508 -0.199184 0)
(0.671501 -0.196127 0)
(0.664095 -0.191645 0)
(0.654629 -0.185981 0)
(0.64345 -0.179417 0)
(0.630897 -0.172254 0)
(0.617286 -0.164805 0)
(0.602896 -0.157379 0)
(0.587964 -0.150272 0)
(0.572674 -0.14377 0)
(0.557156 -0.138137 0)
(0.541482 -0.133628 0)
(0.525664 -0.130486 0)
(0.509652 -0.128956 0)
(0.493329 -0.129295 0)
(0.476503 -0.131791 0)
(0.458894 -0.136784 0)
(0.440105 -0.144697 0)
(0.419564 -0.156073 0)
(0.396425 -0.171583 0)
(0.369361 -0.191953 0)
(0.336155 -0.217547 0)
(0.292879 -0.246932 0)
(0.232496 -0.27267 0)
(0.147979 -0.270145 0)
(0.0379517 -0.174004 0)
(0.819825 -0.122972 0)
(0.812622 -0.150468 0)
(0.802956 -0.168373 0)
(0.794869 -0.180281 0)
(0.787316 -0.188153 0)
(0.778933 -0.192811 0)
(0.769173 -0.194856 0)
(0.757761 -0.194722 0)
(0.744528 -0.192697 0)
(0.729478 -0.189018 0)
(0.712767 -0.183927 0)
(0.694645 -0.177686 0)
(0.675403 -0.170576 0)
(0.655346 -0.162884 0)
(0.634764 -0.154899 0)
(0.613918 -0.146902 0)
(0.593026 -0.139158 0)
(0.572256 -0.131914 0)
(0.551718 -0.125397 0)
(0.531464 -0.119814 0)
(0.511483 -0.115356 0)
(0.491706 -0.112204 0)
(0.471998 -0.110536 0)
(0.452158 -0.110535 0)
(0.431912 -0.112402 0)
(0.410891 -0.116369 0)
(0.38861 -0.122707 0)
(0.364415 -0.131723 0)
(0.337396 -0.143711 0)
(0.306237 -0.158756 0)
(0.268978 -0.176181 0)
(0.222684 -0.193125 0)
(0.16364 -0.201397 0)
(0.0925929 -0.181589 0)
(0.0167941 -0.0989489 0)
(0.928938 -0.115777 0)
(0.915792 -0.137947 0)
(0.898144 -0.154194 0)
(0.878974 -0.165365 0)
(0.85888 -0.172507 0)
(0.837664 -0.176241 0)
(0.815281 -0.177123 0)
(0.791784 -0.175668 0)
(0.767237 -0.172306 0)
(0.741771 -0.167403 0)
(0.715595 -0.161291 0)
(0.688973 -0.154286 0)
(0.66218 -0.146689 0)
(0.635482 -0.138783 0)
(0.609113 -0.130832 0)
(0.583266 -0.123074 0)
(0.55808 -0.115725 0)
(0.533639 -0.108975 0)
(0.509968 -0.102991 0)
(0.487033 -0.0979203 0)
(0.464746 -0.093894 0)
(0.44296 -0.0910321 0)
(0.421473 -0.089449 0)
(0.400026 -0.0892605 0)
(0.378295 -0.0905887 0)
(0.35588 -0.0935662 0)
(0.332284 -0.0983311 0)
(0.306882 -0.105001 0)
(0.278866 -0.113586 0)
(0.247171 -0.123768 0)
(0.210402 -0.134391 0)
(0.166865 -0.142411 0)
(0.115389 -0.141122 0)
(0.0597284 -0.118126 0)
(0.00922197 -0.0577093 0)
(0.962542 -0.102765 0)
(0.944033 -0.119526 0)
(0.920792 -0.132442 0)
(0.894651 -0.141392 0)
(0.866547 -0.146855 0)
(0.836888 -0.149263 0)
(0.806039 -0.149062 0)
(0.774366 -0.146726 0)
(0.742195 -0.142704 0)
(0.709832 -0.137395 0)
(0.67758 -0.131153 0)
(0.645734 -0.124297 0)
(0.614557 -0.117109 0)
(0.584272 -0.109839 0)
(0.555047 -0.102703 0)
(0.526993 -0.0958884 0)
(0.500164 -0.0895514 0)
(0.474556 -0.0838243 0)
(0.450112 -0.0788173 0)
(0.426722 -0.0746226 0)
(0.404231 -0.0713189 0)
(0.382437 -0.068975 0)
(0.361095 -0.0676542 0)
(0.339917 -0.0674178 0)
(0.318569 -0.068327 0)
(0.296662 -0.0704412 0)
(0.273745 -0.0738058 0)
(0.249286 -0.0784148 0)
(0.222656 -0.0841192 0)
(0.193111 -0.0904257 0)
(0.15983 -0.0961093 0)
(0.122109 -0.0985756 0)
(0.0802364 -0.0930946 0)
(0.0385398 -0.0727131 0)
(0.00514928 -0.0319342 0)
(0.924906 -0.0843275 0)
(0.902018 -0.0961338 0)
(0.874762 -0.105295 0)
(0.844317 -0.111477 0)
(0.811616 -0.114889 0)
(0.777332 -0.115849 0)
(0.742061 -0.114722 0)
(0.706363 -0.111916 0)
(0.67072 -0.107834 0)
(0.635544 -0.102837 0)
(0.60118 -0.0972374 0)
(0.567917 -0.0913038 0)
(0.535975 -0.085263 0)
(0.505506 -0.0793035 0)
(0.4766 -0.07358 0)
(0.449281 -0.0682172 0)
(0.42352 -0.0633148 0)
(0.399237 -0.0589513 0)
(0.376306 -0.0551883 0)
(0.354565 -0.0520743 0)
(0.333816 -0.0496479 0)
(0.313831 -0.0479406 0)
(0.294351 -0.0469797 0)
(0.275093 -0.04679 0)
(0.255744 -0.0473936 0)
(0.23596 -0.0488061 0)
(0.215366 -0.0510223 0)
(0.193553 -0.0539787 0)
(0.170083 -0.0574723 0)
(0.144514 -0.0610026 0)
(0.11649 -0.0635141 0)
(0.0859734 -0.0630721 0)
(0.0539414 -0.056692 0)
(0.0242249 -0.0410281 0)
(0.00280095 -0.0157239 0)
(0.819533 -0.0619046 0)
(0.794243 -0.0693555 0)
(0.765223 -0.0749708 0)
(0.733365 -0.0784863 0)
(0.699556 -0.0800193 0)
(0.664566 -0.0798227 0)
(0.629083 -0.0781964 0)
(0.593719 -0.0754643 0)
(0.558984 -0.0719388 0)
(0.52528 -0.0678943 0)
(0.492912 -0.0635588 0)
(0.462098 -0.0591178 0)
(0.432974 -0.0547196 0)
(0.405608 -0.0504813 0)
(0.380001 -0.0464929 0)
(0.356102 -0.0428229 0)
(0.333818 -0.039522 0)
(0.313015 -0.0366273 0)
(0.293533 -0.0341656 0)
(0.275184 -0.0321555 0)
(0.257763 -0.0306101 0)
(0.241045 -0.0295387 0)
(0.224793 -0.0289477 0)
(0.208752 -0.0288423 0)
(0.192659 -0.0292253 0)
(0.176236 -0.0300934 0)
(0.159197 -0.0314251 0)
(0.141253 -0.0331499 0)
(0.122134 -0.035086 0)
(0.101636 -0.0368301 0)
(0.0797287 -0.0376034 0)
(0.0567602 -0.0361213 0)
(0.0339208 -0.0306948 0)
(0.0141661 -0.0200761 0)
(0.00136752 -0.00606374 0)
(0.651291 -0.0379419 0)
(0.626699 -0.0418002 0)
(0.599275 -0.044505 0)
(0.569786 -0.0459294 0)
(0.539044 -0.0461733 0)
(0.507782 -0.0454296 0)
(0.476636 -0.0439127 0)
(0.446137 -0.0418375 0)
(0.416693 -0.039399 0)
(0.388601 -0.0367597 0)
(0.362054 -0.0340465 0)
(0.337163 -0.0313564 0)
(0.313971 -0.0287626 0)
(0.292459 -0.026319 0)
(0.272568 -0.0240645 0)
(0.254198 -0.0220262 0)
(0.237225 -0.0202221 0)
(0.221502 -0.0186639 0)
(0.20687 -0.0173581 0)
(0.193153 -0.0163079 0)
(0.180172 -0.0155143 0)
(0.167737 -0.0149764 0)
(0.155657 -0.0146925 0)
(0.143733 -0.0146606 0)
(0.131765 -0.0148779 0)
(0.119553 -0.0153386 0)
(0.106897 -0.0160259 0)
(0.093612 -0.0168922 0)
(0.0795522 -0.0178187 0)
(0.0646679 -0.0185485 0)
(0.0491075 -0.0186042 0)
(0.0333843 -0.0172475 0)
(0.018633 -0.0136337 0)
(0.00691931 -0.00750466 0)
(0.000421612 -0.00100396 0)
(0.427606 -0.0164602 0)
(0.408068 -0.0177779 0)
(0.386828 -0.0185529 0)
(0.364505 -0.0187659 0)
(0.341729 -0.0184974 0)
(0.31905 -0.0178585 0)
(0.296907 -0.0169573 0)
(0.275636 -0.0158893 0)
(0.25547 -0.0147345 0)
(0.236552 -0.0135535 0)
(0.218954 -0.0123905 0)
(0.20269 -0.0112763 0)
(0.187733 -0.0102324 0)
(0.174024 -0.00927277 0)
(0.161481 -0.00840668 0)
(0.150004 -0.00763894 0)
(0.139483 -0.00697199 0)
(0.129799 -0.00640611 0)
(0.12083 -0.00594063 0)
(0.11245 -0.00557377 0)
(0.104533 -0.00530349 0)
(0.0969504 -0.00512721 0)
(0.089577 -0.00504251 0)
(0.0822867 -0.0050471 0)
(0.0749547 -0.00513924 0)
(0.0674578 -0.00531684 0)
(0.0596771 -0.00557441 0)
(0.0515067 -0.00589411 0)
(0.0428766 -0.006227 0)
(0.0338009 -0.00646163 0)
(0.0244649 -0.00638671 0)
(0.0153507 -0.00567848 0)
(0.00737018 -0.00399165 0)
(0.00184026 -0.00134967 0)
(-0.000223449 0.000811117 0)
(0.157955 -0.00189606 0)
(0.149109 -0.00195811 0)
(0.139743 -0.00194714 0)
(0.130158 -0.00187064 0)
(0.120632 -0.0017486 0)
(0.111386 -0.00160088 0)
(0.102577 -0.00144278 0)
(0.0943046 -0.00128568 0)
(0.0866261 -0.00113704 0)
(0.0795613 -0.00100064 0)
(0.0731048 -0.000877694 0)
(0.0672337 -0.000768279 0)
(0.0619135 -0.000672078 0)
(0.0571017 -0.000588704 0)
(0.0527511 -0.000517629 0)
(0.0488113 -0.00045822 0)
(0.045231 -0.000409707 0)
(0.0419583 -0.000371293 0)
(0.0389419 -0.000342148 0)
(0.0361317 -0.000321498 0)
(0.0334784 -0.000308577 0)
(0.0309346 -0.000302696 0)
(0.028454 -0.000303222 0)
(0.0259918 -0.000309701 0)
(0.0235042 -0.000321925 0)
(0.0209477 -0.000340059 0)
(0.0182795 -0.000364442 0)
(0.0154599 -0.000394749 0)
(0.0124625 -0.000427662 0)
(0.00929709 -0.00045255 0)
(0.00605489 -0.000445121 0)
(0.00297699 -0.000360891 0)
(0.00051667 -0.000137441 0)
(-0.000744353 0.000243227 0)
(-0.000489502 0.000506153 0)
(0.207828 -0.00128513 0)
(0.216324 -0.000451684 0)
(0.221643 0.000361446 0)
(0.223704 0.00105913 0)
(0.222734 0.00161275 0)
(0.219116 0.00202858 0)
(0.213269 0.00232532 0)
(0.205595 0.00252521 0)
(0.196454 0.00264825 0)
(0.186163 0.00270542 0)
(0.489895 -0.0191244 0)
(0.512782 -0.0136683 0)
(0.529749 -0.00764786 0)
(0.540277 -0.00172803 0)
(0.544452 0.00368693 0)
(0.542678 0.00841234 0)
(0.535548 0.012404 0)
(0.523708 0.0157 0)
(0.507787 0.0183708 0)
(0.488371 0.0204625 0)
(0.674468 -0.0507355 0)
(0.708076 -0.0395231 0)
(0.734667 -0.0266628 0)
(0.753527 -0.0135326 0)
(0.764678 -0.00100954 0)
(0.76847 0.01042 0)
(0.765415 0.02054 0)
(0.756105 0.0293348 0)
(0.741102 0.0368874 0)
(0.720908 0.043248 0)
(0.790013 -0.0914752 0)
(0.830474 -0.0737412 0)
(0.862658 -0.0531747 0)
(0.886182 -0.0320461 0)
(0.901557 -0.0116955 0)
(0.909477 0.00714801 0)
(0.910613 0.0241596 0)
(0.905546 0.0393535 0)
(0.894659 0.0528938 0)
(0.878123 0.0648689 0)
(0.858754 -0.137721 0)
(0.902301 -0.111898 0)
(0.934697 -0.0823729 0)
(0.95694 -0.052676 0)
(0.971 -0.0245628 0)
(0.978517 0.00112668 0)
(0.980733 0.0242166 0)
(0.978383 0.0450448 0)
(0.971643 0.0641236 0)
(0.96014 0.0817616 0)
(0.893228 -0.186914 0)
(0.934428 -0.14917 0)
(0.958767 -0.108083 0)
(0.9713 -0.068958 0)
(0.976982 -0.0337411 0)
(0.978864 -0.00296254 0)
(0.978741 0.0239123 0)
(0.977372 0.0480834 0)
(0.974465 0.0708665 0)
(0.968704 0.093167 0)
(0.893901 -0.23321 0)
(0.921378 -0.176127 0)
(0.924029 -0.120237 0)
(0.916602 -0.0721768 0)
(0.908016 -0.0328173 0)
(0.901687 -0.00110003 0)
(0.898853 0.0252185 0)
(0.899506 0.0488472 0)
(0.902357 0.0724022 0)
(0.904547 0.0980298 0)
(0.844284 -0.263735 0)
(0.834763 -0.17522 0)
(0.798988 -0.104758 0)
(0.766807 -0.0541681 0)
(0.746096 -0.0188205 0)
(0.736048 0.00627658 0)
(0.735294 0.0258638 0)
(0.742296 0.044133 0)
(0.754939 0.0650602 0)
(0.768619 0.0934249 0)
(0.703557 -0.260249 0)
(0.623259 -0.128648 0)
(0.547713 -0.0565783 0)
(0.507323 -0.0198448 0)
(0.490357 -0.000462192 0)
(0.487044 0.0109794 0)
(0.493874 0.0198905 0)
(0.509306 0.0298959 0)
(0.532964 0.0451393 0)
(0.559774 0.075156 0)
(0.38567 -0.177721 0)
(0.248856 -0.0347423 0)
(0.187371 -0.00285446 0)
(0.174923 0.00192958 0)
(0.174738 0.00315951 0)
(0.179287 0.00384694 0)
(0.188338 0.004768 0)
(0.202372 0.00682268 0)
(0.225097 0.0137056 0)
(0.254983 0.0449409 0)
(0.175022 0.00269741 0)
(0.163344 0.00261949 0)
(0.151469 0.00247527 0)
(0.139725 0.00228342 0)
(0.128381 0.0020678 0)
(0.117627 0.0018468 0)
(0.10758 0.00163189 0)
(0.0983029 0.00143053 0)
(0.0898136 0.00124713 0)
(0.0820982 0.00108352 0)
(0.0751215 0.000939508 0)
(0.068835 0.000814151 0)
(0.0631828 0.000706089 0)
(0.0581053 0.000614048 0)
(0.0535412 0.000536603 0)
(0.0494293 0.000472508 0)
(0.0457095 0.00042044 0)
(0.0423234 0.000379333 0)
(0.0392147 0.000348078 0)
(0.0363288 0.000325817 0)
(0.0336138 0.000311617 0)
(0.0310196 0.000304761 0)
(0.0284981 0.000304486 0)
(0.0260033 0.000310333 0)
(0.0234903 0.000321997 0)
(0.0209148 0.000339649 0)
(0.0182336 0.000363539 0)
(0.0154066 0.000393347 0)
(0.012407 0.000425733 0)
(0.00924445 0.000450028 0)
(0.00601006 0.000441817 0)
(0.00294436 0.000357055 0)
(0.00049866 0.000133439 0)
(-0.000749859 -0.000245504 0)
(-0.000488858 -0.000505846 0)
(0.466046 0.021965 0)
(0.44147 0.0228232 0)
(0.415407 0.0230149 0)
(0.388656 0.0226101 0)
(0.361936 0.0217441 0)
(0.33582 0.0205592 0)
(0.310736 0.0191774 0)
(0.286984 0.0176977 0)
(0.264746 0.0161973 0)
(0.244112 0.0147314 0)
(0.2251 0.0133365 0)
(0.207676 0.0120356 0)
(0.19177 0.0108423 0)
(0.177283 0.00976387 0)
(0.164102 0.00880311 0)
(0.152101 0.00796003 0)
(0.141148 0.00723282 0)
(0.131108 0.00661867 0)
(0.121844 0.00611416 0)
(0.113219 0.0057156 0)
(0.105098 0.00541915 0)
(0.0973473 0.00522101 0)
(0.0898347 0.00511763 0)
(0.0824305 0.00510594 0)
(0.075007 0.00518353 0)
(0.0674386 0.00534786 0)
(0.059605 0.00559306 0)
(0.051399 0.00590105 0)
(0.0427497 0.00622269 0)
(0.0336705 0.00644667 0)
(0.0243458 0.00636201 0)
(0.015256 0.00564667 0)
(0.00730979 0.00395823 0)
(0.00181249 0.00132293 0)
(-0.000224717 -0.000818228 0)
(0.696034 0.0483392 0)
(0.667156 0.0519592 0)
(0.635198 0.0539701 0)
(0.601217 0.0544529 0)
(0.566211 0.053656 0)
(0.531028 0.0518715 0)
(0.496363 0.0493757 0)
(0.462762 0.0464162 0)
(0.430626 0.043202 0)
(0.400223 0.0398967 0)
(0.371712 0.036622 0)
(0.345162 0.0334652 0)
(0.320574 0.0304874 0)
(0.297893 0.0277303 0)
(0.27702 0.025221 0)
(0.257829 0.022976 0)
(0.240167 0.0210042 0)
(0.223866 0.0193094 0)
(0.208747 0.017892 0)
(0.194621 0.0167501 0)
(0.181295 0.0158802 0)
(0.16857 0.0152782 0)
(0.156245 0.0149395 0)
(0.144118 0.0148598 0)
(0.131983 0.0150345 0)
(0.119636 0.0154564 0)
(0.106876 0.0161076 0)
(0.0935147 0.0169398 0)
(0.0794059 0.0178336 0)
(0.0644985 0.0185323 0)
(0.0489405 0.0185595 0)
(0.0332432 0.0171805 0)
(0.018536 0.0135565 0)
(0.00687071 0.0074385 0)
(0.000416988 0.00097773 0)
(0.856047 0.0750818 0)
(0.828821 0.0830224 0)
(0.797319 0.0882998 0)
(0.762675 0.0909605 0)
(0.725955 0.0913479 0)
(0.688061 0.0898788 0)
(0.649778 0.0869673 0)
(0.611783 0.0830097 0)
(0.574628 0.0783601 0)
(0.538736 0.073313 0)
(0.504417 0.068103 0)
(0.471882 0.0629122 0)
(0.441254 0.05788 0)
(0.41258 0.0531107 0)
(0.385841 0.0486809 0)
(0.360967 0.0446453 0)
(0.337843 0.0410424 0)
(0.316318 0.037898 0)
(0.296214 0.0352292 0)
(0.277332 0.0330466 0)
(0.259452 0.0313564 0)
(0.242341 0.030162 0)
(0.225752 0.0294652 0)
(0.209425 0.029267 0)
(0.193091 0.029567 0)
(0.176468 0.0303593 0)
(0.159268 0.0316202 0)
(0.1412 0.0332778 0)
(0.121994 0.0351493 0)
(0.101444 0.036831 0)
(0.0795205 0.0375464 0)
(0.0565706 0.0360155 0)
(0.033782 0.0305618 0)
(0.014091 0.0199523 0)
(0.00135861 0.00600472 0)
(0.943241 0.0976405 0)
(0.920803 0.110659 0)
(0.893635 0.119999 0)
(0.862928 0.12569 0)
(0.829644 0.128188 0)
(0.794504 0.127994 0)
(0.758165 0.125611 0)
(0.72125 0.121539 0)
(0.684304 0.116239 0)
(0.647794 0.110108 0)
(0.612115 0.103482 0)
(0.577586 0.0966365 0)
(0.544451 0.0897993 0)
(0.512879 0.0831529 0)
(0.482962 0.0768424 0)
(0.454728 0.0709814 0)
(0.428144 0.0656577 0)
(0.403125 0.0609386 0)
(0.379541 0.0568754 0)
(0.35722 0.053507 0)
(0.335958 0.0508637 0)
(0.315521 0.0489699 0)
(0.295645 0.0478467 0)
(0.276041 0.0475133 0)
(0.256393 0.0479874 0)
(0.236353 0.0492807 0)
(0.215546 0.0513847 0)
(0.193562 0.0542336 0)
(0.169961 0.0576222 0)
(0.144304 0.0610497 0)
(0.116237 0.0634619 0)
(0.0857256 0.0629325 0)
(0.0537449 0.0564921 0)
(0.0241086 0.0408265 0)
(0.0027835 0.0156124 0)
(0.958144 0.114537 0)
(0.941906 0.132611 0)
(0.9211 0.145936 0)
(0.897241 0.154722 0)
(0.871079 0.159635 0)
(0.842944 0.161252 0)
(0.813179 0.160121 0)
(0.782173 0.15679 0)
(0.750303 0.151757 0)
(0.717941 0.145458 0)
(0.685459 0.138276 0)
(0.653213 0.130547 0)
(0.621524 0.122564 0)
(0.590655 0.114582 0)
(0.560811 0.106815 0)
(0.53213 0.099447 0)
(0.504685 0.0926278 0)
(0.478485 0.0864823 0)
(0.45348 0.081113 0)
(0.429567 0.0766043 0)
(0.406592 0.0730273 0)
(0.384354 0.0704441 0)
(0.362607 0.0689114 0)
(0.341065 0.0684848 0)
(0.319389 0.0692204 0)
(0.297192 0.0711727 0)
(0.274023 0.0743831 0)
(0.249352 0.078842 0)
(0.222549 0.0843972 0)
(0.192877 0.0905537 0)
(0.159519 0.0960875 0)
(0.121779 0.0984113 0)
(0.0799542 0.0928188 0)
(0.0383591 0.072407 0)
(0.00511602 0.0317385 0)
(0.901888 0.124979 0)
(0.892677 0.147752 0)
(0.879527 0.164227 0)
(0.864799 0.175405 0)
(0.848776 0.182375 0)
(0.831124 0.185805 0)
(0.811735 0.186279 0)
(0.790647 0.184331 0)
(0.767964 0.18041 0)
(0.743876 0.174901 0)
(0.718663 0.168162 0)
(0.692656 0.16053 0)
(0.6662 0.152321 0)
(0.639619 0.143833 0)
(0.6132 0.135338 0)
(0.587182 0.127079 0)
(0.561739 0.119274 0)
(0.536984 0.112113 0)
(0.512965 0.10576 0)
(0.489666 0.100359 0)
(0.467011 0.0960363 0)
(0.444861 0.0929082 0)
(0.423023 0.0910841 0)
(0.401241 0.0906747 0)
(0.379195 0.0917975 0)
(0.356486 0.09458 0)
(0.332623 0.0991562 0)
(0.306981 0.105638 0)
(0.278758 0.114033 0)
(0.246896 0.124017 0)
(0.210009 0.134432 0)
(0.166419 0.142242 0)
(0.114975 0.140765 0)
(0.059437 0.117676 0)
(0.00915993 0.0573791 0)
(0.77592 0.128131 0)
(0.774317 0.155164 0)
(0.770685 0.173061 0)
(0.768301 0.185192 0)
(0.765925 0.19335 0)
(0.762163 0.198285 0)
(0.756435 0.200545 0)
(0.748457 0.200529 0)
(0.738092 0.198513 0)
(0.725388 0.194742 0)
(0.710554 0.189472 0)
(0.693893 0.182985 0)
(0.675751 0.175579 0)
(0.656486 0.16756 0)
(0.636442 0.159232 0)
(0.615926 0.150888 0)
(0.5952 0.142804 0)
(0.574468 0.135232 0)
(0.55387 0.128403 0)
(0.533483 0.122527 0)
(0.513318 0.117795 0)
(0.493321 0.114387 0)
(0.473371 0.112479 0)
(0.453276 0.112252 0)
(0.432768 0.113903 0)
(0.411486 0.117661 0)
(0.388949 0.123791 0)
(0.364509 0.132596 0)
(0.33726 0.144362 0)
(0.305896 0.159169 0)
(0.26847 0.17633 0)
(0.22207 0.192983 0)
(0.163022 0.200955 0)
(0.0921157 0.180941 0)
(0.0166763 0.0983902 0)
(0.581874 0.122816 0)
(0.590155 0.152339 0)
(0.601347 0.16877 0)
(0.617268 0.18013 0)
(0.633048 0.188815 0)
(0.646359 0.195366 0)
(0.656657 0.199987 0)
(0.663685 0.202709 0)
(0.667316 0.203517 0)
(0.667634 0.202458 0)
(0.664878 0.19966 0)
(0.659366 0.195329 0)
(0.651462 0.189722 0)
(0.64154 0.183136 0)
(0.629972 0.175891 0)
(0.617109 0.168313 0)
(0.603265 0.160724 0)
(0.588707 0.153432 0)
(0.573652 0.14673 0)
(0.558256 0.140892 0)
(0.542613 0.136174 0)
(0.526755 0.132825 0)
(0.510647 0.13109 0)
(0.494185 0.131227 0)
(0.477187 0.133523 0)
(0.459382 0.138315 0)
(0.440377 0.146025 0)
(0.419607 0.157187 0)
(0.396231 0.172466 0)
(0.368928 0.192576 0)
(0.335496 0.217865 0)
(0.292032 0.246876 0)
(0.231562 0.272165 0)
(0.147174 0.269201 0)
(0.0376908 0.172971 0)
(0.327242 0.111903 0)
(0.358526 0.131582 0)
(0.395461 0.143125 0)
(0.435987 0.154218 0)
(0.472268 0.164939 0)
(0.503114 0.174782 0)
(0.529104 0.183262 0)
(0.550526 0.189964 0)
(0.567573 0.194643 0)
(0.580526 0.197221 0)
(0.58973 0.197758 0)
(0.595547 0.19641 0)
(0.598346 0.193411 0)
(0.598499 0.189054 0)
(0.596373 0.183667 0)
(0.592321 0.1776 0)