/*--------------------------------*- C++ -*----------------------------------*\
| =========                 |                                                 |
| \\      /  F ield         | OpenFOAM: The Open Source CFD Toolbox           |
|  \\    /   O peration     | Version:  2406                                  |
|   \\  /    A nd           | Website:  www.openfoam.com                      |
|    \\/     M anipulation  |                                                 |
\*---------------------------------------------------------------------------*/
FoamFile
{
    version     2.0;
    format      ascii;
    arch        "LSB;label=32;scalar=64";
    class       volScalarField;
    location    "778";
    object      p;
}
// * * * * * * * * * * * * * * * * * * * * * * * * * * * * * * * * * * * * * //

dimensions      [0 2 -2 0 0 0 0];

internalField   nonuniform List<scalar> 
190000
(
0.0234179
0.0246158
0.0248236
0.0244762
0.0239118
0.0232402
0.0225061
0.0217348
0.0209401
0.0201296
0.0193074
0.0184761
0.0176373
0.016792
0.0159409
0.0150844
0.0142229
0.0133566
0.0124856
0.0116101
0.01073
0.0098456
0.00895673
0.00806346
0.00716577
0.00626365
0.00535705
0.00444595
0.00353029
0.00261002
0.00168508
0.00075541
-0.000179068
-0.00111843
-0.00206275
-0.00301212
-0.00396663
-0.00492636
-0.00589144
-0.00686195
-0.007838
-0.00881972
-0.00980722
-0.0108006
-0.0118001
-0.0128057
-0.0138177
-0.0148361
-0.0158611
-0.016893
-0.0179318
-0.0189778
-0.0200311
-0.0210919
-0.0221605
-0.0232371
-0.0243218
-0.025415
-0.0265169
-0.0276277
-0.0287477
-0.0298773
-0.0310168
-0.0321664
-0.0333265
-0.0344976
-0.0356799
-0.036874
-0.0380802
-0.039299
-0.040531
-0.0417766
-0.0430365
-0.0443112
-0.0456014
-0.0469078
-0.0482311
-0.0495722
-0.0509318
-0.0523108
-0.0537102
-0.0551309
-0.0565737
-0.0580398
-0.0595299
-0.0610447
-0.0625848
-0.0641503
-0.0657407
-0.0673551
-0.0689917
-0.0706482
-0.0723235
-0.0740209
-0.0757628
-0.0776351
-0.0798226
-0.0823603
-0.0852948
-0.096993
0.0253762
0.0252407
0.0249453
0.0244624
0.0238574
0.0231758
0.0224439
0.0216781
0.0208889
0.0200829
0.0192642
0.0184355
0.0175985
0.0167544
0.015904
0.0150479
0.0141864
0.01332
0.0124487
0.0115727
0.0106922
0.00980708
0.00891749
0.00802343
0.00712488
0.00622185
0.0053143
0.00440219
0.00348548
0.00256413
0.00163807
0.000707229
-0.00022845
-0.00116905
-0.00211465
-0.00306533
-0.00402119
-0.00498232
-0.00594883
-0.00692082
-0.0078984
-0.00888169
-0.00987081
-0.0108659
-0.0118671
-0.0128745
-0.0138883
-0.0149086
-0.0159356
-0.0169695
-0.0180104
-0.0190586
-0.0201142
-0.0211774
-0.0222484
-0.0233276
-0.024415
-0.0255109
-0.0266157
-0.0277296
-0.0288528
-0.0299858
-0.0311287
-0.032282
-0.0334461
-0.0346212
-0.0358079
-0.0370065
-0.0382176
-0.0394416
-0.0406791
-0.0419306
-0.0431968
-0.0444783
-0.0457758
-0.0470901
-0.048422
-0.0497724
-0.0511422
-0.0525325
-0.0539444
-0.0553791
-0.0568378
-0.058322
-0.059833
-0.0613726
-0.0629423
-0.0645441
-0.0661803
-0.0678537
-0.0695685
-0.0713315
-0.0731547
-0.0750607
-0.0770957
-0.0793554
-0.0820004
-0.0852557
-0.0900214
-0.100019
0.0264144
0.0257008
0.0250922
0.0244935
0.0238411
0.0231394
0.0224007
0.021634
0.0208461
0.0200419
0.0192249
0.0183975
0.0175615
0.016718
0.0158679
0.0150119
0.0141504
0.0132836
0.0124119
0.0115354
0.0106541
0.00976831
0.00887792
0.00798298
0.00708351
0.0061795
0.00527092
0.00435774
0.00343993
0.00251742
0.00159017
0.000658113
-0.000278827
-0.00122072
-0.00216765
-0.00311971
-0.00407698
-0.00503957
-0.00600757
-0.00698109
-0.00796025
-0.00894517
-0.00993597
-0.0109328
-0.0119357
-0.012945
-0.0139607
-0.014983
-0.016012
-0.017048
-0.0180911
-0.0191415
-0.0201995
-0.0212651
-0.0223387
-0.0234204
-0.0245106
-0.0256094
-0.0267171
-0.0278341
-0.0289606
-0.030097
-0.0312435
-0.0324006
-0.0335686
-0.0347479
-0.0359389
-0.0371422
-0.0383582
-0.0395875
-0.0408305
-0.042088
-0.0433606
-0.0446489
-0.0459538
-0.047276
-0.0486166
-0.0499764
-0.0513566
-0.0527583
-0.0541829
-0.0556318
-0.0571066
-0.0586092
-0.0601416
-0.0617063
-0.0633062
-0.0649449
-0.066627
-0.0683588
-0.0701492
-0.0720116
-0.0739668
-0.0760476
-0.0783081
-0.0808357
-0.0837569
-0.0872459
-0.0916985
-0.0979398
0.0268965
0.0260056
0.0252548
0.0245738
0.023873
0.0231431
0.0223891
0.0216145
0.0208226
0.0200164
0.0191984
0.0183705
0.0175342
0.0166904
0.0158401
0.0149837
0.0141217
0.0132545
0.0123822
0.0115051
0.0106232
0.0097366
0.00884543
0.00794967
0.00704934
0.00614443
0.00523492
0.00432078
0.00340197
0.00247845
0.00155015
0.000617011
-0.000321036
-0.00126407
-0.00221217
-0.00316542
-0.00412392
-0.00508776
-0.00605705
-0.00703191
-0.00801243
-0.00899875
-0.00999099
-0.0109893
-0.0119938
-0.0130046
-0.0140219
-0.0150459
-0.0160766
-0.0171144
-0.0181594
-0.0192117
-0.0202716
-0.0213393
-0.022415
-0.0234989
-0.0245914
-0.0256926
-0.0268028
-0.0279224
-0.0290516
-0.0301908
-0.0313403
-0.0325005
-0.0336718
-0.0348545
-0.0360492
-0.0372563
-0.0384764
-0.0397099
-0.0409575
-0.0422199
-0.0434976
-0.0447915
-0.0461023
-0.047431
-0.0487785
-0.050146
-0.0515345
-0.0529454
-0.0543801
-0.0558404
-0.0573281
-0.0588453
-0.0603947
-0.0619793
-0.0636027
-0.0652696
-0.0669858
-0.0687592
-0.0706005
-0.0725243
-0.0745516
-0.0767117
-0.0790462
-0.0816112
-0.0844727
-0.0876906
-0.0913245
-0.0954008
0.0271878
0.026225
0.0254007
0.0246635
0.0239228
0.0231663
0.0223954
0.0216104
0.020812
0.0200019
0.0191813
0.0183518
0.0175143
0.0166696
0.0158185
0.0149615
0.0140989
0.0132309
0.012358
0.0114801
0.0105975
0.0097102
0.00881825
0.00792169
0.00702054
0.00611478
0.0052044
0.00428937
0.00336965
0.00244518
0.00151592
0.000581802
-0.00035725
-0.00130131
-0.00225046
-0.00320479
-0.00416439
-0.00512936
-0.0060998
-0.00707584
-0.00805757
-0.00904513
-0.0100386
-0.0110382
-0.0120441
-0.0130563
-0.014075
-0.0151004
-0.0161327
-0.017172
-0.0182186
-0.0192726
-0.0203342
-0.0214036
-0.0224812
-0.023567
-0.0246614
-0.0257646
-0.026877
-0.0279988
-0.0291303
-0.0302719
-0.0314239
-0.0325866
-0.0337606
-0.0349463
-0.036144
-0.0373542
-0.0385776
-0.0398147
-0.041066
-0.0423323
-0.0436142
-0.0449125
-0.0462281
-0.047562
-0.048915
-0.0502884
-0.0516834
-0.0531014
-0.054544
-0.0560129
-0.0575103
-0.0590384
-0.0606002
-0.0621989
-0.0638385
-0.0655239
-0.0672614
-0.0690587
-0.0709259
-0.0728756
-0.0749241
-0.0770913
-0.0794008
-0.0818761
-0.084532
-0.0873546
-0.0902806
-0.0931538
0.027384
0.0263878
0.0255218
0.0247475
0.0239769
0.0231983
0.022412
0.0216165
0.020811
0.0199959
0.0191721
0.0183402
0.0175009
0.016655
0.0158028
0.0149448
0.0140813
0.0132126
0.0123389
0.0114603
0.0105769
0.00968882
0.00879611
0.00789877
0.00699683
0.00609027
0.00517907
0.00426321
0.00334264
0.00241732
0.00148718
0.000552167
-0.000387794
-0.00133278
-0.00228287
-0.00323816
-0.00419874
-0.00516471
-0.00613618
-0.00711326
-0.00809606
-0.0090847
-0.0100793
-0.0110801
-0.0120871
-0.0131005
-0.0141204
-0.0151471
-0.0161807
-0.0172213
-0.0182692
-0.0193246
-0.0203877
-0.0214586
-0.0225377
-0.0236251
-0.0247211
-0.025826
-0.0269402
-0.0280637
-0.0291971
-0.0303406
-0.0314947
-0.0326595
-0.0338357
-0.0350236
-0.0362237
-0.0374364
-0.0386624
-0.0399022
-0.0411564
-0.0424256
-0.0437107
-0.0450123
-0.0463315
-0.047669
-0.049026
-0.0504036
-0.0518031
-0.0532259
-0.0546737
-0.0561482
-0.0576517
-0.0591864
-0.0607553
-0.0623615
-0.0640091
-0.0657027
-0.0674478
-0.069251
-0.0711203
-0.0730647
-0.0750939
-0.0772176
-0.0794428
-0.0817687
-0.0841778
-0.0866205
-0.0889984
-0.0911384
0.0275216
0.0265112
0.0256218
0.0248235
0.0240313
0.0232351
0.0224355
0.0216302
0.0208176
0.0199975
0.0191699
0.0183352
0.0174939
0.0166463
0.0157928
0.0149337
0.0140693
0.0131997
0.0123251
0.0114457
0.0105616
0.0096728
0.00877935
0.00788127
0.00697859
0.00607129
0.00515934
0.00424272
0.00332139
0.00239529
0.00146437
0.000528563
-0.000412201
-0.001358
-0.00230892
-0.00326504
-0.00422647
-0.00519331
-0.00616565
-0.00714361
-0.00812732
-0.00911688
-0.0101124
-0.0111141
-0.0121221
-0.0131365
-0.0141574
-0.0151852
-0.0162198
-0.0172615
-0.0183105
-0.019367
-0.0204312
-0.0215033
-0.0225836
-0.0236723
-0.0247696
-0.0258758
-0.0269912
-0.0281162
-0.029251
-0.030396
-0.0315515
-0.0327179
-0.0338956
-0.0350851
-0.0362869
-0.0375014
-0.0387291
-0.0399707
-0.0412267
-0.0424979
-0.0437849
-0.0450886
-0.0464099
-0.0477495
-0.0491087
-0.0504885
-0.0518902
-0.0533153
-0.0547653
-0.056242
-0.0577474
-0.0592838
-0.0608539
-0.0624606
-0.0641074
-0.0657982
-0.0675373
-0.0693295
-0.0711799
-0.0730931
-0.0750726
-0.0771188
-0.0792264
-0.0813792
-0.0835428
-0.0856555
-0.0876189
-0.0892893
0.0276247
0.026609
0.0257063
0.0248925
0.0240848
0.0232748
0.0224641
0.0216501
0.0208309
0.0200057
0.0191743
0.0183367
0.0174931
0.0166437
0.0157888
0.0149285
0.014063
0.0131925
0.0123171
0.0114369
0.010552
0.00966247
0.00876832
0.00786956
0.00696619
0.00605821
0.00514559
0.0042283
0.00330629
0.00237951
0.00144791
0.000511424
-0.000430026
-0.00137652
-0.00232813
-0.00328495
-0.00424709
-0.00521463
-0.00618769
-0.00716638
-0.00815081
-0.00914111
-0.0101374
-0.0111399
-0.0121486
-0.0131637
-0.0141855
-0.015214
-0.0162494
-0.0172919
-0.0183417
-0.0193991
-0.0204641
-0.0215371
-0.0226182
-0.0237077
-0.0248059
-0.025913
-0.0270293
-0.0281552
-0.0292909
-0.0304367
-0.0315932
-0.0327605
-0.0339391
-0.0351296
-0.0363322
-0.0375476
-0.0387762
-0.0400186
-0.0412754
-0.0425474
-0.0438351
-0.0451394
-0.0464611
-0.0478012
-0.0491606
-0.0505404
-0.0519419
-0.0533664
-0.0548154
-0.0562905
-0.0577935
-0.0593265
-0.0608918
-0.0624918
-0.0641292
-0.0658068
-0.0675275
-0.0692939
-0.0711081
-0.0729707
-0.0748797
-0.0768287
-0.0788041
-0.0807812
-0.0827198
-0.0845584
-0.0862118
-0.0875717
0.0277084
0.026691
0.0257804
0.0249566
0.0241376
0.023317
0.022497
0.0216754
0.0208501
0.0200202
0.019185
0.0183445
0.0174986
0.0166473
0.0157908
0.0149292
0.0140627
0.0131912
0.012315
0.011434
0.0105484
0.00965818
0.00876337
0.00786397
0.00695999
0.00605141
0.0051382
0.00422032
0.00329774
0.00237039
0.00143822
0.00050117
-0.000440841
-0.00138789
-0.00234006
-0.00329744
-0.00426012
-0.00522821
-0.00620182
-0.00718105
-0.00816603
-0.00915687
-0.0101537
-0.0111567
-0.012166
-0.0131816
-0.0142039
-0.0152329
-0.0162689
-0.0173119
-0.0183622
-0.0194201
-0.0204856
-0.021559
-0.0226406
-0.0237306
-0.0248292
-0.0259368
-0.0270535
-0.0281797
-0.0293158
-0.030462
-0.0316187
-0.0327863
-0.0339651
-0.0351557
-0.0363584
-0.0375737
-0.0388022
-0.0400445
-0.041301
-0.0425724
-0.0438595
-0.0451629
-0.0464835
-0.0478221
-0.0491796
-0.0505572
-0.0519559
-0.0533768
-0.0548214
-0.0562911
-0.0577874
-0.0593119
-0.0608665
-0.0624528
-0.0640728
-0.0657281
-0.0674198
-0.0691486
-0.0709138
-0.0727125
-0.0745386
-0.0763811
-0.0782218
-0.0800328
-0.0817736
-0.0833892
-0.0848103
-0.0859578
0.0277817
0.026764
0.0258484
0.025018
0.0241908
0.0233617
0.0225341
0.021706
0.0208753
0.0200409
0.0192021
0.0183587
0.0175105
0.0166573
0.0157993
0.0149364
0.0140687
0.0131962
0.0123192
0.0114374
0.0105511
0.00966028
0.00876487
0.00786491
0.00696039
0.00605129
0.00513757
0.00421921
0.00329615
0.00236835
0.00143573
0.000498241
-0.000444198
-0.00139166
-0.00234424
-0.00330202
-0.00426509
-0.00523356
-0.00620754
-0.00718713
-0.00817245
-0.00916363
-0.0101608
-0.0111641
-0.0121736
-0.0131896
-0.0142121
-0.0152414
-0.0162776
-0.0173208
-0.0183713
-0.0194293
-0.020495
-0.0215685
-0.0226502
-0.0237402
-0.0248388
-0.0259463
-0.0270629
-0.028189
-0.0293248
-0.0304707
-0.0316271
-0.0327942
-0.0339725
-0.0351624
-0.0363643
-0.0375787
-0.038806
-0.0400469
-0.0413019
-0.0425715
-0.0438565
-0.0451575
-0.0464752
-0.0478104
-0.049164
-0.050537
-0.0519301
-0.0533446
-0.0547816
-0.056242
-0.0577273
-0.0592385
-0.0607768
-0.0623434
-0.063939
-0.0655641
-0.0672185
-0.0689008
-0.0706079
-0.0723346
-0.074072
-0.0758061
-0.0775171
-0.0791768
-0.0807477
-0.0821829
-0.0834277
-0.0844246
0.02785
0.0268325
0.0259135
0.0250786
0.0242453
0.0234096
0.0225757
0.021742
0.0209065
0.020068
0.0192258
0.0183796
0.0175291
0.016674
0.0158144
0.0149501
0.0140813
0.013208
0.01233
0.0114476
0.0105606
0.0096692
0.00877325
0.00787279
0.0069678
0.00605827
0.00514415
0.0042254
0.00330198
0.00237383
0.00144089
0.000503096
-0.000439631
-0.00138737
-0.0023402
-0.00329821
-0.0042615
-0.00523017
-0.00620432
-0.00718407
-0.00816953
-0.00916082
-0.0101581
-0.0111614
-0.012171
-0.013187
-0.0142095
-0.0152387
-0.0162748
-0.0173179
-0.0183683
-0.0194261
-0.0204915
-0.0215647
-0.022646
-0.0237356
-0.0248337
-0.0259407
-0.0270567
-0.028182
-0.029317
-0.030462
-0.0316173
-0.0327832
-0.0339601
-0.0351485
-0.0363487
-0.0375611
-0.0387863
-0.0400248
-0.0412769
-0.0425434
-0.0438248
-0.0451217
-0.0464348
-0.0477647
-0.0491123
-0.0504782
-0.0518633
-0.0532685
-0.0546945
-0.0561422
-0.0576124
-0.0591059
-0.0606231
-0.0621645
-0.06373
-0.0653188
-0.0669294
-0.068559
-0.0702027
-0.0718535
-0.0735007
-0.0751294
-0.0767193
-0.078244
-0.0796703
-0.0809593
-0.0820683
-0.0829551
0.0279171
0.0268999
0.0259782
0.0251402
0.0243025
0.0234615
0.0226224
0.0217838
0.0209439
0.0201017
0.0192563
0.0184075
0.0175547
0.0166977
0.0158365
0.014971
0.0141011
0.0132268
0.012348
0.0114649
0.0105773
0.00968535
0.00878892
0.00788804
0.00698267
0.00607279
0.00515837
0.00423934
0.00331567
0.0023873
0.00145417
0.000516205
-0.000426664
-0.00137452
-0.00232744
-0.00328551
-0.00424884
-0.00521752
-0.00619165
-0.00717135
-0.00815673
-0.00914791
-0.010145
-0.0111482
-0.0121575
-0.0131733
-0.0141955
-0.0152243
-0.01626
-0.0173027
-0.0183525
-0.0194097
-0.0204744
-0.021547
-0.0226274
-0.0237162
-0.0248133
-0.0259191
-0.0270339
-0.028158
-0.0292915
-0.0304349
-0.0315884
-0.0327523
-0.0339271
-0.0351131
-0.0363106
-0.0375201
-0.0387421
-0.0399769
-0.041225
-0.042487
-0.0437633
-0.0450545
-0.0463612
-0.0476839
-0.0490233
-0.05038
-0.0517545
-0.0531475
-0.0545596
-0.0559912
-0.0574428
-0.0589146
-0.0604066
-0.0619184
-0.0634491
-0.064997
-0.0665595
-0.0681326
-0.0697102
-0.0712842
-0.0728431
-0.0743718
-0.075851
-0.0772567
-0.0785604
-0.0797302
-0.0807327
-0.0815367
0.0279854
0.0269684
0.0260446
0.0252044
0.0243632
0.0235179
0.0226744
0.0218318
0.0209881
0.0201424
0.0192941
0.0184426
0.0175877
0.0167289
0.0158662
0.0149994
0.0141284
0.0132531
0.0123736
0.0114898
0.0106017
0.00970919
0.00881235
0.00791111
0.00700545
0.00609532
0.00518068
0.00426149
0.00333769
0.00240922
0.00147603
0.000538035
-0.000404827
-0.00135264
-0.00230548
-0.00326345
-0.00422662
-0.00519512
-0.00616902
-0.00714845
-0.00813352
-0.00912435
-0.0101211
-0.0111238
-0.0121326
-0.0131478
-0.0141694
-0.0151976
-0.0162325
-0.0172743
-0.0183233
-0.0193795
-0.0204432
-0.0215145
-0.0225938
-0.0236811
-0.0247767
-0.025881
-0.026994
-0.0281161
-0.0292475
-0.0303886
-0.0315396
-0.0327008
-0.0338726
-0.0350552
-0.0362492
-0.0374547
-0.0386723
-0.0399023
-0.0411451
-0.0424012
-0.043671
-0.0449549
-0.0462535
-0.0475672
-0.0488964
-0.0502416
-0.0516032
-0.0529815
-0.0543769
-0.0557896
-0.0572194
-0.0586663
-0.0601295
-0.0616082
-0.0631007
-0.0646045
-0.0661162
-0.0676309
-0.0691418
-0.0706402
-0.0721145
-0.0735503
-0.0749295
-0.076231
-0.0774306
-0.0785022
-0.0794199
-0.0801601
0.0280569
0.0270398
0.0261141
0.0252723
0.0244285
0.0235797
0.0227326
0.0218863
0.0210392
0.0201904
0.0193394
0.0184855
0.0176285
0.016768
0.0159037
0.0150356
0.0141636
0.0132874
0.0124072
0.0115227
0.0106341
0.00974117
0.00884397
0.00794246
0.00703657
0.00612628
0.00521153
0.00429228
0.00336847
0.00244004
0.00150692
0.000569046
-0.000373654
-0.00132126
-0.00227385
-0.00323152
-0.00419436
-0.00516246
-0.00613593
-0.00711488
-0.0080994
-0.00908963
-0.0100857
-0.0110877
-0.0120958
-0.01311
-0.0141307
-0.0151579
-0.0161917
-0.0172324
-0.01828
-0.0193349
-0.0203971
-0.0214668
-0.0225443
-0.0236298
-0.0247234
-0.0258254
-0.0269361
-0.0280556
-0.0291843
-0.0303223
-0.0314701
-0.0326278
-0.0337957
-0.0349742
-0.0361636
-0.0373642
-0.0385763
-0.0398003
-0.0410366
-0.0422854
-0.0435473
-0.0448224
-0.0461112
-0.0474141
-0.0487312
-0.0500629
-0.0514094
-0.0527708
-0.0541471
-0.0555382
-0.0569436
-0.0583627
-0.0597946
-0.0612375
-0.0626894
-0.0641472
-0.0656067
-0.0670626
-0.0685079
-0.0699334
-0.0713281
-0.0726783
-0.0739678
-0.0751782
-0.076289
-0.0772792
-0.0781282
-0.0788183
0.0281327
0.0271154
0.0261879
0.025345
0.0244991
0.0236475
0.0227972
0.0219478
0.0210977
0.0202462
0.0193926
0.0185365
0.0176775
0.0168153
0.0159496
0.0150802
0.0142071
0.0133301
0.0124491
0.0115641
0.010675
0.00978171
0.00888423
0.0079825
0.00707648
0.00616612
0.00525137
0.00433217
0.00340847
0.00248019
0.00154729
0.000609686
-0.000332695
-0.00127993
-0.0022321
-0.00318929
-0.00415159
-0.0051191
-0.00609191
-0.00707014
-0.00805388
-0.00904325
-0.0100384
-0.0110394
-0.0120464
-0.0130595
-0.0140789
-0.0151047
-0.0161371
-0.0171762
-0.0182222
-0.0192753
-0.0203355
-0.0214032
-0.0224785
-0.0235616
-0.0246526
-0.0257519
-0.0268596
-0.027976
-0.0291012
-0.0302355
-0.0313793
-0.0325326
-0.0336959
-0.0348693
-0.0360532
-0.0372478
-0.0384534
-0.0396703
-0.0408988
-0.0421392
-0.0433917
-0.0446566
-0.0459341
-0.0472244
-0.0485277
-0.0498441
-0.0511736
-0.052516
-0.0538711
-0.0552384
-0.0566173
-0.0580066
-0.059405
-0.0608104
-0.0622203
-0.063631
-0.0650382
-0.0664361
-0.0678176
-0.0691739
-0.0704943
-0.0717664
-0.0729758
-0.0741065
-0.0751414
-0.0760633
-0.076856
-0.0775057
0.028214
0.0271962
0.0262671
0.0254233
0.0245758
0.0237217
0.0228688
0.0220167
0.021164
0.0203099
0.019454
0.0185959
0.017735
0.0168712
0.0160041
0.0151336
0.0142594
0.0133816
0.0124999
0.0116144
0.0107248
0.00983123
0.00893353
0.00803167
0.0071256
0.00621527
0.00530061
0.00438158
0.0034581
0.00253012
0.00159757
0.00066038
-0.000281523
-0.00122822
-0.00217978
-0.0031363
-0.00409787
-0.00506457
-0.00603651
-0.00701378
-0.0079965
-0.00898476
-0.0099787
-0.0109784
-0.011984
-0.0129957
-0.0140135
-0.0150376
-0.0160682
-0.0171054
-0.0181493
-0.0192002
-0.0202581
-0.0213232
-0.0223958
-0.023476
-0.0245639
-0.0256599
-0.026764
-0.0278766
-0.0289977
-0.0301277
-0.0312666
-0.0324149
-0.0335727
-0.0347401
-0.0359176
-0.0371052
-0.0383033
-0.039512
-0.0407316
-0.0419622
-0.0432041
-0.0444573
-0.0457221
-0.0469985
-0.0482864
-0.0495858
-0.0508965
-0.0522182
-0.0535503
-0.0548922
-0.0562428
-0.0576007
-0.0589643
-0.0603311
-0.0616982
-0.0630618
-0.0644173
-0.0657587
-0.0670792
-0.0683703
-0.069622
-0.0708232
-0.0719611
-0.0730219
-0.0739915
-0.0748556
-0.0756015
-0.0762181
0.0283014
0.0272831
0.0263525
0.025508
0.0246591
0.023803
0.0229478
0.0220934
0.0212384
0.0203821
0.0195241
0.018664
0.0178014
0.016936
0.0160676
0.015196
0.0143209
0.0134423
0.01256
0.0116739
0.010784
0.00989012
0.00899227
0.00809036
0.00718432
0.00627411
0.00535965
0.00444089
0.00351776
0.0025902
0.00165815
0.000721525
-0.000219739
-0.00116572
-0.0021165
-0.00307216
-0.00403279
-0.00499847
-0.00596931
-0.0069454
-0.00792684
-0.00891374
-0.0099062
-0.0109044
-0.0119083
-0.0129182
-0.0139341
-0.0149562
-0.0159846
-0.0170194
-0.0180609
-0.0191091
-0.0201642
-0.0212264
-0.0222957
-0.0233725
-0.0244569
-0.0255489
-0.0266489
-0.027757
-0.0288734
-0.0299982
-0.0311318
-0.0322741
-0.0334256
-0.0345863
-0.0357564
-0.0369361
-0.0381257
-0.0393251
-0.0405347
-0.0417544
-0.0429845
-0.0442249
-0.0454756
-0.0467366
-0.0480077
-0.0492887
-0.0505792
-0.0518787
-0.0531864
-0.0545015
-0.0558226
-0.0571481
-0.058476
-0.0598037
-0.061128
-0.062445
-0.06375
-0.0650371
-0.0662997
-0.0675298
-0.0687183
-0.0698552
-0.0709292
-0.0719287
-0.0728417
-0.0736566
-0.074363
-0.0749522
0.0283957
0.0273768
0.0264446
0.0255995
0.0247496
0.0238918
0.0230347
0.0221782
0.0213211
0.0204628
0.0196029
0.018741
0.0178769
0.0170101
0.0161404
0.0152677
0.0143918
0.0135124
0.0126295
0.011743
0.0108528
0.00995874
0.00906081
0.00815892
0.007253
0.006343
0.00542884
0.00451047
0.00358781
0.00266081
0.00172939
0.000793487
-0.000146977
-0.00109208
-0.00204189
-0.0029965
-0.00395599
-0.00492044
-0.00588995
-0.00686462
-0.00784453
-0.0088298
-0.00982053
-0.0108168
-0.0118188
-0.0128265
-0.0138402
-0.0148599
-0.0158858
-0.016918
-0.0179565
-0.0190017
-0.0200535
-0.0211123
-0.022178
-0.0232508
-0.024331
-0.0254186
-0.0265139
-0.0276169
-0.0287279
-0.029847
-0.0309743
-0.0321101
-0.0332545
-0.0344075
-0.0355695
-0.0367404
-0.0379205
-0.0391097
-0.0403082
-0.041516
-0.0427331
-0.0439595
-0.045195
-0.0464395
-0.0476926
-0.0489539
-0.0502231
-0.0514992
-0.0527815
-0.0540687
-0.0553594
-0.0566518
-0.0579437
-0.0592323
-0.0605143
-0.0617857
-0.0630418
-0.0642771
-0.0654851
-0.0666584
-0.067789
-0.0688676
-0.0698846
-0.0708301
-0.0716938
-0.0724663
-0.0731391
-0.0737053
0.0284973
0.0274777
0.026544
0.0256985
0.0248476
0.0239884
0.0231296
0.0222714
0.0214125
0.0205524
0.0196908
0.0188273
0.0179617
0.0170936
0.0162228
0.0153491
0.0144724
0.0135923
0.0127089
0.0118221
0.0109316
0.0100374
0.00913945
0.00823766
0.00733196
0.00642226
0.00550851
0.00459064
0.00366858
0.00274227
0.00181163
0.00087659
-6.29139e-05
-0.00100696
-0.00195562
-0.00290899
-0.00386713
-0.00483014
-0.0057981
-0.00677111
-0.00774925
-0.00873263
-0.00972134
-0.0107155
-0.0117152
-0.0127205
-0.0137316
-0.0147486
-0.0157715
-0.0168006
-0.017836
-0.0188776
-0.0199258
-0.0209806
-0.0220422
-0.0231106
-0.0241861
-0.0252688
-0.0263587
-0.0274561
-0.028561
-0.0296737
-0.0307942
-0.0319227
-0.0330592
-0.0342039
-0.0353568
-0.0365181
-0.0376878
-0.0388659
-0.0400525
-0.0412474
-0.0424506
-0.0436619
-0.0448811
-0.046108
-0.0473421
-0.0485828
-0.0498296
-0.0510815
-0.0523375
-0.0535962
-0.0548561
-0.0561151
-0.057371
-0.0586209
-0.0598614
-0.0610885
-0.0622978
-0.0634838
-0.0646406
-0.0657614
-0.0668388
-0.0678647
-0.0688307
-0.0697282
-0.0705488
-0.0712846
-0.0719285
-0.0724751
0.0286066
0.0275863
0.0266511
0.0258052
0.0249537
0.0240931
0.0232329
0.0223732
0.0215127
0.020651
0.0197879
0.018923
0.0180561
0.0171868
0.016315
0.0154404
0.0145629
0.0136823
0.0127984
0.0119112
0.0110206
0.0101263
0.00922847
0.00832687
0.00742146
0.00651218
0.00559894
0.00468169
0.00376034
0.00283485
0.00190513
0.000971114
3.27326e-05
-0.000910088
-0.00185742
-0.00280935
-0.00376595
-0.0047273
-0.00569349
-0.0066646
-0.00764072
-0.00862194
-0.00960836
-0.0106001
-0.0115972
-0.0125998
-0.013608
-0.0146219
-0.0156416
-0.0166672
-0.0176989
-0.0187367
-0.0197808
-0.0208312
-0.0218882
-0.0229517
-0.024022
-0.0250991
-0.0261832
-0.0272744
-0.0283727
-0.0294783
-0.0305913
-0.0317118
-0.0328397
-0.0339753
-0.0351185
-0.0362694
-0.0374279
-0.0385941
-0.0397678
-0.0409489
-0.0421373
-0.0433327
-0.0445349
-0.0457433
-0.0469575
-0.0481768
-0.0494005
-0.0506275
-0.0518566
-0.0530865
-0.0543153
-0.0555411
-0.0567613
-0.0579731
-0.0591733
-0.0603578
-0.0615223
-0.0626618
-0.0637707
-0.0648429
-0.0658716
-0.0668497
-0.06777
-0.068625
-0.0694076
-0.0701112
-0.0707301
-0.0712598
0.028724
0.027703
0.0267663
0.0259201
0.0250679
0.0242063
0.0233448
0.0224838
0.0216219
0.0207589
0.0198944
0.0190282
0.0181601
0.0172898
0.0164171
0.0155417
0.0146635
0.0137824
0.0128982
0.0120108
0.01112
0.0102258
0.00932808
0.00842676
0.00752174
0.00661297
0.00570035
0.00478383
0.00386334
0.00293879
0.00201014
0.00107729
0.000140195
-0.00080123
-0.00174705
-0.00269735
-0.00365221
-0.00461168
-0.00557587
-0.00654485
-0.00751871
-0.00849752
-0.00948139
-0.0104704
-0.0114646
-0.0124642
-0.0134691
-0.0144796
-0.0154957
-0.0165175
-0.0175452
-0.0185787
-0.0196182
-0.0206639
-0.0217158
-0.022774
-0.0238386
-0.0249097
-0.0259874
-0.0270718
-0.0281629
-0.0292609
-0.0303657
-0.0314776
-0.0325963
-0.0337221
-0.0348549
-0.0359946
-0.0371413
-0.0382947
-0.0394548
-0.0406214
-0.0417943
-0.042973
-0.0441573
-0.0453465
-0.0465402
-0.0477375
-0.0489375
-0.0501392
-0.0513412
-0.0525421
-0.0537399
-0.0549327
-0.0561179
-0.0572927
-0.0584537
-0.0595974
-0.0607194
-0.0618151
-0.0628794
-0.0639065
-0.0648907
-0.0658255
-0.0667046
-0.0675217
-0.0682707
-0.0689461
-0.0695431
-0.0700581
0.0288498
0.027828
0.0268899
0.0260433
0.0251907
0.0243281
0.0234655
0.0226033
0.0217403
0.020876
0.0200104
0.0191431
0.018274
0.0174027
0.0165292
0.0156531
0.0147744
0.0138929
0.0130084
0.0121208
0.01123
0.0103359
0.00943846
0.0085375
0.00763298
0.00672481
0.00581293
0.00489727
0.00397774
0.00305428
0.00212683
0.00119531
0.000259656
-0.000680203
-0.00162434
-0.00257282
-0.00352573
-0.00448313
-0.0054451
-0.00641172
-0.00738306
-0.00835921
-0.00934026
-0.0103263
-0.0113173
-0.0123135
-0.013315
-0.0143217
-0.0153339
-0.0163515
-0.0173747
-0.0184036
-0.0194382
-0.0204787
-0.021525
-0.0225774
-0.0236358
-0.0247004
-0.0257712
-0.0268483
-0.0279317
-0.0290215
-0.0301177
-0.0312202
-0.0323292
-0.0334446
-0.0345663
-0.0356942
-0.0368283
-0.0379684
-0.0391143
-0.0402657
-0.0414223
-0.0425837
-0.0437495
-0.0449191
-0.0460917
-0.0472665
-0.0484425
-0.0496187
-0.0507935
-0.0519654
-0.0531326
-0.0542929
-0.0554439
-0.0565827
-0.0577062
-0.0588108
-0.0598925
-0.0609471
-0.0619697
-0.0629554
-0.0638987
-0.0647941
-0.0656361
-0.0664193
-0.0671384
-0.0677888
-0.0683665
-0.0688686
0.028984
0.0279615
0.0270221
0.0261752
0.0253221
0.0244587
0.0235951
0.022732
0.0218679
0.0210026
0.020136
0.0192677
0.0183977
0.0175256
0.0166514
0.0157748
0.0148956
0.0140138
0.0131291
0.0122414
0.0113507
0.0104568
0.00955971
0.00865921
0.00775529
0.00684784
0.00593681
0.00502211
0.00410368
0.00318145
0.00225534
0.0013253
0.000391246
-0.00054688
-0.00148915
-0.00243563
-0.00338639
-0.00434151
-0.00530104
-0.00626507
-0.00723367
-0.00820691
-0.00918487
-0.0101676
-0.0111552
-0.0121478
-0.0131454
-0.0141481
-0.0151559
-0.016169
-0.0171875
-0.0182113
-0.0192406
-0.0202755
-0.0213159
-0.022362
-0.0234139
-0.0244715
-0.0255349
-0.0266042
-0.0276794
-0.0287604
-0.0298474
-0.0309402
-0.0320388
-0.0331432
-0.0342532
-0.0353688
-0.0364898
-0.0376159
-0.0387469
-0.0398826
-0.0410225
-0.0421661
-0.0433129
-0.0444623
-0.0456135
-0.0467656
-0.0479175
-0.049068
-0.0502158
-0.051359
-0.052496
-0.0536245
-0.0547422
-0.0558463
-0.0569337
-0.0580012
-0.0590449
-0.0600609
-0.0610448
-0.0619921
-0.062898
-0.0637575
-0.064566
-0.0653186
-0.066011
-0.0666391
-0.0671998
-0.0676905
0.029127
0.0281036
0.0271629
0.0263158
0.0254624
0.0245982
0.0237338
0.0228698
0.0220049
0.0211387
0.0202711
0.0194021
0.0185313
0.0176586
0.0167838
0.0159067
0.0150272
0.0141451
0.0132603
0.0123727
0.0114822
0.0105886
0.0096919
0.00879197
0.00788874
0.00698213
0.00607206
0.00515845
0.00424124
0.00332037
0.00239575
0.00146733
0.000535038
-0.000401188
-0.00134142
-0.00228571
-0.00323414
-0.00418676
-0.00514365
-0.00610487
-0.00707049
-0.00804058
-0.0090152
-0.00999443
-0.0109783
-0.011967
-0.0129604
-0.0139587
-0.014962
-0.0159702
-0.0169835
-0.018002
-0.0190256
-0.0200544
-0.0210886
-0.022128
-0.0231729
-0.0242231
-0.0252787
-0.0263397
-0.0274062
-0.028478
-0.0295552
-0.0306378
-0.0317255
-0.0328184
-0.0339163
-0.035019
-0.0361263
-0.037238
-0.0383538
-0.0394732
-0.0405959
-0.0417213
-0.0428489
-0.0439779
-0.0451074
-0.0462366
-0.0473644
-0.0484894
-0.0496103
-0.0507253
-0.0518327
-0.0529302
-0.0540157
-0.0550863
-0.0561393
-0.0571715
-0.0581793
-0.0591592
-0.0601071
-0.0610189
-0.0618904
-0.0627173
-0.0634953
-0.0642203
-0.0648887
-0.065497
-0.0660425
-0.066523
0.0292787
0.0282546
0.0273126
0.0264653
0.0256115
0.0247467
0.0238816
0.0230169
0.0221512
0.0212842
0.020416
0.0195462
0.0186748
0.0178015
0.0169262
0.0160488
0.0151691
0.0142869
0.0134021
0.0125146
0.0116244
0.0107312
0.00983504
0.00893579
0.00803337
0.00712769
0.0062187
0.00530631
0.00439045
0.00347106
0.00254808
0.00162143
0.000691055
-0.000243108
-0.00118112
-0.00212305
-0.00306895
-0.00401889
-0.00497293
-0.00593113
-0.00689354
-0.00786024
-0.00883129
-0.00980673
-0.0107866
-0.0117711
-0.0127601
-0.0137537
-0.0147521
-0.0157551
-0.016763
-0.0177757
-0.0187933
-0.0198158
-0.0208432
-0.0218756
-0.022913
-0.0239554
-0.0250028
-0.0260552
-0.0271125
-0.0281747
-0.0292418
-0.0303136
-0.03139
-0.032471
-0.0335562
-0.0346456
-0.0357389
-0.0368357
-0.0379358
-0.0390387
-0.0401439
-0.0412508
-0.0423588
-0.0434672
-0.0445751
-0.0456814
-0.0467851
-0.0478848
-0.0489792
-0.0500665
-0.051145
-0.0522125
-0.0532668
-0.0543054
-0.0553256
-0.0563243
-0.0572984
-0.0582444
-0.0591588
-0.0600378
-0.0608777
-0.0616746
-0.062425
-0.0631251
-0.0637718
-0.0643623
-0.0648941
-0.0653654
0.0294392
0.0284143
0.0274711
0.0266236
0.0257696
0.0249042
0.0240385
0.0231731
0.0223068
0.0214392
0.0205703
0.0197
0.0188281
0.0179544
0.0170788
0.0162011
0.0153213
0.014439
0.0135544
0.0126672
0.0117773
0.0108846
0.0099891
0.00909063
0.00818912
0.00728451
0.00637671
0.00546565
0.00455128
0.00363351
0.0027123
0.00178757
0.00085926
-7.2679e-05
-0.00100831
-0.0019477
-0.00289089
-0.00383795
-0.00478894
-0.0057439
-0.0067029
-0.00766598
-0.00863321
-0.00960463
-0.0105803
-0.0115603
-0.0125446
-0.0135333
-0.0145264
-0.015524
-0.0165261
-0.0175327
-0.018544
-0.0195598
-0.0205802
-0.0216052
-0.0226348
-0.023669
-0.0247078
-0.0257511
-0.0267989
-0.0278511
-0.0289076
-0.0299682
-0.031033
-0.0321016
-0.0331739
-0.0342496
-0.0353284
-0.0364101
-0.0374942
-0.0385802
-0.0396676
-0.0407559
-0.0418442
-0.042932
-0.0440181
-0.0451017
-0.0461816
-0.0472564
-0.0483247
-0.049385
-0.0504353
-0.0514738
-0.0524982
-0.0535061
-0.054495
-0.055462
-0.0564043
-0.0573186
-0.0582018
-0.0590505
-0.0598613
-0.0606308
-0.0613559
-0.0620334
-0.0626606
-0.0632349
-0.0637544
-0.0642175
0.0296085
0.0285828
0.0276384
0.0267907
0.0259365
0.0250707
0.0242045
0.0233386
0.0224717
0.0216036
0.0207342
0.0198635
0.0189911
0.0181171
0.0172413
0.0163635
0.0154836
0.0146015
0.0137171
0.0128302
0.0119408
0.0110488
0.010154
0.00925642
0.00835594
0.00745249
0.006546
0.00563641
0.00472364
0.00380763
0.00288832
0.00196565
0.00103957
0.000110008
-0.00082308
-0.00175975
-0.00270006
-0.00364406
-0.00459179
-0.00554332
-0.00649869
-0.00745794
-0.00842113
-0.00938829
-0.0103595
-0.0113347
-0.0123141
-0.0132975
-0.0142852
-0.015277
-0.0162731
-0.0172734
-0.0182779
-0.0192867
-0.0202998
-0.021317
-0.0223385
-0.0233642
-0.024394
-0.0254279
-0.0264658
-0.0275077
-0.0285532
-0.0296025
-0.0306551
-0.0317111
-0.0327701
-0.0338318
-0.034896
-0.0359622
-0.03703
-0.038099
-0.0391685
-0.040238
-0.0413067
-0.0423738
-0.0434384
-0.0444994
-0.0455557
-0.0466061
-0.047649
-0.0486828
-0.0497059
-0.0507163
-0.051712
-0.0526906
-0.0536498
-0.0545869
-0.0554992
-0.0563839
-0.0572381
-0.0580586
-0.0588426
-0.059587
-0.0602889