/*--------------------------------*- C++ -*----------------------------------*\
| =========                 |                                                 |
| \\      /  F ield         | OpenFOAM: The Open Source CFD Toolbox           |
|  \\    /   O peration     | Version:  2406                                  |
|   \\  /    A nd           | Website:  www.openfoam.com                      |
|    \\/     M anipulation  |                                                 |
\*---------------------------------------------------------------------------*/
FoamFile
{
    version     2.0;
    format      ascii;
    arch        "LSB;label=32;scalar=64";
    class       volScalarField;
    location    "44";
    object      p;
}
// * * * * * * * * * * * * * * * * * * * * * * * * * * * * * * * * * * * * * //

dimensions      [0 2 -2 0 0 0 0];

internalField   nonuniform List<scalar> 
1800
(
0.187125
0.183608
0.178539
0.172622
0.165846
0.158105
0.149325
0.139314
0.127839
0.114064
0.190843
0.185145
0.178894
0.172792
0.166072
0.158417
0.149854
0.140367
0.129929
0.118947
0.194512
0.187232
0.180039
0.173986
0.167652
0.160467
0.152627
0.144438
0.136314
0.12914
0.198622
0.190725
0.18301
0.177031
0.171158
0.164642
0.157766
0.151005
0.144793
0.139705
0.203066
0.194962
0.187069
0.181255
0.175868
0.170059
0.164126
0.158571
0.153737
0.149928
0.207175
0.19907
0.191321
0.185811
0.180876
0.175679
0.170519
0.165857
0.161937
0.158894
0.210195
0.202302
0.194981
0.189839
0.18524
0.180479
0.17586
0.171766
0.168363
0.165704
0.211512
0.204246
0.19759
0.192719
0.188252
0.183719
0.179406
0.175597
0.172403
0.169859
0.210638
0.204888
0.199133
0.194287
0.189682
0.185152
0.18091
0.177144
0.173938
0.171339
0.207669
0.203992
0.199295
0.194552
0.189867
0.185306
0.181033
0.177197
0.173893
0.171189
0.127971
0.12772
0.127559
0.127607
0.127861
0.128315
0.128977
0.129868
0.131016
0.132455
0.134222
0.13636
0.138913
0.141927
0.145444
0.149499
0.154113
0.159288
0.164997
0.171176
0.177717
0.184457
0.191178
0.197603
0.203399
0.208193
0.211582
0.213126
0.212389
0.208963
0.202507
0.192778
0.17969
0.163365
0.144177
0.128253
0.127997
0.127868
0.12795
0.128216
0.128664
0.129309
0.130176
0.131294
0.132694
0.134414
0.136492
0.138971
0.141893
0.145299
0.149225
0.153695
0.158715
0.164265
0.170284
0.176667
0.183258
0.189839
0.196133
0.201818
0.206519
0.209803
0.211234
0.210374
0.206808
0.200182
0.190239
0.17688
0.16022
0.14065
0.128375
0.128085
0.12796
0.128058
0.128321
0.128746
0.129355
0.130176
0.131237
0.13257
0.134209
0.136191
0.138556
0.141349
0.144612
0.148385
0.152699
0.157564
0.162962
0.168835
0.17508
0.181542
0.188002
0.194179
0.199728
0.204266
0.207364
0.208573
0.207438
0.203521
0.196437
0.185893
0.171751
0.154107
0.133387
0.128056
0.127743
0.127617
0.127721
0.127971
0.128368
0.128937
0.129708
0.130709
0.131968
0.13352
0.135402
0.137654
0.140324
0.143461
0.147109
0.151302
0.156052
0.161346
0.16712
0.173265
0.179615
0.185944
0.191963
0.19732
0.201614
0.204404
0.205218
0.203574
0.198993
0.191028
0.179305
0.163607
0.143983
0.120959
0.127123
0.126858
0.126792
0.126938
0.127208
0.127608
0.128168
0.128918
0.129884
0.131097
0.13259
0.134402
0.136581
0.139174
0.142239
0.145818
0.14994
0.154617
0.159835
0.165531
0.171589
0.177831
0.184017
0.18984
0.194936
0.198889
0.201242
0.201501
0.199143
0.193621
0.184381
0.170884
0.152724
0.129765
0.102688
0.125445
0.125377
0.125519
0.125817
0.126192
0.126664
0.127274
0.128054
0.129035
0.130251
0.131737
0.133532
0.135686
0.138256
0.141297
0.144859
0.148975
0.153656
0.158874
0.164557
0.170573
0.176732
0.182779
0.188397
0.193213
0.196803
0.198695
0.19837
0.195253
0.188703
0.178005
0.162377
0.141054
0.113384
0.0798504
0.122882
0.123311
0.123951
0.124599
0.125208
0.12584
0.126559
0.127413
0.128444
0.129692
0.131202
0.133025
0.13522
0.137847
0.140963
0.144615
0.148831
0.153613
0.158921
0.164668
0.170709
0.176839
0.182795
0.188257
0.192853
0.196164
0.197719
0.196981
0.193312
0.185941
0.173897
0.156046
0.131118
0.097832
0.056111
0.118871
0.120659
0.122398
0.12364
0.124581
0.125419
0.126268
0.127208
0.128306
0.129622
0.131215
0.133146
0.135478
0.138274
0.141588
0.145459
0.149905
0.154911
0.16042
0.166327
0.172473
0.178644
0.184579
0.189969
0.194464
0.197678
0.199171
0.198422
0.194759
0.18725
0.174522
0.154642
0.124847
0.0828291
0.0272332
0.11075
0.117114
0.121303
0.123271
0.124516
0.125572
0.126546
0.12757
0.128776
0.130247
0.132036
0.134204
0.136816
0.139933
0.143602
0.147845
0.152659
0.158006
0.163807
0.169939
0.176234
0.182482
0.188434
0.193816
0.198328
0.201649
0.203423
0.203217
0.200435
0.194156
0.182756
0.163334
0.129875
0.0741219
-0.0216548
0.097171
0.112883
0.12083
0.123322
0.124764
0.126167
0.127434
0.128685
0.130144
0.131929
0.134089
0.136672
0.13974
0.143343
0.147511
0.152243
0.157505
0.163235
0.169333
0.175665
0.182062
0.188331
0.194256
0.199613
0.204175
0.207718
0.210006
0.210771
0.209645
0.206042
0.198853
0.185847
0.16116
0.110417
-0.0272205
0.1045
0.114474
0.122066
0.124498
0.125941
0.127666
0.129382
0.131078
0.132994
0.135278
0.13798
0.141132
0.144779
0.148955
0.153664
0.158878
0.164538
0.170557
0.176825
0.183205
0.189543
0.195673
0.201425
0.206635
0.211157
0.214863
0.217645
0.219404
0.220028
0.219356
0.217106
0.212801
0.205235
0.191339
0.158686
0.113538
0.118546
0.124423
0.12727
0.129065
0.131087
0.133274
0.135538
0.138027
0.140882
0.14416
0.147885
0.15208
0.156753
0.161882
0.167413
0.17327
0.179354
0.185551
0.191736
0.197779
0.203548
0.208922
0.213797
0.218094
0.221764
0.224791
0.227185
0.228984
0.230246
0.231033
0.231402
0.231185
0.229868
0.224875
0.125404
0.126806
0.13024
0.132857
0.134861
0.137061
0.139578
0.142309
0.145287
0.148608
0.152329
0.15647
0.161027
0.16598
0.171282
0.176864
0.182639
0.188506
0.194362
0.200101
0.205619
0.210826
0.215641
0.22001
0.223902
0.227315
0.230278
0.232846
0.235103
0.237157
0.239135
0.241148
0.24318
0.245176
0.245525
0.13674
0.136685
0.138524
0.140641
0.142668
0.144949
0.147612
0.150583
0.153838
0.157423
0.161375
0.165699
0.170367
0.175334
0.180537
0.185897
0.191328
0.196741
0.202048
0.207168
0.212027
0.216567
0.220745
0.224536
0.227939
0.230972
0.233672
0.236099
0.238327
0.240449
0.242564
0.24475
0.246997
0.249303
0.250715
0.147564
0.146981
0.147831
0.149354
0.151189
0.153387
0.156002
0.158983
0.162288
0.165919
0.169883
0.174158
0.178701
0.183449
0.188332
0.193275
0.198202
0.203039
0.207719
0.212185
0.216389
0.220299
0.223894
0.227169
0.230131
0.2328
0.235208
0.237398
0.239422
0.241343
0.243234
0.245143
0.247071
0.249012
0.250404
0.156892
0.156071
0.156327
0.157343
0.158876
0.160865
0.163297
0.166126
0.169305
0.172807
0.176606
0.180663
0.18492
0.189313
0.193774
0.198238
0.202642
0.206929
0.211051
0.21497
0.218657
0.222093
0.225269
0.228184
0.230847
0.233272
0.235476
0.237487
0.239335
0.241062
0.242718
0.244338
0.245916
0.247409
0.248474
0.163855
0.162882
0.162764
0.163374
0.164575
0.166286
0.168461
0.171052
0.174008
0.177283
0.180832
0.184602
0.188534
0.192567
0.19664
0.200699
0.204694
0.20858
0.212321
0.21589
0.219265
0.222433
0.225386
0.228123
0.230648
0.232966
0.235088
0.237026
0.238798
0.240431
0.241956
0.24339
0.244705
0.245812
0.246502
0.168007
0.166889
0.166508
0.166808
0.167714
0.169157
0.171083
0.173438
0.17617
0.179222
0.182542
0.186071
0.189753
0.193531
0.197353
0.201169
0.204938
0.208619
0.212183
0.215603
0.218859
0.221937
0.224828
0.227528
0.230035
0.232352
0.234482
0.236434
0.238219
0.239853
0.241348
0.2427
0.243854
0.244683
0.24507
0.169391
0.168127
0.167552
0.167638
0.168337
0.169591
0.171347
0.173549
0.17614
0.179062
0.182258
0.18567
0.189244
0.192925
0.196663
0.200411
0.204127
0.207775
0.211321
0.214738
0.218007
0.221109
0.224035
0.226777
0.229333
0.231704
0.233892
0.235904
0.237752
0.239444
0.240982
0.242343
0.243443
0.244131
0.244343
0.16913
0.167746
0.167045
0.167008
0.167599
0.168765
0.17045
0.172597
0.175145
0.178034
0.181206
0.184603
0.188171
0.191855
0.195607
0.199379
0.203127
0.206815
0.210407
0.213877
0.217202
0.220364
0.22335
0.226153
0.22877
0.2312
0.233448
0.235524
0.23744
0.239206
0.240819
0.242242
0.243376
0.244049
0.244209
0.122769
0.100012
0.0769045
0.0543867
0.0331939
0.0137766
-0.00360517
-0.0187981
-0.0317798
-0.0426391
0.118866
0.0958419
0.0726861
0.0503767
0.0295778
0.0107073
-0.00600514
-0.0205069
-0.0328498
-0.0431556
0.110409
0.0864154
0.0628439
0.0407522
0.0206295
0.00266631
-0.0130163
-0.0264163
-0.0376691
-0.046969
0.095593
0.0697191
0.0454253
0.023764
0.00475522
-0.0117352
-0.0257431
-0.0374048
-0.0469765
-0.0547296
0.0730166
0.0441386
0.0193434
-0.000987114
-0.0179911
-0.0321968
-0.0437033
-0.0528324
-0.0600515
-0.0657024
0.0421286
0.00805357
-0.0164689
-0.0337137
-0.047239
-0.0579175
-0.0658218
-0.0715574
-0.0758239
-0.0789542
0.00450452
-0.0382821
-0.0612551
-0.0733382
-0.0816369
-0.0870141
-0.0898188
-0.0912635
-0.0922088
-0.0927488
-0.0470622
-0.0959784
-0.110647
-0.11405
-0.115006
-0.11331
-0.110087
-0.107231
-0.105457
-0.104277
-0.145624
-0.171669
-0.156616
-0.144436
-0.13571
-0.127153
-0.119754
-0.114666
-0.112041
-0.111296
-0.269506
-0.2324
-0.182077
-0.159734
-0.144697
-0.13159
-0.121798
-0.115685
-0.112712
-0.112657
-0.0515325
-0.0586524
-0.0642069
-0.0684071
-0.0714542
-0.0735295
-0.0747902
-0.075369
-0.0753771
-0.0749069
-0.0740343
-0.0728224
-0.0713235
-0.0695819
-0.0676357
-0.0655177
-0.0632568
-0.0608789
-0.0584071
-0.0558626
-0.0532645
-0.0506305
-0.0479768
-0.0453182
-0.0426681
-0.0400387
-0.0374408
-0.034884
-0.0323763
-0.0299247
-0.0275349
-0.0252113
-0.0229573
-0.020775
-0.0186659
-0.0515903
-0.0583435
-0.0636173
-0.0676161
-0.0705312
-0.07253
-0.0737542
-0.0743244
-0.0743419
-0.073892
-0.0730451
-0.0718609
-0.0703897
-0.068675
-0.0667544
-0.0646609
-0.0624235
-0.0600684
-0.057619
-0.0550968
-0.0525213
-0.0499104
-0.0472804
-0.0446462
-0.0420215
-0.0394182
-0.0368472
-0.0343177
-0.0318379
-0.0294144
-0.0270527
-0.024757
-0.0225304
-0.020375
-0.0182918
-0.0545109
-0.0604882
-0.0651049
-0.0685714
-0.0710761
-0.0727679
-0.0737653
-0.0741697
-0.0740689
-0.0735356
-0.0726299
-0.0714028
-0.0698996
-0.0681599
-0.066219
-0.0641082
-0.0618558
-0.0594874
-0.0570263
-0.054494
-0.0519103
-0.0492934
-0.0466599
-0.0440251
-0.0414028
-0.0388052
-0.036243
-0.0337254
-0.0312602
-0.028854
-0.0265117
-0.0242374
-0.0220336
-0.0199021
-0.0178436
-0.0608834
-0.0656228
-0.0691628
-0.0717434
-0.0735565
-0.0747192
-0.0753121
-0.0754104
-0.0750818
-0.0743789
-0.0733433
-0.0720121
-0.0704212
-0.068604
-0.0665916
-0.0644123
-0.0620928
-0.0596576
-0.0571296
-0.0545305
-0.0518805
-0.0491987
-0.046503
-0.0438097
-0.0411337
-0.0384882
-0.0358846
-0.0333325
-0.0308398
-0.028413
-0.026057
-0.0237753
-0.0215703
-0.0194431
-0.0173937
-0.0699772
-0.0730198
-0.0750877
-0.0764937
-0.0774224
-0.0779185
-0.0780036
-0.0777244
-0.0771241
-0.0762261
-0.0750448
-0.0735984
-0.0719102
-0.0700052
-0.0679085
-0.0656445
-0.0632372
-0.0607091
-0.058082
-0.0553772
-0.0526154
-0.049817
-0.047002
-0.0441892
-0.0413962
-0.0386386
-0.0359299
-0.0332815
-0.0307028
-0.0282011
-0.0257821
-0.0234493
-0.0212051
-0.0190502
-0.0169841
-0.0809672
-0.0818875
-0.0821189
-0.0821535
-0.0821181
-0.0819002
-0.0814411
-0.0807668
-0.0798962
-0.0788162
-0.077509
-0.0759702
-0.0742074
-0.0722348
-0.0700705
-0.0677347
-0.065248
-0.0626303
-0.059901
-0.0570795
-0.054186
-0.0512418
-0.0482688
-0.0452892
-0.0423243
-0.0393937
-0.036515
-0.0337033
-0.0309713
-0.0283291
-0.0257845
-0.0233429
-0.0210076
-0.0187799
-0.0166593
-0.0923858
-0.0908763
-0.0890377
-0.0877007
-0.0868024
-0.0859624
-0.0850351
-0.0840333
-0.0829474
-0.0817301
-0.0803392
-0.0787518
-0.0769587
-0.0749611
-0.0727686
-0.0703971
-0.0678642
-0.0651865
-0.0623802
-0.0594615
-0.0564485
-0.0533618
-0.0502245
-0.0470613
-0.0438972
-0.0407566
-0.0376621
-0.0346343
-0.0316909
-0.028847
-0.026115
-0.023504
-0.0210205
-0.018668
-0.0164475
-0.101985
-0.0979376
-0.0941851
-0.0918851
-0.090457
-0.0892359
-0.0880588
-0.0869141
-0.0857407
-0.0844689
-0.0830561
-0.0814749
-0.0797042
-0.0777327
-0.0755622
-0.0732041
-0.0706725
-0.0679812
-0.0651422
-0.062168
-0.0590736
-0.0558773
-0.0526019
-0.0492728
-0.0459177
-0.0425647
-0.0392416
-0.0359744
-0.0327875
-0.0297023
-0.0267377
-0.023909
-0.0212282
-0.0187033
-0.0163389
-0.108469
-0.101682
-0.0965131
-0.0940115
-0.0925078
-0.091194
-0.0900287
-0.0889568
-0.0878455
-0.0866179
-0.0852517
-0.0837291
-0.0820259
-0.0801243
-0.0780211
-0.0757234
-0.0732417
-0.0705859
-0.067764
-0.0647847
-0.0616593
-0.0584035
-0.0550376
-0.0515864
-0.0480781
-0.0445428
-0.0410117
-0.0375159
-0.0340858
-0.03075
-0.0275348
-0.0244634
-0.0215551
-0.0188251
-0.0162834
-0.111336
-0.102515
-0.0968836
-0.0947352
-0.0934064
-0.0921813
-0.091152
-0.0902209
-0.0892175
-0.088074
-0.0867845
-0.0853389
-0.0837158
-0.0818983
-0.0798815
-0.0776689
-0.0752664
-0.0726793
-0.0699118
-0.066969
-0.0638585
-0.0605927
-0.0571889
-0.0536692
-0.0500602
-0.0463919
-0.0426969
-0.0390096
-0.035365
-0.0317982
-0.0283428
-0.0250302
-0.0218885
-0.0189409
-0.0162055
-0.112344
-0.102358
-0.0970238
-0.0950384
-0.0938119
-0.0927475
-0.0918506
-0.0910006
-0.0900595
-0.0889776
-0.0877481
-0.0863603
-0.0847976
-0.0830474
-0.0811052
-0.0789714
-0.0766476
-0.0741345
-0.0714331
-0.0685453
-0.0654757
-0.0622332
-0.0588313
-0.0552884
-0.0516279
-0.0478777
-0.0440698
-0.0402397
-0.0364252
-0.0326661
-0.0290022
-0.0254723
-0.0221129
-0.018956
-0.0160284
-0.103281
-0.099233
-0.0964068
-0.0949183
-0.0939002
-0.0930319
-0.0922322
-0.0914134
-0.0904987
-0.0894519
-0.0882581
-0.0869044
-0.0853787
-0.0836723
-0.0817815
-0.0797046
-0.0774399
-0.0749857
-0.0723406
-0.0695045
-0.0664797
-0.063272
-0.0598911
-0.0563516
-0.052673
-0.04888
-0.0450026
-0.0410754
-0.0371375
-0.0332312
-0.0294005
-0.0256903
-0.0221437
-0.0188011
-0.0156977
-0.0975867
-0.0964504
-0.0952755
-0.0943638
-0.0936242
-0.0929413
-0.0922389
-0.0914633
-0.0905759
-0.0895534
-0.088382
-0.0870506
-0.08555
-0.083873
-0.0820157
-0.0799754
-0.0777489
-0.075334
-0.0727281
-0.0699303
-0.0669411
-0.0637643
-0.0604067
-0.0568796
-0.053199
-0.0493863
-0.0454688
-0.0414798
-0.0374578
-0.0334458
-0.0294906
-0.0256405
-0.0219442
-0.0184481
-0.015195
-0.0945728
-0.0943444
-0.0939217
-0.0934423
-0.092959
-0.092442
-0.0918461
-0.0911405
-0.0903039
-0.0893204
-0.0881787
-0.0868707
-0.0853916
-0.0837369
-0.0819026
-0.0798852
-0.0776819
-0.07529
-0.0727077
-0.0699333
-0.0669667
-0.0638103
-0.0604693
-0.0569526
-0.0532738
-0.0494517
-0.0455114
-0.0414841
-0.0374076
-0.0333244
-0.0292821
-0.0253309
-0.0215228
-0.0179086
-0.0145368
-0.0926298
-0.0927391
-0.0926614
-0.0924292
-0.0921144
-0.0917168
-0.0912095
-0.0905719
-0.0897881
-0.0888456
-0.0877363
-0.086454
-0.0849945
-0.0833549
-0.081534
-0.0795295
-0.0773379
-0.0749575
-0.0723866
-0.0696238
-0.0666685
-0.0635219
-0.0601883
-0.0566759
-0.0529964
-0.0491679
-0.0452131
-0.0411625
-0.0370518
-0.0329238
-0.0288248
-0.0248065
-0.0209216
-0.0172243
-0.0137657
-0.0913805
-0.0916232
-0.0916931
-0.0915707
-0.0913361
-0.0909979
-0.0905373
-0.0899377
-0.0891854
-0.0882698
-0.0871833
-0.0859205
-0.084477
-0.0828496
-0.0810366
-0.0790359
-0.0768457
-0.074465
-0.071892
-0.0691258
-0.0661652
-0.0630121
-0.0596731
-0.0561566
-0.0524734
-0.0486394
-0.0446763
-0.0406121
-0.0364826
-0.032329
-0.0281978
-0.0241397
-0.0202087
-0.0164591
-0.0129446
-0.0907086
-0.0909792
-0.0910927
-0.0910085
-0.0907993
-0.0904761
-0.090025
-0.0894323
-0.0886856
-0.0877747
-0.0866916
-0.0854305
-0.0839868
-0.0823571
-0.0805388
-0.0785297
-0.0763289
-0.0739353
-0.0713481
-0.0685671
-0.0655928
-0.0624278
-0.0590774
-0.0555487
-0.0518538
-0.0480069
-0.0440295
-0.0399506
-0.0358084
-0.0316425
-0.0274976
-0.0234216
-0.0194689
-0.0156929
-0.0121492
-0.0905019
-0.0907476
-0.0908615
-0.0907891
-0.0905826
-0.0902523
-0.089789
-0.0891814
-0.0884197
-0.0874942
-0.0863972
-0.0851222
-0.0836645
-0.0820199
-0.0801854
-0.0781586
-0.0759375
-0.0735212
-0.0709091
-0.0681017
-0.0651001
-0.0619076
-0.0585295
-0.0549752
-0.0512573
-0.0473927
-0.0434024
-0.039315
-0.0351633
-0.0309866
-0.0268281
-0.0227395
-0.0187748
-0.0149888
-0.0114325
-0.0906223
-0.0908366
-0.0909529
-0.0908983
-0.0906955
-0.0903544
-0.0898722
-0.089242
-0.0884557
-0.0875058
-0.0863849
-0.0850867
-0.0836056
-0.0819374
-0.0800782
-0.0780251
-0.0757756
-0.0733285
-0.0706829
-0.0678395
-0.0648001
-0.0615686
-0.0581512
-0.0545577
-0.0508013
-0.0469
-0.0428766
-0.038759
-0.0345812
-0.0303825
-0.026207
-0.0221037
-0.0181242
-0.0143214
-0.0107499
-0.0908522
-0.0910606
-0.0912017
-0.0911744
-0.0909811
-0.0906332
-0.0901346
-0.0894837
-0.0886754
-0.0877031
-0.08656
-0.0852399
-0.0837372
-0.0820471
-0.0801655
-0.0780888
-0.0758143
-0.0733399
-0.0706647
-0.0677888
-0.0647142
-0.061445
-0.0579879
-0.0543532
-0.0505546
-0.0466107
-0.0425452
-0.0383871
-0.0341711
-0.029937
-0.0257294
-0.0215967
-0.0175905
-0.0137639
-0.0101708
-0.0166304
-0.0146683
-0.0127787
-0.0109605
-0.00921181
-0.00753006
-0.00591127
-0.00435936
-0.00287631
-0.00122154
-0.0162812
-0.0143426
-0.012475
-0.0106767
-0.00894558
-0.00727864
-0.0056748
-0.00414306
-0.00269836
-0.001165
-0.015858
-0.0139443
-0.0121011
-0.0103266
-0.00861883
-0.00697604
-0.00539852
-0.00390324
-0.00252629
-0.00119662
-0.0154213
-0.0135247
-0.0117018
-0.00995085
-0.00827053
-0.0066607
-0.00512485
-0.00368541
-0.00237855
-0.00129788
-0.0150053
-0.0131116
-0.0113007
-0.00957032
-0.00791945
-0.00635016
-0.00486563
-0.00349569
-0.00224151
-0.00145854
-0.0146439
-0.0127307
-0.0109165
-0.00919834
-0.0075746
-0.00604738
-0.00461686
-0.00332185
-0.00209519
-0.00165937
-0.0143576
-0.0123952
-0.0105561
-0.00883617
-0.00723178
-0.00574351
-0.00436408
-0.00314312
-0.00192153
-0.00185533
-0.0141359
-0.0120923
-0.0102039
-0.00846521
-0.00686968
-0.00541532
-0.0040829
-0.00293503
-0.00171351
-0.00197884
-0.0139358
-0.0117832
-0.00982289
-0.00804914
-0.00645291
-0.0050279
-0.00374586
-0.00267184
-0.00147632
-0.00195677
-0.0136946
-0.0114146
-0.00936612
-0.00754511
-0.00594126
-0.00454628
-0.00332244
-0.00233131
-0.00122052
-0.00173325
-0.0133506
-0.0109362
-0.0087917
-0.00691681
-0.00530313
-0.00393988
-0.00279066
-0.00189397
-0.000946604
-0.00129142
-0.0128627
-0.0103181
-0.0080779
-0.0061477
-0.00452366
-0.00319663
-0.0021347
-0.00134686
-0.000639789
-0.000661671
-0.0122221
-0.00955985
-0.00723043
-0.00524728
-0.00361345
-0.00232307
-0.00135675
-0.000687998
-0.000269736
8.46058e-05
-0.011451
-0.00868947
-0.00628221
-0.00425085
-0.0026069
-0.0013507
-0.000476741
6.92746e-05
0.000190612
0.000854631
-0.0105953
-0.00775598
-0.00528584
-0.00321301
-0.00155873
-0.000330169
0.000463572
0.000890129
0.000751772
0.00155593
-0.00971689
-0.00682358
-0.00430679
-0.00220194
-0.000537007
0.00067133
0.00140324
0.00172101
0.00139043
0.00211171
-0.00888923
-0.00596425
-0.00341766
-0.00129136
0.000383236
0.00157785
0.00226796
0.00249213
0.00205021
0.00246524
-0.00816001
-0.00521955
-0.00265963
-0.000520229
0.00115874
0.00234693
0.00301016
0.0031623
0.00267697
0.00259162
-0.00746279
-0.00451012
-0.00193784
0.000211426
0.00189888
0.00308776
0.00374234
0.00385399
0.00337138
0.00260614
-0.00686341
-0.00389149
-0.00129977
0.000869054
0.00257454
0.00377861
0.00444053
0.00453492
0.00406962
0.00269675
)
;

boundaryField
{
    inlet
    {
        type            zeroGradient;
    }
    outlet
    {
        type            fixedValue;
        value           uniform 0;
    }
    upperWall
    {
        type            zeroGradient;
    }
    lowerWall
    {
        type            zeroGradient;
    }
    frontAndBack
    {
        type            empty;
    }
}


// ************************************************************************* //
