/*--------------------------------*- C++ -*----------------------------------*\
| =========                 |                                                 |
| \\      /  F ield         | OpenFOAM: The Open Source CFD Toolbox           |
|  \\    /   O peration     | Version:  2406                                  |
|   \\  /    A nd           | Website:  www.openfoam.com                      |
|    \\/     M anipulation  |                                                 |
\*---------------------------------------------------------------------------*/
FoamFile
{
    version     2.0;
    format      ascii;
    arch        "LSB;label=32;scalar=64";
    class       surfaceScalarField;
    location    "44";
    object      phi;
}
// * * * * * * * * * * * * * * * * * * * * * * * * * * * * * * * * * * * * * //

dimensions      [0 3 -1 0 0 0 0];

oriented        oriented;

internalField   nonuniform List<scalar> 
3470
(
0.0194209
-0.000420925
0.0200002
-0.000579254
0.0205668
-0.000566666
0.0211418
-0.000574942
0.0217702
-0.000628361
0.0224945
-0.000724275
0.0233747
-0.000880296
0.0245139
-0.00113919
0.0261113
-0.00159739
-0.00307567
0.0291869
0.0508807
-0.000301626
0.050998
-0.000696551
0.0513442
-0.000912894
0.0518663
-0.00109698
0.0525524
-0.00131449
0.0534159
-0.00158772
0.0544856
-0.00195007
0.0558103
-0.00246388
0.0574324
-0.00321959
-0.0044427
0.0587994
0.074957
-0.000258625
0.0749618
-0.000701408
0.0750999
-0.001051
0.0753802
-0.00137726
0.0758027
-0.00173699
0.0763727
-0.00215765
0.0770914
-0.00266879
0.0779419
-0.00331448
0.0788636
-0.00414134
-0.00520561
0.0796265
0.0909802
-0.000238803
0.0909523
-0.000673557
0.0909768
-0.00107548
0.0910757
-0.00147615
0.0912499
-0.00191124
0.0914964
-0.00240409
0.0918043
-0.00297679
0.0921451
-0.00365534
0.0924649
-0.0044611
-0.00540286
0.0926621
0.0989703
-0.000209064
0.0988968
-0.000600166
0.0988177
-0.000996421
0.0987538
-0.00141216
0.0987036
-0.00186102
0.0986574
-0.00235794
0.0985994
-0.0029188
0.0985017
-0.00355763
0.098322
-0.00428143
-0.00508416
0.0980033
0.0989477
-0.000156748
0.0988107
-0.00046326
0.0986252
-0.000810873
0.0984077
-0.00119469
0.0981527
-0.00160603
0.0978469
-0.00205213
0.0974725
-0.0025444
0.0970039
-0.00308906
0.0964076
-0.00368517
-0.00432294
0.0956464
0.0909133
-7.00898e-05
0.0906993
-0.00024924
0.0904111
-0.000522696
0.0900587
-0.000842323
0.0896302
-0.00117751
0.0891106
-0.00153253
0.0884819
-0.00191565
0.0877202
-0.00232747
0.0867983
-0.0027633
-0.00321399
0.0856893
0.0748504
7.954e-05
0.0745618
3.93296e-05
0.0742061
-0.000167069
0.0737745
-0.00041072
0.073247
-0.000649917
0.0726066
-0.000892185
0.071834
-0.00114301
0.0709064
-0.00139992
0.0698017
-0.00165865
-0.00191391
0.0685016
0.0507545
0.000325022
0.0505128
0.000281009
0.0502565
8.9265e-05
0.0499195
-7.37441e-05
0.0494707
-0.000201031
0.0488923
-0.000313819
0.0481686
-0.000419383
0.0472861
-0.000517489
0.0462353
-0.000607873
-0.000690389
0.0450118
0.019325
0.019606
0.0196953
0.0196216
0.0194205
0.0191067
0.0186873
0.0181698
0.0175619
0.0168715
-6.97986e-05
6.97959e-05
-0.000301406
0.000231605
-0.000631769
0.000330351
-0.0010025
0.000370712
-0.00138589
0.000383365
-0.00177259
0.000386671
-0.00216104
0.000388421
-0.00255193
0.000390859
-0.00294572
0.000393752
-0.00334153
0.000395781
-0.00373665
0.000395082
-0.00412597
0.000389282
-0.00450146
0.000375463
-0.0048517
0.000350206
-0.0051614
0.000309664
-0.0054113
0.000249872
-0.00557824
0.000166909
-0.0056357
5.7439e-05
-0.00555464
-8.10834e-05
-0.00530546
-0.000249199
-0.00485935
-0.000446121
-0.0041898
-0.000669566
-0.00327443
-0.00091537
-0.00209654
-0.0011779
-0.000645855
-0.00145068
0.00108133
-0.00172718
0.00307898
-0.00199764
0.00533096
-0.00225196
0.0078108
-0.00247982
0.0104797
-0.00266885
0.0132839
-0.00280425
0.0161525
-0.00286851
0.0189947
-0.00284227
0.0217009
-0.00270625
-0.00244719
0.024148
-0.000278291
0.000348091
-0.000881883
0.000835174
-0.00165896
0.00110739
-0.00250409
0.0012158
-0.00336162
0.00124082
-0.00420764
0.00123261
-0.00503327
0.00121397
-0.0058345
0.00119201
-0.00660703
0.00116621
-0.00734385
0.00113252
-0.00803386
0.00108501
-0.00866105
0.0010164
-0.00920397
0.000918312
-0.00963557
0.000781737
-0.00992356
0.000597582
-0.0100312
0.000357493
-0.0099191
5.4702e-05
-0.00954668
-0.000315031
-0.00887575
-0.000752057
-0.00787132
-0.00125366
-0.00650361
-0.00181385
-0.00474992
-0.00242328
-0.00259583
-0.00306948
-3.43782e-05
-0.00373936
0.00293223
-0.00441729
0.00629002
-0.00508496
0.0100179
-0.00572553
0.0140865
-0.00632052
0.0184565
-0.00684981
0.0230777
-0.00728999
0.0278859
-0.00761248
0.0327994
-0.00778203
0.0377148
-0.00775773
0.0425037
-0.00749518
-0.00695898
0.0470153
-0.000464662
0.000812741
-0.00136249
0.00173299
-0.00244187
0.00218674
-0.0035654
0.00233927
-0.00466468
0.00234003
-0.00570833
0.0022762
-0.00668179
0.00218737
-0.00757593
0.00208608
-0.00838118
0.00197139
-0.00908469
0.00183596
-0.00966903
0.00166929
-0.0101117
0.00145898
-0.0103851
0.00119166
-0.0104574
0.000853962
-0.0102938
0.000433931
-0.00985851
-7.78536e-05
-0.00911757
-0.000686296
-0.00804053
-0.00139212
-0.00660093
-0.0021917
-0.00477868
-0.00307596
-0.00256064
-0.00403193
5.93406e-05
-0.0050433
0.00308048
-0.00609065
0.00649241
-0.00715131
0.0102781
-0.00820299
0.0144161
-0.00922296
0.0188794
-0.0101888
0.0236368
-0.0110779
0.0286524
-0.0118655
0.0338842
-0.0125217
0.0392804
-0.0130088
0.0447752
-0.0132768
0.0502815
-0.0132641
0.0556819
-0.0128957
-0.0121058
0.0608286
-0.000596775
0.00140952
-0.00167063
0.00280683
-0.00288085
0.00339691
-0.0040674
0.00352577
-0.00516023
0.00343282
-0.0061292
0.00324511
-0.00696003
0.00301815
-0.00764287
0.00276887
-0.00816694
0.0024954
-0.00851822
0.00218718
-0.00867874
0.00182976
-0.00862679
0.00140697
-0.00833761
0.000902421
-0.00778491
0.000301198
-0.00694288
-0.000408163
-0.00578917
-0.00123163
-0.00430443
-0.00217109
-0.00247323
-0.00322338
-0.000285786
-0.00437919
0.00226239
-0.00562418
0.00516871
-0.0069383
0.00842339
-0.00829803
0.0120106
-0.00967788
0.0159103
-0.011051
0.0200985
-0.0123913
0.0245494
-0.0136738
0.0292362
-0.0148756
0.0341325
-0.0159743
0.0392129
-0.0169459
0.0444521
-0.0177609
0.0498213
-0.0183779
0.055281
-0.0187366
0.0607697
-0.0187528
0.0661812
-0.0183073
-0.0172901
0.0713654
-0.000675109
0.00208463
-0.00178313
0.00391485
-0.0029192
0.00453296
-0.00392641
0.00453293
-0.00475159
0.00425795
-0.00537774
0.00387121
-0.00579892
0.00343929
-0.00601079
0.00298068
-0.00600667
0.00249122
-0.00577653
0.00195698
-0.00530726
0.00136044
-0.0045836
0.000683263
-0.00358936
-9.18846e-05
-0.00230955
-0.000978677
-0.000732059
-0.00198572
0.00115286
-0.00311662
0.00335099
-0.00436927
0.00586252
-0.00573497
0.00868211
-0.00719883
0.0117982
-0.00874033
0.015194
-0.0103341
0.0188476
-0.0119517
0.0227331
-0.0135634
0.0268219
-0.0151398
0.0310847
-0.0166541
0.0354938
-0.0180829
0.0400252
-0.0194071
0.0446614
-0.0206105
0.0493929
-0.0216774
0.0542194
-0.0225875
0.0591473
-0.0233058
0.0641828
-0.023772
0.0693111
-0.0238813
0.0744529
-0.023449
-0.0223036
0.0794664
-0.000707961
0.00279261
-0.0016857
0.00489261
-0.00249972
0.00534696
-0.0030507
0.00508388
-0.00333459
0.00454179
-0.00336192
0.00389849
-0.00314168
0.00321898
-0.00267865
0.0025176
-0.00197301
0.00178552
-0.00102058
0.00100449
0.000185188
0.00015463
0.00165206
-0.000783664
0.00338692
-0.0018268
0.00539385
-0.00298567
0.00767368
-0.00426561
0.0102228
-0.00566583
0.0130325
-0.00717902
0.0160886
-0.00879107
0.0193712
-0.0104815
0.022855
-0.0122242
0.0265101
-0.0139893
0.0303029
-0.0157446
0.0341981
-0.0174586
0.0381602
-0.019102
0.0421566
-0.0206505
0.0461601
-0.0220865
0.0501528
-0.0233998
0.0541296
-0.0245873
0.0581023
-0.0256501
0.0621035
-0.0265887
0.0661876
-0.0273897
0.0704302
-0.0280147
0.0749024
-0.0283532
0.0796312
-0.0281778
-0.0272605
0.0845882
-0.000686061
0.0034787
-0.00129921
0.00550579
-0.00145355
0.00550129
-0.00121095
0.00484123
-0.000658323
0.00398911
0.000158849
0.00308128
0.00121834
0.00215945
0.0025092
0.0012267
0.00402749
0.000267195
0.00577477
-0.000742823
0.00775503
-0.00182565
0.00996952
-0.00299819
0.0124153
-0.00427266
0.0150856
-0.00565599
0.0179688
-0.00714884
0.021048
-0.00874509
0.0243006
-0.0104317
0.0276983
-0.0121888
0.0312075
-0.0139908
0.0347906
-0.0158073
0.0384068
-0.0176055
0.0420141
-0.019352
0.0455713
-0.0210158
0.0490403
-0.0225711
0.0523891
-0.0239993
0.0555948
-0.0252922
0.0586482
-0.0264533
0.0615594
-0.0274985
0.0643649
-0.0284557
0.0671369
-0.0293607
0.0699916
-0.0302444
0.073098
-0.0311211
0.0766575
-0.0319128
0.0809593
-0.0324796
-0.0326747
0.0863734
-0.000521484
0.00400021
-0.000262437
0.0052468
0.000781116
0.00445773
0.00223923
0.00338307
0.00393264
0.00229566
0.00580793
0.00120595
0.00784952
0.000117825
0.0100547
-0.000978455
0.0124282
-0.00210637
0.0149733
-0.00328789
0.0176879
-0.00454028
0.0205656
-0.00587594
0.0235951
-0.0073022
0.0267596
-0.00882049
0.0300364
-0.0104257
0.0333971
-0.0121058
0.0368077
-0.0138423
0.0402293
-0.0156105
0.0436197
-0.0173812
0.0469341
-0.0191217
0.0501273
-0.0207987
0.0531556
-0.0223802
0.0559783
-0.0238386
0.0585606
-0.0251534
0.0608755
-0.0263143
0.0629074
-0.0273242
0.064656
-0.0282019
0.0661434
-0.0289859
0.0674252
-0.0297376
0.0686097
-0.0305452
0.0698886
-0.0315233
0.0715713
-0.032804
0.0741161
-0.0344576
0.0781999
-0.0365636
-0.0389165
0.0844416
0.000409775
0.00359046
0.00280864
0.00284792
0.00578779
0.00147853
0.00882245
0.000348349
0.011828
-0.000709952
0.0148217
-0.00178775
0.0178317
-0.00289226
0.0208797
-0.00402646
0.0239788
-0.00520547
0.0271356
-0.00644469
0.0303494
-0.00775411
0.0336119
-0.0091385
0.0369075
-0.0105978
0.0402135
-0.0121265
0.043501
-0.0137132
0.0467355
-0.0153404
0.0498782
-0.016985
0.052887
-0.0186193
0.0557182
-0.0202124
0.058328
-0.0217316
0.0606746
-0.0231453
0.0627192
-0.024425
0.0644287
-0.0255481
0.0657762
-0.0265009
0.0667435
-0.0272816
0.0673225
-0.0279032
0.0675185
-0.0283979
0.0673546
-0.0288221
0.0668826
-0.0292656
0.0662051
-0.0298678
0.0655307
-0.0308491
0.0652847
-0.0325581
0.0663848
-0.0355579
0.0702522
-0.040431
-0.0449466
0.0762821
0.00671525
-0.00312482
0.0123481
-0.00278495
0.01705
-0.00322345
0.021265
-0.00386663
0.0251508
-0.00459581
0.0288025
-0.00543955
0.0322965
-0.00638627
0.0356859
-0.00741587
0.0390007
-0.00852035
0.042254
-0.00969795
0.0454462
-0.0109463
0.048568
-0.0122604
0.0516017
-0.0136315
0.0545224
-0.0150472
0.0572994
-0.0164902
0.0598976
-0.0179387
0.0622793
-0.0193667
0.0644052
-0.0207453
0.0662365
-0.0220437
0.0677365
-0.0232315
0.0688717
-0.0242805
0.0696138
-0.0251671
0.0699408
-0.0258751
0.0698375
-0.0263977
0.0692965
-0.0267406
0.0683178
-0.0269246
0.0669089
-0.0269891
0.065084
-0.0269972
0.0628643
-0.0270459
0.0602809
-0.0272845
0.0573917
-0.0279599
0.0543452
-0.0295117
0.0516744
-0.0328873
0.0510362
-0.0397928
-0.0493747
0.0554643
0.0313424
-0.00528037
0.0346761
-0.0061186
0.0380312
-0.00657858
0.0413065
-0.00714203
0.0445033
-0.00779269
0.0475922
-0.00852841
0.0505649
-0.00935902
0.0534271
-0.0102781
0.0561807
-0.0112739
0.0588196
-0.0123369
0.0613313
-0.013458
0.0636972
-0.0146263
0.0658938
-0.0158281
0.0678927
-0.0170461
0.0696623
-0.0182598
0.0711687
-0.0194451
0.0723777
-0.0205757
0.0732557
-0.0216233
0.0737716
-0.0225597
0.0738985
-0.0233585
0.0736146
-0.0239966
0.0729046
-0.0244572
0.0717605
-0.0247309
0.0701812
-0.0248185
0.0681726
-0.024732
0.0657451
-0.0244971
0.0629102
-0.0241542
0.0596748
-0.0237619
0.0560302
-0.0234013
0.0519312
-0.0231857
0.0472504
-0.0232791
0.0416678
-0.0239292
0.034331
-0.0255506
0.0229216
-0.0283835
-0.0264531
0.0595282
-0.0060091
0.0606172
-0.00720769
0.062067
-0.00802837
0.0637041
-0.00877913
0.0654532
-0.00954192
0.0672474
-0.0103226
0.0690262
-0.0111378
0.070747
-0.0119989
0.0723778
-0.0129048
0.0738895
-0.0138486
0.0752531
-0.0148215
0.0764387
-0.015812
0.0774156
-0.016805
0.0781521
-0.0177827
0.0786163
-0.018724
0.078777
-0.0196058
0.078605
-0.0204037
0.0780746
-0.0210929
0.077165
-0.0216501
0.0758612
-0.0220548
0.074156
-0.0222914
0.0720496
-0.0223508
0.0695505
-0.0222319
0.0666745
-0.0219425
0.0634427
-0.0215003
0.0598784
-0.0209328
0.0560018
-0.0202777
0.0518216
-0.0195817
0.0473217
-0.0189015
0.0424393
-0.0183033
0.0370244
-0.0178643
0.0307669
-0.0176719
0.0230168
-0.0178005
0.0124657
-0.0178324
-0.0139874
0.0800694
-0.00645202
0.0804579
-0.00759614
0.0809508
-0.00852128
0.0815164
-0.00934472
0.0821184
-0.010144
0.0827276
-0.0109319
0.0833062
-0.0117165
0.0838152
-0.0125079
0.0842192
-0.0133088
0.0844853
-0.0141148
0.0845814
-0.0149177
0.084476
-0.0157065
0.0841382
-0.0164673
0.0835388
-0.0171833
0.0826506
-0.0178358
0.0814494
-0.0184047
0.0799156
-0.01887
0.0780355
-0.0192128
0.0758021
-0.0194166
0.0732165
-0.0194692
0.0702886
-0.0193635
0.0670367
-0.019099
0.0634871
-0.0186823
0.0596721
-0.0181276
0.0556276
-0.0174558
0.0513886
-0.016694
0.0469841
-0.0158732
0.0424287
-0.0150264
0.0377119
-0.0141848
0.0327825
-0.0133739
0.027526
-0.0126079
0.0217372
-0.0118831
0.0150873
-0.0111507
0.00727673
-0.010022
-0.00671072
0.0926493
-0.00643918
0.0924957
-0.00744251
0.092302
-0.00832762
0.092079
-0.00912173
0.0918056
-0.00987059
0.0914631
-0.0105894
0.0910291
-0.0112825
0.0904762
-0.011955
0.0897764
-0.012609
0.0889028
-0.0132412
0.0878296
-0.0138444
0.0865317
-0.0144086
0.0849862
-0.0149218
0.0831729
-0.0153701
0.0810757
-0.0157386
0.0786834
-0.0160124
0.0759913
-0.0161779
0.073002
-0.0162234
0.0697261
-0.0161408
0.0661829
-0.0159261
0.0624
-0.0155806
0.0584123
-0.0151113
0.0542604
-0.0145305
0.0499883
-0.0138555
0.0456398
-0.0131073
0.0412548
-0.012309
0.0368644
-0.0114829
0.0324851
-0.0106471
0.0281114
-0.00981128
0.0237077
-0.0089702
0.0192
-0.00810026
0.0144775
-0.00716059
0.00942129
-0.0060946
0.00412955
-0.00473037
-0.00258119
0.0974986
-0.00593449
0.0968239
-0.00676786
0.0960262
-0.00752991
0.0951208
-0.00821634
0.0940976
-0.00884746
0.0929433
-0.00943516
0.0916433
-0.00998255
0.0901801
-0.0104917
0.0885346
-0.0109635
0.086689
-0.0113956
0.084627
-0.0117825
0.0823349
-0.0121165
0.079802
-0.012389
0.0770223
-0.0125903
0.0739948
-0.0127111
0.0707251
-0.0127427
0.0672257
-0.0126785
0.0635164
-0.0125142
0.0596248
-0.0122491
0.0555849
-0.0118863
0.051437
-0.0114327
0.0472247
-0.0108991
0.042994
-0.0102998
0.0387893
-0.00965088
0.0346517
-0.00896975
0.0306151
-0.00827254
0.026704
-0.00757179
0.0229294
-0.00687264
0.019286
-0.00616789
0.0157489
-0.0054332
0.0122758
-0.00462725
0.00882054
-0.00370541
0.00537637
-0.00265053
0.00214082
-0.00149495
-0.000440392
0.0946915
-0.0049796
0.093542
-0.00561834
0.0922169
-0.00620488
0.0907283
-0.00672772
0.0890742
-0.00719336
0.0872481
-0.00760917
0.0852436
-0.00797799
0.083053
-0.00830115
0.080669
-0.00857948
0.0780855
-0.00881216
0.0752994
-0.0089964
0.072311
-0.00912809
0.0691246
-0.00920261
0.0657496
-0.00921539
0.0622009
-0.0091625
0.0584994
-0.00904122
0.0546715
-0.0088506
0.0507492
-0.00859193
0.046769
-0.00826898
0.0427707
-0.00788801
0.0387956
-0.00745758
0.0348845
-0.00698813
0.031076
-0.00649126
0.0274039
-0.00597889
0.0238963
-0.00546215
0.0205734
-0.00494979
0.0174475
-0.00444597
0.0145215
-0.00394671
0.011789
-0.00343543
0.00923559
-0.00287987
0.00684514
-0.00223687
0.00461438
-0.00147474
0.00258327
-0.000619578
0.000911554
0.000176635
0.000471146
0.0843738
-0.00366408
0.0828473
-0.00409179
0.0811187
-0.0044763
0.0791987
-0.00480777
0.0770931
-0.0050878
0.0748053
-0.00532135
0.0723391
-0.00551183
0.0696994
-0.00566148
0.066892
-0.00577215
0.0639248
-0.00584488
0.0608079
-0.00587955
0.0575551
-0.00587531
0.0541835
-0.00583106
0.0507141
-0.00574604
0.0471716
-0.00562005
0.0435843
-0.00545386
0.039983
-0.00524939
0.0364009
-0.00500986
0.0328717
-0.00473977
0.0294284
-0.00444476
0.026102
-0.0041313
0.0229202
-0.00380634
0.0199057
-0.00347685
0.0170761
-0.00314936
0.0144431
-0.00282926
0.0120131
-0.00251982
0.00978742
-0.00222039
0.00776405
-0.00192342
0.00593949
-0.00161094
0.00431262
-0.00125307
0.00289075
-0.000815068
0.00169694
-0.000281027
0.000775627
0.000301617
0.00019561
0.000756534
0.000666741
0.0669952
-0.00215768
0.0652824
-0.00237902
0.0633737
-0.00256756
0.0612843
-0.00271848
0.0590299
-0.00283343
0.0566253
-0.0029168
0.0540859
-0.00297244
0.0514276
-0.0030032
0.0486668
-0.00301136
0.0458206
-0.00299866
0.0429071
-0.00296612
0.0399461
-0.0029143
0.0369586
-0.00284364
0.0339673
-0.00275474
0.0309957
-0.00264854
0.0280682
-0.0025264
0.0252089
-0.00239018
0.0224412
-0.0022422
0.0197866
-0.0020852
0.017264
-0.00192219
0.0148889
-0.0017563
0.0126731
-0.00159063
0.0106243
-0.00142808
0.00874597
-0.00127117
0.0070384
-0.00112178
0.00549905
-0.000980575
0.00412433
-0.00084576
0.00291198
-0.000711157
0.00186488
-0.000563918
0.000995457
-0.000383707
0.000328964
-0.000148634
-9.94958e-05
0.000147359
-0.00026202
0.000464031
-0.000175045
0.000669456
0.000491683
0.0436176
-0.00076354
0.0420631
-0.000824431
0.0403658
-0.000870338
0.038548
-0.000900674
0.0366318
-0.000917332
0.0346381
-0.00092312
0.0325859
-0.000920298
0.030493
-0.000910363
0.0283761
-0.000894384
0.0262505
-0.000873125
0.0241314
-0.000847059
0.0220336
-0.000816474
0.0199715
-0.00078165
0.0179597
-0.00074293
0.0160118
-0.000700777
0.0141411
-0.00065574
0.0123594
-0.000608479
0.0106768
-0.000559718
0.00910184
-0.000510243
0.00764044
-0.000460841
0.00629636
-0.000412288
0.00507094
-0.000365292
0.00396326
-0.000320486
0.00297038
-0.000278374
0.00208795
-0.000239447
0.00131098
-0.000203691
0.000635337
-0.000170193
6.06673e-05
-0.000136555
-0.00040569
-9.76163e-05
-0.000744184
-4.52572e-05
-0.000922053
2.91908e-05
-0.00090299
0.000128235
-0.000673867
0.000234825
-0.000296255
0.000291771
0.000195419
0.016108
0.0152836
0.0144132
0.0135125
0.0125952
0.0116721
0.0107518
0.00984139
0.00894701
0.00807388
0.00722682
0.00641033
0.00562867
0.00488573
0.00418495
0.0035292
0.00292071
0.00236099
0.00185074
0.00138989
0.000977589
0.000612286
0.000291788
1.34025e-05
-0.000226056
-0.000429757
-0.000599959
-0.000736522
-0.000834144
-0.000879406
-0.000850221
-0.000721994
-0.000487181
-0.000195419
0.0262124
-0.00206441
0.0277913
-0.001579
0.0288293
-0.00103801
0.0293277
-0.000498408
0.0293303
-2.61632e-06
0.0289104
0.00041994
0.0281572
0.000753194
0.0271596
0.000997553
0.0259976
0.00116194
0.0012589
0.0247387
0.0510866
-0.00613573
0.0545675
-0.00506002
0.0573594
-0.00382987
0.0594274
-0.00256634
0.0607861
-0.00136137
0.0614725
-0.000266415
0.0615382
0.000687478
0.0610555
0.00148015
0.0601091
0.0021083
0.00258265
0.0587853
0.0655442
-0.0108514
0.0696625
-0.00917833
0.0730946
-0.00726198
0.0758313
-0.00530304
0.0779006
-0.00343062
0.0793458
-0.00171167
0.0802169
-0.000183714
0.0805623
0.00113473
0.0804305
0.00224003
0.00314081
0.0798723
0.0761018
-0.0155878
0.0801812
-0.0132578
0.0835364
-0.0106171
0.0862085
-0.00797522
0.0882606
-0.00548276
0.089756
-0.00320705
0.0907649
-0.00119271
0.0913554
0.000544123
0.0915793
0.00201609
0.00324519
0.0914749
0.0840175
-0.0201389
0.0877987
-0.017039
0.0907737
-0.0135921
0.0930364
-0.010238
0.0946765
-0.00712296
0.0957903
-0.00432099
0.0964851
-0.00188753
0.0968561
0.000172928
0.0969728
0.00189931
0.00334196
0.096876
0.0890506
-0.0246013
0.0924339
-0.0204223
0.0947664
-0.0159246
0.0962279
-0.0116994
0.0969934
-0.00788858
0.0972721
-0.00459977
0.0972599
-0.00187557
0.0970902
0.000342565
0.0968319
0.00215747
0.00366686
0.0965069
0.0908942
-0.0291222
0.0932853
-0.0228135
0.0939777
-0.0166171
0.0935375
-0.0112593
0.092487
-0.00683814
0.0912852
-0.00339806
0.0902099
-0.00080034
0.0893627
0.00118955
0.0887425
0.00277755
0.00412625
0.088283
0.0875477
-0.0322284
0.0862358
-0.0215017
0.0828509
-0.0132323
0.0789648
-0.00737339
0.0755064
-0.00337979
0.0729053
-0.00079707
0.071216
0.000888873
0.0703305
0.00207495
0.0700739
0.00303391
0.00405196
0.070148
0.0714424
-0.0273889
0.0618796
-0.011939
0.0533075
-0.00466025
0.0472512
-0.00131727
0.0436518
0.000219577
0.0419556
0.000898955
0.0416092
0.00123516
0.0422104
0.00147349
0.0434725
0.00177164
0.0027143
0.04481
0.0280753
0.0161363
0.011476
0.0101587
0.0103782
0.0112771
0.0125122
0.0139857
0.0157573
0.0184715
0.0234367
0.00130195
0.0221331
0.00130363
0.020858
0.00127513
0.0196313
0.00122661
0.0184643
0.00116698
0.0173612
0.0011031
0.0163218
0.00103936
0.0153435
0.000978323
0.0144222
0.000921319
0.0135534
0.000868914
0.0127323
0.000821099
0.0119549
0.000777525
0.0112172
0.000737688
0.0105163
0.000701057
0.00984928
0.000667116
0.00921401
0.000635393
0.00860868
0.000605468
0.00803185
0.000576979
0.00748239
0.000549619
0.00695942
0.000523136
0.00646225
0.00049733
0.00599035
0.000472052
0.0055433
0.000447203
0.00512071
0.000422731
0.00472222
0.000398623
0.00434744
0.000374903
0.00399592
0.000351617
0.00366717
0.000328835
0.00336061
0.000306636
0.00307554
0.000285112
0.00281122
0.000264355
0.00256678
0.000244458
0.00234127
0.000225508
0.00213366
0.000207593
0.000190787
0.00194286
0.0571675
0.00291977
0.0553333
0.00313784
0.0533523
0.00325604
0.0512837
0.00329521
0.0491742
0.00327648
0.0470589
0.00321832
0.0449633
0.00313497
0.0429047
0.00303694
0.0408943
0.00293184
0.0389383
0.00282498
0.0370399
0.00271964
0.0351999
0.00261761
0.033418
0.0025197
0.0316932
0.00242606
0.0300241
0.00233646
0.0284093
0.0022504
0.0268477
0.00216728
0.0253386
0.00208645
0.0238812
0.00200727
0.0224755
0.00192919
0.0211214
0.00185171
0.0198193
0.00177443
0.0185697
0.0016971
0.0173732
0.00161956
0.0162303
0.0015418
0.0151415
0.0014639
0.0141072
0.00138606
0.0131277
0.00130855
0.0122027
0.00123173
0.0113319
0.00115599
0.0105146
0.00108175
0.00974958
0.00100947
0.00903547
0.000939595
0.00837047
0.000872556
0.000808782
0.00775242
0.0789399
0.00385223
0.0776875
0.00439022
0.0761701
0.00477343
0.074439
0.00502628
0.0725392
0.00517626
0.0705093
0.00524813
0.0683826
0.00526168
0.0661868
0.00523271
0.0639448
0.00517389
0.0616748
0.00509497
0.0593916
0.00500294
0.0571067
0.00490261
0.0548293
0.0047972
0.0525667
0.00468872
0.050325
0.00457832
0.0481092
0.00446647
0.0459234
0.00435322
0.0437718
0.00423832
0.0416579
0.00412136
0.0395855
0.00400185
0.0375582
0.0038793
0.0355796
0.00375329
0.0336534
0.00362351
0.0317834
0.00348985
0.0299731
0.00335235
0.0282259
0.00321128
0.026545
0.00306709
0.0249333
0.00292045
0.023393
0.00277215
0.0219259
0.00262315
0.0205332
0.0024745
0.0192153
0.00232734
0.017972
0.00218282
0.0168024
0.00204209
0.00190632
0.0157048
0.0910743
0.00425281
0.09041
0.0050545
0.0895147
0.00566875
0.0884158
0.00612515
0.0871346
0.00645737
0.0856895
0.00669318
0.0840978
0.00685339
0.0823757
0.00695479
0.0805383
0.00701125
0.0785998
0.00703351
0.0765733
0.00702948
0.074471
0.00700494
0.0723042
0.00696404
0.0700834
0.0069097
0.067818
0.00684379
0.0655172
0.00676743
0.0631894
0.00668116
0.0608428
0.00658511
0.0584853
0.00647909
0.0561247
0.00636273
0.0537686
0.00623558
0.0514249
0.0060972
0.0491014
0.00594727
0.0468058
0.00578561
0.044546
0.00561234
0.0423296
0.00542783
0.0401641
0.00523279
0.0380564
0.00502825
0.0360131
0.00481555
0.0340399
0.00459634
0.032142
0.00437248
0.0303233
0.00414605
0.0285868
0.00391925
0.0269344
0.00369434
0.00347362
0.0253671
0.0965938
0.00453501
0.0961567
0.00549152
0.0955931
0.00623229
0.0949171
0.00680114
0.094131
0.00724341
0.093234
0.00759014
0.0922251
0.00786222
0.0911034
0.0080764
0.0898687
0.00824594
0.0885218
0.00838033
0.0870651
0.00848617
0.0855019
0.0085682
0.0838362
0.00862977
0.0820728
0.00867309
0.0802172
0.00869945
0.0782752
0.00870947
0.0762533
0.00870322
0.0741581
0.00868037
0.0719971
0.00864028
0.0697779
0.00858208
0.0675088
0.0085048
0.0651987
0.00840747
0.062857
0.00828923
0.0604933
0.00814941
0.0581182
0.00798765
0.0557421
0.00780401
0.0533761
0.00759899
0.0510308
0.0073736
0.048717
0.00712939
0.046445
0.00686843
0.0442242
0.00659326
0.0420634
0.00630684
0.0399701
0.00601247
0.0379507
0.00571368
0.00541415
0.03601
0.0961235
0.00491833
0.0957116
0.00590344
0.0952988
0.00664495
0.0948843
0.00721557
0.0944526
0.00767509
0.0939883
0.00805431
0.0934774
0.00837302
0.0929061
0.0086476
0.0922624
0.00888962
0.0915365
0.00910615
0.0907209
0.00930166
0.0898099
0.00947918
0.0887991
0.00964055
0.0876855
0.00978665
0.0864674
0.00991757
0.085144
0.0100328
0.0837158
0.0101315
0.0821841
0.0102122
0.0805511
0.0102733
0.0788204
0.0103129
0.0769965
0.0103289
0.0750848
0.0103192
0.0730923
0.0102819
0.0710267
0.0102151
0.0688973
0.0101172
0.0667141
0.00998731
0.0644883
0.00982488
0.0622318
0.00963016
0.0599571
0.00940414
0.0576769
0.00914861
0.055404
0.00886615
0.0531507
0.00856008
0.0509287
0.00823438
0.0487487
0.00789356
0.00754253
0.0466202
0.0879223
0.00527898
0.0876827
0.00614292
0.0875794
0.00674809
0.0875759
0.00721894
0.0876301
0.00762079
0.0877103
0.00797402
0.0877894
0.00829376
0.0878441
0.00859279
0.0878557
0.00887781
0.0878101
0.00915174
0.0876954
0.00941624
0.0875021
0.00967236
0.0872222
0.00992034
0.0868489
0.0101598
0.0863766
0.0103899
0.0858002
0.0106091
0.0851157
0.0108159
0.0843199
0.011008
0.0834102
0.011183
0.0823851
0.0113379
0.0812442
0.0114698
0.0799881
0.0115754
0.0786189
0.0116512
0.0771398
0.0116942
0.0755558
0.0117012
0.0738735
0.0116697
0.072101
0.0115975
0.0702477
0.0114835
0.0683247
0.0113271
0.0663441
0.0111292
0.0643187
0.0108915
0.0622621
0.0106167
0.0601878
0.0103087
0.058109
0.00997226
0.00961302
0.0560384
0.070371
0.0050559
0.0708371
0.00567662
0.0715318
0.00605325
0.0723658
0.00638478
0.0732746
0.00671183
0.0742128
0.00703565
0.0751433
0.00736307
0.0760389
0.00769693
0.0768817
0.00803487
0.0776591
0.00837422
0.0783617
0.00871347
0.0789823
0.00905158
0.079515
0.00938747
0.0799546
0.00971998
0.0802965
0.0100478
0.080536
0.0103695
0.0806686
0.0106831
0.0806902
0.0109864
0.0805965
0.0112766
0.0803837
0.0115507
0.0800482
0.0118052
0.0795873
0.0120362
0.078999
0.0122396
0.0782822
0.012411
0.0774373
0.0125461
0.0764662
0.0126408
0.0753724
0.0126913
0.0741612
0.0126947
0.0728396
0.0126488
0.0714163
0.0125525
0.0699017
0.0124061
0.0683073
0.012211
0.0666457
0.0119702
0.0649301
0.0116878
0.0113693
0.0631738
0.045996
0.0038697
0.0476209
0.00405159
0.0495176
0.00415631
0.051517
0.00438512
0.0535359
0.0046927
0.0555183
0.00505304
0.0574294
0.00545168
0.0592533
0.00587279
0.0609834
0.00630456
0.0626168
0.00674066
0.0641522
0.00717783
0.0655894
0.00761414
0.0669283
0.00804841
0.0681681
0.00847989
0.0693079
0.00890784
0.0703459
0.00933131
0.0712798
0.00974901
0.0721068
0.0101593
0.0728233
0.0105599
0.0734255
0.0109484
0.0739092
0.0113214
0.0742701
0.0116752
0.0745041
0.0120055
0.0746073
0.0123077
0.0745768
0.0125766
0.0744105
0.0128071
0.0741074
0.0129943
0.0736685
0.0131336
0.0730961
0.0132212
0.0723943
0.0132542
0.0715693
0.0132311
0.0706287
0.0131515
0.0695819
0.013017
0.0684394
0.0128303
0.0125958
0.0672128
0.0209919
0.00134914
0.0242225
0.000820812
0.0274187
0.000959774
0.0304727
0.00133083
0.0333723
0.00179276
0.0361088
0.00231616
0.0386928
0.00286745
0.0411418
0.00342345
0.0434704
0.0039757
0.0456889
0.00452186
0.0478054
0.00506107
0.049826
0.00559325
0.051755
0.0061191
0.0535952
0.00663947
0.0553477
0.00715501
0.0570128
0.00766594
0.0585895
0.00817203
0.060076
0.00867254
0.0614694
0.00916628
0.0627661
0.00965144
0.0639617
0.0101256
0.0650513
0.0105855
0.0660295
0.0110272
0.0668907
0.0114463
0.0676297
0.0118375
0.0682415
0.0121953
0.0687216
0.012514
0.0690671
0.0127881
0.0692758
0.0130125
0.0693473
0.0131826
0.0692831
0.0132953
0.069086
0.0133486
0.068761
0.013342
0.0683145
0.0132767
0.0131559
0.0677544
0.00429546
-0.0029464
0.00824301
-0.00312694
0.0116669
-0.00246442
0.0147751
-0.00177773
0.0176499
-0.00108237
0.020345
-0.000379339
0.0229048
0.000307308
0.0253606
0.00096737
0.0277325
0.00160344
0.030034
0.00222007
0.032274
0.00282067
0.0344586
0.00340834
0.0365913
0.0039861
0.0386739
0.00455657
0.0407068
0.00512177
0.0426894
0.00568302
0.04462
0.00624109
0.0464961
0.00679618
0.0483142
0.00734795
0.0500699
0.00789546
0.0517581
0.00843705
0.0533731
0.00897025
0.0549083
0.00949176
0.056357
0.00999745
0.0577118
0.0104825
0.0589656
0.0109414
0.0601114
0.0113682
0.0611427
0.0117568
0.0620538
0.0121013
0.0628403
0.0123961
0.0634989
0.0126367
0.0640281
0.0128194
0.0644277
0.0129423
0.0646997
0.0130048
0.0130084
0.0648472
0.000269799
-0.00321622
0.00178945
-0.00464676
0.00372946
-0.00440468
0.00573234
-0.00378092
0.00771825
-0.00306864
0.00967967
-0.00234114
0.0116226
-0.00163597
0.0135558
-0.00096623
0.0154877
-0.000328921
0.017424
0.000283441
0.0193669
0.00087741
0.0213169
0.00145795
0.0232736
0.00202907
0.0252356
0.00259418
0.027201
0.00315603
0.029167
0.00371663
0.0311304
0.00427736
0.0330872
0.00483902
0.0350329
0.00540194
0.0369622
0.00596584
0.0388692
0.00652974
0.0407473
0.00709185
0.0425893
0.00764949
0.0443874
0.00819914
0.0461332
0.00873646
0.0478181
0.00925629
0.0494332
0.00975289
0.0509699
0.01022
0.0524196
0.0106515
0.0537747
0.011041
0.0550282
0.0113832
0.0561744
0.0116733
0.057209
0.0119078
0.0581291
0.0120848
0.0122042
0.0589333
-0.000413885
-0.00280238
-0.000383739
-0.00467703
0.000145363
-0.00493399
0.000949987
-0.00458583
0.00190882
-0.00402781
0.00297585
-0.00340855
0.0041298
-0.00279032
0.00535858
-0.00219545
0.00665562
-0.00162641
0.00801752
-0.00107891
0.00944246
-0.00054799
0.0109289
-2.89051e-05
0.0124742
0.000483298
0.0140751
0.000992772
0.0157282
0.00150251
0.0174297
0.00201476
0.0191754
0.00253122
0.020961
0.00305304
0.0227816
0.00358095
0.0246319
0.0041152
0.0265059
0.00465536
0.0283972
0.0052002
0.0302987
0.00574765
0.0322028
0.00629483
0.0341009
0.00683803
0.0359843
0.0073727
0.0378435
0.0078935
0.0396689
0.00839452
0.0414507
0.00886957
0.0431792
0.00931245
0.0448451
0.00971722
0.0464399
0.0100785
0.0479557
0.010392
0.0493859
0.0106547
0.0108649
0.0507253
-0.000557416
-0.00224497
-0.00115892
-0.00407564
-0.00149247
-0.00460061
-0.00157352
-0.00450504
-0.00145472
-0.00414692
-0.00117146
-0.00369216
-0.000747326
-0.00321486
-0.000199263
-0.00274397
0.000460999
-0.00228717
0.00122559
-0.00184403
0.00208887
-0.00141181
0.00304637
-0.000986967
0.00409494
-0.000565844
0.00523216
-0.000145011
0.00645523
0.000278889
0.0077608
0.000708665
0.00914513
0.0011464
0.0106045
0.00159318
0.0121351
0.00204997
0.0137324
0.0025175
0.0153915
0.00299584
0.0171071
0.00348422
0.0188734
0.00398108
0.0206838
0.00448414
0.0225311
0.00499046
0.0244074
0.00549616
0.0263041