/*--------------------------------*- C++ -*----------------------------------*\
| =========                 |                                                 |
| \\      /  F ield         | OpenFOAM: The Open Source CFD Toolbox           |
|  \\    /   O peration     | Version:  2406                                  |
|   \\  /    A nd           | Website:  www.openfoam.com                      |
|    \\/     M anipulation  |                                                 |
\*---------------------------------------------------------------------------*/
FoamFile
{
    version     2.0;
    format      ascii;
    arch        "LSB;label=32;scalar=64";
    class       volVectorField;
    location    "72";
    object      U;
}
// * * * * * * * * * * * * * * * * * * * * * * * * * * * * * * * * * * * * * //

dimensions      [0 1 -1 0 0 0 0];

internalField   nonuniform List<vector> 
2000
(
(0.100651 -0.00194144 0)
(0.102874 -0.00294816 0)
(0.105523 -0.0024988 0)
(0.108719 -0.0018583 0)
(0.11149 -0.00136601 0)
(0.113658 -0.00100602 0)
(0.115415 -0.000743492 0)
(0.11689 -0.000558224 0)
(0.118131 -0.000429707 0)
(0.119178 -0.000339493 0)
(0.27689 -0.00180599 0)
(0.275671 -0.00357971 0)
(0.274987 -0.00388518 0)
(0.275067 -0.00367006 0)
(0.275641 -0.00332448 0)
(0.276432 -0.0029318 0)
(0.277318 -0.00253962 0)
(0.278246 -0.00218661 0)
(0.279174 -0.00188538 0)
(0.280073 -0.00163266 0)
(0.43707 -0.00100857 0)
(0.436399 -0.00225795 0)
(0.435604 -0.00273572 0)
(0.43487 -0.0028538 0)
(0.434373 -0.00284142 0)
(0.434097 -0.00274653 0)
(0.433977 -0.00259272 0)
(0.43397 -0.00241345 0)
(0.434054 -0.00223187 0)
(0.434203 -0.0020578 0)
(0.577197 -0.00058975 0)
(0.576873 -0.00151355 0)
(0.576375 -0.00204785 0)
(0.575736 -0.00230068 0)
(0.575165 -0.00240177 0)
(0.574723 -0.00240648 0)
(0.574377 -0.00234135 0)
(0.574096 -0.00223475 0)
(0.573871 -0.00211028 0)
(0.573695 -0.00198166 0)
(0.697259 -0.000388245 0)
(0.697083 -0.00106697 0)
(0.696782 -0.00153582 0)
(0.696294 -0.00180147 0)
(0.695788 -0.0019336 0)
(0.695351 -0.00198083 0)
(0.694975 -0.00196681 0)
(0.694638 -0.001911 0)
(0.694334 -0.00183156 0)
(0.694065 -0.00174137 0)
(0.797294 -0.000268168 0)
(0.797191 -0.000758011 0)
(0.797002 -0.00113245 0)
(0.796621 -0.00137431 0)
(0.796178 -0.00151418 0)
(0.795766 -0.00158359 0)
(0.795391 -0.00160031 0)
(0.795041 -0.00157787 0)
(0.79471 -0.00152995 0)
(0.794405 -0.00146775 0)
(0.877315 -0.000185497 0)
(0.87725 -0.000531979 0)
(0.877123 -0.000813931 0)
(0.876813 -0.0010125 0)
(0.876421 -0.00113779 0)
(0.876035 -0.00120765 0)
(0.875671 -0.00123488 0)
(0.875318 -0.00122958 0)
(0.874976 -0.00120191 0)
(0.874651 -0.00116064 0)
(0.937328 -0.0001225 0)
(0.937283 -0.000354148 0)
(0.937192 -0.000549542 0)
(0.936927 -0.000694466 0)
(0.936572 -0.000790961 0)
(0.936208 -0.000848389 0)
(0.935854 -0.000875036 0)
(0.935502 -0.000877809 0)
(0.935154 -0.000863618 0)
(0.934818 -0.000838529 0)
(0.977336 -7.00369e-05 0)
(0.977301 -0.000203338 0)
(0.977229 -0.000317978 0)
(0.976991 -0.000405584 0)
(0.97666 -0.000465915 0)
(0.976311 -0.000503296 0)
(0.975964 -0.000522142 0)
(0.975615 -0.000526371 0)
(0.975265 -0.000519995 0)
(0.974923 -0.000506589 0)
(0.99734 -2.28162e-05 0)
(0.997309 -6.63526e-05 0)
(0.997246 -0.000104129 0)
(0.99702 -0.000133403 0)
(0.9967 -0.000153878 0)
(0.996359 -0.000166799 0)
(0.996017 -0.000173537 0)
(0.995669 -0.000175347 0)
(0.995318 -0.000173548 0)
(0.994973 -0.000169329 0)
(0.99734 2.28148e-05 0)
(0.997309 6.63585e-05 0)
(0.997246 0.00010414 0)
(0.99702 0.00013341 0)
(0.9967 0.000153888 0)
(0.996359 0.000166815 0)
(0.996017 0.000173552 0)
(0.995669 0.000175356 0)
(0.995318 0.00017356 0)
(0.994973 0.000169357 0)
(0.977336 7.00363e-05 0)
(0.977301 0.000203343 0)
(0.977229 0.000317988 0)
(0.976991 0.000405595 0)
(0.97666 0.000465922 0)
(0.976311 0.000503302 0)
(0.975964 0.000522152 0)
(0.975615 0.000526375 0)
(0.975265 0.000519998 0)
(0.974923 0.000506613 0)
(0.937328 0.000122498 0)
(0.937283 0.000354156 0)
(0.937192 0.000549552 0)
(0.936927 0.000694467 0)
(0.936572 0.000790967 0)
(0.936208 0.000848407 0)
(0.935854 0.000875053 0)
(0.935502 0.000877802 0)
(0.935154 0.000863597 0)
(0.934818 0.000838538 0)
(0.877315 0.000185497 0)
(0.87725 0.000531975 0)
(0.877123 0.000813934 0)
(0.876813 0.00101251 0)
(0.876421 0.0011378 0)
(0.876035 0.00120767 0)
(0.875671 0.00123491 0)
(0.875318 0.00122958 0)
(0.874976 0.00120189 0)
(0.87465 0.00116065 0)
(0.797294 0.000268166 0)
(0.797191 0.000758013 0)
(0.797002 0.00113244 0)
(0.796621 0.0013743 0)
(0.796178 0.00151417 0)
(0.795766 0.0015836 0)
(0.795391 0.00160032 0)
(0.795041 0.00157784 0)
(0.79471 0.0015299 0)
(0.794405 0.00146773 0)
(0.697259 0.000388244 0)
(0.697083 0.00106697 0)
(0.696782 0.00153582 0)
(0.696294 0.00180146 0)
(0.695788 0.0019336 0)
(0.695351 0.00198085 0)
(0.694975 0.00196685 0)
(0.694638 0.001911 0)
(0.694334 0.00183152 0)
(0.694064 0.00174133 0)
(0.577197 0.000589751 0)
(0.576873 0.00151355 0)
(0.576375 0.00204783 0)
(0.575736 0.00230068 0)
(0.575165 0.00240176 0)
(0.574723 0.00240646 0)
(0.574377 0.00234137 0)
(0.574096 0.00223479 0)
(0.573871 0.00211029 0)
(0.573695 0.00198161 0)
(0.43707 0.00100856 0)
(0.436399 0.00225795 0)
(0.435604 0.00273573 0)
(0.43487 0.0028538 0)
(0.434373 0.00284141 0)
(0.434097 0.00274649 0)
(0.433977 0.00259267 0)
(0.43397 0.00241346 0)
(0.434053 0.00223194 0)
(0.434203 0.00205778 0)
(0.27689 0.00180599 0)
(0.275671 0.0035797 0)
(0.274987 0.00388518 0)
(0.275067 0.00367008 0)
(0.275641 0.00332451 0)
(0.276432 0.00293176 0)
(0.277318 0.00253953 0)
(0.278246 0.00218664 0)
(0.279174 0.00188551 0)
(0.280073 0.00163269 0)
(0.100651 0.00194144 0)
(0.102874 0.00294815 0)
(0.105523 0.0024988 0)
(0.108719 0.00185832 0)
(0.11149 0.00136599 0)
(0.113658 0.00100597 0)
(0.115415 0.000743484 0)
(0.11689 0.000558251 0)
(0.118131 0.000429687 0)
(0.119178 0.000339439 0)
(0.12007 -0.000274869 0)
(0.120841 -0.000227813 0)
(0.121513 -0.000192964 0)
(0.122105 -0.000166549 0)
(0.122631 -0.000145976 0)
(0.123103 -0.000129579 0)
(0.123528 -0.000116341 0)
(0.123914 -0.000105573 0)
(0.124267 -9.66964e-05 0)
(0.124591 -8.91866e-05 0)
(0.124889 -8.26162e-05 0)
(0.125166 -7.67232e-05 0)
(0.125423 -7.14053e-05 0)
(0.125663 -6.66513e-05 0)
(0.125889 -6.24698e-05 0)
(0.1261 -5.8824e-05 0)
(0.1263 -5.56293e-05 0)
(0.126487 -5.27715e-05 0)
(0.126665 -5.01394e-05 0)
(0.126833 -4.76579e-05 0)
(0.126993 -4.52908e-05 0)
(0.127146 -4.30409e-05 0)
(0.127291 -4.09302e-05 0)
(0.127429 -3.89825e-05 0)
(0.127562 -3.72129e-05 0)
(0.127689 -3.56162e-05 0)
(0.127811 -3.4175e-05 0)
(0.127928 -3.2859e-05 0)
(0.12804 -3.1637e-05 0)
(0.128148 -3.04816e-05 0)
(0.128252 -2.9373e-05 0)
(0.128352 -2.83023e-05 0)
(0.128449 -2.72677e-05 0)
(0.128542 -2.6274e-05 0)
(0.128632 -2.53278e-05 0)
(0.280927 -0.00142179 0)
(0.281731 -0.00124621 0)
(0.282483 -0.0010999 0)
(0.283185 -0.000977675 0)
(0.283838 -0.000875156 0)
(0.284447 -0.0007885 0)
(0.285015 -0.000714473 0)
(0.285545 -0.000650667 0)
(0.286041 -0.00059544 0)
(0.286505 -0.000547619 0)
(0.28694 -0.000506165 0)
(0.28735 -0.000470043 0)
(0.287736 -0.000438257 0)
(0.288101 -0.000409949 0)
(0.288447 -0.000384476 0)
(0.288776 -0.000361412 0)
(0.289088 -0.00034049 0)
(0.289385 -0.000321529 0)
(0.289668 -0.000304369 0)
(0.289938 -0.000288838 0)
(0.290196 -0.000274743 0)
(0.290443 -0.000261885 0)
(0.290679 -0.000250075 0)
(0.290907 -0.000239148 0)
(0.291126 -0.000228978 0)
(0.291337 -0.000219471 0)
(0.29154 -0.000210562 0)
(0.291736 -0.000202208 0)
(0.291925 -0.000194376 0)
(0.292108 -0.000187038 0)
(0.292284 -0.000180165 0)
(0.292455 -0.000173727 0)
(0.29262 -0.000167689 0)
(0.292779 -0.000162017 0)
(0.292934 -0.000156676 0)
(0.434398 -0.00189521 0)
(0.434625 -0.00174576 0)
(0.434872 -0.00160973 0)
(0.435133 -0.0014869 0)
(0.435401 -0.00137669 0)
(0.435672 -0.00127788 0)
(0.435945 -0.00118883 0)
(0.436216 -0.0011081 0)
(0.436485 -0.00103482 0)
(0.436749 -0.000968608 0)
(0.437008 -0.000909147 0)
(0.437261 -0.000855872 0)
(0.437509 -0.000807945 0)
(0.437751 -0.000764425 0)
(0.437988 -0.000724478 0)
(0.43822 -0.000687514 0)
(0.438445 -0.000653212 0)
(0.438666 -0.000621435 0)
(0.43888 -0.000592129 0)
(0.439088 -0.000565214 0)
(0.439291 -0.000540545 0)
(0.439489 -0.000517898 0)
(0.439682 -0.000497003 0)
(0.43987 -0.000477586 0)
(0.440053 -0.000459401 0)
(0.440232 -0.000442262 0)
(0.440407 -0.000426043 0)
(0.440578 -0.000410673 0)
(0.440745 -0.000396117 0)
(0.440908 -0.00038236 0)
(0.441066 -0.00036939 0)
(0.441221 -0.000357183 0)
(0.441372 -0.000345702 0)
(0.44152 -0.000334898 0)
(0.441665 -0.000324709 0)
(0.57356 -0.00185596 0)
(0.573457 -0.00173676 0)
(0.573379 -0.00162573 0)
(0.573322 -0.00152374 0)
(0.573283 -0.0014312 0)
(0.573259 -0.00134763 0)
(0.573247 -0.00127173 0)
(0.573247 -0.0012021 0)
(0.573257 -0.00113791 0)
(0.573275 -0.00107903 0)
(0.573301 -0.00102555 0)
(0.573332 -0.000977322 0)
(0.573369 -0.000933789 0)
(0.573412 -0.000894075 0)
(0.573458 -0.000857271 0)
(0.57351 -0.000822677 0)
(0.573565 -0.000789922 0)
(0.573623 -0.000758931 0)
(0.573684 -0.000729795 0)
(0.573748 -0.000702635 0)
(0.573813 -0.000677481 0)
(0.573879 -0.000654237 0)
(0.573947 -0.000632689 0)
(0.574017 -0.000612553 0)
(0.574088 -0.000593547 0)
(0.574159 -0.00057543 0)
(0.574232 -0.000558042 0)
(0.574306 -0.000541301 0)
(0.57438 -0.000525193 0)
(0.574454 -0.000509745 0)
(0.574528 -0.000494998 0)
(0.574603 -0.00048098 0)
(0.574678 -0.0004677 0)
(0.574752 -0.000455134 0)
(0.574826 -0.000443233 0)
(0.693827 -0.00164801 0)
(0.693614 -0.00155573 0)
(0.693422 -0.00146699 0)
(0.693248 -0.0013836 0)
(0.693088 -0.00130689 0)
(0.692942 -0.00123714 0)
(0.692807 -0.00117357 0)
(0.692683 -0.00111499 0)
(0.692568 -0.00106063 0)
(0.692462 -0.00101042 0)
(0.692363 -0.000964677 0)
(0.692272 -0.00092357 0)
(0.692187 -0.000886808 0)
(0.692108 -0.00085366 0)
(0.692034 -0.000823207 0)
(0.691967 -0.000794645 0)
(0.691904 -0.000767483 0)
(0.691847 -0.000741575 0)
(0.691794 -0.000717024 0)
(0.691746 -0.000694026 0)
(0.691701 -0.000672727 0)
(0.691661 -0.000653131 0)
(0.691624 -0.000635094 0)
(0.69159 -0.000618355 0)
(0.69156 -0.000602612 0)
(0.691533 -0.000587585 0)
(0.691508 -0.000573067 0)
(0.691487 -0.000558944 0)
(0.691468 -0.000545191 0)
(0.691452 -0.000531846 0)
(0.691439 -0.000518979 0)
(0.691427 -0.000506661 0)
(0.691418 -0.000494937 0)
(0.69141 -0.000483819 0)
(0.691404 -0.000473283 0)
(0.794125 -0.0013986 0)
(0.793867 -0.00132691 0)
(0.793628 -0.0012556 0)
(0.793405 -0.00118707 0)
(0.793197 -0.00112318 0)
(0.793001 -0.00106476 0)
(0.792816 -0.00101142 0)
(0.792642 -0.000962173 0)
(0.792477 -0.000916271 0)
(0.792321 -0.000873621 0)
(0.792172 -0.000834587 0)
(0.79203 -0.000799517 0)
(0.791894 -0.000768362 0)
(0.791763 -0.0007406 0)
(0.791638 -0.00071542 0)
(0.791517 -0.000692014 0)
(0.791402 -0.000669817 0)
(0.791291 -0.000648599 0)
(0.791184 -0.00062841 0)
(0.791082 -0.00060945 0)
(0.790983 -0.000591915 0)
(0.790888 -0.000575886 0)
(0.790797 -0.000561293 0)
(0.790708 -0.000547928 0)
(0.790623 -0.000535508 0)
(0.79054 -0.000523746 0)
(0.790461 -0.000512409 0)
(0.790384 -0.000501352 0)
(0.79031 -0.000490523 0)
(0.790239 -0.000479947 0)
(0.79017 -0.000469694 0)
(0.790104 -0.000459849 0)
(0.79004 -0.000450479 0)
(0.789978 -0.000441619 0)
(0.789918 -0.000433263 0)
(0.874346 -0.00111175 0)
(0.87406 -0.00105897 0)
(0.873792 -0.00100493 0)
(0.87354 -0.000951983 0)
(0.873303 -0.000902051 0)
(0.873078 -0.000856139 0)
(0.872866 -0.000814119 0)
(0.872664 -0.000775211 0)
(0.872473 -0.000738738 0)
(0.87229 -0.000704569 0)
(0.872116 -0.000673043 0)
(0.87195 -0.000644582 0)
(0.87179 -0.000619315 0)
(0.871636 -0.000596942 0)
(0.871487 -0.000576838 0)
(0.871343 -0.000558303 0)
(0.871204 -0.000540785 0)
(0.871069 -0.000524011 0)
(0.870939 -0.000507974 0)
(0.870813 -0.000492838 0)
(0.87069 -0.000478803 0)
(0.870572 -0.000465995 0)
(0.870456 -0.00045441 0)
(0.870344 -0.000443909 0)
(0.870234 -0.000434266 0)
(0.870127 -0.000425228 0)
(0.870022 -0.000416572 0)
(0.86992 -0.000408144 0)
(0.86982 -0.000399874 0)
(0.869722 -0.000391769 0)
(0.869627 -0.000383883 0)
(0.869534 -0.000376295 0)
(0.869444 -0.000369075 0)
(0.869355 -0.00036227 0)
(0.869269 -0.000355889 0)
(0.934498 -0.000806776 0)
(0.934194 -0.00077107 0)
(0.933906 -0.000733473 0)
(0.933635 -0.000695931 0)
(0.933378 -0.000660125 0)
(0.933135 -0.000627009 0)
(0.932904 -0.000596624 0)
(0.932684 -0.000568425 0)
(0.932475 -0.000541871 0)
(0.932275 -0.000516821 0)
(0.932085 -0.000493535 0)
(0.931904 -0.000472399 0)
(0.931729 -0.000453614 0)
(0.931561 -0.000437048 0)
(0.931399 -0.000422279 0)
(0.931242 -0.00040877 0)
(0.93109 -0.00039606 0)
(0.930942 -0.000383881 0)
(0.930799 -0.000372184 0)
(0.930661 -0.000361076 0)
(0.930527 -0.000350722 0)
(0.930396 -0.00034125 0)
(0.930269 -0.000332694 0)
(0.930144 -0.000324984 0)
(0.930023 -0.000317964 0)
(0.929904 -0.000311444 0)
(0.929788 -0.000305243 0)
(0.929674 -0.000299227 0)
(0.929562 -0.000293324 0)
(0.929452 -0.000287523 0)
(0.929345 -0.000281862 0)
(0.92924 -0.000276398 0)
(0.929137 -0.000271193 0)
(0.929036 -0.000266289 0)
(0.928937 -0.000261705 0)
(0.974593 -0.00048869 0)
(0.974279 -0.000467968 0)
(0.973979 -0.000445749 0)
(0.973695 -0.00042331 0)
(0.973426 -0.000401776 0)
(0.973171 -0.000381814 0)
(0.972928 -0.000363494 0)
(0.972697 -0.000346486 0)
(0.972476 -0.000330421 0)
(0.972266 -0.00031518 0)
(0.972066 -0.000300915 0)
(0.971874 -0.000287896 0)
(0.971691 -0.000276306 0)
(0.971514 -0.000266115 0)
(0.971344 -0.000257093 0)
(0.971179 -0.000248908 0)
(0.971019 -0.000241246 0)
(0.970864 -0.000233906 0)
(0.970713 -0.000226827 0)
(0.970568 -0.000220061 0)
(0.970426 -0.000213713 0)
(0.970289 -0.00020788 0)
(0.970155 -0.000202603 0)
(0.970024 -0.00019786 0)
(0.969897 -0.000193566 0)
(0.969772 -0.000189607 0)
(0.969649 -0.000185867 0)
(0.969529 -0.000182251 0)
(0.969411 -0.000178706 0)
(0.969296 -0.000175215 0)
(0.969183 -0.000171798 0)
(0.969072 -0.000168488 0)
(0.968963 -0.000165326 0)
(0.968856 -0.000162344 0)
(0.968751 -0.000159558 0)
(0.99464 -0.00016355 0)
(0.99432 -0.000156785 0)
(0.994015 -0.000149481 0)
(0.993725 -0.000142061 0)
(0.99345 -0.000134902 0)
(0.993188 -0.000128252 0)
(0.99294 -0.000122158 0)
(0.992703 -0.000116517 0)
(0.992477 -0.000111187 0)
(0.992261 -0.000106099 0)
(0.992056 -0.00010129 0)
(0.991859 -9.68588e-05 0)
(0.991671 -9.2892e-05 0)
(0.991491 -8.94101e-05 0)
(0.991316 -8.63555e-05 0)
(0.991148 -8.36185e-05 0)
(0.990984 -8.10813e-05 0)
(0.990825 -7.86563e-05 0)
(0.990671 -7.63046e-05 0)
(0.990522 -7.40337e-05 0)
(0.990377 -7.18791e-05 0)
(0.990236 -6.98814e-05 0)
(0.9901 -6.8067e-05 0)
(0.989966 -6.64386e-05 0)
(0.989836 -6.49756e-05 0)
(0.989708 -6.3641e-05 0)
(0.989583 -6.2393e-05 0)
(0.98946 -6.11944e-05 0)
(0.989339 -6.00205e-05 0)
(0.989221 -5.88611e-05 0)
(0.989105 -5.77192e-05 0)
(0.988991 -5.66065e-05 0)
(0.98888 -5.5538e-05 0)
(0.98877 -5.45271e-05 0)
(0.988663 -5.3582e-05 0)
(0.99464 0.000163578 0)
(0.99432 0.000156772 0)
(0.994015 0.000149415 0)
(0.993725 0.000141993 0)
(0.99345 0.000134904 0)
(0.993188 0.000128341 0)
(0.99294 0.000122276 0)
(0.992703 0.000116573 0)
(0.992477 0.000111133 0)
(0.992261 0.000105961 0)
(0.992056 0.000101148 0)
(0.991859 9.67949e-05 0)
(0.991671 9.29428e-05 0)
(0.991491 8.9553e-05 0)
(0.991316 8.65259e-05 0)
(0.991148 8.37447e-05 0)
(0.990984 8.11162e-05 0)
(0.990825 7.85936e-05 0)
(0.990671 7.61751e-05 0)
(0.990522 7.38883e-05 0)
(0.990377 7.17675e-05 0)
(0.990236 6.98357e-05 0)
(0.9901 6.80944e-05 0)
(0.989966 6.6524e-05 0)
(0.989836 6.50902e-05 0)
(0.989708 6.37534e-05 0)
(0.989583 6.24789e-05 0)
(0.98946 6.12423e-05 0)
(0.989339 6.00322e-05 0)
(0.989221 5.88486e-05 0)
(0.989105 5.76993e-05 0)
(0.988991 5.65954e-05 0)
(0.98888 5.55469e-05 0)
(0.98877 5.45608e-05 0)
(0.988663 5.36388e-05 0)
(0.974593 0.000488731 0)
(0.974279 0.000467981 0)
(0.973979 0.00044571 0)
(0.973695 0.000423265 0)
(0.973426 0.000401796 0)
(0.973171 0.000381916 0)
(0.972928 0.00036362 0)
(0.972697 0.000346549 0)
(0.972476 0.000330376 0)
(0.972266 0.000315051 0)
(0.972065 0.000300774 0)
(0.971874 0.000287815 0)
(0.97169 0.000276315 0)
(0.971514 0.000266197 0)
(0.971344 0.0002572 0)
(0.971179 0.000248985 0)
(0.971019 0.000241262 0)
(0.970864 0.00023386 0)
(0.970713 0.000226746 0)
(0.970568 0.000219981 0)
(0.970426 0.000213666 0)
(0.970289 0.000207882 0)
(0.970155 0.000202653 0)
(0.970024 0.000197938 0)
(0.969897 0.00019365 0)
(0.969772 0.000189675 0)
(0.969649 0.000185905 0)
(0.969529 0.000182259 0)
(0.969411 0.000178691 0)
(0.969296 0.000175192 0)
(0.969183 0.000171782 0)
(0.969072 0.000168492 0)
(0.968963 0.000165356 0)
(0.968856 0.0001624 0)
(0.968751 0.000159634 0)
(0.934498 0.000806817 0)
(0.934194 0.000771085 0)
(0.933906 0.000733423 0)
(0.933635 0.000695855 0)
(0.933378 0.000660096 0)
(0.933135 0.000627056 0)
(0.932904 0.000596705 0)
(0.932684 0.000568476 0)
(0.932475 0.000541861 0)
(0.932275 0.000516766 0)
(0.932085 0.00049348 0)
(0.931903 0.000472379 0)
(0.931729 0.000453637 0)
(0.931561 0.000437095 0)
(0.931399 0.00042232 0)
(0.931242 0.000408784 0)
(0.93109 0.000396043 0)
(0.930942 0.000383847 0)
(0.9308 0.000372155 0)
(0.930661 0.000361072 0)
(0.930527 0.000350751 0)
(0.930396 0.000341306 0)
(0.930269 0.000332762 0)
(0.930144 0.000325044 0)
(0.930023 0.000318001 0)
(0.929904 0.00031145 0)
(0.929788 0.000305221 0)
(0.929674 0.000299187 0)
(0.929562 0.000293282 0)
(0.929453 0.000287495 0)
(0.929345 0.000281859 0)
(0.92924 0.000276427 0)
(0.929137 0.000271251 0)
(0.929036 0.000266371 0)
(0.928937 0.0002618 0)
(0.874346 0.00111182 0)
(0.87406 0.00105903 0)
(0.873792 0.00100493 0)
(0.87354 0.000951939 0)
(0.873303 0.000902014 0)
(0.873078 0.000856129 0)
(0.872866 0.000814119 0)
(0.872664 0.000775206 0)
(0.872473 0.000738734 0)
(0.87229 0.000704585 0)
(0.872116 0.000673089 0)
(0.87195 0.000644644 0)
(0.87179 0.000619363 0)
(0.871636 0.000596947 0)
(0.871487 0.000576793 0)
(0.871343 0.000558221 0)
(0.871204 0.000540698 0)
(0.871069 0.000523952 0)
(0.870939 0.000507965 0)
(0.870813 0.000492881 0)
(0.87069 0.000478883 0)
(0.870572 0.000466087 0)
(0.870456 0.000454485 0)
(0.870344 0.000443949 0)
(0.870234 0.000434265 0)
(0.870127 0.000425191 0)
(0.870022 0.000416514 0)
(0.86992 0.000408085 0)
(0.86982 0.000399832 0)
(0.869722 0.000391756 0)
(0.869627 0.000383904 0)
(0.869534 0.000376348 0)
(0.869444 0.000369152 0)
(0.869355 0.00036236 0)
(0.869269 0.00035598 0)
(0.794125 0.00139864 0)
(0.793867 0.00132697 0)
(0.793628 0.00125564 0)
(0.793405 0.00118708 0)
(0.793197 0.00112317 0)
(0.793001 0.00106472 0)
(0.792816 0.00101135 0)
(0.792642 0.000962112 0)
(0.792477 0.000916265 0)
(0.792321 0.00087369 0)
(0.792172 0.000834709 0)
(0.79203 0.000799634 0)
(0.791894 0.000768417 0)
(0.791763 0.000740567 0)
(0.791638 0.000715314 0)
(0.791517 0.000691882 0)
(0.791402 0.000669713 0)
(0.791291 0.000648559 0)
(0.791184 0.000628445 0)
(0.791082 0.000609543 0)
(0.790983 0.00059203 0)
(0.790888 0.000575989 0)
(0.790797 0.000561356 0)
(0.790708 0.000547941 0)
(0.790623 0.000535478 0)
(0.79054 0.000523691 0)
(0.790461 0.00051235 0)
(0.790384 0.000501309 0)
(0.79031 0.000490507 0)
(0.790239 0.000479963 0)
(0.79017 0.000469738 0)
(0.790103 0.000459911 0)
(0.79004 0.000450547 0)
(0.789978 0.000441684 0)
(0.789918 0.000433318 0)
(0.693827 0.001648 0)
(0.693614 0.00155575 0)
(0.693422 0.00146704 0)
(0.693248 0.00138367 0)
(0.693088 0.00130691 0)
(0.692942 0.00123708 0)
(0.692807 0.00117345 0)
(0.692682 0.00111489 0)
(0.692568 0.00106063 0)
(0.692462 0.00101053 0)
(0.692363 0.000964836 0)
(0.692272 0.000923689 0)
(0.692187 0.000886829 0)
(0.692108 0.000853579 0)
(0.692034 0.000823071 0)
(0.691966 0.00079452 0)
(0.691904 0.000767422 0)
(0.691847 0.000741596 0)
(0.691794 0.000717112 0)
(0.691746 0.000694141 0)
(0.691701 0.000672825 0)
(0.691661 0.000653182 0)
(0.691624 0.000635089 0)
(0.69159 0.000618305 0)
(0.69156 0.000602541 0)
(0.691533 0.00058752 0)
(0.691508 0.000573028 0)
(0.691487 0.000558941 0)
(0.691468 0.000545222 0)
(0.691452 0.0005319 0)
(0.691439 0.000519042 0)
(0.691427 0.000506716 0)
(0.691418 0.000494977 0)
(0.69141 0.000483839 0)
(0.691404 0.000473286 0)
(0.57356 0.00185588 0)
(0.573457 0.00173675 0)
(0.573379 0.00162581 0)
(0.573322 0.00152386 0)
(0.573283 0.00143125 0)
(0.573258 0.00134755 0)
(0.573247 0.00127159 0)
(0.573247 0.00120202 0)
(0.573257 0.00113797 0)
(0.573275 0.00107918 0)
(0.573301 0.00102569 0)
(0.573332 0.000977375 0)
(0.573369 0.000933728 0)
(0.573412 0.000893943 0)
(0.573458 0.000857144 0)
(0.57351 0.000822621 0)
(0.573565 0.000789961 0)
(0.573623 0.000759042 0)
(0.573684 0.000729929 0)
(0.573747 0.000702736 0)
(0.573813 0.000677515 0)
(0.573879 0.000654197 0)
(0.573947 0.000632595 0)
(0.574017 0.000612444 0)
(0.574088 0.000593459 0)
(0.574159 0.00057539 0)
(0.574232 0.000558059 0)
(0.574306 0.000541366 0)
(0.57438 0.000525285 0)
(0.574454 0.000509839 0)
(0.574528 0.000495069 0)
(0.574603 0.000481017 0)
(0.574678 0.000467698 0)
(0.574752 0.000455101 0)
(0.574826 0.000443183 0)
(0.434398 0.00189509 0)
(0.434625 0.00174569 0)
(0.434872 0.00160981 0)
(0.435133 0.00148702 0)
(0.435401 0.0013767 0)
(0.435672 0.00127777 0)
(0.435945 0.00118872 0)
(0.436216 0.00110811 0)
(0.436485 0.00103495 0)
(0.436749 0.000968764 0)
(0.437008 0.000909215 0)
(0.437261 0.000855805 0)
(0.437509 0.000807785 0)
(0.437751 0.000764266 0)
(0.437988 0.000724406 0)
(0.438219 0.000687566 0)
(0.438445 0.000653361 0)
(0.438665 0.000621617 0)
(0.43888 0.000592266 0)
(0.439088 0.00056526 0)
(0.439291 0.000540487 0)
(0.439489 0.000517767 0)
(0.439682 0.000496847 0)
(0.43987 0.000477457 0)
(0.440053 0.000459337 0)
(0.440232 0.000442276 0)
(0.440407 0.000426123 0)
(0.440578 0.000410792 0)
(0.440745 0.000396239 0)
(0.440908 0.000382455 0)
(0.441066 0.000369436 0)
(0.441221 0.000357176 0)
(0.441373 0.00034565 0)
(0.44152 0.000334819 0)
(0.441665 0.000324623 0)
(0.280927 0.0014217 0)
(0.281731 0.00124617 0)
(0.282483 0.00109997 0)
(0.283185 0.000977739 0)
(0.283838 0.000875118 0)
(0.284447 0.000788414 0)
(0.285015 0.000714463 0)
(0.285545 0.000650778 0)
(0.286041 0.000595599 0)
(0.286505 0.000547706 0)
(0.28694 0.000506117 0)
(0.28735 0.000469891 0)
(0.287736 0.000438093 0)
(0.288101 0.000409868 0)
(0.288447 0.00038452 0)
(0.288775 0.000361558 0)
(0.289088 0.00034067 0)
(0.289385 0.000321668 0)
(0.289668 0.000304417 0)
(0.289938 0.000288784 0)
(0.290196 0.000274616 0)
(0.290443 0.000261735 0)
(0.290679 0.000249951 0)
(0.290907 0.000239087 0)
(0.291126 0.00022899 0)
(0.291337 0.000219544 0)
(0.29154 0.000210669 0)
(0.291736 0.000202316 0)
(0.291925 0.000194456 0)
(0.292108 0.000187074 0)
(0.292284 0.000180153 0)
(0.292455 0.000173675 0)
(0.29262 0.000167615 0)
(0.29278 0.000161939 0)
(0.292934 0.000156611 0)
(0.12007 0.000274862 0)
(0.120841 0.000227852 0)
(0.121513 0.000192972 0)
(0.122105 0.000166502 0)
(0.122631 0.000145932 0)
(0.123103 0.000129596 0)
(0.123528 0.0001164 0)
(0.123914 0.000105609 0)
(0.124267 9.6669e-05 0)
(0.124591 8.91156e-05 0)
(0.124889 8.25628e-05 0)
(0.125166 7.67352e-05 0)
(0.125423 7.14827e-05 0)
(0.125663 6.67531e-05 0)
(0.125889 6.25378e-05 0)
(0.1261 5.88214e-05 0)
(0.1263 5.55544e-05 0)
(0.126488 5.26566e-05 0)
(0.126665 5.00335e-05 0)
(0.126834 4.76022e-05 0)
(0.126993 4.53054e-05 0)
(0.127146 4.31186e-05 0)
(0.127291 4.10422e-05 0)
(0.127429 3.90924e-05 0)
(0.127562 3.72865e-05 0)
(0.127689 3.56355e-05 0)
(0.127811 3.41373e-05 0)
(0.127928 3.27787e-05 0)
(0.12804 3.15372e-05 0)
(0.128148 3.03881e-05 0)
(0.128252 2.9307e-05 0)
(0.128352 2.8276e-05 0)
(0.128449 2.72827e-05 0)
(0.128542 2.63227e-05 0)
(0.128632 2.53963e-05 0)
(0.128719 -2.44354e-05 0)
(0.128803 -2.36009e-05 0)
(0.128885 -2.28238e-05 0)
(0.128964 -2.21016e-05 0)
(0.129041 -2.14277e-05 0)
(0.129115 -2.07954e-05 0)
(0.129187 -2.01965e-05 0)
(0.129257 -1.96248e-05 0)
(0.129326 -1.90746e-05 0)
(0.129392 -1.85428e-05 0)
(0.293085 -0.000151632 0)
(0.293231 -0.000146856 0)
(0.293372 -0.00014232 0)
(0.29351 -0.000138003 0)
(0.293644 -0.000133887 0)
(0.293775 -0.000129958 0)
(0.293902 -0.000126205 0)
(0.294025 -0.000122617 0)
(0.294145 -0.000119188 0)
(0.294263 -0.000115911 0)
(0.441806 -0.00031507 0)
(0.441944 -0.000305919 0)
(0.442079 -0.000297199 0)
(0.442211 -0.000288865 0)
(0.442341 -0.000280879 0)
(0.442468 -0.000273217 0)
(0.442592 -0.000265861 0)
(0.442714 -0.000258801 0)
(0.442833 -0.000252026 0)
(0.44295 -0.000245532 0)
(0.5749 -0.000431931 0)
(0.574974 -0.000421152 0)
(0.575048 -0.000410825 0)
(0.575121 -0.000400888 0)
(0.575194 -0.000391292 0)
(0.575267 -0.000382007 0)
(0.575339 -0.000373014 0)
(0.575411 -0.000364308 0)
(0.575482 -0.000355889 0)
(0.575553 -0.000347762 0)
(0.6914 -0.000463272 0)
(0.691398 -0.000453714 0)
(0.691397 -0.000444531 0)
(0.691398 -0.000435651 0)
(0.6914 -0.000427018 0)
(0.691404 -0.000418595 0)
(0.691408 -0.000410363 0)
(0.691414 -0.000402318 0)
(0.691422 -0.00039447 0)
(0.69143 -0.000386833 0)
(0.789861 -0.000425371 0)
(0.789805 -0.000417878 0)
(0.789751 -0.000410705 0)
(0.7897 -0.000403779 0)
(0.78965 -0.000397035 0)
(0.789602 -0.000390429 0)
(0.789555 -0.000383937 0)
(0.78951 -0.000377554 0)
(0.789467 -0.000371287 0)
(0.789426 -0.000365155 0)
(0.869184 -0.000349908 0)
(0.869101 -0.000344274 0)
(0.86902 -0.000338922 0)
(0.86894 -0.000333781 0)
(0.868862 -0.00032879 0)
(0.868786 -0.000323903 0)
(0.868711 -0.000319093 0)
(0.868638 -0.00031435 0)
(0.868566 -0.00030968 0)
(0.868496 -0.000305099 0)
(0.92884 -0.000257429 0)
(0.928745 -0.000253427 0)
(0.928651 -0.000249649 0)
(0.928558 -0.00024604 0)
(0.928467 -0.00024255 0)
(0.928378 -0.000239141 0)
(0.928289 -0.000235786 0)
(0.928202 -0.000232476 0)
(0.928117 -0.000229213 0)
(0.928033 -0.000226009 0)
(0.968648 -0.000156965 0)
(0.968546 -0.000154547 0)
(0.968446 -0.000152274 0)
(0.968348 -0.000150111 0)
(0.968251 -0.000148026 0)
(0.968155 -0.000145993 0)
(0.968061 -0.000143994 0)
(0.967968 -0.000142021 0)
(0.967876 -0.000140074 0)
(0.967786 -0.00013816 0)
(0.988557 -5.27043e-05 0)
(0.988453 -5.1889e-05 0)
(0.988351 -5.11264e-05 0)
(0.98825 -5.04043e-05 0)
(0.98815 -4.97103e-05 0)
(0.988052 -4.90342e-05 0)
(0.987955 -4.83688e-05 0)
(0.98786 -4.77107e-05 0)
(0.987766 -4.70597e-05 0)
(0.987673 -4.64182e-05 0)
(0.988557 5.27776e-05 0)
(0.988453 5.19702e-05 0)
(0.988351 5.12073e-05 0)
(0.98825 5.04787e-05 0)
(0.98815 4.97757e-05 0)
(0.988052 4.90912e-05 0)
(0.987955 4.84209e-05 0)
(0.98786 4.77627e-05 0)
(0.987766 4.71169e-05 0)
(0.987673 4.6485e-05 0)
(0.968648 0.000157052 0)
(0.968546 0.000154635 0)
(0.968446 0.000152355 0)
(0.968348 0.000150181 0)
(0.968251 0.000148084 0)
(0.968155 0.00014604 0)
(0.968061 0.000144035 0)
(0.967968 0.000142063 0)
(0.967876 0.000140122 0)
(0.967786 0.000138219 0)
(0.92884 0.000257526 0)
(0.928745 0.000253515 0)
(0.928651 0.000249723 0)
(0.928558 0.000246097 0)
(0.928467 0.000242593 0)
(0.928378 0.000239172 0)
(0.928289 0.000235813 0)
(0.928203 0.000232506 0)
(0.928117 0.000229251 0)
(0.928033 0.000226059 0)
(0.869184 0.000349991 0)
(0.869101 0.000344343 0)
(0.86902 0.000338974 0)
(0.86894 0.000333818 0)
(0.868862 0.000328816 0)
(0.868786 0.000323924 0)
(0.868711 0.000319114 0)
(0.868638 0.000314377 0)
(0.868566 0.000309718 0)
(0.868496 0.000305148 0)
(0.789861 0.000425414 0)
(0.789805 0.000417908 0)
(0.789752 0.000410727 0)
(0.7897 0.000403797 0)
(0.78965 0.000397054 0)
(0.789602 0.000390453 0)
(0.789555 0.000383969 0)
(0.789511 0.000377594 0)
(0.789467 0.000371335 0)
(0.789426 0.00036521 0)
(0.6914 0.000463265 0)
(0.691398 0.000453706 0)
(0.691397 0.000444529 0)
(0.691398 0.000435662 0)
(0.6914 0.000427045 0)
(0.691404 0.000418637 0)
(0.691409 0.000410416 0)
(0.691415 0.000402379 0)
(0.691422 0.000394533 0)
(0.69143 0.000386893 0)
(0.5749 0.00043188 0)
(0.574974 0.000421116 0)
(0.575048 0.000410814 0)
(0.575121 0.000400905 0)
(0.575194 0.000391336 0)
(0.575267 0.00038207 0)
(0.575339 0.000373087 0)
(0.575411 0.000364381 0)
(0.575482 0.000355954 0)
(0.575553 0.000347812 0)
(0.441806 0.000314999 0)
(0.441944 0.000305876 0)
(0.442079 0.000297193 0)
(0.442211 0.000288892 0)
(0.442341 0.000280935 0)
(0.442468 0.000273288 0)
(0.442592 0.000265936 0)
(0.442714 0.000258866 0)
(0.442833 0.000252076 0)
(0.44295 0.00024556 0)
(0.293085 0.000151592 0)
(0.293231 0.000146846 0)
(0.293372 0.000142338 0)
(0.29351 0.000138043 0)
(0.293644 0.000133939 0)
(0.293775 0.000130011 0)
(0.293902 0.00012625 0)
(0.294025 0.000122648 0)
(0.294146 0.000119203 0)
(0.294263 0.000115909 0)
(0.128719 2.45079e-05 0)
(0.128803 2.3662e-05 0)
(0.128885 2.28635e-05 0)
(0.128964 2.21142e-05 0)
(0.129041 2.14145e-05 0)
(0.129115 2.07609e-05 0)
(0.129187 2.01495e-05 0)
(0.129258 1.95739e-05 0)
(0.129326 1.90291e-05 0)
(0.129392 1.85086e-05 0)
(0.129456 -1.80275e-05 0)
(0.129519 -1.75284e-05 0)
(0.12958 -1.70462e-05 0)
(0.129639 -1.65821e-05 0)
(0.129697 -1.61369e-05 0)
(0.129754 -1.57116e-05 0)
(0.129809 -1.53062e-05 0)
(0.129863 -1.49205e-05 0)
(0.129915 -1.45531e-05 0)
(0.129966 -1.42031e-05 0)
(0.130016 -1.38684e-05 0)
(0.130065 -1.35478e-05 0)
(0.130113 -1.3239e-05 0)
(0.130159 -1.29412e-05 0)
(0.130205 -1.26529e-05 0)
(0.13025 -1.23734e-05 0)
(0.130293 -1.2102e-05 0)
(0.130336 -1.18387e-05 0)
(0.130378 -1.15831e-05 0)
(0.130419 -1.13354e-05 0)
(0.130459 -1.10954e-05 0)
(0.130498 -1.08634e-05 0)
(0.130537 -1.06392e-05 0)
(0.130575 -1.04229e-05 0)
(0.130612 -1.02141e-05 0)
(0.130648 -1.00129e-05 0)
(0.130684 -9.81872e-06 0)
(0.130719 -9.63163e-06 0)
(0.130753 -9.451e-06 0)
(0.130786 -9.27702e-06 0)
(0.13082 -9.10914e-06 0)
(0.130852 -8.9477e-06 0)
(0.130884 -8.79236e-06 0)
(0.130915 -8.64371e-06 0)
(0.130946 -8.50181e-06 0)
(0.294377 -0.000112778 0)
(0.294488 -0.000109783 0)
(0.294597 -0.00010692 0)
(0.294703 -0.000104181 0)
(0.294807 -0.000101558 0)
(0.294908 -9.90459e-05 0)
(0.295007 -9.66358e-05 0)
(0.295103 -9.43215e-05 0)
(0.295198 -9.2096e-05 0)
(0.29529 -8.99537e-05 0)
(0.295381 -8.7889e-05 0)
(0.295469 -8.58975e-05 0)
(0.295556 -8.39748e-05 0)
(0.295641 -8.21178e-05 0)
(0.295724 -8.03232e-05 0)
(0.295805 -7.85887e-05 0)
(0.295885 -7.69118e-05 0)
(0.295963 -7.52907e-05 0)
(0.29604 -7.37232e-05 0)
(0.296115 -7.22077e-05 0)
(0.296189 -7.0742e-05 0)
(0.296261 -6.93245e-05 0)
(0.296332 -6.79531e-05 0)
(0.296401 -6.66262e-05 0)
(0.29647 -6.53415e-05 0)