/*--------------------------------*- C++ -*----------------------------------*\
| =========                 |                                                 |
| \\      /  F ield         | OpenFOAM: The Open Source CFD Toolbox           |
|  \\    /   O peration     | Version:  2406                                  |
|   \\  /    A nd           | Website:  www.openfoam.com                      |
|    \\/     M anipulation  |                                                 |
\*---------------------------------------------------------------------------*/
FoamFile
{
    version     2.0;
    format      ascii;
    arch        "LSB;label=32;scalar=64";
    class       surfaceScalarField;
    location    "41";
    object      phi;
}
// * * * * * * * * * * * * * * * * * * * * * * * * * * * * * * * * * * * * * //

dimensions      [0 3 -1 0 0 0 0];

oriented        oriented;

internalField   nonuniform List<scalar> 
3796
(
0.00994079
-0.000190782
0.0101451
-0.000204204
0.0102916
-0.000146489
0.010395
-0.000103299
0.0104707
-7.57807e-05
0.010527
-5.62783e-05
0.0105691
-4.20326e-05
0.0106014
-3.22033e-05
0.0106271
-2.56576e-05
0.0106482
-2.11878e-05
0.0106659
-1.78067e-05
0.0106809
-1.50525e-05
0.0106937
-1.28363e-05
0.010705
-1.12305e-05
0.0107154
-1.01646e-05
0.0107251
-9.61258e-06
0.0107345
-9.36554e-06
0.0107439
-9.40885e-06
0.0107535
-9.67036e-06
0.0107636
-1.02389e-05
0.0107747
-1.12135e-05
0.0107874
-1.27648e-05
0.0108025
-1.50858e-05
0.010821
-1.84479e-05
0.0108442
-2.31382e-05
0.010874
-2.96212e-05
0.0109126
-3.8402e-05
0.010963
-5.03065e-05
0.0110294
-6.6313e-05
0.0111173
-8.79028e-05
0.0112343
-0.000116954
0.0113905
-0.00015614
0.0115995
-0.000208972
0.0118798
-0.000280275
0.0122563
-0.000376418
0.0127623
-0.000505885
0.013442
-0.000679555
0.0143534
-0.000911079
0.0155702
-0.00121646
0.0171834
-0.00161286
0.0192989
-0.00211512
0.022029
-0.00272947
0.0254727
-0.00344304
0.0296805
-0.00420713
0.0346088
-0.00492671
0.040027
-0.00541619
-0.00548855
0.0455157
0.0276658
-0.000106512
0.0276583
-0.000196695
0.0277033
-0.000191373
0.0277655
-0.000165466
0.0278308
-0.000140987
0.0278928
-0.000118209
0.0279485
-9.76882e-05
0.0279971
-8.08062e-05
0.0280393
-6.77861e-05
0.028076
-5.78876e-05
0.0281082
-5.00252e-05
0.0281364
-4.34523e-05
0.0281615
-3.79461e-05
0.028184
-3.36244e-05
0.0282045
-3.05206e-05
0.0282238
-2.86211e-05
0.0282423
-2.76885e-05
0.0282605
-2.7596e-05
0.028279
-2.82415e-05
0.0282983
-2.97217e-05
0.0283192
-3.22719e-05
0.0283425
-3.62866e-05
0.0283697
-4.22886e-05
0.0284023
-5.09785e-05
0.0284425
-6.31943e-05
0.0284932
-8.01001e-05
0.0285583
-0.000103131
0.0286425
-0.000134322
0.0287528
-0.000176301
0.0288978
-0.000232727
0.0290893
-0.000308427
0.0293432
-0.00040997
0.0296804
-0.000546049
0.0301284
-0.000728252
0.0307238
-0.000971728
0.0315143
-0.00129611
0.0325612
-0.00172617
0.0339427
-0.00229217
0.035756
-0.00302912
0.0381178
-0.00397401
0.041163
-0.00515939
0.0450368
-0.0066023
0.0498779
-0.00828305
0.0557903
-0.0101186
0.062792
-0.0119278
0.0706826
-0.0133079
-0.013897
0.0790887
0.0437005
-5.70644e-05
0.0436399
-0.00013597
0.0436072
-0.000158608
0.0435979
-0.000156134
0.0436046
-0.000147664
0.0436222
-0.000135815
0.0436462
-0.000121656
0.043673
-0.0001075
0.0437005
-9.50585e-05
0.0437273
-8.46578e-05
0.043753
-7.57109e-05
0.0437772
-6.77077e-05
0.0437997
-6.05909e-05
0.0438207
-5.46671e-05
0.0438405
-5.02919e-05
0.0438595
-4.74992e-05
0.0438783
-4.62028e-05
0.0438971
-4.61935e-05
0.0439165
-4.73826e-05
0.0439366
-4.99046e-05
0.0439584
-5.40845e-05
0.0439824
-6.05514e-05
0.0440101
-7.01272e-05
0.0440429
-8.39125e-05
0.044083
-0.000103322
0.0441331
-0.000130144
0.044197
-0.00016678
0.0442793
-0.000216348
0.0443864
-0.000283093
0.0445266
-0.000372647
0.0447109
-0.000492603
0.0449542
-0.00065306
0.0452757
-0.000867448
0.0457009
-0.00115345
0.0462634
-0.00153415
0.0470067
-0.00203929
0.0479871
-0.00270649
0.0492772
-0.003582
0.0509687
-0.00472038
0.0531771
-0.00618199
0.0560435
-0.0080255
0.0597372
-0.0102956
0.0644458
-0.0129925
0.0703741
-0.016049
0.0776801
-0.0192353
0.0863387
-0.021966
-0.0238857
0.0963208
0.0577272
-3.41985e-05
0.0576814
-9.02399e-05
0.0576407
-0.000117841
0.0576105
-0.000125843
0.0575895
-0.000126543
0.0575767
-0.00012315
0.0575712
-0.000116267
0.0575712
-0.000107559
0.0575752
-9.88873e-05
0.057582
-9.10781e-05
0.0575906
-8.39862e-05
0.0576002
-7.7218e-05
0.0576102
-7.08056e-05
0.0576204
-6.5201e-05
0.0576308
-6.09484e-05
0.0576416
-5.83388e-05
0.057653
-5.74082e-05
0.0576652
-5.80235e-05
0.0576783
-6.01297e-05
0.0576926
-6.38508e-05
0.0577082
-6.96183e-05
0.0577257
-7.81606e-05
0.0577459
-9.05493e-05
0.0577699
-0.000108181
0.0577992
-0.000132875
0.0578359
-0.00016695
0.0578827
-0.000213448
0.0579429
-0.000276356
0.0580211
-0.000361013
0.0581233
-0.000474519
0.0582574
-0.000626399
0.0584339
-0.000829309
0.0586667
-0.00110008
0.0589743
-0.0014609
0.059381
-0.00194085
0.0599195
-0.00257774
0.0606331
-0.0034201
0.0615804
-0.00452927
0.0628411
-0.00598098
0.0645247
-0.00786561
0.0667829
-0.0102838
0.0698243
-0.013338
0.0739227
-0.0170937
0.079443
-0.021571
0.0867405
-0.0265345
0.0962484
-0.0314814
-0.0367408
0.109112
0.0697378
-2.20288e-05
0.0697087
-6.1052e-05
0.0696767
-8.56841e-05
0.0696477
-9.6771e-05
0.0696222
-0.000101157
0.0696006
-0.000101726
0.0695831
-9.89806e-05
0.0695695
-9.40852e-05
0.0695595
-8.86052e-05
0.0695524
-8.34428e-05
0.0695475
-7.8593e-05
0.0695442
-7.37176e-05
0.0695421
-6.88114e-05
0.0695407
-6.43832e-05
0.0695403
-6.10134e-05
0.0695407
-5.91885e-05
0.0695424
-5.90218e-05
0.0695452
-6.04843e-05
0.0695492
-6.35367e-05
0.0695543
-6.83139e-05
0.0695603
-7.52634e-05
0.0695675
-8.517e-05
0.069576
-9.91822e-05
0.0695863
-0.000118872
0.0695993
-0.000146217
0.0696158
-0.000183837
0.0696372
-0.000235049
0.0696651
-0.000304294
0.0697017
-0.00039739
0.0697496
-0.000522163
0.0698126
-0.000689013
0.0698955
-0.000911857
0.0700049
-0.00120918
0.0701498
-0.00160554
0.0703425
-0.00213339
0.0706004
-0.00283552
0.0709485
-0.00376813
0.0714239
-0.00500474
0.072084
-0.00664111
0.0730195
-0.00880119
0.0743786
-0.0116432
0.0764052
-0.0153662
0.0795019
-0.0201916
0.0842949
-0.0263674
0.0916027
-0.0338487
0.102684
-0.0425542
-0.0537793
0.119725
0.0797427
-1.46823e-05
0.0797235
-4.1912e-05
0.0796994
-6.14302e-05
0.0796748
-7.20824e-05
0.0796511
-7.74578e-05
0.0796287
-7.95988e-05
0.0796083
-7.8977e-05
0.0795903
-7.63486e-05
0.0795749
-7.29275e-05
0.0795617
-6.9572e-05
0.0795503
-6.63538e-05
0.0795401
-6.30217e-05
0.0795307
-5.95457e-05
0.079522
-5.62957e-05
0.0795139
-5.38744e-05
0.0795067
-5.27484e-05
0.0795006
-5.3152e-05
0.0794955
-5.51207e-05
0.0794914
-5.86413e-05
0.0794878
-6.38662e-05
0.0794845
-7.11834e-05
0.0794811
-8.13405e-05
0.0794774
-9.54413e-05
0.0794732
-0.000114994
0.0794685
-0.000141974
0.079463
-0.000178916
0.0794565
-0.000229125
0.0794489
-0.000296919
0.0794395
-0.000388028
0.0794276
-0.000510083
0.0794123
-0.000673281
0.0793922
-0.000891263
0.0793657
-0.00118225
0.0793312
-0.0015706
0.0792869
-0.00208882
0.079232
-0.00278045
0.0791679
-0.00370389
0.0791011
-0.00493796
0.0790499
-0.00658997
0.0790565
-0.00880789
0.0792125
-0.0117997
0.0797098
-0.0158642
0.0809618
-0.0214456
0.0837954
-0.0292058
0.0900124
-0.040061
0.102413
-0.0549573
-0.0726139
0.121258
0.087745
-9.75982e-06
0.0877314
-2.81822e-05
0.0877125
-4.24099e-05
0.0876917
-5.11021e-05
0.0876703
-5.60504e-05
0.0876488
-5.85117e-05
0.0876282
-5.88067e-05
0.087609
-5.7467e-05
0.0875917
-5.54098e-05
0.0875762
-5.33033e-05
0.087562
-5.12587e-05
0.0875487
-4.90708e-05
0.0875359
-4.66989e-05
0.0875233
-4.44277e-05
0.0875111
-4.2749e-05
0.0874994
-4.21005e-05
0.0874885
-4.27272e-05
0.0874782
-4.46985e-05
0.0874683
-4.80394e-05
0.0874584
-5.28627e-05
0.0874477
-5.95094e-05
0.0874358
-6.85887e-05
0.0874217
-8.10521e-05
0.0874047
-9.81904e-05
0.0873839
-0.000121715
0.087358
-0.000153829
0.0873256
-0.0001974
0.0872843
-0.000256179
0.0872312
-0.000335137
0.087162
-0.00044089
0.0870714
-0.000582303
0.0869518
-0.000771244
0.0867938
-0.00102366
0.0865847
-0.00136096
0.0863083
-0.00181202
0.0859442
-0.00241596
0.0854666
-0.00322613
0.0848447
-0.00431604
0.0840432
-0.00578851
0.0830249
-0.00778986
0.0817587
-0.0105341
0.0802352
-0.0143418
0.0785161
-0.0197294
0.0768408
-0.0275297
0.0762968
-0.0395227
0.0803293
-0.0589838
-0.0887558
0.0964759
0.0937463
-6.0066e-06
0.0937356
-1.74797e-05
0.0937201
-2.67236e-05
0.0937019
-3.27303e-05
0.0936822
-3.63865e-05
0.0936618
-3.8404e-05
0.0936414
-3.89547e-05
0.0936218
-3.83656e-05
0.0936038
-3.72272e-05
0.0935872
-3.59941e-05
0.0935718
-3.47653e-05
0.0935571
-3.34349e-05
0.0935425
-3.19681e-05
0.0935279
-3.05535e-05
0.0935134
-2.95248e-05
0.0934993
-2.91945e-05
0.0934855
-2.97614e-05
0.0934721
-3.12971e-05
0.0934586
-3.38405e-05
0.0934444
-3.74896e-05
0.0934287
-4.24886e-05
0.0934104
-4.92878e-05
0.0933884
-5.85672e-05
0.0933614
-7.12742e-05
0.0933278
-8.86541e-05
0.0932855
-0.000112326
0.0932316
-0.000144396
0.0931623
-0.000187624
0.0930723
-0.000245669
0.0929547
-0.000323403
0.0928
-0.000427362
0.0925956
-0.000566315
0.0923246
-0.000752079
0.0919649
-0.0010006
0.091487
-0.00133353
0.0908518
-0.00178039
0.0900079
-0.00238191
0.0888867
-0.0031948
0.0873973
-0.00429927
0.0854174
-0.00581032
0.0827784
-0.00789593
0.0792377
-0.0108025
0.074409
-0.0149021
0.0675925
-0.0207169
0.0571952
-0.0291253
0.0392753
-0.0410661
-0.0494815
0.0977469
-2.88509e-06
0.0977378
-8.38957e-06
0.0977242
-1.2917e-05
0.0977077
-1.59636e-05
0.0976892
-1.7902e-05
0.0976695
-1.90352e-05
0.0976493
-1.94178e-05
0.0976296
-1.92093e-05
0.0976112
-1.86982e-05
0.0975941
-1.81179e-05
0.0975781
-1.75336e-05
0.0975625
-1.69048e-05
0.097547
-1.62215e-05
0.0975313
-1.55697e-05
0.0975156
-1.51091e-05
0.0975
-1.49962e-05
0.0974846
-1.53279e-05
0.0974693
-1.61535e-05
0.0974537
-1.74997e-05
0.0974368
-1.94323e-05
0.0974178
-2.20906e-05
0.0973954
-2.57149e-05
0.0973682
-3.06685e-05
0.0973344
-3.74445e-05
0.0972919
-4.66976e-05
0.097238
-5.92764e-05
0.0971689
-7.62887e-05
0.0970796
-9.91943e-05
0.0969632
-0.000129926
0.0968107
-0.00017107
0.0966096
-0.000226092
0.0963433
-0.000299653
0.0959899
-0.000398041
0.0955198
-0.00052977
0.0948934
-0.000706424
0.0940574
-0.000943891
0.0929399
-0.00126416
0.0914432
-0.001698
0.0894329
-0.00228905
0.0867218
-0.00309975
0.0830454
-0.0042204
0.0780222
-0.00578076
0.0710856
-0.0079674
0.0613909
-0.011024
0.0475377
-0.015276
0.0271301
-0.0206627
-0.0223524
0.0997471
-2.47972e-09
0.0997388
7.16786e-09
0.0997261
5.62544e-10
0.0997103
-7.95681e-09
0.0996924
-1.23273e-10
0.099673
8.05837e-09
0.099653
-8.85204e-09
0.0996333
-4.3754e-08
0.0996147
-5.93691e-08
0.0995974
-3.08681e-08
0.0995811
2.2675e-08
0.0995651
5.5567e-08
0.0995491
3.90853e-08
0.0995329
-2.88655e-08
0.0995167
-1.18482e-07
0.0995004
-1.91331e-07
0.0994843
-2.21532e-07
0.0994681
-1.99247e-07
0.0994514
-1.40469e-07
0.0994333
-7.03855e-08
0.0994126
-1.64122e-08
0.0993882
-3.95868e-11
0.0993582
-2.56994e-08
0.099321
-9.04779e-08
0.0992739
-1.77828e-07
0.099214
-2.72115e-07
0.0991371
-3.5772e-07
0.0990374
-4.24661e-07
0.0989072
-4.71078e-07
0.0987364
-4.98935e-07
0.0985109
-5.16575e-07
0.0982122
-5.32287e-07
0.0978154
-5.54571e-07
0.0972869
-5.90366e-07
0.0965819
-6.41861e-07
0.0956392
-7.12373e-07
0.0943762
-7.99872e-07
0.0926792
-9.09699e-07
0.0903911
-1.03603e-06
0.087292
-1.17918e-06
0.0830721
-1.366e-06
0.0772912
-1.47973e-06
0.0693236
-1.68919e-06
0.0582987
-1.96468e-06
0.0430211
-1.76569e-06
0.0223548
1.57337e-06
-1.98924e-07
0.0997471
2.8901e-06
0.0997388
8.35473e-06
0.0997261
1.29161e-05
0.0997103
1.59892e-05
0.0996924
1.79286e-05
0.099673
1.90373e-05
0.099653
1.93654e-05
0.0996333
1.91055e-05
0.0996147
1.86019e-05
0.0995975
1.80965e-05
0.0995811
1.76023e-05
0.0995651
1.70073e-05
0.0995491
1.62608e-05
0.0995329
1.54704e-05
0.0995166
1.48506e-05
0.0995004
1.46202e-05
0.0994843
1.49204e-05
0.0994681
1.57997e-05
0.0994514
1.72594e-05
0.0994333
1.93147e-05
0.0994126
2.20571e-05
0.0993881
2.56977e-05
0.0993582
3.05876e-05
0.0993209
3.72369e-05
0.0992738
4.63237e-05
0.0992139
5.87294e-05
0.0991369
7.55875e-05
0.0990372
9.83719e-05
0.0989071
0.000129021
0.0987363
0.000170112
0.0985108
0.000225097
0.0982121
0.000298622
0.0978152
0.000396958
0.0972868
0.00052861
0.0965816
0.000705154
0.095639
0.000942479
0.0943759
0.00126257
0.0926789
0.0016962
0.0903907
0.00228699
0.0872916
0.00309738
0.0830716
0.00421776
0.0772907
0.00577766
0.069323
0.00796407
0.0582987
0.0110206
0.043024
0.0152755
0.0223532
0.0206595
0.022353
0.0977469
6.00373e-06
0.0977378
1.74926e-05
0.0977242
2.67304e-05
0.0977077
3.2732e-05
0.0976892
3.63933e-05
0.0976694
3.84135e-05
0.0976492
3.89345e-05
0.0976297
3.82984e-05
0.0976113
3.71465e-05
0.0975942
3.59626e-05
0.0975781
3.48061e-05
0.0975624
3.35022e-05
0.0975468
3.1982e-05
0.0975311
3.04474e-05
0.0975154
2.92848e-05
0.0974999
2.88651e-05
0.0974847
2.94152e-05
0.0974694
3.10082e-05
0.0974538
3.36484e-05
0.0974369
3.73914e-05
0.0974178
4.24434e-05
0.0973953
4.92316e-05
0.0973679
5.84377e-05
0.0973341
7.10229e-05
0.0972916
8.82589e-05
0.0972376
0.000111789
0.0971685
0.000143738
0.0970793
0.000186874
0.0969629
0.000244854
0.0968104
0.000322543
0.0966092
0.000426462
0.0963429
0.000565369
0.0959895
0.000751068
0.0955192
0.000999501
0.0948927
0.00133231
0.0940566
0.00177902
0.0929391
0.00238037
0.0914422
0.00319305
0.0894317
0.00429727
0.0867206
0.00580804
0.083044
0.0078933
0.0780208
0.0107995
0.0710846
0.0148989
0.0613936
0.0207147
0.0475369
0.0291218
0.0271321
0.041068
0.0494817
0.0937463
9.76263e-06
0.0937356
2.81699e-05
0.0937201
4.24283e-05
0.0937019
5.11223e-05
0.0936822
5.60544e-05
0.0936617
5.8491e-05
0.0936413
5.87573e-05
0.0936219
5.74135e-05
0.0936039
5.53862e-05
0.0935874
5.33267e-05
0.0935719
5.13045e-05
0.0935569
4.90908e-05
0.0935422
4.66431e-05
0.0935275
4.42816e-05
0.0935131
4.2532e-05
0.0934991
4.1859e-05
0.0934855
4.25081e-05
0.0934722
4.4533e-05
0.0934588
4.79272e-05
0.0934445
5.27817e-05
0.0934286
5.94168e-05
0.0934101
6.84462e-05
0.093388
8.08259e-05
0.0933609
9.78681e-05
0.0933272
0.000121296
0.0932849
0.000153329
0.093231
0.000196834
0.0931617
0.000255564
0.0930718
0.000334479
0.0929542
0.000440191
0.0927994
0.00058155
0.0925949
0.000770425
0.0923238
0.00102275
0.091964
0.00135994
0.0914859
0.00181088
0.0908506
0.00241467
0.0900064
0.00322466
0.088885
0.0043144
0.0873954
0.00578666
0.0854153
0.00778778
0.082776
0.0105317
0.0792357
0.0143391
0.0744086
0.0197262
0.0675932
0.0275271
0.0571988
0.0395207
0.0392749
0.0589834
0.0887574
0.0877451
1.46864e-05
0.0877314
4.1922e-05
0.0877126
6.14356e-05
0.0876917
7.2084e-05
0.0876702
7.7441e-05
0.0876487
7.95769e-05
0.0876281
7.89593e-05
0.0876091
7.63396e-05
0.0875919
7.29375e-05
0.0875763
6.9586e-05
0.087562
6.63542e-05
0.0875485
6.29803e-05
0.0875354
5.94468e-05
0.0875228
5.61621e-05
0.0875107
5.37338e-05
0.0874993
5.26344e-05
0.0874886
5.30788e-05
0.0874784
5.50703e-05
0.0874685
5.85898e-05
0.0874585
6.37704e-05
0.0874476
7.10201e-05
0.0874354
8.1096e-05
0.0874211
9.51215e-05
0.0874039
0.000114619
0.0873831
0.000141564
0.0873572
0.000178492
0.0873249
0.000228693
0.0872836
0.000296475
0.0872305
0.00038756
0.0871613
0.000509568
0.0870706
0.000672698
0.0869509
0.000890587
0.0867927
0.00118147
0.0865834
0.00156969
0.0863068
0.00208778
0.0859424
0.00277927
0.0854646
0.00370256
0.0848424
0.00493649
0.0840406
0.00658835
0.0830219
0.00880606
0.0817557
0.0117977
0.0802323
0.0158618
0.0785158
0.0214434
0.0768417
0.029202
0.0763011
0.0400584
0.0803332
0.0549539
0.0726121
0.0964769
0.0797427
2.20257e-05
0.0797236
6.10554e-05
0.0796994
8.56901e-05
0.0796748
9.6762e-05
0.079651
0.000101148
0.0796286
0.000101711
0.0796082
9.89941e-05
0.0795904
9.41267e-05
0.0795751
8.86465e-05
0.0795619
8.34391e-05
0.0795502
7.85134e-05
0.0795397
7.35777e-05
0.0795302
6.86754e-05
0.0795214
6.42871e-05
0.0795135
6.10077e-05
0.0795066
5.9246e-05
0.0795008
5.91075e-05
0.0794958
6.05354e-05
0.0794916
6.3498e-05
0.0794878
6.81613e-05
0.0794843
7.49994e-05
0.0794806
8.48228e-05
0.0794767
9.88042e-05
0.0794723
0.000118494
0.0794675
0.000145885
0.0794621
0.000183543
0.0794557
0.000234796
0.0794481
0.000304042
0.0794387
0.000397115
0.0794268
0.000521821
0.0794113
0.000688582
0.079391
0.00091131
0.0793643
0.00120851
0.0793295
0.00160475
0.079285
0.00213248
0.0792299
0.00283449
0.0791654
0.00376699
0.0790983
0.0050035
0.0790468
0.00663975
0.079053
0.00879972
0.0792087
0.0116416
0.0797064
0.0153643
0.0809596
0.0201894
0.0837977
0.0263644
0.0900147
0.0338429
0.102417
0.0425492
0.053773
0.121261
0.0697378
3.41974e-05
0.0697088
9.02167e-05
0.0696767
0.000117819
0.0696477
0.000125848
0.0696221
0.000126547
0.0696004
0.000123163
0.069583
0.00011631
0.0695696
0.000107636
0.0695597
9.89296e-05
0.0695525
9.10364e-05
0.0695474
8.3836e-05
0.0695438
7.70265e-05
0.0695415
7.06599e-05
0.0695402
6.51801e-05
0.0695399
6.10598e-05
0.0695407
5.85409e-05
0.0695426
5.76004e-05
0.0695455
5.81264e-05
0.0695494
6.00722e-05
0.0695542
6.36361e-05
0.06956
6.92736e-05
0.0695668
7.77635e-05
0.0695751
9.01624e-05
0.0695854
0.000107868
0.0695983
0.000132654
0.0696149
0.000166821
0.0696363
0.00021337
0.0696643
0.000276292
0.0697008
0.000360902
0.0697486
0.000474331
0.0698115
0.000626096
0.0698942
0.00082889
0.0700034
0.00109954
0.070148
0.00146025
0.0703404
0.00194011
0.070598
0.00257692
0.0709457
0.00341921
0.0714208
0.00452833
0.0720805
0.00598001
0.0730155
0.00786459
0.0743741
0.0102828
0.0764012
0.0133369
0.0794984
0.0170919
0.0842934
0.0215691
0.0916052
0.0265308
0.102687
0.0314735
0.0367349
0.119728
0.0577272
5.70631e-05
0.0576814
0.000135979
0.0576408
0.000158593
0.0576105
0.000156106
0.0575893
0.000147635
0.0575765
0.00013583
0.0575711
0.000121743
0.0575713
0.000107625
0.0575754
9.51155e-05
0.0575821
8.4547e-05
0.0575904
7.54942e-05
0.0575997
6.74882e-05
0.0576096
6.04946e-05
0.0576199
5.47566e-05
0.0576305
5.05092e-05
0.0576416
4.77672e-05
0.0576532
4.64007e-05
0.0576655
4.62378e-05
0.0576785
4.7262e-05
0.0576924
4.96255e-05
0.0577077
5.37383e-05
0.057725
6.01978e-05
0.057745
6.98456e-05
0.0577689
8.37373e-05
0.0577983
0.000103253
0.057835
0.000130163
0.0578818
0.000166831
0.057942
0.000216391
0.0580201
0.000283075
0.0581222
0.000372543
0.0582561
0.000492397
0.0584324
0.000652754
0.058665
0.000867054
0.0589722
0.00115298
0.0593787
0.00153364
0.0599169
0.00203876
0.0606302
0.00270594
0.0615771
0.00358147
0.0628373
0.00471991
0.0645205
0.00618163
0.0667781
0.0080253
0.0698194
0.0102957
0.0739188
0.0129927
0.07944
0.0160485
0.086739
0.0192344
0.0962528
0.0219646
0.0238787
0.109116
0.0437006
0.000106519
0.04364
0.000196705
0.0436073
0.000191398
0.0435979
0.000165474
0.0436045
0.000140975
0.0436221
0.000118196
0.0436462
9.77545e-05
0.0436731
8.09067e-05
0.0437006
6.7825e-05
0.0437273
5.77795e-05
0.0437527
4.98146e-05
0.0437767
4.32699e-05
0.0437992
3.79215e-05
0.0438203
3.37646e-05
0.0438404
3.07881e-05
0.0438597
2.88667e-05
0.0438786
2.78309e-05
0.0438974
2.75592e-05
0.0439164
2.80459e-05
0.0439364
2.94257e-05
0.0439578
3.19623e-05
0.0439816
3.60386e-05
0.0440092
4.21577e-05
0.044042
5.09616e-05
0.0440821
6.32866e-05
0.0441323
8.02326e-05
0.0441962
0.000103278
0.0442785
0.000134412
0.0443855
0.000176329
0.0445255
0.000232658
0.0447097
0.000308286
0.0449527
0.000409757
0.0452739
0.000545802
0.0456989
0.00072798
0.0462611
0.000971467
0.0470041
0.00129587
0.0479843
0.00172597
0.049274
0.00229205
0.0509653
0.00302912
0.0531732
0.00397418
0.0560394
0.00515985
0.0597329
0.00660315
0.0644422
0.00828459
0.0703718
0.0101206
0.0776799
0.0119295
0.0863398
0.0133085
0.0138965
0.0963264
0.0276658
0.000190786
0.0276584
0.000204252
0.0277034
0.000146527
0.0277655
0.000103303
0.0278307
7.5749e-05
0.0278926
5.62663e-05
0.0279484
4.21136e-05
0.0279972
3.2282e-05
0.0280394
2.56597e-05
0.0280759
2.10814e-05
0.0281079
1.76694e-05
0.028136
1.49775e-05
0.0281611
1.2878e-05
0.0281838
1.13525e-05
0.0282046
1.03395e-05
0.028224
9.7308e-06
0.0282425
9.41544e-06
0.0282607
9.3441e-06
0.0282789
9.5318e-06
0.028298
1.00617e-05
0.0283186
1.10512e-05
0.0283419
1.26563e-05
0.0283689
1.50561e-05
0.0284016
1.84844e-05
0.0284418
2.32379e-05
0.0284926
2.97301e-05
0.0285576
3.85176e-05
0.0286419
5.03747e-05
0.028752
6.63495e-05
0.0288969
8.78779e-05
0.0290883
0.0001169
0.0293419
0.000156049
0.0296788
0.000208881
0.0301267
0.000280182
0.0307219
0.000376355
0.0315121
0.000505844
0.0325588
0.000679568
0.0339401
0.000911138
0.0357531
0.00121661
0.0381148
0.00161311
0.0411599
0.0021155
0.045034
0.00273012
0.0498761
0.00344399
0.0557898
0.00420843
0.0627927
0.00492878
0.0706849
0.0054185
0.00548938
0.0790926
0.00994081
0.0101451
0.0102916
0.0103949
0.0104707
0.0105269
0.0105691
0.0106014
0.010627
0.0106481
0.0106657
0.0106807
0.0106936
0.010705
0.0107154
0.0107252
0.0107346
0.0107439
0.0107534
0.0107634
0.0107744
0.010787
0.0108021
0.0108206
0.0108439
0.0108737
0.0109122
0.0109627
0.011029
0.0111169
0.0112338
0.0113898
0.0115987
0.0118789
0.0122553
0.0127612
0.0134409
0.0143521
0.0155688
0.0171821
0.0192978
0.0220281
0.0254725
0.0296816
0.0346106
0.040029
0.045518
0.0503758
-0.00486303
0.0538289
-0.00345585
0.0554934
-0.00166659
0.0554221
7.0169e-05
0.0538799
0.00154266
0.00267044
0.051211
0.0871495
-0.0129292
0.0938882
-0.0101992
0.098877
-0.00665704
0.102117
-0.00316911
0.103659
3.56889e-06
0.00276881
0.103565
0.106115
-0.0227223
0.11418
-0.018262
0.120235
-0.0127101
0.124416
-0.00734795
0.126914
-0.00249156
0.00167679
0.128007
0.121451
-0.0350578
0.130206
-0.0270111
0.135731
-0.0182301
0.138728
-0.0103441
0.139874
-0.00363905
0.00168806
0.139862
0.132545
-0.0478688
0.137353
-0.0318103
0.137652
-0.0185278
0.135944
-0.00863698
0.133727
-0.00142239
0.00372629
0.131686
0.120832
-0.0474332
0.110462
-0.0214371
0.0998319
-0.00789725
0.0922284
-0.0010334
0.0882398
0.00256385
0.00497609
0.086992
0.0490446
0.027608
0.0197107
0.0186767
0.0212413
0.0262177
0.0490416
0.0474317
0.0276055
0.0214365
0.0197084
0.00789949
0.0186738
0.00103609
0.0212373
-0.00256106
-0.00497308
0.0262123
0.120829
0.0478645
0.110457
0.0318109
0.0998254
0.0185314
0.09222
0.00864045
0.0882319
0.00142631
-0.00372454
0.086982
0.132547
0.0350516
0.137351
0.0270077
0.137648
0.0182304
0.135938
0.0103458
0.133719
0.0036399
-0.00168707
0.131678
0.121456
0.0227156
0.130207
0.0182551
0.135728
0.0127044
0.138723
0.00734433
0.139868
0.00248955
-0.00167728
0.139856
0.10612
0.0129238
0.114182
0.0101909
0.120234
0.0066487
0.124413
0.00316252
0.12691
-6.71528e-06
-0.00276949
0.128002
0.0871542
0.00486146
0.0938923
0.00345236
0.0988794
0.00166261
0.102119
-7.34647e-05
0.103658
-0.00154512
-0.00267137
0.103562
0.0503796
0.0538328
0.0554966
0.0554237
0.0538792
0.0512082
0.0477831
0.00343
0.043946
0.0038387
0.0399872
0.00395943
0.0361091
0.00387791
0.0324412
0.00366752
0.0290622
0.00337871
0.0260153
0.00304698
0.0233163
0.00269944
0.0209609
0.00235594
0.0189321
0.00202925
0.0172057
0.00172658
0.0157543
0.00145135
0.0145497
0.00120443
0.0135644
0.000985093
0.0127724
0.000791783
0.0121497
0.000622632
0.011674
0.00047579
0.0113246
0.00034946
0.0110828
0.000241929
0.0109313
0.000151528
0.0108547
7.66222e-05
0.010839
1.56352e-05
0.010872
-3.29745e-05
0.0109426
-7.07347e-05
0.0110416
-9.90823e-05
0.0111609
-0.000119334
0.0112936
-0.000132806
0.0114342
-0.000140614
0.0115778
-0.000143665
0.0117205
-0.000142819
0.0118594
-0.000138884
0.0119919
-0.000132603
0.0121165
-0.000124635
0.0122319
-0.000115526
0.0123376
-0.000105711
0.012433
-9.55403e-05
0.0125182
-8.52879e-05
0.0125933
-7.5171e-05
0.0126586
-6.5348e-05
0.0127145
-5.5937e-05
0.0127614
-4.701e-05
0.0128
-3.86432e-05
0.0128307
-3.07493e-05
0.0128541
-2.35098e-05
0.0128703
-1.61781e-05
0.0128807
-1.04345e-05
8.78583e-06
0.10201
0.00498804
0.0992463
0.0066035
0.0955329
0.00767322
0.0911082
0.0083024
0.0861938
0.00858149
0.0809956
0.00857657
0.0756991
0.00834344
0.0704646
0.00793426
0.0654249
0.00739621
0.060684
0.00677069
0.0563171
0.00609397
0.0523711
0.00539746
0.0488683
0.00470721
0.0458097
0.0040435
0.0431803
0.00342101
0.0409534
0.0028494
0.0390952
0.00233404
0.0375678
0.00187693
0.0363324
0.00147745
0.0353508
0.00113317
0.034587
0.000840452
0.0340076
0.000594972
0.0335825
0.000392103
0.0332845
0.00022711
0.03309
9.53451e-05
0.0329782
-7.6729e-06
0.0329311
-8.59059e-05
0.0329333
-0.000142868
0.0329715
-0.000181959
0.0330349
-0.00020631
0.0331146
-0.000218689
0.0332035
-0.000221552
0.0332957
-0.000217034
0.033387
-0.000206916
0.0334738
-0.000192675
0.0335537
-0.000175541
0.0336248
-0.000156527
0.033686
-0.000136452
0.0337365
-0.000115959
0.033776
-9.55461e-05
0.0338044
-7.55904e-05
0.033822
-5.63908e-05
0.0338292
-3.80515e-05
0.0338266
-2.09898e-05
0.0338141
-3.86768e-06
0.0337957
7.97333e-06
4.61742e-05
0.127953
0.00504178
0.126948
0.0076093
0.125111
0.0095104
0.122523
0.0108921
0.119264
0.0118414
0.115434
0.0124057
0.111151
0.012626
0.106541
0.0125437
0.101737
0.0122
0.09687
0.0116374
0.0920631
0.0109012
0.0874225
0.0100385
0.0830345
0.00909566
0.0789631
0.00811519
0.0752499
0.00713422
0.071916
0.0061831
0.0689649
0.00528492
0.0663859
0.00445571
0.064158
0.00370518
0.0622533
0.0030377
0.0606403
0.00245346
0.0592856
0.00194961
0.0581566
0.00152117
0.0572217
0.00116191
0.0564521
0.000864916
0.0558212
0.000623112
0.0553057
0.000429537
0.0548852
0.00027753
0.0545421
0.000160974
0.0542615
7.42622e-05
0.0540304
1.23075e-05
0.0538381
-2.93481e-05
0.0536755
-5.45357e-05
0.0535351
-6.66124e-05
0.0534108
-6.84793e-05
0.0532978
-6.25841e-05
0.0531922
-5.0956e-05
0.0530909
-3.52566e-05
0.0529917
-1.68287e-05
0.0528928
3.25071e-06
0.052793
2.41643e-05
0.0526912
4.52609e-05
0.0525869
6.61475e-05
0.0524798
8.59487e-05
0.0523697
0.000106166
0.0522592
0.000118443
0.000162634
0.139204
0.00569922
0.138175
0.00863902
0.136855
0.0108322
0.135226
0.0125226
0.133262
0.0138068
0.130946
0.0147215
0.128278
0.0152924
0.12528
0.0155398
0.121997
0.0154818
0.118492
0.0151423
0.114839
0.0145542
0.11112
0.0137592
0.107411
0.0128048
0.103787
0.0117401
0.100308
0.0106134
0.0970221
0.00946851
0.0939639
0.00834271
0.0911533
0.00726574
0.0885986
0.00625945
0.0862979
0.00533821
0.0842413
0.00450993
0.0824138
0.00377714
0.0807968
0.0031383
0.0793698
0.0025889
0.0781123
0.00212247
0.0770039
0.00173142
0.0760257
0.00140762
0.0751602
0.00114291
0.0743917
0.000929383
0.0737062
0.000759653
0.0730914
0.000626947
0.0725368
0.000525159
0.0720333
0.000448872
0.0715732
0.000393384
0.07115
0.000354653
0.0707582
0.000329239
0.0703929
0.000314247
0.0700504
0.000307273
0.0697271
0.000306347
0.0694205
0.000309873
0.069128
0.000316574
0.0688477
0.000325412
0.0685781
0.000335637
0.0683177
0.000346231
0.0680659
0.000357868
0.0678205
0.000363723
0.000391849
0.130104
0.00728287
0.129102
0.00964262
0.128474
0.0114622
0.128002
0.0129948
0.12753
0.0142788
0.126941
0.0153102
0.126153
0.0160785
0.125124
0.0165677
0.123838
0.0167662
0.122305
0.0166756
0.120547
0.0163124
0.118601
0.0157061
0.116511
0.0148958
0.114324
0.0139275
0.112088
0.0128494
0.109848
0.0117087
0.107641
0.0105485
0.105501
0.00940546
0.103451
0.00830894
0.101508
0.00728073
0.0996826
0.00633538
0.0979787
0.00548113
0.0963962
0.00472092
0.0949316
0.00405362
0.0935791
0.00347509
0.0923314
0.00297915
0.0911805
0.00255842
0.0901183
0.00220494
0.0891369
0.00191065
0.0882286
0.00166776
0.0873864
0.00146892
0.086604
0.00130743
0.0858755
0.00117726
0.0851957
0.00107309
0.08456
0.000990294
0.0839643
0.000924918
0.0834049
0.000873607
0.0828786
0.000833555
0.0823825
0.000802442
0.0819139
0.000778374
0.0814706
0.000759822
0.0810503
0.000745577
0.0806512
0.000734643
0.080271
0.000726362
0.0799091
0.000719558
0.0795577
0.000715231
0.000706603
0.0876422
0.00663365
0.0899161
0.00737016
0.0928169
0.00856167
0.0958399
0.00997065
0.0987123
0.0114049
0.101281
0.0127404
0.103474
0.0138841
0.105271
0.0147692
0.106677
0.0153592
0.10771
0.0156433
0.108392
0.0156303
0.108755
0.0153443
0.108831
0.0148211
0.108654
0.0141045
0.108261
0.013242
0.107689
0.0122807
0.106972
0.0112649
0.106144
0.0102332
0.105234
0.00921808
0.10427
0.00824492
0.103273
0.00733214
0.102263
0.00649183
0.101253
0.00573063
0.100256
0.00505069
0.0992808
0.00445072
0.0983331
0.00392694
0.0974175
0.00347388
0.0965372
0.00308512
0.0956939
0.00275379
0.0948885
0.002473
0.0941211
0.00223609
0.0933915
0.00203687
0.092699
0.00186967
0.0920426
0.00172947
0.091421
0.00161181
0.090833
0.00151289
0.0902771
0.00142942
0.089752
0.00135867
0.0892561
0.00129833
0.0887879
0.00124654
0.0883458
0.00120177
0.0879285
0.00116286
0.0875342
0.00112876
0.0871609
0.00109951
0.0868087
0.0010719
0.0864664
0.00105741
0.0010053
0.0329571
-0.000105125
0.0401249
0.000201278
0.0468248
0.00185846
0.0529473
0.0038451
0.0585299
0.00582019
0.0636044
0.00766428
0.068208
0.00927917
0.0723727
0.0106035
0.0761197
0.0116116
0.0794645
0.0122986
0.0824208
0.0126746
0.0850032
0.0127626
0.0872274
0.0125975
0.0891112
0.0122211
0.0906746
0.0116785
0.0919407
0.0110144
0.0929349
0.0102704
0.0936844
0.00948356
0.0942174
0.0086852
0.094562
0.00790062
0.0947455
0.00714904
0.0947938
0.00644401
0.0947308
0.00579414
0.094578
0.00520386
0.0943546
0.00467434
0.0940774
0.00420423
0.0937608
0.00379047
0.093417
0.00342882
0.0930562
0.00311447
0.0926868
0.0028423
0.0923155
0.00260729
0.0919476
0.0024046
0.0915875
0.00222976
0.0912381
0.00207874
0.090902
0.00194794
0.0905806
0.00183422
0.0902751
0.00173489
0.0899861
0.00164765
0.0897139
0.00157056
0.0894583
0.00150205
0.0892192
0.00144082
0.088996
0.00138595
0.0887882
0.00133645
0.0885946
0.00129309
0.0884154
0.00125101
0.0882427
0.00123013
0.00114737
0.00517108
-0.00527691
0.0102736
-0.004906
0.0148068
-0.00267877
0.0192661
-0.000617408
0.0237889
0.00129458
0.0283662
0.0030847
0.0329658
0.00467787
0.0375436
0.00602471
0.0420465
0.00710838
0.04642
0.00792531
0.0506129
0.00848206
0.0545815
0.00879455
0.0582908
0.00888854
0.061715
0.00879719
0.0648379
0.00855591
0.067653
0.00819977
0.0701621
0.00776173
0.072375
0.00727131
0.0743071
0.00675383
0.0759785
0.00623003
0.0774121
0.00571617
0.0786326
0.00522423
0.0796649
0.00476243
0.0805334
0.00433579
0.0812612
0.00394677
0.0818698
0.00359579
0.0823785
0.00328182
0.0828045
0.00300284
0.0831628
0.00275618
0.0834662
0.00253884
0.0837257
0.00234772
0.0839505
0.00217977
0.0841482
0.00203209
0.0843249