/*--------------------------------*- C++ -*----------------------------------*\
| =========                 |                                                 |
| \\      /  F ield         | OpenFOAM: The Open Source CFD Toolbox           |
|  \\    /   O peration     | Version:  2406                                  |
|   \\  /    A nd           | Website:  www.openfoam.com                      |
|    \\/     M anipulation  |                                                 |
\*---------------------------------------------------------------------------*/
FoamFile
{
    version     2.0;
    format      ascii;
    arch        "LSB;label=32;scalar=64";
    class       volScalarField;
    location    "62";
    object      p;
}
// * * * * * * * * * * * * * * * * * * * * * * * * * * * * * * * * * * * * * //

dimensions      [0 2 -2 0 0 0 0];

internalField   nonuniform List<scalar> 
1900
(
-0.0419597
-0.0446796
-0.048776
-0.053624
-0.0591532
-0.0654035
-0.0723889
-0.0801946
-0.0889042
-0.0988994
-0.0385182
-0.0432827
-0.0484801
-0.053509
-0.0590015
-0.0652015
-0.0720408
-0.0794807
-0.0874767
-0.0956133
-0.0353276
-0.0416275
-0.0477556
-0.0527824
-0.0579829
-0.0638538
-0.0701862
-0.0767042
-0.0830565
-0.0884835
-0.0320847
-0.0389963
-0.0456674
-0.0507183
-0.0556217
-0.0610532
-0.0667419
-0.0723015
-0.0773993
-0.0815684
-0.0288263
-0.0359494
-0.0428438
-0.0478494
-0.0524528
-0.0574285
-0.0625134
-0.0673156
-0.0715958
-0.0751085
-0.0260101
-0.033135
-0.0399374
-0.0447492
-0.0490664
-0.0536605
-0.0582743
-0.0625511
-0.0663338
-0.0695109
-0.0241488
-0.0310606
-0.03748
-0.0419953
-0.0460897
-0.0504201
-0.0547187
-0.0586832
-0.062214
-0.0652644
-0.0236581
-0.0299509
-0.0357345
-0.0400029
-0.0440103
-0.0481986
-0.0523184
-0.0561396
-0.0595899
-0.0626368
-0.0249133
-0.0297101
-0.0345892
-0.0388107
-0.042947
-0.0471494
-0.0512375
-0.0550575
-0.0585419
-0.0616502
-0.0278343
-0.0306579
-0.0345153
-0.0386055
-0.0427867
-0.0469943
-0.0510938
-0.0549588
-0.0585074
-0.0616864
-0.0856909
-0.0858814
-0.0860134
-0.0859997
-0.0858461
-0.0855635
-0.0851552
-0.084619
-0.0839502
-0.0831428
-0.0821913
-0.0810903
-0.079835
-0.0784212
-0.0768451
-0.0751035
-0.0731939
-0.0711143
-0.0688639
-0.0664429
-0.0638529
-0.0610971
-0.0581807
-0.0551112
-0.0518982
-0.0485541
-0.0450936
-0.0415345
-0.037897
-0.034204
-0.0304804
-0.0267527
-0.0230489
-0.0193972
-0.0158261
-0.0854779
-0.0856746
-0.085785
-0.0857485
-0.0855883
-0.0853127
-0.0849186
-0.0843997
-0.0837492
-0.0829604
-0.0820273
-0.0809446
-0.0797077
-0.0783125
-0.0767555
-0.0750337
-0.0731447
-0.0710867
-0.068859
-0.0664616
-0.0638963
-0.0611661
-0.058276
-0.0552329
-0.0520462
-0.0487278
-0.0452926
-0.0417577
-0.0381433
-0.0344717
-0.0307675
-0.0270571
-0.0233683
-0.0197293
-0.0161683
-0.0853676
-0.0855951
-0.0857033
-0.0856522
-0.0854898
-0.0852239
-0.0848462
-0.0843465
-0.083716
-0.082947
-0.0820334
-0.08097
-0.0797523
-0.0783766
-0.0768396
-0.0751384
-0.0732707
-0.0712348
-0.0690298
-0.0666556
-0.0641136
-0.0614064
-0.0585386
-0.0555167
-0.0523499
-0.04905
-0.0456314
-0.0421112
-0.0385091
-0.0348474
-0.0311507
-0.0274454
-0.0237595
-0.0201212
-0.0165591
-0.0855696
-0.0858205
-0.0859286
-0.0858669
-0.0857023
-0.0854414
-0.0850721
-0.0845819
-0.0839611
-0.0832017
-0.0822976
-0.081244
-0.0800367
-0.0786721
-0.0771472
-0.075459
-0.0736051
-0.0715836
-0.0693932
-0.0670334
-0.0645051
-0.0618104
-0.0589538
-0.0559417
-0.0527829
-0.0494888
-0.0460737
-0.0425545
-0.0389509
-0.0352854
-0.0315831
-0.0278715
-0.0241787
-0.0205337
-0.0169653
-0.0862297
-0.0864522
-0.0865172
-0.0864162
-0.0862249
-0.0859449
-0.08556
-0.0850566
-0.0844242
-0.083655
-0.0827431
-0.0816839
-0.0804733
-0.0791076
-0.0775834
-0.0758975
-0.0740471
-0.0720298
-0.0698438
-0.0674879
-0.064963
-0.0622711
-0.0594162
-0.0564046
-0.0532451
-0.0499497
-0.0465325
-0.0430103
-0.0394034
-0.0357346
-0.0320294
-0.028315
-0.0246204
-0.0209752
-0.0174087
-0.0874758
-0.087558
-0.0874727
-0.087254
-0.0869767
-0.0866304
-0.0861915
-0.0856433
-0.0849736
-0.0841732
-0.0832353
-0.0821548
-0.0809268
-0.0795471
-0.0780117
-0.0763173
-0.0744602
-0.0724379
-0.0702484
-0.0678898
-0.0653624
-0.0626681
-0.0598108
-0.0567965
-0.0536342
-0.0503355
-0.0469154
-0.0433918
-0.0397856
-0.0361204
-0.0324224
-0.0287197
-0.0250415
-0.0214174
-0.017877
-0.0894464
-0.0891584
-0.0887054
-0.0882248
-0.0877698
-0.0872973
-0.0867649
-0.0861457
-0.0854217
-0.0845798
-0.0836097
-0.0825036
-0.0812553
-0.0798599
-0.0783119
-0.0766066
-0.0747394
-0.0727068
-0.0705066
-0.0681377
-0.0656002
-0.0628965
-0.0600308
-0.0570099
-0.0538434
-0.0505441
-0.0471277
-0.0436131
-0.0400223
-0.0363796
-0.032712
-0.0290478
-0.0254163
-0.0218469
-0.0183685
-0.0926065
-0.0912688
-0.0899784
-0.0890426
-0.088331
-0.0877001
-0.0870679
-0.0863852
-0.0856173
-0.0847425
-0.083748
-0.0826232
-0.0813589
-0.0799478
-0.0783836
-0.0766616
-0.0747774
-0.072728
-0.0705111
-0.0681263
-0.0655745
-0.0628588
-0.0599845
-0.0569597
-0.0537954
-0.0505055
-0.0471073
-0.043621
-0.0400696
-0.0364784
-0.0328746
-0.0292864
-0.0257427
-0.0222716
-0.0189004
-0.099033
-0.0940834
-0.0908931
-0.0893866
-0.0884394
-0.0876563
-0.08695
-0.0862415
-0.0854624
-0.0845794
-0.0835763
-0.0824398
-0.0811601
-0.0797303
-0.0781456
-0.0764016
-0.0744946
-0.0724218
-0.0701821
-0.0677764
-0.0652074
-0.0624799
-0.0596011
-0.056581
-0.0534322
-0.0501704
-0.0468144
-0.0433857
-0.0399082
-0.0364074
-0.0329103
-0.0294443
-0.0260364
-0.0227128
-0.0194978
-0.10973
-0.0972612
-0.0911269
-0.0892468
-0.0882127
-0.0872805
-0.0864937
-0.0857681
-0.0849818
-0.0840843
-0.083063
-0.0819069
-0.0806039
-0.0791466
-0.0775312
-0.0757551
-0.0738157
-0.0717116
-0.0694435
-0.0670145
-0.0644299
-0.0616972
-0.0588259
-0.0558281
-0.0527185
-0.0495142
-0.0462352
-0.0429035
-0.0395432
-0.0361792
-0.0328372
-0.0295425
-0.0263194
-0.0231905
-0.0201767
-0.10467
-0.096216
-0.0902907
-0.0885561
-0.0876807
-0.0866902
-0.085791
-0.0849979
-0.0841695
-0.0832299
-0.0821646
-0.0809653
-0.0796191
-0.0781175
-0.0764577
-0.0746388
-0.0726602
-0.0705224
-0.0682283
-0.0657836
-0.0631965
-0.0604774
-0.0576384
-0.0546934
-0.0516586
-0.0485519
-0.0453935
-0.042205
-0.0390093
-0.0358297
-0.0326893
-0.02961
-0.0266124
-0.0237149
-0.0209337
-0.098825
-0.0941465
-0.0894801
-0.0875773
-0.086645
-0.0856515
-0.0846696
-0.0837802
-0.0828816
-0.0818842
-0.0807609
-0.0795042
-0.0781045
-0.0765543
-0.074851
-0.0729949
-0.0709872
-0.0688305
-0.0665303
-0.0640949
-0.0615352
-0.058864
-0.0560954
-0.0532445
-0.050328
-0.0473637
-0.0443706
-0.0413691
-0.0383795
-0.0354223
-0.0325169
-0.0296814
-0.0269317
-0.0242818
-0.0217431
-0.0909922
-0.089607
-0.0870674
-0.0855183
-0.0846383
-0.0837621
-0.0828224
-0.0819042
-0.0809696
-0.079942
-0.0787853
-0.0774924
-0.0760599
-0.0744839
-0.0727629
-0.0708977
-0.0688914
-0.0667489
-0.0644784
-0.0620907
-0.0595989
-0.0570173
-0.0543609
-0.0516453
-0.0488864
-0.046101
-0.0433063
-0.0405199
-0.0377592
-0.035041
-0.0323807
-0.029792
-0.0272866
-0.0248742
-0.0225622
-0.0840187
-0.0842583
-0.0832443
-0.0822916
-0.081644
-0.0809997
-0.0802471
-0.0794295
-0.0785455
-0.0775491
-0.0764113
-0.075129
-0.073706
-0.0721437
-0.0704427
-0.0686056
-0.0666377
-0.0645467
-0.0623435
-0.0600408
-0.0576528
-0.0551945
-0.0526807
-0.0501263
-0.047546
-0.0449547
-0.0423671
-0.039798
-0.0372614
-0.0347702
-0.0323361
-0.0299692
-0.0276774
-0.0254672
-0.0233431
-0.0774996
-0.0785469
-0.0786237
-0.0784026
-0.0781711
-0.0778527
-0.077373
-0.0767459
-0.0759843
-0.0750746
-0.0740056
-0.0727811
-0.07141
-0.0698985
-0.0682511
-0.0664733
-0.0645733
-0.0625618
-0.0604515
-0.0582565
-0.055991
-0.0536695
-0.0513061
-0.0489141
-0.0465068
-0.0440968
-0.0416967
-0.0393183
-0.0369726
-0.0346696
-0.0324179
-0.0302248
-0.0280959
-0.0260355
-0.0240467
-0.0719249
-0.073478
-0.074311
-0.0747312
-0.0749386
-0.0749537
-0.0747512
-0.0743382
-0.073733
-0.0729435
-0.0719752
-0.0708383
-0.0695452
-0.0681065
-0.0665309
-0.064828
-0.0630091
-0.0610871
-0.0590757
-0.0569891
-0.0548411
-0.0526451
-0.050414
-0.0481598
-0.0458941
-0.043628
-0.041372
-0.0391358
-0.0369285
-0.0347578
-0.0326307
-0.0305526
-0.0285281
-0.0265606
-0.0246527
-0.0677604
-0.0696499
-0.0709799
-0.0718809
-0.0724663
-0.0727763
-0.0728169
-0.0726011
-0.0721512
-0.0714865
-0.0706233
-0.0695774
-0.0683646
-0.0669992
-0.0654942
-0.0638627
-0.0621183
-0.060275
-0.058347
-0.0563478
-0.0542906
-0.0521878
-0.0500512
-0.047892
-0.0457207
-0.0435472
-0.041381
-0.0392306
-0.0371037
-0.0350073
-0.0329473
-0.0309288
-0.0289557
-0.0270317
-0.0251591
-0.065234
-0.0673479
-0.068989
-0.0702087
-0.0710631
-0.0715877
-0.0718036
-0.0717327
-0.0714009
-0.0708331
-0.0700513
-0.0690755
-0.0679242
-0.0666144
-0.0651619
-0.063582
-0.0618896
-0.060099
-0.0582242
-0.0562783
-0.0542739
-0.0522229
-0.0501366
-0.0480256
-0.0459002
-0.0437697
-0.0416431
-0.0395284
-0.0374331
-0.0353636
-0.0333258
-0.0313247
-0.0293645
-0.0274487
-0.0255803
-0.0643442
-0.0665989
-0.0684123
-0.0698045
-0.0708059
-0.0714473
-0.0717569
-0.0717629
-0.071494
-0.0709771
-0.070237
-0.0692956
-0.0681732
-0.0668884
-0.0654582
-0.063899
-0.0622259
-0.0604535
-0.0585955
-0.056665
-0.0546741
-0.0526348
-0.0505583
-0.048455
-0.0463351
-0.044208
-0.0420824
-0.0399664
-0.0378674
-0.0357919
-0.0337459
-0.0317345
-0.0297621
-0.0278326
-0.025949
-0.0644574
-0.0667959
-0.0686938
-0.0701615
-0.0712227
-0.0719081
-0.07225
-0.0722795
-0.0720269
-0.0715205
-0.070786
-0.069847
-0.0687246
-0.0674381
-0.0660053
-0.0644426
-0.0627652
-0.0609875
-0.0591232
-0.0571852
-0.0551858
-0.0531368
-0.0510495
-0.0489343
-0.0468015
-0.0446603
-0.0425196
-0.0403876
-0.0382715
-0.0361782
-0.0341137
-0.0320833
-0.0300914
-0.0281422
-0.0262389
-0.0123631
-0.00903404
-0.00586281
-0.00287049
-7.48861e-05
0.00250989
0.00487343
0.00700939
0.00891555
0.0105926
-0.0127131
-0.00938946
-0.00622124
-0.00322977
-0.000433239
0.0021543
0.00452217
0.00666344
0.00857562
0.0102598
-0.0131014
-0.00977449
-0.00660272
-0.00360766
-0.000807016
0.00178499
0.00415777
0.00630461
0.00822287
0.00991357
-0.0135017
-0.0101694
-0.00699278
-0.00399369
-0.00119022
0.0014033
0.00377648
0.005923
0.00784048
0.00953031
-0.0139494
-0.0106242
-0.00745737
-0.00447035
-0.00168086
0.000897312
0.00325443
0.00538487
0.00728697
0.00896281
-0.0144483
-0.0111579
-0.00802925
-0.00508289
-0.00233548
0.000200344
0.00251608
0.00460733
0.00647359
0.00811798
-0.0150082
-0.0117911
-0.00873926
-0.00587134
-0.00320214
-0.00074237
0.00150135
0.00352637
0.00533378
0.00692795
-0.0156544
-0.0125561
-0.009625
-0.00687713
-0.00432452
-0.00197528
0.000166389
0.00209998
0.0038283
0.00535712
-0.0164136
-0.0134794
-0.0107113
-0.00812146
-0.00571879
-0.00350832
-0.00149159
0.000333034
0.00197005
0.00342633
-0.0172957
-0.0145627
-0.0119894
-0.00958437
-0.00735283
-0.00529681
-0.0034154
-0.00170511
-0.000160272
0.00122653
-0.018282
-0.0157705
-0.0134068
-0.0111956
-0.00913905
-0.00723663
-0.00548561
-0.0038814
-0.00241787
-0.00108782
-0.0193246
-0.0170327
-0.0148715
-0.0128428
-0.0109464
-0.00918021
-0.00754056
-0.00602264
-0.0046207
-0.0033284
-0.020356
-0.018259
-0.0162727
-0.0143972
-0.0126309
-0.0109713
-0.00941469
-0.00795684
-0.00659303
-0.00531829
-0.0213082
-0.019364
-0.0175108
-0.015748
-0.0140738
-0.012486
-0.0109815
-0.00955731
-0.00820993
-0.00693593
-0.0221314
-0.0202905
-0.018524
-0.0168314
-0.0152115
-0.0136627
-0.0121831
-0.0107708
-0.00942348
-0.00813922
-0.022806
-0.0210217
-0.0193
-0.0176409
-0.0160441
-0.0145087
-0.0130338
-0.0116184
-0.0102612
-0.00896119
-0.0233401
-0.0215759
-0.0198677
-0.0182158
-0.0166205
-0.0150816
-0.0135989
-0.0121717
-0.0107999
-0.00948262
-0.0237615
-0.0219943
-0.0202798
-0.0186191
-0.0170125
-0.0154607
-0.0139633
-0.0125206
-0.0111322
-0.00979787
-0.024114
-0.0223295
-0.0205971
-0.018918
-0.0172929
-0.0157223
-0.0142064
-0.0127454
-0.011339
-0.00998712
-0.0243841
-0.02258
-0.0208283
-0.0191302
-0.0174865
-0.0158979
-0.0143646
-0.0128868
-0.0114643
-0.010097
0.0120447
0.0132791
0.0143058
0.0151366
0.0157849
0.0162654
0.016593
0.0167832
0.0168512
0.0168118
0.0166789
0.0164658
0.0161846
0.0158466
0.0154616
0.0150385
0.014585
0.0141078
0.0136127
0.0131045
0.012587
0.0120636
0.0115368
0.0110086
0.0104805
0.00995356
0.00942854
0.00890586
0.00838573
0.00786816
0.00735303
0.00684011
0.00632911
0.00581967
0.00531144
0.0117202
0.0129643
0.0140017
0.0148443
0.0155054
0.0159994
0.0163413
0.0165463
0.0166294
0.0166053
0.0164878
0.01629
0.0160239
0.0157006
0.0153297
0.0149202
0.0144797
0.0140147
0.013531
0.0130333
0.0125257
0.0120112
0.0114925
0.0109717
0.0104502
0.00992917
0.00940937
0.00889128
0.00837516
0.00786107
0.00734894
0.0068386
0.00632978
0.0058222
0.00531551
0.0113811
0.0126328
0.0136785
0.0145302
0.0152011
0.0157058
0.0160592
0.0162765
0.0163726
0.0163621
0.0162588
0.0160755
0.0158243
0.0155158
0.0151598
0.0147649
0.0143387
0.0138876
0.0134173
0.0129324
0.0124369
0.0119338
0.0114257
0.0109147
0.0104022
0.00988937
0.00937703
0.00886566
0.00835554
0.00784678
0.00733933
0.00683308
0.0063278
0.00582325
0.00531914
0.0109972
0.012249
0.0132957
0.0141495
0.0148242
0.0153342
0.0156946
0.0159207
0.0160274
0.0160291
0.0159393
0.015771
0.0155357
0.015244
0.0149054
0.0145284
0.0141201
0.013687
0.0132344
0.0127668
0.012288
0.0118009
0.0113081
0.0108114
0.0103124
0.00981215
0.00931135
0.00881053
0.00831001
0.00780989
0.00731018
0.00681079
0.00631154
0.00581222
0.00531258
0.0104178
0.0116602
0.0127006
0.0135517
0.0142272
0.0147417
0.0151104
0.0153484
0.0154702
0.0154902
0.0154214
0.0152764
0.0150662
0.0148012
0.0144904
0.0141417
0.0137621
0.0133576
0.0129332
0.0124931
0.0120409
0.0115795
0.011111
0.0106374
0.0101599
0.00967971
0.00919744
0.00871362
0.00822857
0.00774244
0.00725529
0.00676706
0.00627763
0.00578685
0.00529454
0.00954677
0.010769
0.0117957
0.0126397
0.013315
0.013836
0.0142176
0.0144744
0.0146205
0.0146695
0.014634
0.0145256
0.0143548
0.0141311
0.013863
0.0135578
0.0132218
0.0128606
0.0124787
0.01208
0.0116677
0.0112444
0.0108122
0.0103727
0.00992716
0.00947661
0.00902173
0.00856304
0.0081009
0.0076355
0.00716695
0.00669525
0.00622037
0.00574225
0.00526083
0.0083162
0.00950818
0.0105154
0.0113507
0.0120278
0.0125608
0.0129636
0.0132503
0.0134338
0.0135267
0.0135405
0.0134858
0.0133721
0.0132079
0.0130006
0.0127567
0.012482
0.0121811
0.0118582
0.0115166
0.011159
0.0107879
0.010405
0.0100119
0.00960965
0.00919922
0.00878136
0.0083566
0.00792534
0.00748781
0.0070442
0.00659465
0.00613926
0.00567811
0.00521128
0.00669465
0.00785102
0.00883778
0.00966745
0.010353
0.0109077
0.0113443
0.0116753
0.0119125
0.0120669
0.0121486
0.0121666
0.0121291
0.0120434
0.0119158
0.0117518
0.011556
0.0113325
0.0110847
0.0108155
0.0105271
0.0102216
0.00990061
0.00956539
0.00921711
0.0088567
0.00848486
0.00810211
0.00770891
0.00730566
0.00689272
0.00647037
0.00603891
0.00559859
0.00514965
0.00471061
0.00583306
0.00680479
0.00763745
0.00834286
0.00893266
0.00941812
0.0098099
0.010118
0.0103515
0.0105187
0.0106271
0.0106832
0.0106929
0.0106612
0.0105925
0.0104905
0.0103583
0.0101988
0.0100141
0.00980629
0.00957693
0.00932752
0.00905929
0.00877324
0.0084702
0.00815089
0.007816
0.00746617
0.00710194
0.00672386
0.00633243
0.0059281
0.00551137
0.00508267
0.00246398
0.00356168
0.00452972
0.00537831
0.00611755
0.00675716
0.00730636
0.00777374
0.00816716
0.00849377
0.00875995
0.00897137
0.00913299
0.00924916
0.00932364
0.00935968
0.00936007
0.0093272
0.00926315
0.00916969
0.00904846
0.00890084
0.00872805
0.00853113
0.00831105
0.00806875
0.00780509
0.00752089
0.00721693
0.00689394
0.00655266
0.00619379
0.00581804
0.00542608
0.0050186
0.000116752
0.00120421
0.00218305
0.00306162
0.00384793
0.00454954
0.00517345
0.00572607
0.00621317
0.00663987
0.00701073
0.00732973
0.00760034
0.00782556
0.008008
0.00814993
0.0082533
0.00831984
0.00835109
0.00834839
0.00831298
0.00824604
0.00814867
0.00802193
0.00786684
0.00768437
0.00747548
0.00724112
0.00698223
0.00669972
0.00639454
0.00606758
0.00571977
0.005352
0.00496519
-0.0021391
-0.00104609
-4.28416e-05
0.00087693
0.00171908
0.002489
0.00319157
0.00383115
0.00441162
0.00493636
0.00540832
0.00583004
0.00620376
0.00653138
0.00681459
0.00705487
0.00725349
0.00741153
0.00753007
0.00761027
0.00765324
0.00766002
0.00763161
0.00756902
0.00747328
0.00734544
0.00718653
0.00699765
0.00677987
0.00653428
0.006262
0.00596411
0.00564173
0.00529594
0.00492784
-0.00412766
-0.00301627
-0.00197953
-0.00101317
-0.000113281
0.000723625
0.00150062
0.00222042
0.00288534
0.00349741
0.00405833
0.00456962
0.00503253
0.00544822
0.00581763
0.00614149
0.00642048
0.00665566
0.00684801
0.00699841
0.00710771
0.00717681
0.00720666
0.00719827
0.00715268
0.00707101
0.00695437
0.00680397
0.006621
0.00640669
0.00616227
0.00588901
0.00558813
0.00526089
0.00490853
-0.005732
-0.00459497
-0.00352193
-0.00251024
-0.00155758
-0.000661884
0.000178559
0.000965269
0.00169948
0.00238227
0.00301453
0.00359704
0.00413045
0.00461516
0.00505144
0.00544008
0.00578186
0.00607745
0.00632744
0.00653253
0.00669346
0.00681109
0.00688633
0.00692021
0.00691379
0.00686821
0.00678468
0.00666446
0.00650881
0.00631907
0.00609656
0.00584264
0.00555866
0.00524596
0.00490587
-0.00691589
-0.00575176
-0.00464506
-0.00359442
-0.00259848
-0.00165626
-0.000766778
7.06026e-05
0.000856581
0.00159155
0.00227602
0.00291007
0.00349381
0.0040276
0.00451209
0.0049476
0.00533457
0.00567337
0.00596457
0.00620872
0.00640661
0.00655899
0.00666684
0.0067311
0.00675292
0.00673339
0.00667383
0.00657545
0.00643965
0.00626774
0.00606118
0.00582132
0.00554962
0.00524744
0.00491622
-0.00771726
-0.00652842
-0.00539379
-0.0043126
-0.0032842
-0.00230809
-0.00138382
-0.000511081
0.000310404
0.00108072
0.00179981
0.00246786
0.00308518
0.003652
0.0041685
0.00463489
0.00505146
0.00541859
0.00573678
0.00600661
0.00622877
0.00640407
0.0065334
0.00661777
0.00665826
0.00665605
0.00661239
0.00652859
0.006406
0.00624603
0.0060501
0.00581965
0.00555612
0.00526094
0.00493554
-0.00821949
-0.00700979
-0.00585328
-0.00474931
-0.00369776
-0.00269815
-0.00175046
-0.000854394
-1.0157e-05
0.000782509
0.00152357
0.00221334
0.0028517
0.0034389
0.0039749
0.00446008
0.00489456
0.00527888
0.00561335
0.00589871
0.0061355
0.00632465
0.00646693
0.00656347
0.00661522
0.0066235
0.00658943
0.00651447
0.00639984
0.0062471
0.00605755
0.00583278
0.0055741
0.00528311
0.00496108
-0.00851721
-0.00729008
-0.00611599
-0.00499485
-0.00392625
-0.00291019
-0.00194641
-0.001035
-0.000175679
0.000631464
0.00138664
0.00208972
0.00274093
0.00334018
0.0038878
0.00438385
0.00482879
0.00522284
0.00556665
0.00586065
0.00610569
0.00630242
0.00645189
0.00655497
0.00661289
0.00662671
0.00659782
0.00652743
0.00641703
0.00626792
0.00608169
0.00585966
0.00560343
0.00531433
0.00499389
-0.00868957
-0.00744606
-0.00625636
-0.00512022
-0.00403745
-0.00300786
-0.00203132
-0.00110771
-0.000236949
0.000581023
0.00134624
0.00205878
0.00271872
0.00332618
0.00388133
0.00438443
0.00483579
0.00523583
0.00558504
0.00588404
0.00613355
0.00633438
0.00648745
0.0065938
0.00665454
0.00667087
0.00664408
0.00657551
0.00646656
0.00631866
0.00613329
0.00591193
0.00565605
0.00536712
0.00504659
-0.00878482
-0.00752738
-0.00632446
-0.00517583
-0.00408128
-0.00304063
-0.00205372
-0.00112042
-0.000240647
0.000585672
0.0013586
0.00207824
0.00274468
0.00335807
0.0039186
0.00442655
0.00488225
0.00528613
0.00563872
0.00594066
0.00619267
0.00639559
0.00655039
0.0066581
0.00671986
0.0067369
0.00671053
0.00664211
0.00653307
0.00638487
0.00619899
0.00597695
0.00572024
0.00543035
0.00510875
0.00480404
0.0042971
0.00379029
0.00328332
0.00277595
0.00226805
0.00175964
0.00125083
0.000740445
0.000230326
0.0048094
0.00430352
0.00379759
0.00329132
0.00278451
0.00227697
0.00176885
0.00126015
0.000749166
0.000221073
0.00481517
0.00431105
0.00380651
0.0033013
0.00279519
0.00228797
0.00177973
0.00126983
0.000759878
0.000209628
0.00481238
0.00431135
0.00380926
0.00330586
0.00280096
0.00229425
0.0017859
0.00127407
0.000765877
0.000192563
0.00480051
0.00430457
0.00380654
0.00330622
0.00280348
0.00229794
0.00179012
0.00127663
0.000771369
0.000173729
0.004776
0.00428769
0.00379581
0.00330027
0.00280103
0.00229778
0.00179141
0.00127728
0.000775983
0.000155434
0.00473882
0.00426079
0.00377725
0.00328826
0.00279398
0.00229417
0.00179034
0.0012766
0.000779457
0.000141127
0.00469235
0.00422693
0.00375364
0.00327275
0.00278461
0.00228924
0.0017885
0.00127618
0.0007819
0.00013529
0.00464249
0.00419127
0.0037295
0.00325766
0.00277638
0.00228586
0.00178834
0.0012779
0.000783617
0.000142342
0.0045963
0.00415987
0.00371001
0.00324744
0.00277301
0.00228725
0.00179231
0.00128376
0.000785528
0.000165153
0.00456024
0.00413806
0.00369956
0.00324571
0.0027775
0.00229579
0.00180247
0.00129527
0.000789148
0.000203549
0.00453851
0.00412906
0.00370059
0.00325423
0.00279114
0.00231243
0.00181958
0.0013129
0.000796313
0.0002537
0.00453227
0.00413336
0.00371303
0.00327255
0.00281318
0.00233628
0.0018429
0.00133581
0.00080836
0.0003087
0.00453973
0.00414886
0.00373459
0.00329826
0.00284122
0.00236495
0.00187032
0.00136181
0.000825448
0.000360115
0.00455728
0.00417205
0.00376183
0.00332807
0.00287206
0.00239547
0.00189902
0.00138815
0.00084626
0.000399976
0.0045813
0.0041996
0.0037918
0.00335926
0.00290335
0.0024256
0.00192698
0.00141266
0.000868687
0.000422858
0.00460954
0.00422973
0.00382311
0.00339084
0.00293436
0.00245496
0.00195372
0.00143489
0.000890862
0.000427288
0.0046434
0.00426433
0.00385784
0.00342529
0.00296777
0.00248655
0.00198241
0.00145838
0.000914076
0.000417093
0.00469585
0.00431626
0.0039091
0.00347558
0.0030168
0.00253374
0.00202693
0.0014983
0.000952077
0.000406442
0.00475686
0.00437604
0.0039676
0.00353273
0.00307252
0.00258781
0.00207895
0.00154703
0.0009963
0.000405007
)
;

boundaryField
{
    inlet
    {
        type            zeroGradient;
    }
    outlet
    {
        type            fixedValue;
        value           uniform 0;
    }
    upperWall
    {
        type            zeroGradient;
    }
    lowerWall
    {
        type            zeroGradient;
    }
    frontAndBack
    {
        type            empty;
    }
}


// ************************************************************************* //
