/*--------------------------------*- C++ -*----------------------------------*\
| =========                 |                                                 |
| \\      /  F ield         | OpenFOAM: The Open Source CFD Toolbox           |
|  \\    /   O peration     | Version:  2406                                  |
|   \\  /    A nd           | Website:  www.openfoam.com                      |
|    \\/     M anipulation  |                                                 |
\*---------------------------------------------------------------------------*/
FoamFile
{
    version     2.0;
    format      ascii;
    arch        "LSB;label=32;scalar=64";
    class       surfaceScalarField;
    location    "142";
    object      phi;
}
// * * * * * * * * * * * * * * * * * * * * * * * * * * * * * * * * * * * * * //

dimensions      [0 3 -1 0 0 0 0];

oriented        oriented;

internalField   nonuniform List<scalar> 
3698
(
0.0100389
-0.000288933
0.0104066
-0.000367626
0.010738
-0.00033137
0.0110203
-0.000282282
0.0112567
-0.000236389
0.0114525
-0.000195761
0.0116143
-0.000161766
0.0117487
-0.000134416
0.0118614
-0.000112678
0.0119568
-9.5366e-05
0.0120383
-8.14784e-05
0.0121085
-7.02247e-05
0.0121695
-6.09836e-05
0.0122228
-5.32719e-05
0.0122695
-4.67094e-05
0.0123106
-4.09937e-05
0.0123465
-3.58745e-05
0.0123776
-3.11368e-05
0.0124042
-2.65808e-05
0.0124262
-2.20093e-05
0.0124435
-1.72077e-05
0.0124554
-1.19251e-05
0.0124613
-5.8308e-06
0.0124598
1.52454e-06
0.0124492
1.05549e-05
0.0124276
2.16708e-05
0.0123921
3.55169e-05
0.0123391
5.29712e-05
0.012264
7.51466e-05
0.0121606
0.00010342
0.0120212
0.000139474
0.0118359
0.000185315
0.0115926
0.000243258
0.0112768
0.000315831
0.0108713
0.000405554
0.0103568
0.000514507
0.00971325
0.000643606
0.00892183
0.000791444
0.00796915
0.000952703
0.00685301
0.00111617
0.00559009
0.00126296
0.00422461
0.00136552
0.00283564
0.001389
0.00154365
0.00129203
0.000520958
0.00102274
9.14133e-06
0.000511893
9.15818e-06
0.0276016
-0.000140498
0.0275186
-0.000284632
0.0275056
-0.000318294
0.0275386
-0.000315294
0.0276028
-0.00030058
0.0276851
-0.000278022
0.0277751
-0.000251778
0.0278667
-0.000225917
0.0279562
-0.000202233
0.0280419
-0.000181021
0.0281226
-0.000162159
0.0281979
-0.000145452
0.0282676
-0.000130645
0.0283318
-0.000117441
0.0283906
-0.000105534
0.0284443
-9.46265e-05
0.0284929
-8.44267e-05
0.0285364
-7.46369e-05
0.0285748
-6.4942e-05
0.0286078
-5.49904e-05
0.028635
-4.43752e-05
0.0286557
-3.26063e-05
0.028669
-1.90833e-05
0.0286736
-3.06725e-06
0.0286678
1.63819e-05
0.028649
4.04617e-05
0.0286139
7.06976e-05
0.0285578
0.000109066
0.0284749
0.000158109
0.0283572
0.000221068
0.0281947
0.000302043
0.0279739
0.000406163
0.0276774
0.000539731
0.027283
0.000710317
0.0267619
0.000926699
0.0260779
0.00119851
0.0251862
0.00153538
0.0240325
0.00194511
0.0225547
0.0024306
0.0206863
0.00298456
0.0183676
0.00358176
0.0155656
0.00416758
0.0123093
0.00464527
0.00874247
0.00485897
0.0051683
0.00459702
0.00204758
0.0036327
0.00205677
0.0436853
-7.58268e-05
0.0435922
-0.000191444
0.0435168
-0.000242892
0.0434611
-0.000259592
0.043423
-0.000262472
0.0434015
-0.000256525
0.0433939
-0.000244142
0.0433966
-0.000228621
0.0434068
-0.000212358
0.0434222
-0.000196393
0.0434411
-0.000181105
0.0434624
-0.000166671
0.0434849
-0.000153143
0.0435079
-0.000140456
0.0435309
-0.00012846
0.0435532
-0.000116952
0.0435745
-0.00010569
0.0435943
-9.43843e-05
0.043612
-8.2689e-05
0.0436272
-7.01825e-05
0.0436392
-5.63435e-05
0.0436472
-4.05188e-05
0.04365
-2.18787e-05
0.0436463
6.29847e-07
0.0436343
2.83638e-05
0.0436117
6.30897e-05
0.0435754
0.000107098
0.0435211
0.000163365
0.0434435
0.000235755
0.0433353
0.000329266
0.043187
0.000450336
0.042986
0.000607203
0.0427154
0.000810326
0.0423529
0.00107283
0.0418688
0.0014109
0.0412232
0.00184408
0.0403636
0.00239506
0.03922
0.00308873
0.037701
0.00394954
0.0356898
0.00499578
0.0330424
0.00622922
0.0295954
0.00761466
0.0251896
0.00905109
0.0197323
0.0103163
0.0132974
0.011032
0.006281
0.0106492
0.00833777
0.0577218
-4.75737e-05
0.0576604
-0.00013008
0.0575976
-0.000180086
0.0575421
-0.000204056
0.0574939
-0.000214237
0.0574534
-0.000215986
0.0574205
-0.000211256
0.0573942
-0.000202276
0.057373
-0.000191211
0.057356
-0.000179367
0.0573423
-0.000167364
0.0573311
-0.000155523
0.057322
-0.000144013
0.0573145
-0.000132871
0.057308
-0.00012202
0.0573024
-0.0001113
0.0572972
-0.000100484
0.0572921
-8.92765e-05
0.0572867
-7.73027e-05
0.0572807
-6.40879e-05
0.0572734
-4.90299e-05
0.0572642
-3.13595e-05
0.0572525
-1.00894e-05
0.057237
1.60575e-05
0.0572167
4.87398e-05
0.0571897
9.01222e-05
0.0571538
0.000143034
0.057106
0.000211179
0.0570423
0.000299402
0.0569576
0.00041404
0.0568446
0.000563364
0.0566936
0.000758149
0.0564916
0.00101239
0.0562203
0.00134418
0.0558544
0.00177679
0.0553587
0.00233982
0.0546832
0.00307053
0.0537572
0.00401475
0.0524796
0.00522718
0.0507064
0.00676904
0.0482331
0.00870249
0.0447771
0.0110707
0.0399572
0.0138711
0.0333145
0.016959
0.0243748
0.0199717
0.0129048
0.0221192
0.0212426
0.0697344
-3.1962e-05
0.0696949
-9.05336e-05
0.0696474
-0.000132596
0.0696005
-0.000157176
0.0695562
-0.000169863
0.0695151
-0.00017491
0.0694781
-0.000174203
0.0694451
-0.000169282
0.0694157
-0.000161788
0.0693893
-0.000152953
0.0693654
-0.000143475
0.0693436
-0.000133736
0.0693236
-0.000123953
0.0693049
-0.000114218
0.0692874
-0.000104506
0.0692708
-9.46946e-05
0.0692549
-8.45783e-05
0.0692396
-7.38728e-05
0.0692245
-6.22014e-05
0.0692095
-4.90753e-05
0.0691943
-3.38639e-05
0.0691787
-1.57529e-05
0.0691623
6.31262e-06
0.0691447
3.3706e-05
0.0691252
6.82196e-05
0.0691032
0.000112201
0.0690775
0.000168735
0.0690468
0.00024188
0.0690092
0.000336986
0.0689622
0.000461108
0.068902
0.000623566
0.0688235
0.000836675
0.0687192
0.00111673
0.068578
0.00148532
0.0683838
0.00197104
0.0681118
0.00261182
0.0677245
0.0034579
0.0671636
0.00457566
0.0663382
0.00605264
0.0651053
0.00800194
0.0632373
0.0105705
0.0603778
0.0139302
0.0559484
0.0183005
0.0490879
0.0238195
0.038355
0.0307047
0.0220827
0.0383916
0.0433253
0.07974
-2.19871e-05
0.0797129
-6.34005e-05
0.0796763
-9.59383e-05
0.0796364
-0.000117341
0.0795963
-0.000129676
0.079557
-0.000135661
0.0795197
-0.000136885
0.0794849
-0.000134455
0.0794526
-0.000129515
0.0794228
-0.000123055
0.079395
-0.000115727
0.0793692
-0.00010791
0.0793451
-9.98258e-05
0.0793225
-9.15836e-05
0.0793012
-8.31877e-05
0.079281
-7.45478e-05
0.079262
-6.54905e-05
0.0792439
-5.57603e-05
0.0792267
-4.50099e-05
0.0792104
-3.27809e-05
0.079195
-1.84751e-05
0.0791806
-1.31402e-06
0.0791672
1.97172e-05
0.079155
4.59448e-05
0.0791441
7.91068e-05
0.0791348
0.000121488
0.0791275
0.000176104
0.0791224
0.000246939
0.0791201
0.000339279
0.0791211
0.00046015
0.0791258
0.000618918
0.0791344
0.000828119
0.0791465
0.0011046
0.0791607
0.0014711
0.0791733
0.00195854
0.0791759
0.00260915
0.0791526
0.00348123
0.0790727
0.0046556
0.0788791
0.00624624
0.0784684
0.00841265
0.0776485
0.0113904
0.0760837
0.015495
0.0731141
0.0212702
0.0677322
0.0292014
0.0575462
0.0408907
0.0402441
0.0556938
0.0835694
0.0877428
-1.48187e-05
0.0877225
-4.30962e-05
0.087693
-6.64173e-05
0.0876586
-8.2905e-05
0.087622
-9.31041e-05
0.0875849
-9.85053e-05
0.0875483
-0.000100248
0.087513
-9.91269e-05
0.0874794
-9.59088e-05
0.0874476
-9.13066e-05
0.0874178
-8.58431e-05
0.0873897
-7.98425e-05
0.0873634
-7.34958e-05
0.0873387
-6.69008e-05
0.0873156
-6.00719e-05
0.087294
-5.29445e-05
0.0872739
-4.53808e-05
0.0872553
-3.71707e-05
0.0872384
-2.80237e-05
0.0872231
-1.75525e-05
0.0872099
-5.24789e-06
0.0871991
9.55579e-06
0.0871911
2.77297e-05
0.0871866
5.04153e-05
0.0871866
7.91133e-05
0.0871923
0.000115803
0.0872053
0.000163101
0.0872278
0.000224486
0.0872625
0.000304589
0.0873131
0.000409605
0.0873841
0.000547861
0.0874816
0.000730612
0.0876131
0.000973169
0.0877877
0.00129653
0.0880164
0.00172979
0.088312
0.00231364
0.0886873
0.00310591
0.0891533
0.00418964
0.0897123
0.00568719
0.0903461
0.00777886
0.0909864
0.0107502
0.0914644
0.0150169
0.0913296
0.021405
0.0896013
0.0309297
0.0828547
0.0476374
0.0640714
0.0744772
0.147641
0.0937443
-9.11654e-06
0.0937278
-2.66213e-05
0.0937029
-4.14271e-05
0.0936723
-5.23134e-05
0.0936385
-5.93007e-05
0.0936031
-6.31108e-05
0.0935673
-6.44427e-05
0.093532
-6.38156e-05
0.0934978
-6.17035e-05
0.0934651
-5.85572e-05
0.093434
-5.47314e-05
0.0934046
-5.04572e-05
0.093377
-4.58714e-05
0.0933511
-4.10444e-05
0.0933271
-3.59888e-05
0.0933048
-3.0661e-05
0.0932844
-2.49636e-05
0.093266
-1.87455e-05
0.0932498
-1.17959e-05
0.093236
-3.83262e-06
0.0932253
5.51656e-06
0.0932181
1.67396e-05
0.0932154
3.04757e-05
0.0932182
4.7564e-05
0.0932283
6.91092e-05
0.0932475
9.65708e-05
0.0932787
0.000131884
0.0933256
0.000177625
0.093393
0.000237239
0.0934872
0.000315354
0.0936169
0.000418228
0.0937931
0.00055438
0.0940308
0.000735504
0.0943495
0.000977821
0.0947752
0.0013041
0.0953421
0.00174677
0.0960953
0.0023527
0.097094
0.003191
0.0984158
0.00436538
0.100159
0.00603536
0.102458
0.0084511
0.105459
0.012016
0.109461
0.0174033
0.11477
0.0256211
0.123746
0.038661
0.143468
0.0547554
0.0870818
0.204027
0.0977451
-4.18469e-06
0.0977307
-1.22381e-05
0.0977084
-1.90917e-05
0.0976802
-2.41546e-05
0.0976483
-2.73578e-05
0.0976142
-2.89833e-05
0.0975791
-2.93544e-05
0.097544
-2.87257e-05
0.0975096
-2.73222e-05
0.0974765
-2.5359e-05
0.0974447
-2.30113e-05
0.0974147
-2.03962e-05
0.0973864
-1.7583e-05
0.09736
-1.46056e-05
0.0973355
-1.14684e-05
0.097313
-8.14648e-06
0.0972926
-4.58636e-06
0.0972746
-7.05642e-07
0.0972592
3.60998e-06
0.0972469
8.51307e-06
0.0972382
1.42043e-05
0.097234
2.09462e-05
0.0972354
2.90819e-05
0.0972439
3.90616e-05
0.0972615
5.14773e-05
0.097291
6.71109e-05
0.0973359
8.69996e-05
0.097401
0.000112526
0.0974927
0.00014554
0.0976196
0.000188535
0.0977929
0.000244894
0.0980281
0.000319238
0.0983456
0.00041795
0.0987735
0.000549941
0.0993498
0.000727822
0.100127
0.000969732
0.101177
0.00130216
0.102604
0.00176475
0.104552
0.00241713
0.107234
0.00335324
0.110974
0.00471166
0.116266
0.00672339
0.124018
0.00965116
0.135741
0.0138981
0.154723
0.0196791
0.184253
0.025226
0.0383953
0.232939
0.0997454
4.06043e-07
0.099732
1.2045e-06
0.0997109
2.00243e-06
0.0996839
2.8053e-06
0.099653
3.61695e-06
0.0996196
4.44041e-06
0.0995849
5.27897e-06
0.0995501
6.13648e-06
0.0995158
7.0173e-06
0.0994825
7.92608e-06
0.0994506
8.8678e-06
0.0994204
9.8478e-06
0.0993919
1.08719e-05
0.0993654
1.19462e-05
0.0993409
1.30775e-05
0.0993185
1.42729e-05
0.0992983
1.55401e-05
0.0992808
1.68874e-05
0.0992661
1.83238e-05
0.0992547
1.9859e-05
0.0992474
2.15037e-05
0.0992451
2.32696e-05
0.099249
2.517e-05
0.0992609
2.72195e-05
0.0992829
2.94352e-05
0.0993182
3.18367e-05
0.0993708
3.44476e-05
0.099446
3.72968e-05
0.0995512
4.04198e-05
0.0996959
4.38623e-05
0.0998931
4.76838e-05
0.10016
5.19642e-05
0.100522
5.68135e-05
0.101009
6.23871e-05
0.101668
6.89097e-05
0.102561
7.6714e-05
0.103777
8.63056e-05
0.105443
9.84736e-05
0.107746
0.000114482
0.110963
0.000136435
0.115506
0.000167856
0.122015
0.000215206
0.131377
0.000288543
0.144865
0.000410511
0.163945
0.00059896
0.188228
0.000942646
0.00141319
0.225211
0.0997454
4.98739e-06
0.099732
1.4619e-05
0.099711
2.30497e-05
0.0996841
2.96993e-05
0.0996532
3.45064e-05
0.0996199
3.77587e-05
0.0995854
3.97862e-05
0.0995507
4.0851e-05
0.0995165
4.11869e-05
0.0994835
4.10181e-05
0.0994518
4.05294e-05
0.0994218
3.98489e-05
0.0993936
3.9057e-05
0.0993674
3.82e-05
0.0993432
3.72955e-05
0.0993211
3.63327e-05
0.0993014
3.52732e-05
0.0992843
3.4051e-05
0.09927
3.25695e-05
0.0992592
3.06951e-05
0.0992525
2.82483e-05
0.0992508
2.49897e-05
0.0992553
2.06014e-05
0.0992679
1.46625e-05
0.0992907
6.61329e-06
0.0993269
-4.28982e-06
0.0993804
-1.90386e-05
0.0994567
-3.89604e-05
0.0995629
-6.58385e-05
0.0997089
-0.00010208
0.0999075
-0.000150956
0.100176
-0.000216942
0.100539
-0.000306217
0.101029
-0.000427412
0.101691
-0.000592736
0.102587
-0.000819739
0.103808
-0.00113403
0.10548
-0.00157391
0.107792
-0.0021969
0.111022
-0.0030936
0.115586
-0.00439684
0.12213
-0.00632825
0.131551
-0.00913264
0.145138
-0.0131769
0.164367
-0.0186301
0.188802
-0.0234921
-0.0358794
0.226095
0.0977451
9.8908e-06
0.0977308
2.8918e-05
0.0977086
4.5245e-05
0.0976807
5.76612e-05
0.097649
6.6194e-05
0.0976152
7.15709e-05
0.0975805
7.44971e-05
0.0975459
7.54994e-05
0.097512
7.50599e-05
0.0974794
7.36385e-05
0.0974483
7.15992e-05
0.097419
6.91834e-05
0.0973915
6.65388e-05
0.097366
6.37477e-05
0.0973425
6.08354e-05
0.097321
5.77719e-05
0.0973018
5.44742e-05
0.0972851
5.08068e-05
0.0972711
4.65758e-05
0.0972603
4.15171e-05
0.0972533
3.52784e-05
0.0972509
2.73932e-05
0.0972542
1.72462e-05
0.0972649
4.02477e-06
0.0972849
-1.33464e-05
0.0973169
-3.62925e-05
0.0973646
-6.67084e-05
0.0974327
-0.000107123
0.0975278
-0.000160924
0.0976584
-0.000232671
0.097836
-0.00032853
0.098076
-0.000456908
0.0983991
-0.000629348
0.0988336
-0.00086187
0.0994179
-0.00117697
0.100205
-0.00160668
0.101268
-0.00219736
0.102712
-0.00301734
0.104684
-0.00416929
0.107402
-0.00581133
0.111196
-0.00819154
0.11658
-0.0117115
0.124488
-0.0170413
0.136498
-0.0251863
0.156009
-0.0381417
0.186473
-0.0539556
-0.0861778
0.236771
0.0937443
1.5546e-05
0.093728
4.52536e-05
0.0937033
7.00034e-05
0.093673
8.79268e-05
0.0936397
9.95748e-05
0.0936048
0.000106443
0.0935696
0.000109677
0.093535
0.000110079
0.0935017
0.000108424
0.0934699
0.000105431
0.0934399
0.000101634
0.0934117
9.73655e-05
0.0933854
9.28275e-05
0.0933611
8.81286e-05
0.0933386
8.32953e-05
0.0933181
7.82753e-05
0.0932997
7.29445e-05
0.0932834
6.7107e-05
0.0932695
6.0488e-05
0.0932583
5.27166e-05
0.0932503
4.33017e-05
0.0932461
3.15966e-05
0.0932466
1.67515e-05
0.093253
-2.35271e-06
0.0932668
-2.71914e-05
0.0932903
-5.97155e-05
0.0933261
-0.000102511
0.093378
-0.000159019
0.0934509
-0.000233827
0.0935513
-0.000333085
0.0936879
-0.000465063
0.0938719
-0.000640947
0.0941186
-0.000875971
0.0944478
-0.00119104
0.0948859
-0.00161513
0.0954681
-0.00218884
0.0962406
-0.00296986
0.0972645
-0.0040412
0.0986205
-0.00552533
0.100412
-0.00760306
0.102782
-0.0105617
0.105891
-0.0148203
0.110068
-0.021218
0.115664
-0.0307825
0.125206
-0.0476831
0.146151
-0.074901
-0.149999
0.209972
0.0877429
2.26489e-05
0.0877228
6.53648e-05
0.0876936
9.92032e-05
0.0876596
0.000121911
0.0876237
0.000135561
0.0875872
0.000142875
0.0875515
0.000145448
0.0875172
0.000144393
0.0874848
0.000140862
0.0874543
0.000135853
0.087426
0.000130024
0.0873996
0.000123765
0.0873751
0.000117306
0.0873525
0.000110767
0.0873316
0.000104162
0.0873125
9.74127e-05
0.0872951
9.03576e-05
0.0872795
8.27544e-05
0.0872657
7.42689e-05
0.087254
6.44578e-05
0.0872445
5.27376e-05
0.0872378
3.83467e-05
0.0872343
2.0287e-05
0.0872347
-2.7489e-06
0.08724
-3.24804e-05
0.0872515
-7.11715e-05
0.0872708
-0.000121815
0.0873001
-0.000188372
0.0873424
-0.000276104
0.0874014
-0.000392013
0.0874818
-0.000545446
0.0875898
-0.000748923
0.0877331
-0.00101928
0.0879214
-0.00137929
0.0881661
-0.00185992
0.0884808
-0.00250353
0.0888797
-0.00336866
0.0893751
-0.00453666
0.0899723
-0.00612246
0.0906565
-0.00828731
0.0913652
-0.0112704
0.0919375
-0.0153926
0.091932
-0.0212125
0.0903768
-0.0292274
0.0837998
-0.0411061
0.065076
-0.0561772
-0.0849233
0.0797401
3.25407e-05
0.0797132
9.2253e-05
0.079677
0.000135454
0.0796377
0.000161173
0.0795983
0.000175005
0.07956
0.000181205
0.0795238
0.000181665
0.0794903
0.000177933
0.0794595
0.000171653
0.0794313
0.000164066
0.0794054
0.000155877
0.0793817
0.000147474
0.07936
0.000139085
0.0793399
0.000130809
0.0793215
0.00012263
0.0793045
0.000114435
0.0792888
0.000106031
0.0792744
9.71425e-05
0.0792613
8.74055e-05
0.0792494
7.63428e-05
0.0792389
6.33364e-05
0.0792296
4.75845e-05
0.0792219
2.8045e-05
0.0792158
3.35784e-06
0.0792116
-2.82558e-05
0.0792096
-6.91313e-05
0.0792101
-0.00012234
0.0792137
-0.00019193
0.0792208
-0.000283244
0.0792322
-0.00040334
0.0792483
-0.000561546
0.0792696
-0.000770211
0.079296
-0.00104569
0.0793264
-0.00140968
0.0793574
-0.00189095
0.0793817
-0.00252773
0.0793838
-0.00337077
0.0793344
-0.00448724
0.0791779
-0.00596601
0.0788129
-0.0079223
0.0780492
-0.0105066
0.0765526
-0.013896
0.0736599
-0.0183197
0.068359
-0.0239265
0.0582122
-0.0309591
0.0408934
-0.0388584
-0.0440299
0.0697345
4.80519e-05
0.0696953
0.000131506
0.0696483
0.000182456
0.0696021
0.000207367
0.0695586
0.000218487
0.0695187
0.000221177
0.0694829
0.000217397
0.0694515
0.00020938
0.0694239
0.000199296
0.0693995
0.000188458
0.0693779
0.000177491
0.0693587
0.000166723
0.0693414
0.00015633
0.0693259
0.000146355
0.0693118
0.000136731
0.069299
0.000127303
0.0692871
0.000117855
0.0692762
0.000108098
0.069266
9.7669e-05
0.0692562
8.60999e-05
0.0692468
7.28e-05
0.0692374
5.70076e-05
0.0692277
3.77442e-05
0.0692173
1.37384e-05
0.0692057
-1.6659e-05
0.0691922
-5.5607e-05
0.0691758
-0.00010593
0.0691552
-0.000171333
0.0691287
-0.000256668
0.0690936
-0.000368292
0.0690466
-0.000514513
0.0689826
-0.000706171
0.0688943
-0.000957364
0.068771
-0.00128635
0.0685967
-0.00171665
0.0683472
-0.00227825
0.0679855
-0.00300899
0.0674538
-0.00395556
0.0666618
-0.00517397
0.0654668
-0.0067273
0.0636406
-0.00868042
0.0608246
-0.01108
0.0564332
-0.0139283
0.0495911
-0.0170844
0.0388194
-0.0201874
0.022396
-0.022435
-0.0216338
0.0577219
7.61878e-05
0.0576609
0.000192532
0.0575986
0.0002447
0.0575439
0.00026211
0.0574967
0.00026569
0.0574575
0.000260441
0.0574261
0.000248757
0.0574016
0.00023394
0.0573825
0.000218392
0.0573678
0.000203158
0.0573567
0.000188619
0.0573485
0.00017496
0.0573426
0.000162236
0.0573386
0.00015039
0.057336
0.000139275
0.0573347
0.000128697
0.0573341
0.000118417
0.0573341
0.000108155
0.0573342
9.75678e-05
0.0573341
8.62446e-05
0.0573332
7.36677e-05
0.057331
5.91924e-05
0.0573268
4.19914e-05
0.0573195
2.10114e-05
0.057308
-5.10741e-06
0.0572905
-3.81216e-05
0.057265
-8.03301e-05
0.0572284
-0.000134714
0.0571769
-0.000205157
0.0571053
-0.000296684
0.0570066
-0.000415789
0.0568712
-0.000570787
0.0566861
-0.000772262
0.0564333
-0.00103351
0.0560877
-0.00137101
0.0556141
-0.00180464
0.0549628
-0.00235767
0.0540629
-0.00305571
0.0528132
-0.00392422
0.0510687
-0.00498276
0.0486229
-0.00623464
0.0451891
-0.00764617
0.0403781
-0.0091173
0.0337183
-0.0104246
0.0247155
-0.0111845
0.0131157
-0.0108352
-0.00851809
0.0436855
0.000140726
0.0435927
0.000285346
0.0435179
0.000319479
0.0434631
0.00031693
0.0434262
0.000302653
0.0434061
0.000280525
0.0434002
0.000254707
0.0434049
0.000229273
0.0434172
0.000206019
0.0434352
0.000185244
0.043457
0.00016683
0.0434814
0.000150584
0.0435074
0.000136255
0.0435342
0.00012355
0.0435614
0.000112166
0.0435883
0.00010181
0.0436145
9.21929e-05
0.0436397
8.30217e-05
0.0436633
7.39854e-05
0.0436848
6.47365e-05
0.0437036
5.48735e-05
0.0437189
4.39103e-05
0.0437297
3.12478e-05
0.0437346
1.61398e-05
0.0437318
-2.35312e-06
0.0437192
-2.54397e-05
0.0436935
-5.46569e-05
0.0436508
-9.1986e-05
0.0435857
-0.000139983
0.0434909
-0.000201925
0.0433571
-0.000281962
0.0431716
-0.000385296
0.0429177
-0.000518342
0.0425731
-0.000688826
0.0421078
-0.000905743
0.0414822
-0.00117902
0.0406432
-0.00151866
0.0395205
-0.00193296
0.0380217
-0.00242535
0.036028
-0.00298908
0.0333927
-0.00359927
0.0299477
-0.00420118
0.0255274
-0.00469694
0.0200307
-0.00492789
0.0135238
-0.0046776
0.00640169
-0.00371298
-0.00211637
0.0276017
0.000289025
0.0275191
0.00036795
0.0275067
0.000331902
0.0275407
0.000283002
0.0276061
0.000237284
0.0276898
0.000196826
0.0277815
0.000162998
0.027875
0.000135812
0.0279668
0.00011424
0.028055
9.70934e-05
0.0281384
8.33756e-05
0.0282167
7.22956e-05
0.0282898
6.32351e-05
0.0283577
5.57108e-05
0.0284205
4.93455e-05
0.0284785
4.38369e-05
0.0285318
3.8938e-05
0.0285804
3.44335e-05
0.0286242
3.01273e-05
0.0286632
2.58224e-05
0.0286968
2.13098e-05
0.0287244
1.6345e-05
0.028745
1.06245e-05
0.0287574
3.71401e-06
0.02876
-4.89358e-06
0.0287503
-1.5674e-05
0.0287248
-2.92109e-05
0.0286792
-4.636e-05
0.0286075
-6.82429e-05
0.0285019
-9.62636e-05
0.0283521
-0.000132138
0.0281447
-0.000177923
0.0278624
-0.000235996
0.0274826
-0.000308973
0.0269763
-0.000399482
0.0263071
-0.000509739
0.0254292
-0.000640799
0.0242877
-0.000791401
0.0228187
-0.000956311
0.0209539
-0.00112428
0.0186308
-0.00127612
0.0158133
-0.00138366
0.0125274
-0.00141106
0.00891538
-0.00131578
0.00528303
-0.00104516
0.00209896
-0.000528804
-1.73859e-05
0.010039
0.010407
0.0107389
0.0110219
0.0112592
0.011456
0.011619
0.0117549
0.0118691
0.0119662
0.0120496
0.0121219
0.0121851
0.0122408
0.0122902
0.012334
0.012373
0.0124074
0.0124376
0.0124634
0.0124847
0.0125011
0.0125117
0.0125154
0.0125105
0.0124949
0.0124657
0.0124193
0.0123511
0.0122548
0.0121227
0.0119448
0.0117088
0.0113998
0.0110004
0.0104906
0.00984983
0.00905844
0.00810213
0.00697787
0.00570176
0.00431811
0.00290706
0.0015913
0.000546167
1.73859e-05
0.149805
0.0542215
0.122181
0.0276249
0.104486
0.017695
0.0922071
0.0122786
0.0835813
0.00862585
0.00657534
0.0770063
0.253611
0.03355
0.260291
0.0209449
0.26177
0.0162156
0.259923
0.0141255
0.256164
0.0123853
0.011824
0.250915
0.25641
0.00235005
0.273571
0.0037848
0.284443
0.00534283
0.291718
0.00685101
0.295675
0.0084288
0.0102562
0.297243
0.257302
-0.0288578
0.274073
-0.0129861
0.28457
-0.0051539
0.291871
-0.000449691
0.296349
0.00395046
0.00774855
0.298857
0.258625
-0.0507119
0.267537
-0.0218983
0.273308
-0.0109248
0.277248
-0.0043889
0.280006
0.00119207
0.00571136
0.282044
0.159261
0.137362
0.126438
0.122049
0.123241
0.128952
-0.000183953
0.000184266
-0.000512175
0.000328918
-0.000878247
0.000366744
-0.00123329
0.000355691
-0.00155899
0.000326308
-0.00184409
0.000285686
-0.00208126
0.000237732
-0.00226859
0.000187865
-0.00241088
0.000142824
-0.00251935
0.00010898
-0.00260923
9.03856e-05
-0.00269611
8.7365e-05
-0.00279187
9.62123e-05
-0.00290157
0.000110121
-0.00302243
0.00012126
-0.00314517
0.000123107
-0.00325719
0.000112385
-0.00334672
8.98726e-05
-0.00340606
5.96668e-05
-0.00343271
2.69792e-05
-0.00342814
-4.25632e-06
-0.00339534
-3.24863e-05
-0.00333695
-5.80875e-05
-0.00325495
-8.16814e-05
-0.00315182
-0.000102781
-0.00303117
-0.000120283
-0.00289742
-0.000133341
-0.00275548
-0.000141502
-0.00261014
-0.000144867
-0.00246574
-0.000143905
-0.0023259
-0.000139315
-0.00219339
-0.000131967
-0.0020701
-0.000122725
-0.0019569
-0.00011264
-0.00185337
-0.000102948
-0.00175823
-9.4569e-05
-0.00166982
-8.78169e-05
-0.00158599
-8.32551e-05
-0.00150356
-8.18302e-05
-0.00141881
-8.42246e-05
-0.00132848
-8.96641e-05
-0.00123043
-9.74332e-05
-0.00112238
-0.000107962
-0.00100467
-0.000118743
-0.000883851
-0.000122543
-0.000762593
-0.000123594
-0.000147743
-0.000586119
0.000771064
-0.00142069
0.00116494
-0.00226519
0.00121263
-0.00304208
0.00113388
-0.00372472
0.00101016
-0.00430141
0.000863527
-0.00476965
0.000707061
-0.00513672
0.000555994
-0.00542009
0.000427222
-0.00564531
0.000335201
-0.00584129
0.000287335
-0.00603397
0.000280964
-0.00624008
0.000303188
-0.00646318
0.00033401
-0.00669355
0.000352359
-0.00691222
0.000342448
-0.00709751
0.000298311
-0.00723201
0.00022499
-0.00730714
0.000135386
-0.00732339
4.38228e-05
-0.00728685
-4.02078e-05
-0.00720436
-0.000114388
-0.00708106
-0.000180795
-0.00692097
-0.000241148
-0.00672869
-0.000294383
-0.0065106
-0.000337651
-0.00627459
-0.00036856
-0.00602893
-0.000386312
-0.00578131
-0.000391567
-0.00553858
-0.000385664
-0.00530645
-0.000370422
-0.00508934
-0.000348009
-0.00489006
-0.00032093
-0.0047096
-0.000292001
-0.00454738
-0.000264084
-0.00440127
-0.000239554
-0.00426828
-0.000219709
-0.00414453
-0.000205919
-0.00402499
-0.000200389
-0.00390346
-0.000204654
-0.00377486
-0.000217134
-0.00363612
-0.000235182
-0.00348433
-0.000259959
-0.00331689
-0.000288534
-0.00313726
-0.000306127
-0.00294304
-0.000319731
-0.000342028
-0.00106875
0.00184041
-0.00240523
0.00250267
-0.0036418
0.00245036
-0.00471942
0.00221259
-0.00563471
0.00192647
-0.00639276
0.00162253
-0.00700389
0.00131911
-0.00748531
0.00103831
-0.00786252
0.000805324
-0.0081685
0.000642056
-0.00843918
0.000558863
-0.00870625
0.000548849
-0.00898934
0.000587026
-0.00929076
0.000636108
-0.00959578
0.000657983
-0.00987856
0.000625769
-0.0101112
0.000531502
-0.0102731
0.000387382
-0.0103564
0.000219214
-0.0103661
5.40665e-05
-0.0103142
-9.16263e-05
-0.010212
-0.000216
-0.0100666
-0.000325594
-0.00988178
-0.000425393
-0.00966181
-0.000513717
-0.00941409
-0.000584684
-0.00914849
-0.000633439
-0.00887511
-0.000658909
-0.00860305
-0.000662804
-0.00834021
-0.000647656
-0.00809327
-0.000616467
-0.00786734
-0.000573049
-0.00766566
-0.000521727
-0.00748954
-0.000467243
-0.00733828
-0.00041446
-0.00720956
-0.000367408
-0.00709971
-0.000328695
-0.00700418
-0.000300653
-0.00691694
-0.000286829
-0.00683094
-0.000289869
-0.00673966
-0.000307488
-0.0066381
-0.000335986
-0.00652219
-0.000376023
-0.00638921
-0.000422661
-0.00624019
-0.000456543
-0.0060854
-0.000475598
-0.000495373
-0.00160023
0.00344112
-0.00333447
0.00423791
-0.00476645
0.00388332
-0.00594355
0.00339063
-0.0069223
0.00290611
-0.00773481
0.00243587
-0.00840298
0.00198809
-0.00894566
0.00158178
-0.00938504
0.0012455
-0.00975115
0.00100896
-0.0100807
0.000889164
-0.0104096
0.000878502
-0.0107626
0.000940794
-0.0111442
0.00101826
-0.0115359
0.00105027
-0.0119042
0.000994483
-0.0122121
0.000839847
-0.0124328
0.000608517
-0.0125584
0.000345277
-0.0126002
9.64157e-05
-0.0125791
-0.000112149
-0.0125124
-0.000282203
-0.0124066
-0.00043077
-0.0122613
-0.000570013
-0.0120773
-0.000697015
-0.0118619
-0.000799359
-0.0116274
-0.000867186
-0.0113865
-0.000899027
-0.0111497
-0.000898785
-0.0109257
-0.000870831
-0.0107222
-0.000819255
-0.010545
-0.000749363
-0.0103983
-0.000667698
-0.0102837
-0.000581135
-0.0102008
-0.000496607
-0.0101477
-0.000419774
-0.0101208
-0.000354951
-0.010115
-0.000305754
-0.0101243
-0.00027701
-0.0101414
-0.000272123
-0.010159
-0.000289216
-0.0101694
-0.000324959
-0.0101662
-0.000379081
-0.0101455
-0.000443956
-0.010106
-0.000496941
-0.0100554
-0.000525997
-0.000540269
-0.0021538
0.00559541
-0.00392163
0.00600665
-0.00509263
0.00505524
-0.00600065
0.00429956
-0.0067839
0.00369021
-0.00748552
0.00313831
-0.00812536
0.00262872
-0.00870899
0.0021662
-0.00923572
0.00177304
-0.00971145
0.0014855
-0.0101561
0.00133458
-0.0106001
0.00132333
-0.0110745
0.0014158
-0.0115911
0.00153553
-0.0121316
0.00159113
-0.0126536
0.00151689
-0.0131079
0.00129455
-0.0134574
0.000958395
-0.0136923
0.000580643
-0.0138325
0.000237247
-0.0139131
-3.0876e-05
-0.01396
-0.000234626
-0.0139762
-0.000413863
-0.0139499
-0.000595521
-0.0138725
-0.000773627
-0.0137502
-0.000920851
-0.0136007
-0.00101578
-0.0134424
-0.00105651
-0.0132882
-0.00105208
-0.0131479
-0.00101034
-0.0130304
-0.000935957
-0.0129436
-0.000835368
-0.0128925
-0.0007181
-0.0128793
-0.000593747
-0.0129041
-0.000471173
-0.0129655
-0.000357726
-0.0130604
-0.00025954
-0.0131835
-0.000182194
-0.0133285
-0.000131567
-0.0134885
-0.000111703
-0.0136549
-0.000122344
-0.013818
-0.000161481
-0.0139704
-0.000226761
-0.0141072
-0.000307485
-0.014222
-0.000381671
-0.0143145
-0.000434077
-0.000455989
-0.00238864
0.00798444
-0.00296735
0.00658629
-0.00285926
0.0049481
-0.00290928
0.00435052
-0.00316721
0.00394906
-0.00358543
0.00355742
-0.00415331
0.00319746
-0.00485018
0.00286391
-0.00563245
0.00255613
-0.0064482
0.00230209
-0.007258
0.00214523
-0.00804887
0.00211504
-0.00884039
0.00220809
-0.00965261
0.00234837
-0.010475
0.00241395
-0.0112717
0.00231394
-0.0119924
0.00201556
-0.0125936
0.00155992
-0.0130617
0.00104932
-0.0134227
0.000598918
-0.013728
0.000275174
-0.0140205
5.87157e-05
-0.0142982
-0.000135264
-0.014524
-0.000368775
-0.0146672
-0.000629466
-0.0147297
-0.000857462
-0.0147392
-0.00100529
-0.0147249
-0.00106987
-0.0147045
-0.00107144
-0.0146898
-0.00102413
-0.0146929
-0.000932
-0.0147257
-0.000801716
-0.0147957
-0.000647383
-0.0149056
-0.000483178
-0.0150561
-0.000320079
-0.0152463
-0.000166989
-0.0154736
-3.17934e-05
-0.0157329
7.74482e-05
-0.0160177
0.000153514
-0.0163208
0.000191598
-0.0166321
0.000189154
-0.0169403
0.0001469
-0.0172373
7.00898e-05
-0.0175158
-2.90977e-05
-0.0177653
-0.000133277
-0.0179772
-0.000221582
-0.0002668
0.00488301
0.00310196
0.00837318
0.00309693
0.00997434
0.00334764
0.0106322
0.00369326
0.0106373
0.00394457
0.0101054
0.0040898
0.00913032
0.00417306
0.00778816
0.00420657
0.00615527
0.00418959
0.00432522
0.00413283
0.0024117
0.00405955
0.000528017
0.0039996
-0.00122565
0.00396254
-0.00280536
0.00392863
-0.00423719
0.00384612
-0.00555865
0.00363565
-0.00678631
0.00324352
-0.00791167
0.00268577
-0.00892051
0.00205889
-0.00982302
0.00150235
-0.010667
0.00112018
-0.0115043
0.000897072
-0.0123252
0.000686618
-0.0130654
0.000372432
-0.0136656
-2.81543e-05
-0.0141125
-0.000409465
-0.0144417
-0.000674935
-0.014701
-0.000809328
-0.0149154
-0.000855887
-0.015099
-0.000839348
-0.0152713
-0.000758578
-0.0154551
-0.000616988
-0.0156654
-0.000436098
-0.015908
-0.000239917
-0.0161844
-4.2901e-05
-0.0164951
0.000144163
-0.0168385
0.000312112
-0.0172117
0.000450741
-0.0176093
0.000551239
-0.0180241
0.000606238
-0.0184449
0.000609831
-0.0188592
0.000560904
-0.0192564
0.000466984
-0.0196263
0.000339894
-0.0199534
0.000194468
-0.0202334
5.76251e-05
-1.67198e-05
0.0737849
0.0063236
0.0702578
0.00662438
0.0665714
0.00703428
0.0626719
0.00759298
0.0584626
0.00815411
0.0539402
0.00861243
0.0491744
0.00893906
0.0442503
0.00913095
0.0392548
0.00918531
0.034286
0.00910191
0.0294579
0.00888795
0.0249
0.00855787
0.0207318
0.00813107
0.0170297
0.00763113
0.0137964
0.00707979
0.0109438
0.00648871
0.00832607
0.0058616
0.00580494
0.00520733
0.00330751
0.00455693
0.000842461
0.00396827
-0.00153899
0.00350275
-0.00378117
0.00314036
-0.00584524
0.00275187
-0.00768398
0.00221237
-0.00924016
0.00152951
-0.0105049
0.000856916
-0.0115384
0.000360364
-0.0124073
6.12816e-05
-0.0131308
-0.00013077
-0.0137148
-0.000253902
-0.0141903
-0.000281835
-0.0146076
-0.000198507
-0.0150068
-3.58976e-05
-0.0154045
0.000158639
-0.0158072
0.000360535
-0.0162219
0.000559437
-0.0166548
0.000745426
-0.0171087
0.000904692
-0.0175816
0.00102404
-0.0180674
0.00109179
-0.0185563
0.0010984
-0.0190367
0.00104082
-0.019496
0.000925795
-0.0199182