/*--------------------------------*- C++ -*----------------------------------*\
| =========                 |                                                 |
| \\      /  F ield         | OpenFOAM: The Open Source CFD Toolbox           |
|  \\    /   O peration     | Version:  2406                                  |
|   \\  /    A nd           | Website:  www.openfoam.com                      |
|    \\/     M anipulation  |                                                 |
\*---------------------------------------------------------------------------*/
FoamFile
{
    version     2.0;
    format      ascii;
    arch        "LSB;label=32;scalar=64";
    class       volVectorField;
    location    "142";
    object      U;
}
// * * * * * * * * * * * * * * * * * * * * * * * * * * * * * * * * * * * * * //

dimensions      [0 1 -1 0 0 0 0];

internalField   nonuniform List<vector> 
1916
(
(0.100651 -0.001941 0)
(0.102873 -0.002947 0)
(0.10552 -0.00249715 0)
(0.108712 -0.00185621 0)
(0.111478 -0.00136342 0)
(0.113641 -0.00100292 0)
(0.115391 -0.000739895 0)
(0.116857 -0.000554126 0)
(0.118088 -0.000425004 0)
(0.119123 -0.000334027 0)
(0.120001 -0.000268449 0)
(0.120755 -0.000220179 0)
(0.121408 -0.000183788 0)
(0.121977 -0.000155488 0)
(0.122475 -0.000132636 0)
(0.122912 -0.000113378 0)
(0.123296 -9.63421e-05 0)
(0.12363 -8.04514e-05 0)
(0.123919 -6.47696e-05 0)
(0.124162 -4.84073e-05 0)
(0.124359 -3.04017e-05 0)
(0.124507 -9.59483e-06 0)
(0.124598 1.56343e-05 0)
(0.124624 4.75882e-05 0)
(0.124567 8.83603e-05 0)
(0.124411 0.000139638 0)
(0.124132 0.000203999 0)
(0.123699 0.000285339 0)
(0.12307 0.000388733 0)
(0.122192 0.000520347 0)
(0.120998 0.00068745 0)
(0.119398 0.000898276 0)
(0.117285 0.0011616 0)
(0.114527 0.00148576 0)
(0.110963 0.0018768 0)
(0.10641 0.00233544 0)
(0.10067 0.00285237 0)
(0.093542 0.00340189 0)
(0.0848544 0.00393484 0)
(0.0745151 0.00437337 0)
(0.0625778 0.00461416 0)
(0.0493283 0.00454516 0)
(0.0353585 0.00407758 0)
(0.0216374 0.00315157 0)
(0.0097032 0.00166138 0)
(0.00193451 -0.00067968 0)
(-0.00117006 -0.00218984 0)
(0.276889 -0.00180496 0)
(0.27567 -0.00357662 0)
(0.274983 -0.00388004 0)
(0.275059 -0.00366274 0)
(0.275626 -0.00331508 0)
(0.27641 -0.00292065 0)
(0.277286 -0.00252617 0)
(0.278202 -0.00217024 0)
(0.279116 -0.0018661 0)
(0.279998 -0.00161038 0)
(0.280833 -0.00139579 0)
(0.281614 -0.00121557 0)
(0.282339 -0.00106356 0)
(0.283009 -0.000934122 0)
(0.283624 -0.000822329 0)
(0.284186 -0.00072397 0)
(0.284697 -0.000635377 0)
(0.285158 -0.000553233 0)
(0.285568 -0.000474359 0)
(0.285926 -0.000395533 0)
(0.286228 -0.000313258 0)
(0.286469 -0.000223507 0)
(0.286642 -0.000121373 0)
(0.286734 -6.51171e-07 0)
(0.286734 0.000145865 0)
(0.286618 0.000326617 0)
(0.286357 0.000552618 0)
(0.285913 0.000838322 0)
(0.285234 0.00120228 0)
(0.284252 0.00166788 0)
(0.282879 0.00226433 0)
(0.280998 0.0030274 0)
(0.278458 0.00399995 0)
(0.275064 0.00523157 0)
(0.270564 0.00677654 0)
(0.264637 0.00868894 0)
(0.256881 0.011013 0)
(0.246802 0.0137659 0)
(0.233814 0.0169107 0)
(0.217262 0.0203153 0)
(0.196483 0.0237009 0)
(0.170948 0.0265815 0)
(0.140518 0.0282275 0)
(0.105877 0.0276421 0)
(0.0691481 0.0236763 0)
(0.0352297 0.0154021 0)
(0.00738553 0.00622958 0)
(0.437069 -0.00100682 0)
(0.436397 -0.00225268 0)
(0.4356 -0.00272692 0)
(0.434862 -0.00284109 0)
(0.434359 -0.00282486 0)
(0.434076 -0.0027266 0)
(0.433946 -0.00256857 0)
(0.433928 -0.00238387 0)
(0.433998 -0.0021967 0)
(0.434131 -0.00201695 0)
(0.434307 -0.00184759 0)
(0.434512 -0.00168971 0)
(0.434733 -0.00154342 0)
(0.434962 -0.00140783 0)
(0.435194 -0.00128128 0)
(0.435422 -0.00116169 0)
(0.435641 -0.00104668 0)
(0.435848 -0.000933495 0)
(0.436037 -0.000818918 0)
(0.436203 -0.000699115 0)
(0.436341 -0.000569411 0)
(0.436443 -0.000424011 0)
(0.436499 -0.000255629 0)
(0.436499 -5.5177e-05 0)
(0.436426 0.000188932 0)
(0.436259 0.000491763 0)
(0.435973 0.000872872 0)
(0.435531 0.00135757 0)
(0.434887 0.00197849 0)
(0.433977 0.00277756 0)
(0.432721 0.00380832 0)
(0.43101 0.00513856 0)
(0.428698 0.00685314 0)
(0.425594 0.00905648 0)
(0.421443 0.011874 0)
(0.415904 0.0154511 0)
(0.408524 0.0199465 0)
(0.398702 0.0255164 0)
(0.385645 0.0322818 0)
(0.368322 0.0402667 0)
(0.34543 0.0492976 0)
(0.315407 0.0588324 0)
(0.276542 0.0677426 0)
(0.227391 0.0739895 0)
(0.16742 0.0746197 0)
(0.0996586 0.066413 0)
(0.0284531 0.0488523 0)
(0.577197 -0.000587316 0)
(0.576872 -0.00150623 0)
(0.576372 -0.00203554 0)
(0.575729 -0.00228316 0)
(0.575153 -0.00237883 0)
(0.574704 -0.00237827 0)
(0.57435 -0.0023072 0)
(0.574059 -0.00219339 0)
(0.573823 -0.00206114 0)
(0.573634 -0.00192426 0)
(0.573482 -0.0017889 0)
(0.57336 -0.00165795 0)
(0.573261 -0.00153277 0)
(0.573178 -0.0014134 0)
(0.573109 -0.00129875 0)
(0.57305 -0.001187 0)
(0.572997 -0.00107577 0)
(0.572946 -0.000962088 0)
(0.572895 -0.000842275 0)
(0.572839 -0.000711775 0)
(0.572774 -0.000564872 0)
(0.572693 -0.000394329 0)
(0.572591 -0.000190912 0)
(0.572458 5.72313e-05 0)
(0.572283 0.000365466 0)
(0.572051 0.00075384 0)
(0.571743 0.00124847 0)
(0.571333 0.0018834 0)
(0.570787 0.002703 0)
(0.570061 0.00376503 0)
(0.569092 0.0051444 0)
(0.5678 0.00693795 0)
(0.566073 0.00927011 0)
(0.563757 0.0122996 0)
(0.560642 0.0162268 0)
(0.556434 0.0213005 0)
(0.550718 0.0278234 0)
(0.54291 0.0361496 0)
(0.532176 0.0466707 0)
(0.517329 0.0597687 0)
(0.496674 0.0757229 0)
(0.46784 0.0944871 0)
(0.427533 0.115374 0)
(0.371579 0.136247 0)
(0.294888 0.15308 0)
(0.194396 0.158679 0)
(0.065721 0.141446 0)
(0.697259 -0.000385221 0)
(0.697082 -0.00105792 0)
(0.696779 -0.0015206 0)
(0.696288 -0.00177994 0)
(0.695778 -0.00190535 0)
(0.695336 -0.00194572 0)
(0.694954 -0.00192442 0)
(0.694608 -0.00186026 0)
(0.694296 -0.00177142 0)
(0.694016 -0.00167076 0)
(0.693766 -0.00156534 0)
(0.693539 -0.00145886 0)
(0.693331 -0.00135335 0)
(0.693139 -0.00124953 0)
(0.692959 -0.00114698 0)
(0.692789 -0.00104431 0)
(0.692627 -0.000939392 0)
(0.692471 -0.000829293 0)
(0.69232 -0.000710221 0)
(0.69217 -0.000577291 0)
(0.69202 -0.00042424 0)
(0.691867 -0.000243017 0)
(0.691708 -2.323e-05 0)
(0.69154 0.000248613 0)
(0.691356 0.000590107 0)
(0.691151 0.00102425 0)
(0.690916 0.00158116 0)
(0.690639 0.00230041 0)
(0.690304 0.00323394 0)
(0.68989 0.00445002 0)
(0.689365 0.00603832 0)
(0.688688 0.0081166 0)
(0.687798 0.0108393 0)
(0.686604 0.0144088 0)
(0.684977 0.0190896 0)
(0.682719 0.025226 0)
(0.679533 0.0332637 0)
(0.674961 0.0437735 0)
(0.668291 0.0574763 0)
(0.658415 0.0752504 0)
(0.643564 0.0981308 0)
(0.620996 0.127155 0)
(0.586216 0.163228 0)
(0.53262 0.206082 0)
(0.448942 0.253846 0)
(0.321164 0.300622 0)
(0.117086 0.330247 0)
(0.797294 -0.000264689 0)
(0.79719 -0.000747586 0)
(0.797 -0.00111494 0)
(0.796617 -0.00134965 0)
(0.79617 -0.00148186 0)
(0.795754 -0.00154325 0)
(0.795376 -0.00155165 0)
(0.795019 -0.00152005 0)
(0.794683 -0.00146168 0)
(0.794371 -0.00138756 0)
(0.794083 -0.00130482 0)
(0.793816 -0.0012176 0)
(0.793567 -0.00112829 0)
(0.793334 -0.00103804 0)
(0.793115 -0.00094685 0)
(0.792908 -0.000853736 0)
(0.792712 -0.000756838 0)
(0.792527 -0.000653445 0)
(0.792351 -0.000539899 0)
(0.792184 -0.000411396 0)
(0.792025 -0.000261689 0)
(0.791877 -8.26758e-05 0)
(0.791738 0.000136183 0)
(0.79161 0.000408638 0)
(0.791494 0.000752683 0)
(0.791394 0.00119192 0)
(0.791311 0.00175743 0)
(0.791249 0.00249021 0)
(0.791213 0.00344447 0)
(0.791208 0.00469204 0)
(0.791238 0.00632823 0)
(0.791307 0.00847989 0)
(0.791417 0.0113163 0)
(0.79156 0.0150639 0)
(0.791712 0.0200272 0)
(0.791822 0.0266166 0)
(0.791778 0.0353881 0)
(0.791366 0.0470967 0)
(0.790182 0.062776 0)
(0.787496 0.0838251 0)
(0.781926 0.112198 0)
(0.771131 0.15039 0)
(0.750435 0.202201 0)
(0.712571 0.270707 0)
(0.642348 0.364112 0)
(0.517745 0.469646 0)
(0.254044 0.590074 0)
(0.877315 -0.000181689 0)
(0.877249 -0.000520561 0)
(0.877122 -0.000794798 0)
(0.876811 -0.000985574 0)
(0.876417 -0.00110256 0)
(0.876028 -0.00116367 0)
(0.875661 -0.00118197 0)
(0.875305 -0.00116716 0)
(0.874959 -0.00112864 0)
(0.87463 -0.00107485 0)
(0.874322 -0.00101179 0)
(0.874033 -0.000943154 0)
(0.873761 -0.00087112 0)
(0.873506 -0.000796783 0)
(0.873268 -0.000720282 0)
(0.873044 -0.000640877 0)
(0.872836 -0.000557017 0)
(0.872643 -0.000466358 0)
(0.872465 -0.000365673 0)
(0.872304 -0.000250674 0)
(0.872161 -0.000115737 0)
(0.87204 4.64815e-05 0)
(0.871945 0.000245575 0)
(0.871881 0.000494107 0)
(0.871857 0.000808567 0)
(0.871884 0.00121067 0)
(0.871974 0.00172912 0)
(0.872148 0.00240194 0)
(0.872428 0.00327969 0)
(0.872848 0.00442983 0)
(0.873448 0.00594267 0)
(0.87428 0.00793974 0)
(0.875413 0.0105854 0)
(0.876928 0.0141038 0)
(0.878928 0.0188022 0)
(0.881535 0.0251068 0)
(0.884879 0.033615 0)
(0.889097 0.0451718 0)
(0.894266 0.0609999 0)
(0.900396 0.082859 0)
(0.907033 0.113466 0)
(0.913659 0.156612 0)
(0.916248 0.219486 0)
(0.914618 0.309969 0)
(0.873532 0.45621 0)
(0.842573 0.687107 0)
(0.294658 1.19104 0)
(0.937328 -0.000118489 0)
(0.937282 -0.000342129 0)
(0.937191 -0.000529423 0)
(0.936926 -0.000666187 0)
(0.93657 -0.000754086 0)
(0.936205 -0.000802467 0)
(0.935849 -0.000819938 0)
(0.935497 -0.000813131 0)
(0.935148 -0.000788184 0)
(0.934811 -0.000750755 0)
(0.934491 -0.000705196 0)
(0.934188 -0.000654346 0)
(0.933904 -0.000599911 0)
(0.933636 -0.000542774 0)
(0.933387 -0.000483107 0)
(0.933155 -0.000420396 0)
(0.932941 -0.000353479 0)
(0.932747 -0.000280547 0)
(0.932574 -0.000199069 0)
(0.932423 -0.000105656 0)
(0.9323 4.16517e-06 0)
(0.932209 0.000136255 0)
(0.932158 0.000298295 0)
(0.932156 0.000500364 0)
(0.932217 0.000755724 0)
(0.932359 0.00108189 0)
(0.932606 0.00150205 0)
(0.932989 0.00204706 0)
(0.93355 0.0027581 0)
(0.934345 0.00369041 0)
(0.935447 0.00491845 0)
(0.936953 0.00654328 0)
(0.938993 0.00870311 0)
(0.941735 0.0115887 0)
(0.945406 0.0154662 0)
(0.950304 0.0207119 0)
(0.956821 0.0278659 0)
(0.965484 0.0377157 0)
(0.976957 0.0514362 0)
(0.992226 0.0707983 0)
(1.01218 0.0986188 0)
(1.03956 0.139186 0)
(1.0728 0.20054 0)
(1.13132 0.293198 0)
(1.17842 0.451192 0)
(1.43052 0.669104 0)
(1.47809 1.29301 0)
(0.977336 -6.5947e-05 0)
(0.977301 -0.000191073 0)
(0.97723 -0.000297481 0)
(0.976992 -0.000376819 0)
(0.97666 -0.000428562 0)
(0.976312 -0.000456954 0)
(0.975965 -0.00046667 0)
(0.975617 -0.000461504 0)
(0.975268 -0.0004449 0)
(0.974928 -0.000420098 0)
(0.974602 -0.000389714 0)
(0.974293 -0.000355525 0)
(0.974001 -0.000318608 0)
(0.973728 -0.000279517 0)
(0.973473 -0.000238358 0)
(0.973237 -0.000194804 0)
(0.973023 -0.000148106 0)
(0.97283 -9.70916e-05 0)
(0.972663 -4.01183e-05 0)
(0.972523 2.50178e-05 0)
(0.972417 0.000101224 0)
(0.972351 0.000192315 0)
(0.972334 0.000303285 0)
(0.972381 0.000440696 0)
(0.972507 0.000613184 0)
(0.972737 0.000832162 0)
(0.973101 0.00111277 0)
(0.97364 0.00147519 0)
(0.974411 0.00194641 0)
(0.975485 0.00256279 0)
(0.976962 0.00337353 0)
(0.978971 0.00444581 0)
(0.981691 0.00587215 0)
(0.98536 0.00778137 0)
(0.990302 0.0103552 0)
(0.996963 0.0138538 0)
(1.00596 0.0186559 0)
(1.01815 0.0253249 0)
(1.03474 0.0347098 0)
(1.05757 0.0481396 0)
(1.08906 0.0676515 0)
(1.13403 0.0966472 0)
(1.19674 0.140118 0)
(1.29653 0.205855 0)
(1.43168 0.307413 0)
(1.68469 0.423708 0)
(2.01213 0.662447 0)
(0.99734 -1.87561e-05 0)
(0.997309 -5.41853e-05 0)
(0.997247 -8.38266e-05 0)
(0.997022 -0.000104922 0)
(0.996703 -0.000117062 0)
(0.996363 -0.00012142 0)
(0.996022 -0.000119435 0)
(0.995677 -0.000112319 0)
(0.99533 -0.000101166 0)
(0.994989 -8.70052e-05 7.34514e-34)
(0.994662 -7.0679e-05 0)
(0.994351 -5.27576e-05 0)
(0.994057 -3.35706e-05 0)
(0.993782 -1.32648e-05 0)
(0.993526 8.16784e-06 0)
(0.993291 3.08855e-05 7.35334e-34)
(0.993078 5.51942e-05 0)
(0.992889 8.15505e-05 0)
(0.992727 0.000110578 0)
(0.992596 0.000143098 0)
(0.992501 0.000180184 0)
(0.992451 0.000223227 0)
(0.992457 0.000274038 0)
(0.992532 0.000334982 -7.34939e-34)
(0.992696 0.000409157 0)
(0.992976 0.000500643 0)
(0.993407 0.000614844 0)
(0.994034 0.000758947 0)
(0.99492 0.000942572 0)
(0.996148 0.00117867 0)
(0.997829 0.00148482 0)
(1.00011 0.00188505 0)
(1.00321 0.0024126 0)
(1.00738 0.00311394 0)
(1.01302 0.00405502 0)
(1.02065 0.00533094 0)
(1.03101 0.00708107 0)
(1.04518 0.00951529 0)
(1.06467 0.01295 0)
(1.09176 0.0178929 0)
(1.12982 0.0250868 0)
(1.18398 0.0358489 -5.73847e-34)
(1.26175 0.0515731 0)
(1.37305 0.07485 0)
(1.53379 0.105049 0)
(1.74466 0.132685 0)
(2.04265 0.153941 0)
(0.99734 2.67398e-05 0)
(0.997309 7.81339e-05 0)
(0.997247 0.000123733 0)
(0.997023 0.000160883 0)
(0.996704 0.000189254 0)
(0.996366 0.000210077 0)
(0.996026 0.000224859 0)
(0.995682 0.000234888 0)
(0.995336 0.000241346 0)
(0.994998 0.000245354 -7.34456e-34)
(0.994673 0.000247855 0)
(0.994364 0.000249525 0)
(0.994073 0.000250809 0)
(0.993801 0.00025198 0)
(0.993548 0.000253161 0)
(0.993316 0.000254339 -7.35224e-34)
(0.993107 0.00025536 0)
(0.992922 0.000255933 0)
(0.992765 0.000255615 0)
(0.992638 0.000253777 0)
(0.992549 0.000249561 0)
(0.992505 0.00024181 0)
(0.992516 0.000228973 0)
(0.992598 0.000208981 7.34976e-34)
(0.99277 0.000179074 0)
(0.993059 0.000135564 0)
(0.993498 7.35165e-05 0)
(0.994135 -1.3686e-05 0)
(0.995032 -0.000134956 0)
(0.996272 -0.000302345 0)
(0.997967 -0.00053225 0)
(1.00027 -0.000847137 0)
(1.00338 -0.00127807 0)
(1.00757 -0.00186849 0)
(1.01323 -0.00267994 0)
(1.02089 -0.00380106 0)
(1.0313 -0.00536138 0)
(1.04551 -0.00755558 0)
(1.06508 -0.0106758 0)
(1.09227 -0.0151897 0)
(1.1305 -0.0217727 0)
(1.18492 -0.0316207 5.74277e-34)
(1.26317 -0.0459212 0)
(1.37515 -0.0668146 0)
(1.5373 -0.0931047 0)
(1.74943 -0.113332 0)
(2.05031 -0.123474 0)
(0.977336 7.37435e-05 0)
(0.977301 0.000214461 0)
(0.977231 0.000336453 0)
(0.976995 0.000431466 0)
(0.976666 0.000499049 0)
(0.97632 0.000543505 0)
(0.975977 0.000569574 0)
(0.975633 0.000581123 0)
(0.975289 0.000581684 0)
(0.974954 0.000574587 0)
(0.974634 0.000562544 0)
(0.974332 0.000547437 0)
(0.974048 0.000530456 0)
(0.973783 0.000512276 0)
(0.973537 0.000493133 0)
(0.973312 0.000472839 0)
(0.973109 0.000450795 0)
(0.972929 0.000425989 0)
(0.972775 0.000396952 0)
(0.97265 0.000361667 0)
(0.972559 0.000317433 0)
(0.97251 0.000260662 0)
(0.972513 0.000186605 0)
(0.972579 8.89821e-05 0)
(0.972728 -4.05272e-05 0)
(0.972982 -0.000212971 0)
(0.973373 -0.000443056 0)
(0.973942 -0.000750439 0)
(0.974744 -0.00116149 0)
(0.975854 -0.00171174 0)
(0.97737 -0.0024494 0)
(0.979425 -0.0034403 0)
(0.982197 -0.00477515 0)
(0.985926 -0.00658028 0)
(0.99094 -0.00903389 0)
(0.997689 -0.0123912 0)
(1.00679 -0.0170235 0)
(1.01913 -0.0234835 0)
(1.03593 -0.0326032 0)
(1.05905 -0.0456871 0)
(1.09097 -0.0647307 0)
(1.13665 -0.0930791 0)
(1.20054 -0.135607 0)
(1.30245 -0.199923 0)
(1.44146 -0.299386 0)
(1.7009 -0.410731 0)
(2.04165 -0.643687 0)
(0.937328 0.000125912 0)
(0.937283 0.000364402 0)
(0.937194 0.000566536 0)
(0.936932 0.000718218 0)
(0.936579 0.000821181 0)
(0.936219 0.000884826 0)
(0.935869 0.000917824 0)
(0.935523 0.000926878 0)
(0.935182 0.000918208 0)
(0.934854 0.000897559 0)
(0.934544 0.000869374 0)
(0.934253 0.000836594 0)
(0.933981 0.000801029 0)
(0.933728 0.00076368 0)
(0.933494 0.00072484 0)
(0.933279 0.000684127 0)
(0.933084 0.000640523 0)
(0.93291 0.000592365 0)
(0.932759 0.000537288 0)
(0.932633 0.000472076 0)
(0.932536 0.000392448 0)
(0.932473 0.000292748 0)
(0.932453 0.000165521 0)
(0.932485 9.36846e-07 0)
(0.932583 -0.000213991 0)
(0.932765 -0.000496458 0)
(0.933055 -0.000869296 0)
(0.933486 -0.00136293 0)
(0.9341 -0.00201804 0)
(0.934953 -0.00288925 0)
(0.93612 -0.0040503 0)
(0.9377 -0.0056013 0)
(0.939823 -0.0076793 0)
(0.942662 -0.0104735 0)
(0.946446 -0.0142482 0)
(0.951481 -0.0193769 0)
(0.958169 -0.0263967 0)
(0.96705 -0.0360906 0)
(0.978812 -0.0496291 0)
(0.994486 -0.0687784 0)
(1.01501 -0.0963553 0)
(1.04329 -0.136657 0)
(1.0778 -0.197784 0)
(1.13901 -0.290304 0)
(1.1892 -0.449057 0)
(1.45385 -0.66713 0)
(1.51159 -1.30329 0)
(0.877315 0.000188557 0)
(0.877251 0.000541176 0)
(0.877126 0.000829146 0)
(0.876819 0.00103371 0)
(0.876429 0.00116461 0)
(0.876048 0.00123979 0)
(0.875688 0.00127239 0)
(0.875341 0.00127216 0)
(0.875007 0.0012486 0)
(0.87469 0.00121022 0)
(0.874396 0.00116309 0)
(0.874123 0.00111102 0)
(0.873869 0.00105628 0)
(0.873633 0.00100006 0)
(0.873416 0.000942618 0)
(0.873216 0.000883339 0)
(0.873034 0.000820798 0)
(0.872869 0.000752789 0)
(0.872721 0.00067623 0)
(0.872594 0.00058699 0)
(0.872487 0.000479613 0)
(0.872406 0.000346934 0)
(0.872354 0.000179554 0)
(0.872337 -3.48806e-05 0)
(0.872364 -0.000312642 0)
(0.872445 -0.0006752 0)
(0.872596 -0.00115098 0)
(0.872835 -0.0017777 0)
(0.873188 -0.00260561 0)
(0.873687 -0.00370177 0)
(0.874375 -0.00515612 0)
(0.875306 -0.00708976 0)
(0.87655 -0.00966671 0)
(0.878192 -0.0131105 0)
(0.88034 -0.0177285 0)
(0.88312 -0.0239468 0)
(0.886675 -0.0323636 0)
(0.891154 -0.0438264 0)
(0.896655 -0.0595641 0)
(0.903221 -0.0813484 0)
(0.910436 -0.111927 0)
(0.917873 -0.155137 0)
(0.921523 -0.218326 0)
(0.921575 -0.30952 0)
(0.881868 -0.457829 0)
(0.855154 -0.693056 0)
(0.297975 -1.21336 0)
(0.797294 0.000270826 0)
(0.797192 0.000766017 0)
(0.797005 0.00114565 0)
(0.796627 0.00139267 0)
(0.796187 0.00153726 0)
(0.795779 0.00161115 0)
(0.79541 0.00163222 0)
(0.795066 0.00161354 0)
(0.794743 0.00156838 0)
(0.794447 0.00150785 0)
(0.794177 0.00143916 0)
(0.79393 0.00136652 0)
(0.793704 0.00129241 0)
(0.793495 0.00121808 0)
(0.793303 0.00114364 0)
(0.793126 0.00106819 0)
(0.792963 0.000989996 0)
(0.792813 0.000906467 0)
(0.792676 0.000814067 0)
(0.792551 0.000708129 0)
(0.792439 0.000582544 0)
(0.79234 0.000429354 0)
(0.792255 0.000238173 0)
(0.792186 -4.58682e-06 0)
(0.792135 -0.000316753 0)
(0.792103 -0.00072177 0)
(0.792096 -0.00125054 0)
(0.792117 -0.00194389 0)
(0.792171 -0.00285587 0)
(0.792264 -0.00405821 0)
(0.792403 -0.00564618 0)
(0.792593 -0.00774671 0)
(0.792837 -0.0105294 0)
(0.793131 -0.0142213 0)
(0.793456 -0.0191283 0)
(0.793764 -0.0256628 0)
(0.793953 -0.0343851 0)
(0.793818 -0.0460568 0)
(0.792969 -0.061724 0)
(0.790693 -0.0828063 0)
(0.785627 -0.111296 0)
(0.775455 -0.149747 0)
(0.755495 -0.202087 0)
(0.718469 -0.271521 0)
(0.648985 -0.366716 0)
(0.524745 -0.474682 0)
(0.258854 -0.598637 0)
(0.697259 0.000390458 0)
(0.697084 0.00107367 0)
(0.696785 0.00154684 0)
(0.6963 0.00181666 0)
(0.695797 0.00195257 0)
(0.695366 0.0020035 0)
(0.694995 0.00199287 0)
(0.694664 0.00193956 0)
(0.694368 0.00186178 0)
(0.694108 0.00177249 0)
(0.693879 0.00167879 0)
(0.693677 0.00158446 0)
(0.693495 0.00149159 0)
(0.693332 0.00140101 0)
(0.693185 0.00131236 0)
(0.693051 0.00122436 0)
(0.692928 0.00113495 0)
(0.692815 0.00104131 0)
(0.692709 0.00093976 0)
(0.69261 0.00082551 0)
(0.692515 0.000692415 0)
(0.692421 0.000532525 0)
(0.692327 0.000335551 0)
(0.692228 8.81008e-05 0)
(0.69212 -0.000227298 0)
(0.691997 -0.000633553 0)
(0.691851 -0.00116071 0)
(0.691671 -0.00184829 0)
(0.691441 -0.00274824 0)
(0.691141 -0.00392894 0)
(0.690743 -0.00548033 0)
(0.690204 -0.00752066 0)
(0.689465 -0.0102052 0)
(0.68844 -0.0137378 0)
(0.687001 -0.0183852 0)
(0.684954 -0.0244952 0)
(0.682007 -0.0325193 0)
(0.677708 -0.0430368 0)
(0.67135 -0.0567825 0)
(0.66183 -0.0746558 0)
(0.647379 -0.0977243 0)
(0.625246 -0.127072 0)
(0.590895 -0.163675 0)
(0.537635 -0.207342 0)
(0.45397 -0.2563 0)
(0.325475 -0.30463 0)
(0.118852 -0.336323 0)
(0.577197 0.000591494 0)
(0.576874 0.00151884 0)
(0.576378 0.00205654 0)
(0.575743 0.00231249 0)
(0.575175 0.00241644 0)
(0.574739 0.00242415 0)
(0.574398 0.0023614 0)
(0.574124 0.00225602 0)
(0.573907 0.00213232 0)
(0.573739 0.00200419 0)
(0.573613 0.00187783 0)
(0.573518 0.00175619 0)
(0.573449 0.0016407 0)
(0.573401 0.00153143 0)
(0.573369 0.00142739 0)
(0.57335 0.00132684 0)
(0.573342 0.00122743 0)
(0.57334 0.0011263 0)
(0.573341 0.00101984 0)
(0.573342 0.000903568 0)
(0.573339 0.000771858 0)
(0.573325 0.000617546 0)
(0.573295 0.000431449 0)
(0.573241 0.000201738 0)
(0.573151 -8.69019e-05 0)
(0.57301 -0.000454444 0)
(0.572801 -0.000927012 0)
(0.572499 -0.00153871 0)
(0.57207 -0.00233407 0)
(0.571469 -0.00337108 0)
(0.570638 -0.00472514 0)
(0.569495 -0.00649382 0)
(0.56793 -0.00880275 0)
(0.565791 -0.0118125 0)
(0.56287 -0.0157259 0)
(0.558873 -0.0207961 0)
(0.553388 -0.0273313 0)
(0.545831 -0.0356942 0)
(0.535369 -0.0462883 0)
(0.520808 -0.059512 0)
(0.50044 -0.0756665 0)
(0.471867 -0.0947312 0)
(0.431739 -0.116046 0)
(0.375786 -0.13748 0)
(0.298754 -0.15498 0)
(0.197369 -0.161188 0)
(0.0669683 -0.144148 0)
(0.43707 0.00100982 0)
(0.4364 0.00226174 0)
(0.435607 0.00274198 0)
(0.434877 0.00286201 0)
(0.434384 0.00285153 0)
(0.434114 0.00275895 0)
(0.433999 0.00260658 0)
(0.434 0.00242756 0)
(0.43409 0.00224614 0)
(0.434247 0.00207225 0)
(0.434451 0.00190888 0)
(0.434685 0.00175719 0)
(0.434939 0.00161732 0)
(0.435206 0.00148844 0)
(0.435477 0.00136891 0)
(0.435749 0.00125673 0)
(0.436015 0.00114954 0)
(0.436274 0.00104466 0)
(0.436519 0.000938916 0)
(0.436746 0.000828537 0)
(0.436949 0.000708899 0)
(0.437122 0.000574264 0)
(0.437255 0.000417366 0)
(0.437337 0.000229031 0)
(0.437353 -2.3726e-06 0)
(0.437282 -0.000291857 0)
(0.437099 -0.00065899 0)
(0.436768 -0.00112917 0)
(0.436244 -0.00173524 0)
(0.435464 -0.00251948 0)
(0.434347 -0.00353598 0)
(0.432786 -0.00485336 0)
(0.430635 -0.00655768 0)
(0.427704 -0.00875514 0)
(0.423736 -0.0115737 0)
(0.418392 -0.0151622 0)
(0.411216 -0.0196844 0)
(0.401603 -0.0253027 0)
(0.388753 -0.0321462 0)
(0.371624 -0.0402483 0)
(0.348888 -0.0494448 0)
(0.31895 -0.0591994 0)
(0.280042 -0.0683798 0)
(0.230647 -0.0749212 0)
(0.170138 -0.0758118 0)
(0.101483 -0.067739 0)
(0.0290777 -0.0500875 0)
(0.27689 0.00180674 0)
(0.275673 0.00358201 0)
(0.274991 0.00388885 0)
(0.275074 0.00367474 0)
(0.275653 0.0033301 0)
(0.276449 0.0029386 0)
(0.277341 0.00254701 0)
(0.278275 0.00219394 0)
(0.27921 0.00189268 0)
(0.280116 0.00163985 0)
(0.280977 0.00142822 0)
(0.281787 0.00125104 0)
(0.282544 0.00110218 0)
(0.283248 0.000976017 0)
(0.283902 0.000867665 0)
(0.284506 0.000772926 0)
(0.285062 0.00068817 0)
(0.285571 0.000610097 0)
(0.286034 0.000535567 0)
(0.286449 0.000461381 0)
(0.286813 0.000384091 0)
(0.287121 0.00029972 0)
(0.287365 0.00020348 0)
(0.287533 8.9248e-05 0)
(0.287613 -5.05593e-05 0)
(0.287583 -0.00022482 0)
(0.287417 -0.000444486 0)
(0.287074 -0.000723923 0)
(0.286503 -0.00108176 0)
(0.285637 -0.00154171 0)
(0.284387 -0.0021334 0)
(0.282637 -0.00289329 0)
(0.280236 -0.00386519 0)
(0.276986 -0.00509998 0)
(0.272634 -0.00665368 0)
(0.266855 -0.00858267 0)
(0.259244 -0.0109339 0)
(0.249298 -0.0137279 0)
(0.236419 -0.0169308 0)
(0.219935 -0.0204125 0)
(0.199159 -0.0238938 0)
(0.173534 -0.0268824 0)
(0.142886 -0.0286339 0)
(0.107874 -0.0281271 0)
(0.0706138 -0.0241844 0)
(0.0360687 -0.0158523 0)
(0.00760412 -0.00653905 0)
(0.100651 0.00194179 0)
(0.102875 0.002949 0)
(0.105526 0.00250006 0)
(0.108724 0.0018598 0)
(0.111499 0.00136759 0)
(0.113671 0.00100762 0)
(0.115432 0.000745122 0)
(0.116911 0.000559867 0)
(0.118157 0.000431259 0)
(0.119208 0.000340801 0)
(0.120104 0.000275762 0)
(0.120878 0.000228049 0)
(0.121552 0.000192245 0)
(0.122145 0.000164558 0)
(0.122668 0.000142361 0)
(0.123132 0.000123796 0)
(0.123545 0.000107508 0)
(0.123912 9.2414e-05 0)
(0.124234 7.75934e-05 0)
(0.124514 6.21558e-05 0)
(0.124751 4.5169e-05 0)
(0.12494 2.5522e-05 0)
(0.125077 1.77361e-06 0)
(0.125153 -2.82566e-05 0)
(0.125151 -6.7193e-05 0)
(0.125053 -0.000117305 0)
(0.124835 -0.000180972 0)
(0.124467 -0.000261799 0)
(0.123906 -0.000364813 0)
(0.123098 -0.00049633 0)
(0.121976 -0.000663829 0)
(0.12045 -0.000875846 0)
(0.118411 -0.00114152 0)
(0.115723 -0.00146965 0)
(0.112225 -0.00186683 0)
(0.107728 -0.00233436 0)
(0.102027 -0.00286344 0)
(0.0949147 -0.00342861 0)
(0.0862113 -0.00398025 0)
(0.075815 -0.00443887 0)
(0.0637722 -0.00469785 0)
(0.0503652 -0.00464032 0)
(0.0361914 -0.00417302 0)
(0.0222363 -0.00323505 0)
(0.0100647 -0.00172512 0)
(0.00209709 0.000643745 0)
(-0.00114959 0.00217852 0)
(1.84012 1.00123 0)
(1.57778 0.573332 0)
(1.13033 0.295413 0)
(0.903359 0.142516 0)
(0.847861 0.0568552 0)
(0.810658 0.00628824 0)
(2.46579 0.545071 0)
(2.64338 0.345897 0)
(2.63748 0.245112 0)
(2.60242 0.202046 0)
(2.57707 0.173767 0)
(2.5428 0.155227 0)
(2.39868 0.0874362 0)
(2.67586 0.0320839 0)
(2.82358 0.0291643 0)
(2.89525 0.0469798 0)
(2.94032 0.0634169 0)
(2.96857 0.0796668 0)
(2.40783 -0.0358208 0)
(2.68305 0.0466086 0)
(2.8271 0.0773278 0)
(2.89549 0.0874383 0)
(2.94285 0.101277 0)
(2.97871 0.120896 0)
(2.50761 -0.495955 0)
(2.70121 -0.257186 0)
(2.72831 -0.124481 0)
(2.74458 -0.0576376 0)
(2.78096 -0.00599419 0)
(2.8136 0.0396321 0)
(1.90786 -1.01011 0)
(1.6976 -0.57988 0)
(1.31801 -0.301961 0)
(1.16264 -0.146664 0)
(1.18981 -0.0492429 0)
(1.25887 0.0224969 0)
(-0.000638232 0.000522459 0)
(-0.00336428 0.000932849 0)
(-0.00693639 0.00108143 0)
(-0.0106197 0.00108523 0)
(-0.0140579 0.00103345 0)
(-0.0171279 0.000936236 0)
(-0.019744 0.00080012 0)
(-0.021858 0.00064012 0)
(-0.0234841 0.000479472 0)
(-0.0247063 0.000344548 0)
(-0.0256636 0.00025745 0)
(-0.0265187 0.000229087 0)
(-0.027416 0.000255065 0)
(-0.028444 0.000316111 0)
(-0.0296129 0.000383552 0)
(-0.0308563 0.000427893 0)
(-0.0320564 0.000428157 0)
(-0.0330834 0.000378813 0)
(-0.0338359 0.000290889 0)
(-0.0342653 0.000184485 0)
(-0.0343708 7.69138e-05 0)
(-0.034176 -2.35135e-05 0)
(-0.0337145 -0.000116449 0)
(-0.0330068 -0.000203772 0)
(-0.0320737 -0.000284227 0)
(-0.0309455 -0.000354346 0)
(-0.0296631 -0.000411367 0)
(-0.0282742 -0.000452298 0)
(-0.0268281 -0.000475177 0)
(-0.0253711 -0.000481243 0)
(-0.0239434 -0.000473915 0)
(-0.022577 -0.000456423 0)
(-0.0212954 -0.000430244 0)
(-0.0201129 -0.000398663 0)
(-0.0190311 -0.000366116 0)
(-0.018041 -0.000335992 0)
(-0.0171279 -0.000311917 0)
(-0.016273 -0.000295772 0)
(-0.0154492 -0.000288793 0)
(-0.0146206 -0.000292037 0)
(-0.0137514 -0.000305959 0)
(-0.0128135 -0.000332429 0)
(-0.0117846 -0.000370451 0)
(-0.0106627 -0.000406805 0)
(-0.00946422 -0.000408805 0)
(-0.00811781 -0.000412195 0)
(-0.00671352 -0.000640691 0)
(-0.00221925 0.00407253 0)
(-0.00989912 0.00653896 0)
(-0.0185287 0.00708452 0)
(-0.0267646 0.00678884 0)
(-0.0341015 0.00615973 0)
(-0.0404067 0.00534065 0)
(-0.0456178 0.00441274 0)
(-0.0497568 0.00347533 0)
(-0.0529505 0.00264514 0)
(-0.0554232 0.00202879 0)
(-0.0574614 0.00169067 0)
(-0.0593549 0.00163002 0)
(-0.061329 0.00177671 0)
(-0.0634891 0.00200799 0)
(-0.0657979 0.00218509 0)
(-0.0680967 0.00219487 0)
(-0.0701637 0.00198326 0)
(-0.0717893 0.00156811 0)
(-0.0728402 0.0010236 0)
(-0.0732839 0.000441099 0)
(-0.0731653 -0.000110918 0)
(-0.0725577 -0.000606238 0)
(-0.071518 -0.0010518 0)
(-0.07009 -0.00145896 0)
(-0.0683141 -0.00182252 0)
(-0.0662446 -0.00212484 0)
(-0.0639545 -0.00234917 0)
(-0.061527 -0.00248781 0)
(-0.0590436 -0.00254394 0)
(-0.056578 -0.00252608 0)
(-0.0541926 -0.00244572 0)
(-0.0519382 -0.00231682 0)
(-0.049852 -0.00215582 0)
(-0.0479534 -0.00197992 0)
(-0.0462438 -0.00180816 0)
(-0.0447093 -0.00165879 0)
(-0.0433226 -0.00154041 0)
(-0.0420493 -0.00146012 0)
(-0.040846 -0.0014294 0)
(-0.0396557 -0.0014613 0)
(-0.0384174 -0.00155121 0)
(-0.0370868 -0.00168003 0)
(-0.0356376 -0.00184622 0)
(-0.0340431 -0.00202726 0)
(-0.0323033 -0.00213074 0)
(-0.0306079 -0.00220483 0)
(-0.0277978 -0.00240861 0)
(-0.0043056 0.012246 0)
(-0.017484 0.0174701 0)
(-0.0306005 0.0176981 0)
(-0.0422381 0.0162988 0)
(-0.0521881 0.0143627 0)
(-0.0605263 0.0121805 0)
(-0.0673298 0.00992585 0)
(-0.0727312 0.00779638 0)
(-0.076944 0.00600763 0)
(-0.0802688 0.00474102 0)
(-0.0830664 0.00408365 0)
(-0.0856948 0.00398873 0)
(-0.0884272 0.00427414 0)
(-0.0913773 0.00466469 0)
(-0.0944715 0.00487379 0)
(-0.0974834 0.00469111 0)
(-0.100118 0.00404256 0)
(-0.102116 0.00300302 0)
(-0.103332 0.00175231 0)
(-0.103769 0.000488507 0)
(-0.103529 -0.000657313 0)
(-0.10274 -0.00165391 0)
(-0.101493 -0.00253555 0)
(-0.0998321 -0.00333327 0)
(-0.0977914 -0.00403649 0)
(-0.0954303 -0.0046065 0)
(-0.0928386 -0.00500921 0)
(-0.0901202 -0.00523354 0)
(-0.0873737 -0.00529023 0)
(-0.0846833 -0.00519867 0)
(-0.0821208 -0.00498262 0)
(-0.0797461 -0.00467048 0)
(-0.0776021 -0.00429533 0)
(-0.0757129 -0.00389467 0)
(-0.0740832 -0.00350792 0)
(-0.072692 -0.00316848 0)
(-0.0715057 -0.00289256 0)
(-0.0704894 -0.00269612 0)
(-0.0695954 -0.00260753 0)
(-0.0687508 -0.00265115 0)
(-0.0678749 -0.00280877 0)
(-0.066922 -0.00304374 0)
(-0.0658485 -0.00336629 0)
(-0.0645786 -0.00374104 0)
(-0.0631883 -0.00399835 0)
(-0.0617843 -0.00417657 0)
(-0.0595603 -0.00437373 0)
(-0.00689695 0.0257573 0)
(-0.0253926 0.0331853 0)
(-0.0412368 0.0315415 0)
(-0.054129 0.0280258 0)
(-0.0647949 0.0241781 0)
(-0.0736794 0.0202604 0)
(-0.0810251 0.016442 0)
(-0.0870187 0.0129568 0)
(-0.0918528 0.0100853 0)
(-0.0957881 0.00807869 0)
(-0.0991722 0.00705655 0)
(-0.102394 0.00693386 0)
(-0.105784 0.00740611 0)
(-0.109498 0.00800983 0)
(-0.113449 0.00826369 0)
(-0.117346 0.0078312 0)
(-0.120799 0.0066177 0)
(-0.123464 0.00478431 0)
(-0.125165 0.00266442 0)
(-0.125949 0.000606808 0)
(-0.126011 -0.00117896 0)
(-0.125556 -0.00267444 0)
(-0.124696 -0.00397651 0)
(-0.12344 -0.00516395 0)
(-0.121777 -0.0062232 0)
(-0.119751 -0.00707595 0)
(-0.11747 -0.00765419 0)
(-0.115066 -0.00794388 0)
(-0.112656 -0.00796936 0)
(-0.110335 -0.0077637 0)
(-0.108181 -0.00736293 0)
(-0.106263 -0.00681108 0)
(-0.104636 -0.00616074 0)
(-0.103331 -0.00547276 0)
(-0.102353 -0.00480681 0)
(-0.101679 -0.00420756 0)
(-0.101278 -0.00370587 0)
(-0.101126 -0.00333223 0)
(-0.101177 -0.00313624 0)
(-0.101335 -0.00314989 0)
(-0.101502 -0.00333831 0)
(-0.10166 -0.00365986 0)
(-0.101747 -0.00413559 0)
(-0.101584 -0.00471099 0)
(-0.101251 -0.00513906 0)
(-0.10099 -0.00534018 0)
(-0.100089 -0.00551817 0)
(-0.0103961 0.0457647 0)
(-0.0321878 0.05187 0)
(-0.0460799 0.0455621 0)
(-0.0559297 0.0391195 0)
(-0.0642015 0.0333363 0)
(-0.0715386 0.0279195 0)
(-0.0782015 0.0228594 0)
(-0.0842983 0.0183015 0)
(-0.0898254 0.0145271 0)
(-0.0947911 0.0118679 0)
(-0.0993233 0.01054 0)
(-0.103699 0.0104868 0)
(-0.10827 0.0113064 0)
(-0.113276 0.0123027 0)
(-0.118669 0.0127278 0)
(-0.124108 0.0120701 0)
(-0.129082 0.0102055 0)
(-0.133116 0.00741471 0)
(-0.135976 0.00425277 0)