/*--------------------------------*- C++ -*----------------------------------*\
| =========                 |                                                 |
| \\      /  F ield         | OpenFOAM: The Open Source CFD Toolbox           |
|  \\    /   O peration     | Version:  2406                                  |
|   \\  /    A nd           | Website:  www.openfoam.com                      |
|    \\/     M anipulation  |                                                 |
\*---------------------------------------------------------------------------*/
FoamFile
{
    version     2.0;
    format      ascii;
    arch        "LSB;label=32;scalar=64";
    class       volScalarField;
    location    "165";
    object      p;
}
// * * * * * * * * * * * * * * * * * * * * * * * * * * * * * * * * * * * * * //

dimensions      [0 2 -2 0 0 0 0];

internalField   nonuniform List<scalar> 
1916
(
3.76178
3.7625
3.76307
3.76335
3.76351
3.76361
3.76365
3.76364
3.76359
3.76351
3.7634
3.76327
3.76312
3.76296
3.76278
3.7626
3.7624
3.7622
3.762
3.76179
3.76157
3.76136
3.76115
3.76094
3.76073
3.76052
3.76033
3.76015
3.75999
3.75985
3.75974
3.75968
3.75967
3.75972
3.75986
3.76009
3.76044
3.76092
3.76154
3.76231
3.76321
3.76422
3.76531
3.76641
3.76746
3.76837
3.76891
3.76241
3.76275
3.76313
3.76337
3.76351
3.7636
3.76363
3.76362
3.76357
3.76349
3.76338
3.76325
3.7631
3.76294
3.76277
3.76258
3.76239
3.76219
3.76199
3.76178
3.76156
3.76135
3.76113
3.76092
3.76071
3.7605
3.7603
3.76011
3.75994
3.75979
3.75967
3.75959
3.75956
3.75959
3.7597
3.75992
3.76026
3.76074
3.76138
3.7622
3.7632
3.76434
3.76557
3.7668
3.76794
3.769
3.76973
3.76301
3.76299
3.76314
3.76333
3.76347
3.76354
3.76357
3.76356
3.76352
3.76344
3.76334
3.76321
3.76307
3.76291
3.76274
3.76256
3.76237
3.76217
3.76196
3.76175
3.76153
3.76131
3.76108
3.76086
3.76063
3.7604
3.76018
3.75996
3.75974
3.75954
3.75934
3.75917
3.75902
3.75891
3.75885
3.75886
3.75896
3.75919
3.75959
3.76021
3.7611
3.7623
3.7638
3.76556
3.76743
3.76937
3.77082
3.7635
3.7633
3.76327
3.76339
3.76349
3.76353
3.76354
3.76352
3.76347
3.76339
3.76329
3.76317
3.76302
3.76287
3.7627
3.76251
3.76232
3.76212
3.76191
3.76169
3.76146
3.76123
3.76098
3.76073
3.76047
3.7602
3.75992
3.75962
3.75931
3.75898
3.75862
3.75824
3.75782
3.75737
3.75687
3.75634
3.75579
3.75523
3.75472
3.75434
3.75422
3.75455
3.75554
3.75744
3.76031
3.76397
3.76664
3.7639
3.76361
3.76346
3.76347
3.76352
3.76353
3.76351
3.76347
3.76341
3.76333
3.76323
3.76311
3.76297
3.76281
3.76264
3.76246
3.76226
3.76205
3.76183
3.7616
3.76136
3.7611
3.76083
3.76054
3.76023
3.75989
3.75952
3.75911
3.75865
3.75812
3.7575
3.75678
3.75592
3.7549
3.75366
3.75219
3.75042
3.74833
3.74589
3.74316
3.74022
3.73732
3.73486
3.73356
3.73377
3.73612
3.73567
3.76422
3.76389
3.76364
3.76358
3.76358
3.76355
3.7635
3.76344
3.76337
3.76329
3.76318
3.76305
3.76291
3.76275
3.76258
3.76239
3.76219
3.76197
3.76175
3.7615
3.76124
3.76095
3.76064
3.76031
3.75993
3.75951
3.75903
3.75847
3.75781
3.75702
3.75607
3.7549
3.75346
3.75166
3.74941
3.74658
3.74303
3.73858
3.73301
3.72612
3.71768
3.70757
3.69557
3.68203
3.66533
3.64518
3.60105
3.76448
3.76412
3.76381
3.76369
3.76364
3.76358
3.7635
3.76342
3.76334
3.76324
3.76313
3.763
3.76285
3.76269
3.76252
3.76232
3.76212
3.76189
3.76165
3.76139
3.7611
3.76079
3.76044
3.76005
3.75961
3.75909
3.75848
3.75776
3.75689
3.75582
3.75449
3.75283
3.75072
3.74804
3.7446
3.74016
3.73441
3.72694
3.71718
3.7044
3.68752
3.66517
3.6346
3.59395
3.52975
3.45483
3.17069
3.76467
3.76428
3.76394
3.76378
3.76369
3.7636
3.76351
3.76341
3.76331
3.76321
3.76309
3.76295
3.7628
3.76264
3.76246
3.76226
3.76205
3.76182
3.76157
3.76129
3.76098
3.76064
3.76025
3.75981
3.7593
3.7587
3.75798
3.7571
3.75603
3.75469
3.75301
3.75087
3.74812
3.74457
3.73995
3.73388
3.72587
3.71519
3.70081
3.68126
3.65412
3.61586
3.55851
3.47145
3.30097
2.9829
1.86498
3.76479
3.76439
3.76403
3.76384
3.76373
3.76362
3.76351
3.7634
3.76329
3.76318
3.76305
3.76292
3.76276
3.7626
3.76241
3.76222
3.762
3.76176
3.7615
3.76121
3.76088
3.76052
3.7601
3.75962
3.75906
3.75839
3.75758
3.75659
3.75536
3.75381
3.75185
3.74933
3.74607
3.74183
3.73625
3.72884
3.71893
3.70553
3.68714
3.66154
3.62507
3.57182
3.49007
3.36024
3.13109
2.73253
2.03003
3.76484
3.76445
3.76407
3.76387
3.76374
3.76363
3.76351
3.76339
3.76328
3.76316
3.76303
3.76289
3.76274
3.76257
3.76238
3.76218
3.76196
3.76172
3.76145
3.76115
3.76082
3.76044
3.76001
3.75951
3.75892
3.75821
3.75735
3.75629
3.75498
3.75331
3.75119
3.74847
3.74493
3.74029
3.73417
3.72601
3.71501
3.70002
3.6793
3.65015
3.60825
3.54661
3.4534
3.30924
3.08462
2.73228
2.23906
3.76483
3.76444
3.76406
3.76386
3.76373
3.76362
3.7635
3.76338
3.76327
3.76315
3.76302
3.76288
3.76273
3.76256
3.76237
3.76217
3.76195
3.7617
3.76143
3.76114
3.7608
3.76042
3.75999
3.75949
3.7589
3.75819
3.75732
3.75626
3.75494
3.75328
3.75115
3.74842
3.74488
3.74024
3.7341
3.72593
3.71491
3.6999
3.67913
3.6499
3.60789
3.54603
3.45243
3.30754
3.08166
2.72697
2.23104
3.76476
3.76437
3.76401
3.76381
3.7637
3.76359
3.76348
3.76337
3.76326
3.76315
3.76302
3.76288
3.76273
3.76256
3.76238
3.76218
3.76196
3.76171
3.76145
3.76116
3.76083
3.76046
3.76004
3.75956
3.75899
3.75832
3.7575
3.7565
3.75526
3.75371
3.75173
3.7492
3.74593
3.74167
3.73606
3.72862
3.71865
3.70516
3.68666
3.66088
3.62409
3.5703
3.48753
3.3557
3.1223
2.7143
1.99462
3.76462
3.76424
3.7639
3.76373
3.76365
3.76356
3.76346
3.76336
3.76326
3.76316
3.76303
3.7629
3.76275
3.76258
3.7624
3.7622
3.76198
3.76175
3.76149
3.76121
3.7609
3.76055
3.76016
3.75971
3.75919
3.75858
3.75785
3.75697
3.75588
3.75453
3.75283
3.75067
3.7479
3.74432
3.73965
3.73353
3.72544
3.71465
3.70012
3.68033
3.6528
3.61393
3.55545
3.46639
3.29086
2.96151
1.79517
3.76442
3.76406
3.76375
3.76363
3.76358
3.76352
3.76344
3.76336
3.76327
3.76317
3.76306
3.76293
3.76278
3.76261
3.76243
3.76224
3.76203
3.7618
3.76155
3.76128
3.76099
3.76067
3.76032
3.75992
3.75946
3.75893
3.75832
3.75758
3.75669
3.7556
3.75426
3.75257
3.75043
3.74771
3.74423
3.73973
3.7339
3.72632
3.71641
3.7034
3.68618
3.66333
3.63197
3.5901
3.52363
3.44604
3.15004
3.76415
3.76382
3.76357
3.76351
3.7635
3.76348
3.76343
3.76337
3.76329
3.7632
3.76309
3.76297
3.76282
3.76266
3.76248
3.76229
3.76208
3.76186
3.76162
3.76137
3.7611
3.76081
3.76049
3.76014
3.75975
3.75932
3.75882
3.75825
3.75757
3.75676
3.75579
3.75459
3.75312
3.75128
3.74899
3.7461
3.74248
3.73793
3.73224
3.72518
3.71651
3.70609
3.69367
3.67956
3.66205
3.64083
3.59441
3.76382
3.76353
3.76337
3.76339
3.76344
3.76345
3.76343
3.76339
3.76333
3.76324
3.76314
3.76301
3.76287
3.7627
3.76253
3.76234
3.76214
3.76192
3.7617
3.76146
3.76121
3.76094
3.76066
3.76036
3.76003
3.75968
3.7593
3.75887
3.75838
3.75783
3.75719
3.75644
3.75555
3.75449
3.75322
3.7517
3.74987
3.74771
3.74519
3.74234
3.73928
3.73623
3.7336
3.73212
3.73217
3.73441
3.73378
3.76341
3.76321
3.76318
3.7633
3.7634
3.76344
3.76345
3.76343
3.76337
3.76329
3.76319
3.76306
3.76291
3.76275
3.76258
3.76239
3.76219
3.76198
3.76176
3.76153
3.7613
3.76105
3.7608
3.76053
3.76026
3.75997
3.75968
3.75936
3.75903
3.75868
3.7583
3.75789
3.75744
3.75695
3.75643
3.75586
3.75526
3.75466
3.7541
3.75367
3.75349
3.75376
3.75471
3.75661
3.75951
3.76323
3.76595
3.76292
3.7629
3.76304
3.76324
3.76337
3.76345
3.76348
3.76347
3.76342
3.76334
3.76323
3.7631
3.76296
3.76279
3.76262
3.76243
3.76223
3.76202
3.76181
3.76159
3.76136
3.76113
3.76089
3.76065
3.76041
3.76017
3.75993
3.75969
3.75945
3.75922
3.75901
3.75881
3.75864
3.7585
3.75841
3.75839
3.75846
3.75867
3.75904
3.75963
3.76051
3.7617
3.76321
3.765
3.76691
3.76889
3.77037
3.76232
3.76266
3.76303
3.76328
3.76342
3.7635
3.76354
3.76352
3.76347
3.76338
3.76327
3.76314
3.76299
3.76282
3.76264
3.76245
3.76225
3.76204
3.76183
3.76161
3.76139
3.76116
3.76094
3.76071
3.76048
3.76026
3.76004
3.75984
3.75965
3.75948
3.75934
3.75923
3.75918
3.75919
3.75928
3.75947
3.75978
3.76024
3.76087
3.76168
3.76267
3.76382
3.76506
3.76631
3.76746
3.76854
3.76929
3.76168
3.76241
3.76297
3.76325
3.76341
3.76351
3.76355
3.76354
3.76349
3.7634
3.76329
3.76316
3.763
3.76283
3.76265
3.76246
3.76226
3.76206
3.76184
3.76162
3.7614
3.76117
3.76095
3.76072
3.7605
3.76028
3.76007
3.75988
3.75969
3.75954
3.75941
3.75932
3.75929
3.75932
3.75944
3.75965
3.75998
3.76044
3.76105
3.7618
3.7627
3.76371
3.7648
3.76591
3.76697
3.7679
3.76844
-0.691456
-0.602357
-0.0439725
0.102436
0.0313979
-0.0144445
0.855483
0.380696
0.35301
0.279777
0.131724
0.0336
1.45697
0.716012
0.36418
0.23368
0.124058
0.0274448
1.44109
0.690743
0.333476
0.198182
0.0793158
-0.0290974
0.783288
0.290183
0.265205
0.192503
0.0270714
-0.100542
-0.899796
-0.833546
-0.230239
-0.0634295
-0.159711
-0.239934
0.00205462
0.0020081
0.00196048
0.00192505
0.00190748
0.00191714
0.00196102
0.00203843
0.00213806
0.00224064
0.00232654
0.00238318
0.00240933
0.00241295
0.00240637
0.00240274
0.00241354
0.00244613
0.00250151
0.00257435
0.00265654
0.00274181
0.00282722
0.00291158
0.00299329
0.00306906
0.00313452
0.00318548
0.00321854
0.00323107
0.00322121
0.00318789
0.00313099
0.00305104
0.00294889
0.00282545
0.00268156
0.00251784
0.00233468
0.00213193
0.00190928
0.00166614
0.00140209
0.00111641
0.000811063
0.000499062
0.000181114
0.00212381
0.00207169
0.00202019
0.00197637
0.00194429
0.00193543
0.00196046
0.00202401
0.00211934
0.00222706
0.00232411
0.00239384
0.0024315
0.0024424
0.00243659
0.00242693
0.00242688
0.00244779
0.00249472
0.00256384
0.00264537
0.00273015
0.00281364
0.00289515
0.0029742
0.00304817
0.00311265
0.00316317
0.00319624
0.00320924
0.00320017
0.00316784
0.00311207
0.00303331
0.00293241
0.00281027
0.0026678
0.00250558
0.0023239
0.00212225
0.00190027
0.00165747
0.00139348
0.00110584
0.000797516
0.0004911
0.000191033
0.00212028
0.00206056
0.00199884
0.00193753
0.00188224
0.00184915
0.00185602
0.00191768
0.0020353
0.00218706
0.00233668
0.00245078
0.00251282
0.00252388
0.00249565
0.00244848
0.00240712
0.00239655
0.0024317
0.00250797
0.00260449
0.00270005
0.00278528
0.00286288
0.00293849
0.00301247
0.00307955
0.00313355
0.00317038
0.00318732
0.00318219
0.00315338
0.00310042
0.00302379
0.00292451
0.00280355
0.00266186
0.00250002
0.00231831
0.00211685
0.00189584
0.00165469
0.00139256
0.00110796
0.000793337
0.00044974
0.000151759
0.00187883
0.00182962
0.00177257
0.00170176
0.00162756
0.00157204
0.00156522
0.00164263
0.00182417
0.00208696
0.00236784
0.00259219
0.00270902
0.00270749
0.00261007
0.00246145
0.00231728
0.00223595
0.00225572
0.00236716
0.00251663
0.00264807
0.00273955
0.00280508
0.00286993
0.00294524
0.00302327
0.00309063
0.00313986
0.00316871
0.00317519
0.00315655
0.00311109
0.00303952
0.0029436
0.00282496
0.002684
0.00252061
0.00233586
0.00213322
0.00191285
0.001668
0.00139935
0.00113003
0.000851298
0.000491002
0.000141368
0.00114853
0.00122067
0.00126566
0.00123814
0.00116642
0.00108912
0.00106
0.00115212
0.00142704
0.00188003
0.00241777
0.00287616
0.00309987
0.00305431
0.00280317
0.00244699
0.00210246
0.00189069
0.00189466
0.00209675
0.00237371
0.00258794
0.00268683
0.0027134
0.00274552
0.00282401
0.00293116
0.00302945
0.0031023
0.00315326
0.00318444
0.00318933
0.00316219
0.00310321
0.00301559
0.00290194
0.00276157
0.00259225
0.00239778
0.00218954
0.00196773
0.00170779
0.00141094
0.00115978
0.000968549
0.000616383
0.000112395
-0.000740876
5.37714e-05
0.000555121
0.000699488
0.00067226
0.000589916
0.000542031
0.000647206
0.00102969
0.00173877
0.00265618
0.00344963
0.00376917
0.00357615
0.0030334
0.00233137
0.0016659
0.00124149
0.00122432
0.00161899
0.00218101
0.00258392
0.00269178
0.00261245
0.00255434
0.00263192
0.00279871
0.0029539
0.00306255
0.00314802
0.0032242
0.00327426
0.00328052
0.00324277
0.00316886
0.00306331
0.00292297
0.00274212
0.00252551
0.00229411
0.00205298
0.00176458
0.00142745
0.00117074
0.0010312
0.000672591
5.15475e-05
-0.00423016
-0.000150853
0.00115395
0.00123942
0.00120742
0.00108669
0.000943265
0.000985141
0.00140723
0.00226567
0.00334218
0.00418945
0.00448234
0.00410945
0.00320031
0.00202841
0.000889389
0.000134499
0.000125281
0.000948581
0.00211064
0.00287844
0.00294117
0.00256444
0.00224671
0.00228606
0.00257891
0.00286219
0.00303828
0.00316848
0.00330706
0.00342618
0.00348166
0.00347012
0.00341098
0.0033134
0.00317097
0.00297095
0.00271642
0.00243302
0.00213847
0.00180366
0.00142996
0.00113863
0.000954547
0.000554073
-3.30952e-05
-0.00498901
0.000575649
-0.0002334
-0.00106246
-0.000886123
-0.000656432
-0.000603724
-0.000449776
4.3034e-05
0.000914309
0.0019637
0.00278604
0.00299037
0.00249974
0.00155028
0.000420022
-0.000598013
-0.00108304
-0.000597701
0.000846671
0.00257018
0.00362217
0.00344075
0.00241572
0.00155731
0.00159723
0.00228885
0.00291851
0.00317283
0.00325291
0.00341418
0.00363048
0.00376058
0.00377294
0.00371601
0.00362073
0.00347275
0.00324707
0.00294148
0.00258305
0.00220099
0.00179592
0.00138245
0.00103972
0.000752891
0.00031604
-0.000122197
0.00795146
0.00407848
0.000360032
-0.00181765
-0.00157625
-0.000566826
0.000258551
0.000971109
0.00181827
0.00285916
0.00398045
0.00499987
0.00576975
0.00611832
0.00580058
0.00468048
0.0030429
0.00161083
0.00116105
0.00192387
0.00312321
0.00339385
0.00231893
0.000883618
0.00031809
0.00102356
0.00239511
0.00339608
0.00347527
0.00321048
0.00337963
0.0038535
0.00413328
0.00412833
0.00402064
0.00392168
0.00378177
0.00353112
0.00316181
0.00271478
0.00223326
0.00174571
0.0012808
0.000880433
0.000509182
7.02542e-05
-0.000196403
-0.0218122
-0.0376276
-0.0445329
-0.0492743
-0.0504579
-0.0483573
-0.0446099
-0.0401381
-0.0351375
-0.0297274
-0.0241516
-0.0186985
-0.0136497
-0.0093289
-0.00607957
-0.00402854
-0.00286665
-0.00195291
-0.000696412
0.0010356
0.00278408
0.00384737
0.00390785
0.00317016
0.00240371
0.00256063
0.00333973
0.00338974
0.00265257
0.00241127
0.00314345
0.00414674
0.00458018
0.00440839
0.00417237
0.00412309
0.00406079
0.00379547
0.00334197
0.00279275
0.00222013
0.00165917
0.00113675
0.000674785
0.000251308
-0.000136904
-0.000250567
-0.0872758
-0.106536
-0.114693
-0.120782
-0.122987
-0.121194
-0.117286
-0.112343
-0.106469
-0.099648
-0.0920274
-0.0838212
-0.0752882
-0.0667666
-0.0585912
-0.0509139
-0.0436135
-0.0364001
-0.0290651
-0.0217381
-0.0149418
-0.00928925
-0.00513201
-0.00243398
-0.000645526
0.000995684
0.0025994
0.00361678
0.00393032
0.00408477
0.00454516
0.00478736
0.00429775
0.00378429
0.00381746
0.00412427
0.00424154
0.00397497
0.0034292
0.00278624
0.0021496
0.0015463
0.000979154
0.000461458
1.1733e-05
-0.000277262
-0.000266187
-0.151013
-0.164638
-0.173795
-0.180756
-0.182404
-0.180287
-0.176862
-0.172935
-0.168391
-0.163109
-0.157047
-0.150136
-0.142376
-0.133977
-0.125254
-0.116373
-0.107202
-0.0973751
-0.086546
-0.0748117
-0.0629558
-0.0521134
-0.0430902
-0.0358337
-0.0294058
-0.0226614
-0.0152562
-0.00791914
-0.0017849
0.0023989
0.00467032
0.00553708
0.00557053
0.00531037
0.00497235
0.00458442
0.00408282
0.0034919
0.0029252
0.00241836
0.00193268
0.00143051
0.000898575
0.000382072
-7.69768e-05
-0.000239519
-0.000220948
-0.248378
-0.240428
-0.242756
-0.246741
-0.24689
-0.244688
-0.241917
-0.238949
-0.235656
-0.231918
-0.227486
-0.221983
-0.215249
-0.207611
-0.199639
-0.191645
-0.183422
-0.17417
-0.162841
-0.149171
-0.134388
-0.120677
-0.109793
-0.101852
-0.0947283
-0.0849818
-0.0702976
-0.0513235
-0.0312401
-0.0136768
-0.00086842
0.0067765
0.0100934
0.0104101
0.00913853
0.00751273
0.00615098
0.00505973
0.00407202
0.00312443
0.00224449
0.00147139
0.000786178
0.00024974
-0.000244237
-0.000170134
-0.00047404
-0.254374
-0.247108
-0.244876
-0.245219
-0.245341
-0.245168
-0.245018
-0.245059
-0.245474
-0.246219
-0.246792
-0.246388
-0.244565
-0.241841
-0.239195
-0.237166
-0.235532
-0.232753
-0.226379
-0.215315
-0.201577
-0.18932
-0.182634
-0.182794
-0.185598
-0.182404
-0.16555
-0.133436
-0.0913914
-0.0480418
-0.0107829
0.0162284
0.0319639
0.0378274
0.0367221
0.031838
0.0256424
0.0195828
0.0143461
0.0101833
0.00705588
0.00479163
0.0031054
0.00201356
0.000971185
0.00157645
-0.00140887
-0.244419
-0.244051
-0.243679
-0.243649
-0.243845
-0.243986
-0.244026
-0.244204
-0.244932
-0.246428
-0.248218
-0.2493
-0.249027
-0.248088
-0.24799
-0.249803
-0.253791
-0.257786
-0.257242
-0.249549
-0.237638
-0.228212
-0.229608
-0.246527
-0.272188
-0.289096
-0.279934
-0.237943
-0.170357
-0.0920652
-0.0171805
0.044515
0.0877738
0.111628
0.11866
0.113425
0.100771
0.0847655
0.068334
0.053253
0.040324
0.0297289
0.0211938
0.0147821
0.00929518
0.00804648
-0.00267909
-0.241594
-0.241789
-0.242068
-0.242426
-0.242834
-0.243201
-0.243477
-0.243813
-0.244528
-0.245835
-0.247399
-0.248309
-0.248006
-0.247255
-0.247377
-0.25004
-0.256311
-0.263794
-0.266219
-0.259203
-0.245863
-0.234846
-0.240495
-0.274635
-0.32967
-0.377164
-0.385531
-0.339277
-0.247668
-0.132271
-0.0133753
0.0934665
0.17725
0.232494
0.259484
0.262683
0.248405
0.223065
0.192246
0.160154
0.129467
0.101627
0.0770836
0.0561903
0.037695
0.0249374
0.00173366
-0.241034
-0.241223
-0.24149
-0.241797
-0.24215
-0.242538
-0.242935
-0.243368
-0.243972
-0.244938
-0.246238
-0.247402
-0.247818
-0.247527
-0.247568
-0.249765
-0.255514
-0.262567
-0.26441
-0.256893
-0.241946
-0.227741
-0.234396
-0.280723
-0.358887
-0.434068
-0.459728
-0.409912
-0.297885
-0.151326
0.00657057
0.156614
0.282501
0.373887
0.427868
0.447446
0.438601
0.408776
0.365752
0.31622
0.265016
0.215241
0.168576
0.125743
0.0864696
0.0509757
0.0151062
-0.241203
-0.241347
-0.241567
-0.241826
-0.242129
-0.242485
-0.242899
-0.243368
-0.243913
-0.244593
-0.245477
-0.246532
-0.24757
-0.248372
-0.249025
-0.250281
-0.253331
-0.258025
-0.260894
-0.256964
-0.245204
-0.232969
-0.241555
-0.294511
-0.385581
-0.478871
-0.512506
-0.453684
-0.322001
-0.150773
0.0370153
0.220224
0.378961
0.499543
0.576838
0.612986
0.612755
0.583095
0.532881
0.47043
0.402223
0.332808
0.265109
0.200163
0.139158
0.077823
0.0313976
-0.241425
-0.241529
-0.241718
-0.241967
-0.242269
-0.242632
-0.243068
-0.243583
-0.244177
-0.244856
-0.24564
-0.246567
-0.247673
-0.248945
-0.250316
-0.251722
-0.253251
-0.255205
-0.257587
-0.259034
-0.256928
-0.251586
-0.255757
-0.296822
-0.386266
-0.482631
-0.513791
-0.446683
-0.305689
-0.125048
0.0758855
0.274946
0.450052
0.586925
0.678386
0.724416
0.729092
0.6999
0.64628
0.576841
0.498668
0.417131
0.335942
0.256346
0.180466
0.101033
0.0440431
-0.241529
-0.241612
-0.241795
-0.242049
-0.242363
-0.242739
-0.243186
-0.243715
-0.244336
-0.245058
-0.245894
-0.24687
-0.248026
-0.249397
-0.250984
-0.252735
-0.254551
-0.256306
-0.257901
-0.259226
-0.26007
-0.260915
-0.265437
-0.283027
-0.324612
-0.384948
-0.425206
-0.392911
-0.272106
-0.0912994
0.113679
0.315017
0.4883
0.621469
0.717358
0.769661
0.775201
0.744545
0.688635
0.615946
0.533585
0.447245
0.360911
0.276062
0.194733
0.111004
0.0458586
)
;

boundaryField
{
    inlet
    {
        type            zeroGradient;
    }
    outlet
    {
        type            fixedValue;
        value           uniform 0;
    }
    upperWall
    {
        type            zeroGradient;
    }
    lowerWall
    {
        type            zeroGradient;
    }
    frontAndBack
    {
        type            empty;
    }
}


// ************************************************************************* //
