/*--------------------------------*- C++ -*----------------------------------*\
| =========                 |                                                 |
| \\      /  F ield         | OpenFOAM: The Open Source CFD Toolbox           |
|  \\    /   O peration     | Version:  2406                                  |
|   \\  /    A nd           | Website:  www.openfoam.com                      |
|    \\/     M anipulation  |                                                 |
\*---------------------------------------------------------------------------*/
FoamFile
{
    version     2.0;
    format      ascii;
    arch        "LSB;label=32;scalar=64";
    class       surfaceScalarField;
    location    "165";
    object      phi;
}
// * * * * * * * * * * * * * * * * * * * * * * * * * * * * * * * * * * * * * //

dimensions      [0 3 -1 0 0 0 0];

oriented        oriented;

internalField   nonuniform List<scalar> 
3698
(
0.00994894
-0.000198906
0.0102119
-0.000262914
0.0104615
-0.000249462
0.0106851
-0.000223583
0.0108813
-0.000196119
0.0110504
-0.000169015
0.0111948
-0.000144327
0.011318
-0.000123119
0.0114234
-0.000105322
0.0115139
-9.04626e-05
0.011592
-7.80528e-05
0.0116598
-6.76601e-05
0.0117187
-5.88967e-05
0.0117702
-5.14295e-05
0.0118153
-4.49685e-05
0.0118546
-3.9268e-05
0.0118888
-3.41047e-05
0.0119182
-2.92784e-05
0.0119428
-2.45878e-05
0.0119628
-1.9831e-05
0.0119776
-1.47742e-05
0.0119869
-9.14422e-06
0.0119895
-2.5376e-06
0.0119841
5.48135e-06
0.0119689
1.53016e-05
0.0119416
2.74104e-05
0.0118992
4.25254e-05
0.0118377
6.15752e-05
0.0117521
8.57339e-05
0.0116358
0.000116437
0.0114805
0.000155432
0.0112759
0.00020477
0.0110092
0.000266781
0.0106654
0.000343928
0.010227
0.000438549
0.00967479
0.000552321
0.0089895
0.000685426
0.00815442
0.000835207
0.00716018
0.00099439
0.00601143
0.00114891
0.0047353
0.0012763
0.00338965
0.00134584
0.00206663
0.0013232
0.00089207
0.00117475
3.3652e-05
0.00085862
-0.000241654
0.000275699
-0.000241586
0.0276463
-9.51803e-05
0.0275784
-0.00019491
0.0275525
-0.000223458
0.027556
-0.000227035
0.027582
-0.000222041
0.0276236
-0.000210583
0.0276745
-0.000195108
0.02773
-0.000178602
0.0277875
-0.000162679
0.0278449
-0.000147814
0.027901
-0.000134105
0.027955
-0.000121559
0.0280063
-0.000110107
0.0280546
-9.96081e-05
0.0280996
-8.98815e-05
0.0281411
-8.07232e-05
0.028179
-7.19134e-05
0.028213
-6.32046e-05
0.0282429
-5.4317e-05
0.028268
-4.49179e-05
0.028288
-3.4609e-05
0.0283018
-2.2894e-05
0.0283086
-9.16696e-06
0.0283068
7.33555e-06
0.0282947
2.75837e-05
0.0282694
5.2818e-05
0.0282274
8.46238e-05
0.0281641
0.00012505
0.0280732
0.000176715
0.0279468
0.00024295
0.0277744
0.000327945
0.0275424
0.000436913
0.0272332
0.000576216
0.0268238
0.000753435
0.0262852
0.000977247
0.0255807
0.001257
0.0246646
0.00160169
0.0234819
0.00201802
0.0219695
0.00250695
0.0200605
0.0030581
0.0176952
0.00364177
0.0148441
0.00419722
0.011547
0.00462048
0.00797562
0.00474638
0.00448639
0.00434828
0.00161709
0.00314528
0.00137573
0.0437067
-5.19063e-05
0.0436439
-0.000132051
0.0435908
-0.000170236
0.0435485
-0.000184701
0.0435158
-0.000189302
0.0434927
-0.000187408
0.0434781
-0.000180439
0.0434702
-0.000170621
0.0434673
-0.000159755
0.0434682
-0.000148706
0.043472
-0.000137823
0.0434778
-0.000127288
0.0434849
-0.000117181
0.0434929
-0.000107481
0.0435011
-9.80831e-05
0.0435093
-8.88237e-05
0.0435169
-7.94903e-05
0.0435236
-6.98169e-05
0.0435288
-5.94705e-05
0.043532
-4.80353e-05
0.0435325
-3.49871e-05
0.0435293
-1.96615e-05
0.0435214
-1.21602e-06
0.0435074
2.14299e-05
0.0434854
4.96786e-05
0.043453
8.53377e-05
0.0434069
0.000130751
0.0433431
0.000188958
0.0432561
0.000263893
0.0431385
0.000360623
0.0429809
0.000485653
0.0427706
0.00064727
0.042491
0.000855949
0.0421198
0.00112476
0.0416273
0.00146977
0.0409743
0.00191017
0.0401079
0.00246813
0.0389585
0.00316758
0.037434
0.00403151
0.0354163
0.00507593
0.0327591
0.00629909
0.0292964
0.00766007
0.0248685
0.00904847
0.019391
0.010224
0.0129665
0.0107729
0.00605286
0.0100595
0.00742858
0.0577311
-3.29585e-05
0.0576897
-9.06539e-05
0.0576464
-0.00012687
0.0576071
-0.000145367
0.057572
-0.000154109
0.0575413
-0.000156721
0.0575154
-0.000154458
0.0574936
-0.000148781
0.0574751
-0.000141221
0.0574592
-0.000132773
0.0574454
-0.000123938
0.0574331
-0.000114984
0.057422
-0.000106059
0.0574118
-9.72038e-05
0.0574021
-8.83587e-05
0.0573927
-7.93824e-05
0.0573834
-7.00645e-05
0.0573737
-6.01208e-05
0.0573635
-4.91819e-05
0.0573523
-3.67716e-05
0.0573396
-2.22796e-05
0.057325
-4.92228e-06
0.0573075
1.63118e-05
0.0572863
4.27311e-05
0.05726
7.60305e-05
0.057227
0.000118418
0.057185
0.000172773
0.0571312
0.000242854
0.0570616
0.000333559
0.056971
0.000451277
0.0568524
0.000604315
0.0566963
0.000803456
0.0564897
0.00106266
0.0562147
0.0013999
0.0558463
0.00183821
0.0553498
0.00240679
0.0546757
0.00314224
0.053754
0.00408939
0.0524841
0.00530147
0.0507226
0.00683754
0.048265
0.00875672
0.0448281
0.0110971
0.0400284
0.0138482
0.0334044
0.0168481
0.0244813
0.0196962
0.0130604
0.0214803
0.0204894
0.0697394
-2.23611e-05
0.0697124
-6.35521e-05
0.0696793
-9.37636e-05
0.0696461
-0.000112102
0.0696141
-0.000122088
0.0695839
-0.000126543
0.0695562
-0.000126731
0.0695312
-0.000123662
0.0695084
-0.000118463
0.0694877
-0.000112032
0.0694687
-0.0001049
0.0694512
-9.7364e-05
0.0694347
-8.95913e-05
0.0694192
-8.16504e-05
0.0694044
-7.35111e-05
0.0693901
-6.50552e-05
0.0693762
-5.60849e-05
0.0693625
-4.63204e-05
0.0693487
-3.5387e-05
0.0693348
-2.27933e-05
0.0693204
-7.90091e-06
0.0693055
1.01183e-05
0.0692895
3.23396e-05
0.0692721
6.01604e-05
0.0692528
9.54033e-05
0.0692308
0.000140451
0.0692052
0.000198428
0.0691747
0.000273432
0.0691375
0.000370848
0.0690911
0.000497758
0.069032
0.000663486
0.0689552
0.000880319
0.0688534
0.00116447
0.0687161
0.00153735
0.0685271
0.00202727
0.0682623
0.00267168
0.0678845
0.00352009
0.0673361
0.00463778
0.0665269
0.00611077
0.0653148
0.00804974
0.0634728
0.0105987
0.060646
0.013924
0.0562548
0.0182395
0.0494346
0.0236684
0.0387148
0.0304158
0.0223529
0.0378428
0.0428423
0.0797431
-1.54678e-05
0.0797243
-4.46764e-05
0.0796985
-6.79411e-05
0.0796701
-8.36298e-05
0.079641
-9.29671e-05
0.0796122
-9.77278e-05
0.0795845
-9.89842e-05
0.0795583
-9.74734e-05
0.0795339
-9.39681e-05
0.079511
-8.91658e-05
0.0794897
-8.3544e-05
0.0794698
-7.73843e-05
0.0794511
-7.08477e-05
0.0794334
-6.40062e-05
0.0794168
-5.68465e-05
0.0794011
-4.92725e-05
0.0793861
-4.11099e-05
0.079372
-3.21033e-05
0.0793585
-2.19047e-05
0.0793458
-1.0052e-05
0.0793339
4.06e-06
0.0793229
2.12211e-05
0.0793128
4.2461e-05
0.0793039
6.91247e-05
0.0792964
0.000102973
0.0792906
0.000146315
0.0792868
0.000202193
0.0792857
0.000274615
0.0792877
0.000368884
0.0792935
0.000492027
0.0793037
0.000653391
0.0793186
0.000865451
0.0793382
0.00114493
0.0793613
0.00151438
0.0793842
0.00200438
0.0793993
0.00265665
0.0793907
0.00352874
0.0793282
0.00470032
0.0791551
0.00628392
0.0787685
0.00843636
0.0779761
0.0113912
0.0764445
0.0154557
0.0735064
0.0211776
0.0681722
0.0290027
0.0579905
0.0405978
0.0409171
0.0549161
0.0837596
0.087745
-1.043e-05
0.0877307
-3.03602e-05
0.0877097
-4.69431e-05
0.087685
-5.88606e-05
0.0876584
-6.63777e-05
0.0876312
-7.04491e-05
0.0876041
-7.18389e-05
0.0875777
-7.10802e-05
0.0875525
-6.86865e-05
0.0875285
-6.51501e-05
0.0875058
-6.08449e-05
0.0874845
-5.60057e-05
0.0874644
-5.07667e-05
0.0874456
-4.51889e-05
0.0874281
-3.92656e-05
0.0874118
-3.29217e-05
0.0873967
-2.60149e-05
0.087383
-1.83328e-05
0.0873707
-9.58222e-06
0.0873601
6.27724e-07
0.0873514
1.2812e-05
0.087345
2.76449e-05
0.0873415
4.60082e-05
0.0873416
6.90568e-05
0.0873463
9.83063e-05
0.0873569
0.000135752
0.0873751
0.000184027
0.0874032
0.000246619
0.087444
0.000328164
0.0875012
0.000434845
0.0875797
0.000574954
0.0876855
0.000759672
0.0878263
0.00100418
0.0880115
0.00132928
0.0882522
0.00176373
0.0885612
0.00234775
0.0889515
0.00313845
0.0894341
0.00421782
0.0900111
0.00570687
0.0906643
0.00778324
0.0913245
0.010731
0.0918246
0.0149556
0.0917093
0.0212928
0.0900186
0.0306934
0.0832499
0.0473665
0.064462
0.0737043
0.148221
0.093746
-6.37296e-06
0.0937342
-1.86203e-05
0.0937164
-2.90305e-05
0.0936943
-3.67552e-05
0.0936697
-4.17507e-05
0.0936437
-4.4468e-05
0.0936173
-4.5372e-05
0.0935911
-4.48116e-05
0.0935655
-4.31037e-05
0.093541
-4.05561e-05
0.0935176
-3.7418e-05
0.0934954
-3.38537e-05
0.0934747
-2.99574e-05
0.0934553
-2.57708e-05
0.0934373
-2.12886e-05
0.0934209
-1.64576e-05
0.0934061
-1.11753e-05
0.0933931
-5.28776e-06
0.0933821
1.41794e-06
0.0933736
9.22695e-06
0.0933679
1.85154e-05
0.0933658
2.97764e-05
0.0933682
4.3656e-05
0.0933763
6.10013e-05
0.0933917
8.29257e-05
0.0934166
0.000110898
0.0934539
0.000146859
0.0935071
0.000193392
0.0935814
0.000253935
0.0936832
0.000333104
0.0938211
0.000437121
0.0940064
0.00057444
0.094254
0.00075665
0.0945835
0.000999804
0.0950209
0.00132642
0.0956002
0.00176853
0.0963662
0.00237247
0.0973775
0.00320655
0.098711
0.00437337
0.100463
0.00603088
0.102767
0.00842731
0.105761
0.0119621
0.109742
0.0173117
0.114984
0.025451
0.12387
0.0384802
0.143436
0.0541387
0.0869132
0.204744
0.0977465
-2.83672e-06
0.0977362
-8.30047e-06
0.0977201
-1.2941e-05
0.0976998
-1.63508e-05
0.0976765
-1.84569e-05
0.0976515
-1.94314e-05
0.0976256
-1.94878e-05
0.0975996
-1.87967e-05
0.0975741
-1.75082e-05
0.0975493
-1.57674e-05
0.0975256
-1.36958e-05
0.0975032
-1.13754e-05
0.0974821
-8.85241e-06
0.0974625
-6.14566e-06
0.0974445
-3.24972e-06
0.0974282
-1.34243e-07
0.0974138
3.25705e-06
0.0974016
7.00792e-06
0.0973918
1.12337e-05
0.097385
1.6088e-05
0.0973817
2.17731e-05
0.097383
2.85533e-05
0.0973899
3.67747e-05
0.0974041
4.68903e-05
0.0974276
5.94957e-05
0.0974631
7.53758e-05
0.0975145
9.55701e-05
0.0975864
0.000121461
0.0976855
0.000154894
0.0978203
0.000198353
0.0980023
0.000255197
0.0982468
0.000330012
0.0985744
0.000429118
0.0990129
0.000561335
0.0996003
0.00073913
0.100388
0.000980438
0.101449
0.00131144
0.102885
0.00177141
0.104839
0.00241932
0.107521
0.00334873
0.111252
0.00469662
0.116519
0.0066943
0.12423
0.00960124
0.135875
0.0138057
0.154785
0.0195708
0.18403
0.0248932
0.0381181
0.232825
0.0997467
4.65079e-07
0.0997371
1.37202e-06
0.0997219
2.28358e-06
0.0997023
3.20015e-06
0.0996798
4.12525e-06
0.0996553
5.06135e-06
0.0996299
6.0114e-06
0.0996041
6.97897e-06
0.0995787
7.96806e-06
0.0995539
8.98299e-06
0.0995303
1.00284e-05
0.0995078
1.11091e-05
0.0994868
1.22306e-05
0.0994672
1.33986e-05
0.0994494
1.46191e-05
0.0994334
1.58986e-05
0.0994195
1.72441e-05
0.0994078
1.86632e-05
0.0993989
2.01638e-05
0.0993933
2.17548e-05
0.0993917
2.34456e-05
0.099395
2.52468e-05
0.0994047
2.717e-05
0.0994224
2.92287e-05
0.0994505
3.14382e-05
0.0994921
3.38165e-05
0.0995513
3.63856e-05
0.0996337
3.91725e-05
0.0997464
4.2211e-05
0.0998992
4.55451e-05
0.100105
4.92325e-05
0.100382
5.33517e-05
0.100753
5.80117e-05
0.101251
6.3367e-05
0.101921
6.96424e-05
0.102824
7.71714e-05
0.104049
8.64622e-05
0.105722
9.83087e-05
0.108028
0.000113983
0.111241
0.000135611
0.115771
0.000166731
0.122251
0.000213934
0.131565
0.000287183
0.144961
0.000409814
0.163933
0.000598427
0.187882
0.000944211
0.00141339
0.224587
0.0997467
3.75675e-06
0.0997371
1.10133e-05
0.099722
1.74563e-05
0.0997025
2.26782e-05
0.0996801
2.66132e-05
0.0996557
2.94379e-05
0.0996304
3.13718e-05
0.0996048
3.25924e-05
0.0995795
3.3258e-05
0.099555
3.35222e-05
0.0995316
3.35154e-05
0.0995094
3.33295e-05
0.0994886
3.30213e-05
0.0994694
3.26209e-05
0.0994519
3.21348e-05
0.0994363
3.15457e-05
0.0994228
3.0811e-05
0.0994116
2.98616e-05
0.0994032
2.85982e-05
0.0993982
2.68842e-05
0.0993971
2.45362e-05
0.0994011
2.13103e-05
0.0994114
1.68834e-05
0.0994299
1.08281e-05
0.0994588
2.57867e-06
0.0995012
-8.61496e-06
0.0995614
-2.37504e-05
0.0996448
-4.41582e-05
0.0997587
-7.16212e-05
0.0999128
-0.000108539
0.10012
-0.000158165
0.100399
-0.000224939
0.100772
-0.000314983
0.101272
-0.000436835
0.101944
-0.000602562
0.102851
-0.000829509
0.10408
-0.00114298
0.10576
-0.00158088
0.108074
-0.00220007
0.1113
-0.00309074
0.115851
-0.0043841
0.122367
-0.00630195
0.13174
-0.00908591
0.145236
-0.0130865
0.164359
-0.0185242
0.188454
-0.0231519
-0.0355984
0.225466
0.0977465
7.26121e-06
0.0977363
2.12401e-05
0.0977204
3.33908e-05
0.0977002
4.28649e-05
0.0976773
4.9625e-05
0.0976526
5.41266e-05
0.0976272
5.68404e-05
0.0976017
5.8122e-05
0.0975767
5.82961e-05
0.0975525
5.76786e-05
0.0975296
5.65277e-05
0.0975079
5.50172e-05
0.0974877
5.32513e-05
0.0974691
5.12826e-05
0.0974521
4.91176e-05
0.097437
4.67151e-05
0.0974239
4.39862e-05
0.097413
4.07908e-05
0.0974047
3.69312e-05
0.0973994
3.21383e-05
0.097398
2.6054e-05
0.0974011
1.82039e-05
0.0974101
7.96357e-06
0.0974264
-5.4911e-06
0.0974523
-2.32466e-05
0.0974905
-4.67403e-05
0.0975447
-7.78779e-05
0.0976198
-0.000119196
0.0977223
-0.000174082
0.0978609
-0.000247083
0.0980471
-0.000344336
0.0982964
-0.000474185
0.0986295
-0.000648071
0.0990746
-0.000881848
0.0996698
-0.00119775
0.100468
-0.00162744
0.101542
-0.00221672
0.102994
-0.00303313
0.104972
-0.0041782
0.10769
-0.00580848
0.111476
-0.0081701
0.116835
-0.0116607
0.124702
-0.0169536
0.136636
-0.0250205
0.15608
-0.0379681
0.186265
-0.0533372
-0.0860151
0.236681
0.093746
1.12665e-05
0.0937345
3.28257e-05
0.0937168
5.10465e-05
0.0936951
6.46094e-05
0.093671
7.37847e-05
0.0936456
7.95311e-05
0.0936199
8.26184e-05
0.0935944
8.35859e-05
0.0935698
8.29546e-05
0.0935463
8.12246e-05
0.0935241
7.87781e-05
0.0935033
7.58586e-05
0.0934839
7.26102e-05
0.0934662
6.9104e-05
0.09345
6.53442e-05
0.0934354
6.12671e-05
0.0934227
5.6743e-05
0.093412
5.1572e-05
0.0934035
4.54754e-05
0.0933976
3.80767e-05
0.0933948
2.88772e-05
0.0933958
1.72192e-05
0.0934016
2.23972e-06
0.0934133
-1.71967e-05
0.0934327
-4.25831e-05
0.0934619
-7.589e-05
0.0935038
-0.000119722
0.0935622
-0.000177534
0.0936421
-0.000253922
0.0937501
-0.000355027
0.0938949
-0.000489086
0.094088
-0.00066722
0.0943445
-0.000904535
0.0946845
-0.00122174
0.0951342
-0.00164747
0.0957287
-0.00222186
0.0965139
-0.00300189
0.0975503
-0.0040695
0.098918
-0.00554583
0.100719
-0.00760899
0.103093
-0.010545
0.106195
-0.0147621
0.110352
-0.0211105
0.115883
-0.0305514
0.125338
-0.0474235
0.14614
-0.0741394
-0.150627
0.210752
0.087745
1.62313e-05
0.087731
4.69278e-05
0.0877104
7.16881e-05
0.0876861
8.88779e-05
0.0876602
9.97252e-05
0.0876338
0.000106009
0.0876076
0.000108807
0.0875824
0.000108862
0.0875584
0.000106952
0.0875359
0.000103785
0.0875149
9.98428e-05
0.0874953
9.54175e-05
0.0874773
9.06772e-05
0.0874607
8.57049e-05
0.0874456
8.04954e-05
0.087432
7.49646e-05
0.0874198
6.89477e-05
0.0874092
6.22028e-05
0.0874003
5.4392e-05
0.0873934
4.50684e-05
0.0873887
3.36382e-05
0.0873866
1.93282e-05
0.0873878
1.12088e-06
0.0873929
-2.23107e-05
0.0874031
-5.27132e-05
0.0874197
-9.23768e-05
0.0874443
-0.000144325
0.0874794
-0.000212545
0.0875278
-0.00030232
0.0875935
-0.000420657
0.0876814
-0.000576888
0.0877977
-0.000783474
0.0879504
-0.00105715
0.0881492
-0.00142047
0.0884058
-0.00190407
0.0887338
-0.00254983
0.0891475
-0.00341554
0.0896594
-0.00458138
0.0902745
-0.00616085
0.0909781
-0.00831251
0.0917067
-0.0112736
0.0923014
-0.0153568
0.092316
-0.0211251
0.0908003
-0.0290357
0.0842021
-0.0408254
0.0654776
-0.0554147
-0.0851495
0.0797432
2.30324e-05
0.0797246
6.5531e-05
0.0796993
9.70583e-05
0.0796715
0.000116714
0.0796432
0.000128022
0.0796155
0.000133807
0.079589
0.000135337
0.0795643
0.000133628
0.0795414
0.000129815
0.0795204
0.0001248
0.0795012
0.000119121
0.0794836
0.000113083
0.0794674
0.000106862
0.0794526
0.000100532
0.0794391
9.40737e-05
0.0794267
8.73769e-05
0.0794155
8.02538e-05
0.0794053
7.24341e-05
0.0793962
6.35539e-05
0.0793882
5.31321e-05
0.0793813
4.05417e-05
0.0793757
2.49649e-05
0.0793715
5.33852e-06
0.079369
-1.9726e-05
0.0793684
-5.20403e-05
0.0793701
-9.39784e-05
0.0793744
-0.000148652
0.0793821
-0.000220155
0.0793937
-0.000313866
0.07941
-0.000436874
0.0794317
-0.00059852
0.0794594
-0.000811127
0.0794933
-0.00109097
0.0795325
-0.00145958
0.0795739
-0.00194546
0.0796105
-0.00258634
0.0796273
-0.00343227
0.0795953
-0.00454932
0.0794593
-0.00602484
0.0791185
-0.00797167
0.0783824
-0.0105374
0.0769193
-0.0138937
0.0740585
-0.0182643
0.0688063
-0.0237834
0.0586633
-0.0306823
0.0415772
-0.0383285
-0.0435721
0.0697395
3.35176e-05
0.0697128
9.23056e-05
0.0696803
0.000129621
0.0696478
0.000149214
0.0696168
0.000159051
0.0695879
0.000162758
0.0695617
0.000161598
0.0695383
0.000157035
0.0695176
0.000150606
0.0694991
0.00014331
0.0694826
0.000135657
0.0694678
0.000127917
0.0694545
0.000120249
0.0694424
0.000112696
0.0694313
0.00010521
0.069421
9.7653e-05
0.0694115
8.9826e-05
0.0694025
8.14489e-05
0.069394
7.21651e-05
0.0693857
6.1502e-05
0.0693774
4.88624e-05
0.069369
3.34637e-05
0.06936
1.43075e-05
0.0693503
-9.91518e-06
0.0693392
-4.08894e-05
0.0693261
-8.08263e-05
0.0693101
-0.000132597
0.06929
-0.000199969
0.0692641
-0.000287848
0.0692299
-0.000402652
0.0691842
-0.000552724
0.0691221
-0.000748926
0.0690365
-0.00100532
0.068917
-0.00134006
0.0687481
-0.00177644
0.0685059
-0.00234406
0.0681538
-0.0030801
0.0676348
-0.00403028
0.0668592
-0.00524916
0.0656852
-0.00679768
0.0638856
-0.00873774
0.0611031
-0.011111
0.0567508
-0.013912
0.0499501
-0.0169826
0.039192
-0.0199241
0.0226745
-0.0218107
-0.0208976
0.0577312
5.23345e-05
0.0576902
0.000133325
0.0576475
0.000172359
0.0576091
0.000187663
0.0575751
0.000193092
0.0575459
0.000192024
0.0575217
0.000185878
0.0575019
0.000176889
0.0574857
0.000166858
0.0574724
0.00015666
0.0574614
0.000146644
0.0574524
0.000137
0.0574449
0.00012781
0.0574386
0.000119063
0.0574332
0.000110654
0.0574285
0.00010243
0.0574242
9.41789e-05
0.05742
8.56474e-05
0.0574157
7.65016e-05
0.057411
6.63394e-05
0.0574052
5.46343e-05
0.057398
4.07354e-05
0.0573886
2.37878e-05
0.0573761
2.72001e-06
0.0573591
-2.38729e-05
0.0573362
-5.77952e-05
0.057305
-0.000101407
0.0572629
-0.000157746
0.0572059
-0.000230779
0.0571289
-0.000325598
0.0570251
-0.000448777
0.0568849
-0.000608681
0.0566956
-0.000815929
0.0564394
-0.00108378
0.0560916
-0.00142857
0.0556175
-0.0018699
0.054968
-0.00243051
0.0540729
-0.00313508
0.0528314
-0.00400768
0.0510994
-0.00506558
0.0486704
-0.00630865
0.0452569
-0.00769746
0.0404675
-0.00912253
0.0338271
-0.0103421
0.0248398
-0.0109366
0.0132847
-0.0102555
-0.0076127
0.0437069
9.54569e-05
0.0436445
0.000195762
0.043592
0.000224879
0.0435508
0.000229003
0.0435194
0.00022454
0.0434978
0.000213602
0.0434851
0.000198642
0.0434794
0.000182649
0.0434791
0.000167241
0.0434829
0.000152895
0.0434899
0.000139715
0.0434993
0.000127709
0.0435103
0.000116813
0.0435226
0.000106889
0.0435355
9.77596e-05
0.0435488
8.92245e-05
0.043562
8.10681e-05
0.0435747
7.30461e-05
0.0435863
6.48835e-05
0.0435965
5.62518e-05
0.0436045
4.67582e-05
0.0436094
3.59106e-05
0.0436101
2.30946e-05
0.0436054
7.54365e-06
0.0435933
-1.17171e-05
0.0435716
-3.5944e-05
0.043537
-6.67264e-05
0.0434855
-0.000106123
0.0434116
-0.000156775
0.0433081
-0.000222053
0.0431656
-0.000306203
0.0429716
-0.000414526
0.0427093
-0.000553508
0.0423565
-0.000730902
0.0418836
-0.000955623
0.0412512
-0.00123734
0.0404062
-0.00158547
0.0392784
-0.00200722
0.037775
-0.00250411
0.0357758
-0.00306632
0.0331317
-0.00366444
0.0296718
-0.00423742
0.0252293
-0.00467987
0.0197105
-0.00482327
0.0132096
-0.00443542
0.00618265
-0.00322802
-0.0014299
0.0276465
0.000199022
0.027579
0.000263314
0.0275538
0.000250127
0.0275584
0.000224487
0.0275857
0.000197247
0.027629
0.000170355
0.0276819
0.000145873
0.0277397
0.000124868
0.0277998
0.000107275
0.0278601
9.26176e-05
0.0279195
8.04142e-05
0.027977
7.02289e-05
0.0280322
6.16812e-05
0.0280848
5.44336e-05
0.0281344
4.82036e-05
0.028181
4.27407e-05
0.0282243
3.78302e-05
0.0282642
3.32659e-05
0.0283003
2.88565e-05
0.0283322
2.43945e-05
0.0283594
1.96618e-05
0.028381
1.43879e-05
0.028396
8.24396e-06
0.0284029
7.12384e-07
0.0284
-8.71675e-06
0.0283847
-2.05053e-05
0.0283534
-3.5313e-05
0.0283014
-5.40769e-05
0.0282228
-7.7978e-05
0.0281093
-0.000108493
0.0279506
-0.000147398
0.027733
-0.000196812
0.0274388
-0.000259131
0.0270449
-0.000336928
0.0265221
-0.000432654
0.025833
-0.000548148
0.0249314
-0.000683738
0.0237612
-0.000836926
0.0222577
-0.0010005
0.0203518
-0.0011603
0.0179809
-0.00129342
0.0151119
-0.00136824
0.0117812
-0.00134902
0.0081589
-0.00120072
0.00460502
-0.000881086
0.00166763
-0.00029007
0.000237848
0.00994904
0.0102124
0.0104625
0.0106871
0.0108843
0.0110547
0.0112006
0.0113255
0.0114328
0.0115255
0.0116059
0.0116762
0.0117379
0.0117923
0.0118406
0.0118834
0.0119212
0.0119545
0.0119834
0.0120078
0.0120275
0.012042
0.0120503
0.012051
0.0120423
0.0120219
0.0119866
0.0119326
0.0118547
0.0117462
0.0115989
0.0114021
0.011143
0.0108062
0.0103735
0.00982544
0.00914174
0.00830486
0.00730441
0.00614418
0.00485082
0.00348265
0.00213369
0.000933051
5.21026e-05
-0.000237848
0.150478
0.0542659
0.122565
0.0279134
0.10432
0.0182443
0.091357
0.0129632
0.0820768
0.00928078
0.00717572
0.0749013
0.253634
0.0334572
0.260606
0.0209407
0.262484
0.0163663
0.26107
0.014378
0.257746
0.0126049
0.0119322
0.252989
0.255692
0.00235141
0.272843
0.00379008
0.283873
0.00533634
0.291459
0.00679143
0.295798
0.00826615
0.00993833
0.297792
0.256557
-0.02874
0.273249
-0.0129013
0.28378
-0.00519557
0.291222
-0.000649888
0.295863
0.00362453
0.00725964
0.298542
0.258617
-0.0506762
0.267727
-0.0220113
0.273829
-0.0112976
0.278172
-0.00499315
0.2813
0.000496814
0.00487383
0.283685
0.160076
0.138064
0.126766
0.121773
0.12227
0.127144
-0.000127554
0.000127871
-0.000367771
0.000240953
-0.000652116
0.000285061
-0.000946909
0.000295502
-0.00123162
0.000285398
-0.00148167
0.000250735
-0.0016694
0.000188395
-0.00177247
0.000103725
-0.00178547
1.36441e-05
-0.00172763
-5.71791e-05
-0.00163762
-8.93475e-05
-0.00155892
-7.80094e-05
-0.00152463
-3.35612e-05
-0.00154931
2.54565e-05
-0.00162949
8.09915e-05
-0.00174719
0.000118539
-0.00187576
0.000129416
-0.00198783
0.000112947
-0.00206435
7.7423e-05
-0.00210022
3.68429e-05
-0.00210229
3.09692e-06
-0.00208106
-2.0159e-05
-0.00204287
-3.711e-05
-0.00198782
-5.39843e-05
-0.00191312
-7.35945e-05
-0.00181749
-9.44925e-05
-0.00170266
-0.000113638
-0.00157234
-0.000129097
-0.00143065
-0.000140434
-0.00128166
-0.00014772
-0.00112944
-0.000150951
-0.000977808
-0.000150394
-0.000829775
-0.000146839
-0.000687289
-0.000141387
-0.000551201
-0.000135062
-0.000421607
-0.000128699
-0.000297827
-0.000122963
-0.000178649
-0.000118488
-6.22031e-05
-0.000115756
5.3011e-05
-0.000114637
0.000168115
-0.000114169
0.00028278
-0.000113599
0.000395199
-0.000111752
0.000498256
-0.000103864
0.000577557
-8.28449e-05
0.0006299
-5.68817e-05
-5.79328e-05
-0.000440372
0.000568955
-0.00108241
0.000884555
-0.00175559
0.000959754
-0.00239934
0.000940697
-0.00297506
0.000862507
-0.00344401
0.000721024
-0.00377141
0.000517101
-0.0039385
0.0002721
-0.0039551
3.15437e-05
-0.00386501
-0.000145978
-0.00373741
-0.000215603
-0.00364618
-0.000167836
-0.00364419
-3.40545e-05
-0.00374842
0.000131234
-0.00394176
0.000275949
-0.00418271
0.000361108
-0.00441977
0.000368127
-0.00460731
0.000302142
-0.0047196
0.000191442
-0.0047566
7.56625e-05
-0.0047367
-1.48767e-05
-0.00468052
-7.43553e-05
-0.00459861
-0.000116997
-0.0044902
-0.00016034
-0.00435012
-0.000211577
-0.00417649
-0.000265946
-0.00397319
-0.000314688
-0.0037472
-0.00035276
-0.00350562
-0.000379644
-0.00325497
-0.000395963
-0.00300174
-0.000401783
-0.00275216
-0.000397631
-0.00251135
-0.000385452
-0.0022827
-0.000368013
-0.00206803
-0.000347922
-0.0018679
-0.000327219
-0.00168182
-0.000307676
-0.00150811
-0.000291001
-0.00134415
-0.000278713
-0.00118676
-0.000270794
-0.00103368
-0.000265677
-0.00088338
-0.000261924
-0.000735151
-0.000259697
-0.000592186
-0.00025126
-0.000469499
-0.000213287
-0.000385579
-0.000145283
-0.00010752
-0.000820914
0.00139052
-0.00185953
0.00192451
-0.00284212
0.00194361
-0.00371813
0.00181793
-0.00446599
0.00161153
-0.00506121
0.00131738
-0.00547912
0.000936117
-0.00570494
0.000499017
-0.00574878
7.64747e-05
-0.0056596
-0.000234044
-0.00552556
-0.000348503
-0.00544729
-0.000244876
-0.00549465
1.45703e-05
-0.00568374
0.00032169
-0.00598329
0.000576847
-0.00633146
0.000710679
-0.00665743
0.000695441
-0.00690198
0.00054807
-0.00703533
0.000326187
-0.0070649
0.000106773
-0.00702519
-5.29588e-05
-0.00695183
-0.000146
-0.00686106
-0.000206016
-0.00674807
-0.000271588
-0.00660056
-0.000357316
-0.00641311
-0.000451568
-0.00619111
-0.000534831
-0.00594485
-0.000597131
-0.0056834
-0.00063918
-0.00541389
-0.000663538
-0.00514355
-0.000670211
-0.00488002
-0.000659378
-0.00462974
-0.00063408
-0.00439706
-0.000599216
-0.00418437
-0.000559287
-0.00399274
-0.000517736
-0.00382198
-0.000477486
-0.00367041
-0.000441811
-0.00353447
-0.000413898
-0.00340959
-0.000394911
-0.00329143
-0.00038257
-0.00317682
-0.000375176
-0.00306192
-0.000374431
-0.00294242
-0.000372329
-0.00281697
-0.000340812
-0.00268164
-0.000280904
-0.000231788
-0.00123912
0.00263013
-0.00259054
0.003277
-0.00371737
0.00307151
-0.00465261
0.00275424
-0.00543431
0.00239426
-0.00607291
0.001957
-0.00655734
0.00142154
-0.00686421
0.000806875
-0.00697988
0.000193131
-0.0069308
-0.000282134
-0.00680735
-0.000470957
-0.00674238
-0.000308786
-0.00684101
0.000114311
-0.00713039
0.000612216
-0.00756362
0.00101125
-0.00805315
0.0012014
-0.00850232
0.00114578
-0.00883122
0.000878143
-0.00900081
0.000497001
-0.00902898
0.000136291
-0.00897887
-0.00010162
-0.00891486
-0.000208487
-0.00886248
-0.000256844
-0.00880531
-0.000327177
-0.00871297
-0.000448024
-0.00857047
-0.000592467
-0.00838597
-0.000717696
-0.00817719
-0.000804241
-0.0079569
-0.000857814
-0.00773185
-0.000886923
-0.00750901
-0.000891499
-0.0072975
-0.000869428
-0.00710572
-0.000824558
-0.00693897
-0.000764815
-0.00680011
-0.000697141
-0.00669075
-0.000626204
-0.00661151
-0.000556008
-0.00656116
-0.000491516
-0.00653619
-0.000438309
-0.00653081
-0.00039956
-0.00653866
-0.000373766
-0.00655387
-0.000358836
-0.00657059
-0.000357015
-0.00658085
-0.000362154
-0.00657539
-0.000345343
-0.00655973
-0.000294874
-0.000243444
-0.00169891
0.00432958
-0.00309756
0.00467658
-0.0040016
0.00397652
-0.00467452
0.00342816
-0.00524666
0.00296742
-0.00576929
0.00248062
-0.0062536
0.00190686
-0.00666994
0.00122419
-0.00696369
0.000487877
-0.00710076
-0.000144167
-0.00711496
-0.00045581
-0.0071344
-0.000288466
-0.00733333
0.000314248
-0.00778117
0.001061
-0.00841486
0.001646
-0.00911462
0.00190213
-0.00974928
0.00178141
-0.010209
0.00133881
-0.0104396
0.000728591
-0.0104722
0.000170006
-0.0104152
-0.000157322
-0.0103857
-0.000236608
-0.0104261
-0.000214937
-0.0104944
-0.000257304
-0.0105208
-0.000420121
-0.0104693
-0.000642323
-0.0103567
-0.000828694
-0.0102201
-0.000939291
-0.0100807
-0.000995698
-0.0099419
-0.00102422
-0.00980762
-0.00102436
-0.00968952
-0.000986265
-0.00959964
-0.000913312
-0.00954422
-0.000819205
-0.00952565
-0.000714799
-0.00954565
-0.000605428
-0.00960565
-0.000495353
-0.00970519
-0.000391382
-0.00984127
-0.000301618
-0.0100083
-0.000231885
-0.0101983
-0.000182882
-0.0104028
-0.000153496
-0.0106151
-0.000144079
-0.0108286
-0.000147743
-0.0110299
-0.000142071
-0.0112068
-0.000116835
-8.54622e-05
-0.00207007
0.00640018
-0.00261112
0.0052188
-0.00245352
0.00382004
-0.00233439
0.00331018
-0.00234356
0.00297772
-0.00249021
0.00262844
-0.00281631
0.0022341
-0.00333571
0.00174477
-0.00399215
0.00114545
-0.00466819
0.000533045
-0.00524933
0.000126373
-0.0057348
0.000198102
-0.00631031
0.000890722
-0.00708902
0.00184071
-0.00802356
0.0025815
-0.00899086
0.00287038
-0.00984997
0.00264142
-0.0104802
0.00196985
-0.0108166
0.00106594
-0.010887
0.000241361
-0.0108417
-0.000201398
-0.0108866
-0.000190227
-0.011104
3.96014e-06
-0.0114071
4.74634e-05
-0.0116463
-0.00017926
-0.0117417
-0.000545404
-0.0117285
-0.000840438
-0.0116878
-0.000978501
-0.0116582
-0.00102383
-0.011632
-0.00104901
-0.0116041
-0.00105078
-0.0115927
-0.000996451
-0.0116181
-0.000886735
-0.0116871
-0.000749193
-0.0117984
-0.000602606
-0.0119522
-0.000450695
-0.0121511
-0.0002958
-0.0123954
-0.000146448
-0.0126818
-1.46396e-05
-0.0130035
9.05241e-05
-0.0133505
0.00016473
-0.0137115
0.000208378
-0.0140795
0.000224452
-0.0144473
0.000221007
-0.0147963
0.000207827
-0.0151013
0.000190279
0.000179429
0.00362563
0.00277546
0.00653546
0.00231019
0.0079838
0.00237268
0.00870986
0.00258499
0.00895441
0.00273401
0.00878076
0.00280294
0.00820377
0.00281195
0.00719692
0.00275252
0.00572695
0.00261633
0.00382579
0.00243515
0.00165565
0.00229751
-0.000493334
0.00234817
-0.00232402
0.00272247
-0.00381932
0.00333722
-0.00511387
0.00387728
-0.00626208
0.0040199
-0.00726195
0.00364241
-0.00808164
0.00279067
-0.00866312
0.00164862
-0.00896355
0.000543258
-0.009121
-4.22589e-05
-0.00943514
0.000125625
-0.0100457
0.000616321
-0.0108032
0.000806683
-0.0114463
0.000465481
-0.0118209
-0.00016924
-0.0119808
-0.000679063
-0.0120895
-0.000868185
-0.0122259
-0.000885884
-0.0123571
-0.000916118
-0.0124535
-0.000952899
-0.0125454
-0.000903135
-0.0126757
-0.000755007
-0.0128535
-0.00057025
-0.0130687
-0.000386155
-0.0133181
-0.000200481
-0.0136061
-6.97566e-06
-0.0139351
0.000183142
-0.0143003
0.000351104
-0.0146921
0.000482736
-0.0150981
0.000571277
-0.0155064
0.000616998
-0.0159086
0.000627139
-0.016297
0.000609637
-0.016653
0.000566229
-0.0169633
0.00050112
0.000452197
0.0709418
0.00673552
0.0664912
0.00676112
0.0618916
0.00697257
0.0571144
0.00736242
0.0520764
0.00777221
0.0467836
0.00809588
0.0412971
0.0082987
0.0356786
0.00837114
0.029987
0.00830817
0.0243118
0.00811063
0.0188234
0.00778634
0.0138255
0.00734649
0.00972865
0.00681996
0.00681184
0.00625486
0.00500254
0.00568772
0.00391274
0.00511098
0.00307295
0.00448368
0.00210862
0.00375664
0.00083713
0.00292197
-0.000703259
0.00208578
-0.00231835
0.00157492
-0.00390167
0.00171102
-0.00553427
0.00225089
-0.0071916
0.00246615
-0.00860719
0.00188333
-0.00954353
0.0007693
-0.0101054
-0.000115166
-0.0105822
-0.000389359
-0.0111069
-0.000359189
-0.0116001
-0.000421152
-0.0119418
-0.000609455
-0.0121773
-0.000666158
-0.0124199
-0.000510943
-0.012702
-0.000286858
-0.0130009
-8.60217e-05
-0.0133045
0.000104304
-0.0136263
0.000315822
-0.0139787