/*--------------------------------*- C++ -*----------------------------------*\
| =========                 |                                                 |
| \\      /  F ield         | OpenFOAM: The Open Source CFD Toolbox           |
|  \\    /   O peration     | Version:  2406                                  |
|   \\  /    A nd           | Website:  www.openfoam.com                      |
|    \\/     M anipulation  |                                                 |
\*---------------------------------------------------------------------------*/
FoamFile
{
    version     2.0;
    format      ascii;
    arch        "LSB;label=32;scalar=64";
    class       volScalarField;
    location    "49";
    object      p;
}
// * * * * * * * * * * * * * * * * * * * * * * * * * * * * * * * * * * * * * //

dimensions      [0 2 -2 0 0 0 0];

internalField   nonuniform List<scalar> 
1964
(
0.464654
0.465313
0.465515
0.4653
0.4649
0.464396
0.463809
0.463158
0.462465
0.461739
0.460989
0.46022
0.459435
0.458636
0.457827
0.457007
0.456179
0.455342
0.454497
0.453644
0.452781
0.45191
0.451027
0.450132
0.449221
0.44829
0.447335
0.446348
0.44532
0.444237
0.443082
0.441829
0.440447
0.438887
0.437086
0.434951
0.432352
0.429099
0.424917
0.419405
0.411979
0.401805
0.387723
0.368212
0.341496
0.305796
0.260148
0.465793
0.465717
0.465582
0.4653
0.46488
0.46436
0.463768
0.463122
0.462434
0.461713
0.460966
0.460199
0.459418
0.458623
0.457817
0.456999
0.45617
0.455333
0.454488
0.453636
0.452776
0.451907
0.451027
0.450134
0.449226
0.448298
0.447346
0.446364
0.445342
0.444269
0.443127
0.441893
0.440536
0.439011
0.437257
0.435186
0.432672
0.429531
0.42549
0.420143
0.412888
0.402839
0.388735
0.368854
0.341109
0.303235
0.254143
0.466614
0.465987
0.465544
0.465225
0.464819
0.464301
0.463709
0.463069
0.462392
0.461679
0.460936
0.460171
0.459392
0.458603
0.457804
0.456992
0.456167
0.455332
0.454489
0.453639
0.452785
0.451923
0.451055
0.450176
0.449286
0.44838
0.447457
0.446511
0.445539
0.44453
0.443476
0.442358
0.441157
0.439838
0.438355
0.436638
0.434578
0.432009
0.428663
0.424119
0.417709
0.408406
0.394675
0.374322
0.344543
0.301555
0.243418
0.467204
0.466331
0.465652
0.465238
0.464802
0.46426
0.463651
0.463007
0.462337
0.461634
0.460895
0.460131
0.459354
0.458572
0.457784
0.456985
0.45617
0.455341
0.454502
0.453659
0.452814
0.451969
0.451123
0.450276
0.449426
0.448572
0.447714
0.446854
0.445992
0.445132
0.444273
0.443415
0.442556
0.441689
0.440797
0.439844
0.438764
0.437425
0.435586
0.432809
0.428326
0.420854
0.408332
0.387769
0.355241
0.304996
0.234929
0.467677
0.466689
0.465834
0.465304
0.464813
0.464238
0.463605
0.462951
0.462284
0.461588
0.460852
0.460086
0.459308
0.458533
0.457758
0.456976
0.456176
0.455359
0.45453
0.453696
0.452865
0.452043
0.451231
0.450431
0.449643
0.448869
0.448114
0.447387
0.4467
0.446068
0.445511
0.445053
0.444721
0.444548
0.444565
0.444797
0.445247
0.445866
0.446489
0.44673
0.44577
0.442051
0.432581
0.412677
0.37419
0.308605
0.212761
0.468053
0.467001
0.466025
0.465398
0.464851
0.46424
0.463581
0.462913
0.462243
0.46155
0.460815
0.460045
0.459265
0.458494
0.457733
0.456968
0.456188
0.455386
0.45457
0.453749
0.452936
0.452142
0.451372
0.450629
0.449918
0.449245
0.448621
0.448064
0.447598
0.447256
0.447082
0.447129
0.447467
0.448176
0.449356
0.451117
0.453572
0.456811
0.460844
0.465496
0.470151
0.473381
0.471659
0.458549
0.416196
0.325225
0.126353
0.468343
0.467254
0.466201
0.465502
0.464906
0.464259
0.463572
0.462886
0.462212
0.461521
0.460786
0.460012
0.459228
0.45846
0.45771
0.456963
0.456201
0.455417
0.454616
0.453811
0.453019
0.452254
0.451527
0.450845
0.450217
0.449652
0.44917
0.448796
0.44857
0.448544
0.448785
0.449383
0.450448
0.452122
0.454581
0.45804
0.462753
0.469003
0.477072
0.48717
0.49925
0.512734
0.525424
0.532697
0.516585
0.448101
0.120609
0.468555
0.467445
0.466344
0.465596
0.464961
0.464282
0.463569
0.462869
0.462191
0.461502
0.460767
0.45999
0.459202
0.458434
0.457692
0.456959
0.456214
0.455446
0.45466
0.453871
0.453098
0.452361
0.451674
0.451048
0.450495
0.450031
0.44968
0.449478
0.449475
0.449743
0.450373
0.451485
0.453232
0.455814
0.459484
0.464561
0.471449
0.480642
0.49273
0.508376
0.52825
0.552895
0.582232
0.615332
0.646523
0.669204
0.611802
0.468695
0.467573
0.466443
0.465665
0.465004
0.464303
0.463571
0.46286
0.46218
0.461492
0.460757
0.459976
0.459185
0.458417
0.457679
0.456956
0.456223
0.455469
0.454695
0.453919
0.453162
0.452446
0.45179
0.451206
0.450711
0.450323
0.450073
0.450002
0.450173
0.450668
0.451598
0.453108
0.455385
0.458673
0.463287
0.469636
0.478243
0.489779
0.505092
0.525226
0.551417
0.585031
0.627233
0.678486
0.736134
0.793242
0.822706
0.468765
0.467637
0.466493
0.465701
0.465028
0.464315
0.463573
0.462856
0.462175
0.461487
0.460751
0.459969
0.459176
0.458408
0.457673
0.456954
0.456228
0.455481
0.454714
0.453945
0.453198
0.452494
0.451854
0.451293
0.450829
0.450482
0.450286
0.450287
0.450552
0.451171
0.452265
0.453991
0.456557
0.460231
0.465363
0.472408
0.48196
0.494787
0.511878
0.53448
0.564118
0.602538
0.651404
0.711608
0.780976
0.851551
0.897346
0.468765
0.467637
0.466493
0.465701
0.465028
0.464315
0.463573
0.462857
0.462174
0.461486
0.460751
0.459969
0.459177
0.458408
0.457673
0.456954
0.456228
0.45548
0.454714
0.453945
0.453198
0.452495
0.451854
0.451294
0.450829
0.450482
0.450286
0.450287
0.450551
0.45117
0.452264
0.453991
0.456558
0.460232
0.465363
0.472408
0.48196
0.494788
0.511879
0.53448
0.564118
0.602539
0.651401
0.711614
0.780974
0.851544
0.897345
0.468695
0.467573
0.466443
0.465665
0.465004
0.464302
0.463571
0.462861
0.46218
0.46149
0.460755
0.459976
0.459186
0.458419
0.457681
0.456956
0.456222
0.455467
0.454693
0.453918
0.453163
0.452448
0.451792
0.451208
0.450712
0.450324
0.450072
0.450001
0.450172
0.450667
0.451598
0.453108
0.455386
0.458674
0.463289
0.469637
0.478244
0.48978
0.505092
0.525226
0.551415
0.585029
0.627234
0.678486
0.736132
0.793251
0.822705
0.468555
0.467445
0.466344
0.465596
0.46496
0.464282
0.46357
0.46287
0.462191
0.4615
0.460766
0.45999
0.459204
0.458437
0.457694
0.456959
0.456212
0.455443
0.454658
0.45387
0.4531
0.452364
0.451677
0.451051
0.450497
0.450032
0.449679
0.449476
0.449474
0.449742
0.450372
0.451485
0.453233
0.455816
0.459486
0.464563
0.471451
0.480644
0.492731
0.508376
0.528249
0.552893
0.582232
0.615332
0.646526
0.669201
0.611803
0.468342
0.467254
0.466201
0.465502
0.464905
0.464259
0.463573
0.462888
0.462212
0.461519
0.460784
0.460012
0.459231
0.458464
0.457712
0.456962
0.456198
0.455414
0.454613
0.45381
0.45302
0.452257
0.45153
0.450848
0.450218
0.449652
0.449169
0.448794
0.448568
0.448542
0.448785
0.449383
0.450449
0.452124
0.454584
0.458042
0.462755
0.469005
0.477073
0.487169
0.499248
0.512731
0.525422
0.532703
0.516588
0.448082
0.120615
0.468052
0.467001
0.466025
0.465397
0.46485
0.46424
0.463582
0.462914
0.462242
0.461547
0.460812
0.460045
0.459268
0.458498
0.457735
0.456968
0.456185
0.455383
0.454567
0.453749
0.452938
0.452145
0.451375
0.450631
0.449919
0.449245
0.44862
0.448062
0.447596
0.447255
0.447082
0.447131
0.447469
0.448178
0.449358
0.451119
0.453573
0.456812
0.460845
0.465495
0.470148
0.473376
0.471659
0.458545
0.416199
0.325241
0.12633
0.467676
0.466689
0.465834
0.465303
0.464812
0.464238
0.463607
0.462953
0.462284
0.461585
0.46085
0.460086
0.459311
0.458536
0.45776
0.456975
0.456174
0.455357
0.454529
0.453696
0.452867
0.452045
0.451234
0.450433
0.449643
0.448868
0.448113
0.447386
0.446699
0.446068
0.445512
0.445054
0.444723
0.44455
0.444567
0.444799
0.445249
0.445867
0.446489
0.446729
0.445767
0.44205
0.43258
0.412685
0.374193
0.308595
0.212762
0.467204
0.466331
0.465652
0.465238
0.464801
0.464259
0.463652
0.463008
0.462337
0.461632
0.460894
0.460132
0.459356
0.458574
0.457784
0.456983
0.456168
0.45534
0.454503
0.45366
0.452816
0.451971
0.451125
0.450277
0.449426
0.448571
0.447714
0.446854
0.445993
0.445133
0.444274
0.443417
0.442558
0.441691
0.440798
0.439845
0.438765
0.437426
0.435587
0.432809
0.428324
0.420853
0.408332
0.387768
0.355238
0.304988
0.234897
0.466614
0.465987
0.465544
0.465224
0.464819
0.4643
0.463709
0.46307
0.462391
0.461678
0.460936
0.460172
0.459393
0.458604
0.457803
0.456991
0.456167
0.455332
0.45449
0.453641
0.452786
0.451925
0.451056
0.450177
0.449286
0.44838
0.447457
0.446512
0.445539
0.444531
0.443477
0.44236
0.441158
0.439839
0.438356
0.436639
0.434579
0.43201
0.428664
0.424119
0.417708
0.408403
0.394673
0.374319
0.344536
0.30154
0.24341
0.465792
0.465717
0.465582
0.4653
0.464879
0.46436
0.463768
0.463122
0.462434
0.461713
0.460966
0.4602
0.459418
0.458623
0.457816
0.456998
0.45617
0.455334
0.454489
0.453637
0.452777
0.451908
0.451028
0.450135
0.449226
0.448298
0.447347
0.446365
0.445343
0.44427
0.443128
0.441894
0.440537
0.439012
0.437257
0.435186
0.432673
0.429531
0.42549
0.420144
0.412888
0.402837
0.388732
0.368851
0.341107
0.303232
0.25414
0.464654
0.465313
0.465515
0.4653
0.4649
0.464396
0.463809
0.463158
0.462465
0.461739
0.460989
0.46022
0.459435
0.458636
0.457827
0.457008
0.456179
0.455343
0.454498
0.453644
0.452782
0.45191
0.451028
0.450132
0.449221
0.448291
0.447336
0.446349
0.445321
0.444238
0.443083
0.44183
0.440448
0.438888
0.437087
0.434952
0.432353
0.429099
0.424917
0.419405
0.411979
0.401803
0.38772
0.368209
0.341493
0.305792
0.260144
0.205194
0.144323
0.0838514
0.0295539
-0.0160916
-0.0536737
0.194512
0.129321
0.0671539
0.0133804
-0.0316649
-0.0687985
0.169047
0.0903046
0.0242971
-0.0264308
-0.0667833
-0.099035
0.131645
0.0239814
-0.0491202
-0.0942971
-0.126412
-0.148992
0.0488655
-0.098801
-0.172453
-0.204072
-0.218917
-0.221973
-0.209639
-0.328451
-0.337569
-0.324429
-0.301333
-0.272139
-0.558588
-0.480752
-0.388612
-0.354523
-0.322367
-0.284588
-0.558571
-0.480753
-0.388615
-0.354526
-0.32237
-0.284591
-0.209621
-0.32844
-0.33757
-0.324427
-0.301331
-0.272137
0.0488383
-0.0988229
-0.172485
-0.204099
-0.218896
-0.221944
0.131624
0.0239792
-0.0490953
-0.0942543
-0.126381
-0.148998
0.169048
0.0903345
0.0243489
-0.0264013
-0.0668157
-0.0991206
0.194516
0.12933
0.0671504
0.01335
-0.0317314
-0.0688582
0.205187
0.144314
0.0838405
0.0295416
-0.0161022
-0.0536778
-0.0847768
-0.110277
-0.130683
-0.146579
-0.158531
-0.166998
-0.172369
-0.174993
-0.175195
-0.173284
-0.169568
-0.164348
-0.157927
-0.150601
-0.142649
-0.134332
-0.125876
-0.117466
-0.109244
-0.101304
-0.0937067
-0.0864776
-0.0796226
-0.0731344
-0.0669992
-0.0612015
-0.0557264
-0.0505612
-0.0456946
-0.041118
-0.0368237
-0.0328037
-0.0290493
-0.0255533
-0.02231
-0.0193136
-0.0165568
-0.0140318
-0.0117306
-0.00964448
-0.00776447
-0.00608109
-0.0045848
-0.0032657
-0.00211303
-0.00111971
-0.000234875
-0.0983759
-0.121353
-0.139068
-0.152593
-0.162568
-0.169435
-0.173561
-0.175238
-0.174703
-0.1722
-0.168001
-0.162403
-0.155713
-0.148228
-0.14023
-0.131966
-0.123645
-0.11543
-0.107436
-0.0997362
-0.0923706
-0.0853538
-0.0786854
-0.0723565
-0.0663554
-0.0606696
-0.0552884
-0.0502021
-0.0454029
-0.0408843
-0.0366406
-0.0326647
-0.0289475
-0.0254828
-0.022266
-0.0192916
-0.016553
-0.0140431
-0.0117545
-0.00967874
-0.00780718
-0.00613049
-0.00463941
-0.00332508
-0.00217399
-0.00119986
-0.000243711
-0.123867
-0.142771
-0.157381
-0.168515
-0.176362
-0.181202
-0.183445
-0.183415
-0.181332
-0.177409
-0.171892
-0.165066
-0.157238
-0.148726
-0.139835
-0.130839
-0.121957
-0.113348
-0.105111
-0.0972993
-0.0899258
-0.0829811
-0.0764418
-0.0702795
-0.0644656
-0.0589749
-0.0537866
-0.0488845
-0.044256
-0.0398923
-0.0357855
-0.0319298
-0.0283215
-0.0249576
-0.021833
-0.0189392
-0.0162691
-0.0138177
-0.0115789
-0.00954546
-0.00770956
-0.00606274
-0.00459672
-0.00330137
-0.00216847
-0.00119712
-0.000298441
-0.163351
-0.173474
-0.1822
-0.189399
-0.194362
-0.197062
-0.197679
-0.196265
-0.192855
-0.187575
-0.180623
-0.172246
-0.162737
-0.152448
-0.141756
-0.131029
-0.120581
-0.110643
-0.101363
-0.0928029
-0.0849647
-0.0778055
-0.0712588
-0.0652486
-0.0597017
-0.054553
-0.0497489
-0.0452476
-0.0410183
-0.0370388
-0.0332936
-0.0297722
-0.0264676
-0.0233735
-0.0204853
-0.0178019
-0.0153215
-0.0130402
-0.0109517
-0.00904826
-0.00732306
-0.00576882
-0.00437997
-0.00314022
-0.00206335
-0.00106105
-0.000471848
-0.217906
-0.215443
-0.216728
-0.218289
-0.218576
-0.217844
-0.216079
-0.212831
-0.207778
-0.20087
-0.192217
-0.181988
-0.170432
-0.157907
-0.144852
-0.131736
-0.11899
-0.106962
-0.0958913
-0.0859036
-0.0770258
-0.0692099
-0.0623586
-0.0563483
-0.051048
-0.0463331
-0.0420933
-0.038237
-0.0346917
-0.031403
-0.0283312
-0.025449
-0.0227382
-0.0201877
-0.0177913
-0.0155464
-0.0134513
-0.0115034
-0.00970145
-0.00804552
-0.00653382
-0.00516115
-0.00392525
-0.00280217
-0.0018352
-0.000813606
-0.000684992
-0.245609
-0.234279
-0.23388
-0.234577
-0.233846
-0.232331
-0.230041
-0.226347
-0.220758
-0.213103
-0.203394
-0.191743
-0.178395
-0.16375
-0.14833
-0.132711
-0.117449
-0.103026
-0.0897977
-0.0779818
-0.0676653
-0.0588263
-0.0513627
-0.0451194
-0.0399163
-0.0355688
-0.0319036
-0.0287677
-0.0260338
-0.0236
-0.0213895
-0.0193462
-0.0174322
-0.0156227
-0.0139038
-0.0122688
-0.010716
-0.00924627
-0.00786291
-0.00656962
-0.0053695
-0.00426213
-0.0032513
-0.00231175
-0.00150703
-0.000561691
-0.000758692
-0.250374
-0.238175
-0.236582
-0.236737
-0.236451
-0.235656
-0.234046
-0.231019
-0.22607
-0.218881
-0.209291
-0.197306
-0.183154
-0.167282
-0.15029
-0.132848
-0.115628
-0.0992332
-0.0841395
-0.0706639
-0.0589698
-0.0490853
-0.0409274
-0.0343328
-0.0290921
-0.0249775
-0.021764
-0.0192446
-0.01724
-0.0156021
-0.0142147
-0.0129904
-0.0118672
-0.0108036
-0.00977425
-0.00876653
-0.00777649
-0.0068062
-0.00586151
-0.00495025
-0.00408092
-0.00325981
-0.00249617
-0.00177632
-0.00115497
-0.000419107
-0.000581573
-0.238174
-0.235347
-0.235237
-0.236077
-0.236557
-0.236224
-0.234826
-0.232017
-0.227377
-0.220504
-0.211102
-0.199085
-0.18465
-0.168248
-0.150483
-0.132061
-0.113716
-0.0961309
-0.0798598
-0.0652911
-0.0526479
-0.0420073
-0.0333142
-0.0264136
-0.0210866
-0.0170833
-0.0141472
-0.012036
-0.010534
-0.00945975
-0.00866718
-0.0080443
-0.00750943
-0.00700665
-0.00650089
-0.00597336
-0.00541731
-0.0048345
-0.00423237
-0.00362176
-0.0030153
-0.00242524
-0.001865
-0.00134013
-0.000872662
-0.000419171
-0.000206303
-0.231311
-0.231725
-0.233
-0.234306
-0.235094
-0.234963
-0.233638
-0.230842
-0.226221
-0.219376
-0.209982
-0.197904
-0.183366
-0.166826
-0.148859
-0.130159
-0.111468
-0.0934855
-0.0767984
-0.0618293
-0.0488331
-0.0379078
-0.0290128
-0.0220021
-0.0166609
-0.0127334
-0.00995224
-0.00805975
-0.00682459
-0.00604908
-0.00557282
-0.00527116
-0.00505237
-0.0048527
-0.00463164
-0.00436683
-0.00404971
-0.00368159
-0.00327057
-0.00282907
-0.00237186
-0.00191526
-0.00147428
-0.00107274
-0.000696069
-0.000482916
0.000186245
-0.227448
-0.228522
-0.230243
-0.231842
-0.232825
-0.232803
-0.231506
-0.228682
-0.224028
-0.217203
-0.207892
-0.195952
-0.181533
-0.165054
-0.147116
-0.128437
-0.109771
-0.0918289
-0.0751623
-0.0601538
-0.0471143
-0.0361744
-0.0272832
-0.0202952
-0.0149968
-0.0111321
-0.00843061
-0.00663172
-0.00549989
-0.00483387
-0.00446946
-0.00427911
-0.00416841
-0.0040718
-0.00394735
-0.00377191
-0.00353648
-0.00324235
-0.00289789
-0.00251607
-0.00211235
-0.00170471
-0.00130823
-0.000956573
-0.00061348
-0.000521355
0.000419397
-0.227447
-0.228518
-0.230235
-0.231827
-0.232807
-0.232791
-0.231504
-0.228685
-0.224033
-0.217205
-0.207891
-0.195947
-0.181527
-0.165047
-0.14711
-0.128433
-0.109769
-0.0918281
-0.0751629
-0.0601552
-0.0471168
-0.0361775
-0.0272866
-0.0202984
-0.0149996
-0.0111344
-0.00843262
-0.0066335
-0.00550162
-0.00483559
-0.00447121
-0.00428081
-0.00417002
-0.00407325
-0.00394858
-0.00377288
-0.0035372
-0.00324287
-0.00289827
-0.00251635
-0.00211261
-0.00170491
-0.00130859
-0.00095678
-0.000613907
-0.000521647
0.000418775
-0.231309
-0.23171
-0.232983
-0.234287
-0.235073
-0.234951
-0.23364
-0.230852
-0.226229
-0.219377
-0.209977
-0.197898
-0.183359
-0.166819
-0.148851
-0.130153
-0.111466
-0.0934877
-0.0768035
-0.0618366
-0.0488427
-0.0379195
-0.029025
-0.0220137
-0.0166712
-0.0127424
-0.00996008
-0.00806693
-0.00683133
-0.00605567
-0.00557921
-0.00527732
-0.00505809
-0.00485783
-0.00463601
-0.00437039
-0.00405248
-0.00368369
-0.00327215
-0.00283032
-0.00237291
-0.00191626
-0.00147518
-0.00107377
-0.000697064
-0.00048365
0.000184599
-0.238177
-0.235344
-0.235227
-0.236056
-0.236528
-0.2362
-0.234816
-0.232019
-0.227382
-0.220505
-0.211099
-0.19908
-0.184643
-0.16824
-0.150476
-0.132059
-0.11372
-0.0961391
-0.0798722
-0.0653076
-0.0526684
-0.0420303
-0.0333378
-0.0264356
-0.0211064
-0.0171006
-0.0141624
-0.0120493
-0.0105462
-0.00947099
-0.00867764
-0.00805385
-0.007518
-0.00701404
-0.00650707
-0.00597824
-0.00542102
-0.00483716
-0.00423428
-0.00362312
-0.00301636
-0.00242611
-0.00186583
-0.00134084
-0.00087344
-0.000419527
-0.000207944
-0.250379
-0.23818
-0.236569
-0.23671
-0.236426
-0.235639
-0.234037
-0.231015
-0.226068
-0.218879
-0.209291
-0.197306
-0.183152
-0.167279
-0.150286
-0.132846
-0.11563
-0.0992406
-0.0841525
-0.0706821
-0.0589922
-0.0491101
-0.0409526
-0.0343567
-0.0291139
-0.0249967
-0.0217808
-0.0192593
-0.0172531
-0.0156138
-0.0142252
-0.0129996
-0.011875
-0.0108098
-0.00977913
-0.00877002
-0.00777879
-0.00680746
-0.00586205
-0.00495027
-0.00408071
-0.00325942
-0.00249585
-0.00177581
-0.00115466
-0.000418448
-0.000582633
-0.245625
-0.234287
-0.233871
-0.234573
-0.233851
-0.232326
-0.230021
-0.226324
-0.220744
-0.213101
-0.2034
-0.191752
-0.178401
-0.163751
-0.148328
-0.132708
-0.11745
-0.103031
-0.0898067
-0.077995
-0.067681
-0.058844
-0.0513805
-0.0451367
-0.0399318
-0.0355825
-0.031915
-0.0287775
-0.0260417
-0.0236067
-0.0213947
-0.0193503
-0.0174348
-0.0156242
-0.0139039
-0.012268
-0.0107142
-0.00924401
-0.00786012
-0.00656675
-0.0053665
-0.00425942
-0.00324855
-0.00230942
-0.00150485
-0.000559304
-0.000759602
-0.217897
-0.215456
-0.216748
-0.218309
-0.218583
-0.217827
-0.216047
-0.212805
-0.207766
-0.200871
-0.192223
-0.181994
-0.170436
-0.157908
-0.144852
-0.131736
-0.118991
-0.106965
-0.0958957
-0.0859094
-0.0770326
-0.0692173
-0.062366
-0.0563552
-0.0510539
-0.0463376
-0.0420964
-0.0382387
-0.0346922
-0.0314024
-0.0283295
-0.0254463
-0.0227348
-0.0201835
-0.0177863
-0.0155409
-0.0134455
-0.0114976
-0.0096959
-0.00804015
-0.00652877
-0.00515639
-0.003921
-0.0027981
-0.00183183
-0.000809808
-0.000686592
-0.163395
-0.173517
-0.182214
-0.189389
-0.194347
-0.197051
-0.197675
-0.196266
-0.192857
-0.187573
-0.180618
-0.17224
-0.162733
-0.152445
-0.141755
-0.131028
-0.12058
-0.110643
-0.101362
-0.0928019
-0.0849641
-0.0778046
-0.0712581
-0.0652472
-0.0597002
-0.0545504
-0.0497458
-0.0452434
-0.0410136
-0.0370329
-0.0332874
-0.0297652
-0.0264605
-0.0233658
-0.0204777
-0.0177939
-0.0153136
-0.0130321
-0.0109442
-0.00904112
-0.00731684
-0.00576312
-0.00437506
-0.00313582
-0.0020597
-0.00105697
-0.000474342
-0.123934
-0.142776
-0.157338
-0.16847
-0.176347
-0.181218
-0.183473
-0.183436
-0.181338
-0.177402
-0.17188
-0.165055
-0.157232
-0.148724
-0.139835
-0.13084
-0.121956
-0.113346
-0.105109
-0.0972964
-0.0899224
-0.0829778
-0.0764382
-0.0702758
-0.0644612
-0.0589703
-0.0537811
-0.0488786
-0.0442494
-0.0398853
-0.0357779
-0.031922
-0.0283131
-0.0249491
-0.0218242
-0.0189308
-0.016261
-0.0138101
-0.0115717
-0.00953893
-0.00770358
-0.00605751
-0.00459214
-0.00329737
-0.00216534
-0.00119363
-0.000300949
-0.0983878
-0.121314
-0.139016
-0.152565
-0.162575
-0.169462
-0.173588
-0.175251
-0.174703
-0.172193
-0.167993
-0.162398
-0.155711
-0.148228
-0.14023
-0.131965
-0.123643
-0.115428
-0.107433
-0.0997333
-0.0923676
-0.0853509
-0.0786824
-0.0723535
-0.066352
-0.0606659
-0.0552842
-0.0501974
-0.0453976
-0.0408785
-0.0366343
-0.032658
-0.0289406
-0.0254758
-0.022259
-0.0192848
-0.0165463
-0.0140368
-0.0117485
-0.00967327
-0.0078022
-0.00612618
-0.00463577
-0.00332208
-0.00217178
-0.00119778
-0.000245456
-0.0847747
-0.110275
-0.130688
-0.146589
-0.158541
-0.167005
-0.172372
-0.174994
-0.175195
-0.173285
-0.169568
-0.164348
-0.157927
-0.1506
-0.142648
-0.134331
-0.125874
-0.117464
-0.109241
-0.101302
-0.093704
-0.0864747
-0.0796196
-0.0731312
-0.0669957
-0.0611976
-0.0557222
-0.0505566
-0.0456896
-0.0411126
-0.0368179
-0.0327975
-0.0290429
-0.0255468
-0.0223035
-0.0193071
-0.0165504
-0.0140257
-0.0117248
-0.00963921
-0.00775976
-0.00607705
-0.00458146
-0.00326312
-0.00211125
-0.00111857
-0.000235405
)
;

boundaryField
{
    inlet
    {
        type            zeroGradient;
    }
    outlet
    {
        type            fixedValue;
        value           uniform 0;
    }
    upperWall
    {
        type            zeroGradient;
    }
    lowerWall
    {
        type            zeroGradient;
    }
    frontAndBack
    {
        type            empty;
    }
}


// ************************************************************************* //
