/*--------------------------------*- C++ -*----------------------------------*\
| =========                 |                                                 |
| \\      /  F ield         | OpenFOAM: The Open Source CFD Toolbox           |
|  \\    /   O peration     | Version:  2406                                  |
|   \\  /    A nd           | Website:  www.openfoam.com                      |
|    \\/     M anipulation  |                                                 |
\*---------------------------------------------------------------------------*/
FoamFile
{
    version     2.0;
    format      ascii;
    arch        "LSB;label=32;scalar=64";
    class       surfaceScalarField;
    location    "49";
    object      phi;
}
// * * * * * * * * * * * * * * * * * * * * * * * * * * * * * * * * * * * * * //

dimensions      [0 3 -1 0 0 0 0];

oriented        oriented;

internalField   nonuniform List<scalar> 
3796
(
0.00999091
-0.000240906
0.0102747
-0.000283749
0.0105052
-0.000230504
0.0106839
-0.000178704
0.0108228
-0.000138856
0.0109308
-0.000107976
0.0110153
-8.44599e-05
0.0110824
-6.71152e-05
0.0111369
-5.44796e-05
0.0111821
-4.51936e-05
0.0112203
-3.81913e-05
0.0112531
-3.27868e-05
0.0112817
-2.85698e-05
0.0113071
-2.53496e-05
0.01133
-2.29405e-05
0.0113512
-2.12196e-05
0.0113713
-2.00327e-05
0.0113906
-1.93483e-05
0.0114098
-1.91435e-05
0.0114293
-1.95262e-05
0.0114499
-2.05847e-05
0.0114725
-2.25274e-05
0.0114981
-2.55282e-05
0.011528
-2.99251e-05
0.0115641
-3.60529e-05
0.0116086
-4.44969e-05
0.0116646
-5.59166e-05
0.0117359
-7.13485e-05
0.011828
-9.20504e-05
0.0119479
-0.000119856
0.012105
-0.000157092
0.012312
-0.000207008
0.0125858
-0.000273828
0.0129492
-0.000363291
0.013432
-0.000482863
0.0140744
-0.00064234
0.0149285
-0.000854087
0.0160618
-0.00113326
0.0175592
-0.00149731
0.0195236
-0.0019644
0.0220735
-0.00254995
0.0253338
-0.00326024
0.0294173
-0.00408342
0.0343879
-0.00497056
0.0402249
-0.0058368
0.0467297
-0.00650489
-0.00679303
0.0535229
0.0276306
-0.00012145
0.0275859
-0.000239024
0.027608
-0.000252642
0.0276655
-0.000236173
0.0277405
-0.000213772
0.0278211
-0.000188541
0.0279001
-0.000163436
0.027974
-0.000141055
0.0280418
-0.0001222
0.0281032
-0.000106638
0.0281589
-9.38066e-05
0.0282093
-8.31654e-05
0.0282551
-7.43466e-05
0.0282969
-6.7178e-05
0.0283356
-6.15251e-05
0.0283716
-5.72621e-05
0.0284058
-5.42458e-05
0.0284389
-5.24235e-05
0.0284716
-5.18236e-05
0.0285047
-5.26177e-05
0.0285393
-5.50651e-05
0.0285763
-5.9574e-05
0.0286175
-6.66569e-05
0.0286647
-7.70444e-05
0.0287204
-9.16663e-05
0.0287877
-0.000111826
0.0288711
-0.00013922
0.0289759
-0.000176179
0.0291097
-0.000225764
0.029282
-0.00029211
0.0295055
-0.00038066
0.0297972
-0.000498668
0.0301791
-0.000655653
0.0306799
-0.000864102
0.0313373
-0.00114016
0.0321994
-0.00150443
0.0333279
-0.00198252
0.0347999
-0.00260525
0.0367103
-0.00340766
0.0391723
-0.00442632
0.0423155
-0.00569311
0.0462809
-0.00722563
0.0512059
-0.00900846
0.0571988
-0.0109634
0.0643048
-0.012943
0.0723557
-0.0145557
-0.015464
0.0810268
0.0436931
-6.45147e-05
0.0436142
-0.000160136
0.043558
-0.000196389
0.0435247
-0.000202838
0.0435102
-0.00019929
0.0435115
-0.000189783
0.0435243
-0.00017627
0.0435447
-0.000161414
0.0435696
-0.000147063
0.043597
-0.000134011
0.0436256
-0.000122405
0.0436546
-0.000112128
0.0436834
-0.000103128
0.0437117
-9.54744e-05
0.0437395
-8.92802e-05
0.0437668
-8.45785e-05
0.0437939
-8.13618e-05
0.0438212
-7.9651e-05
0.0438489
-7.95828e-05
0.0438778
-8.14406e-05
0.0439084
-8.56781e-05
0.0439418
-9.29152e-05
0.0439792
-0.000103997
0.0440222
-0.000120014
0.044073
-0.000142446
0.0441344
-0.00017323
0.0442102
-0.000214983
0.0443052
-0.000271168
0.0444259
-0.000346421
0.0445807
-0.000446863
0.0447807
-0.000580616
0.0450404
-0.000758352
0.0453788
-0.00099408
0.0458208
-0.00130603
0.0463984
-0.00171773
0.0471531
-0.00225915
0.0481384
-0.00296781
0.0494226
-0.00388939
0.0510922
-0.00507731
0.0532565
-0.0065906
0.0560496
-0.0084863
0.0596349
-0.0108109
0.0641941
-0.0135676
0.0699322
-0.0167015
0.077033
-0.0200435
0.085446
-0.0229686
-0.0252428
0.095225
0.0577251
-3.95883e-05
0.0576719
-0.000106952
0.0576202
-0.000144702
0.0575774
-0.000159934
0.0575428
-0.000164673
0.0575164
-0.000163397
0.0574977
-0.000157595
0.0574855
-0.000149121
0.0574782
-0.000139763
0.0574748
-0.000130615
0.0574745
-0.000122104
0.0574767
-0.000114297
0.0574808
-0.000107256
0.0574865
-0.000101174
0.0574936
-9.62984e-05
0.0575018
-9.28009e-05
0.0575113
-9.07836e-05
0.057522
-9.0348e-05
0.0575341
-9.1709e-05
0.0575479
-9.52423e-05
0.0575638
-0.00010153
0.0575823
-0.000111368
0.0576041
-0.000125819
0.0576304
-0.000146266
0.0576625
-0.000174544
0.0577024
-0.000213063
0.0577525
-0.000265044
0.0578161
-0.000334752
0.0578976
-0.000427865
0.0580026
-0.000551884
0.0581387
-0.000716734
0.0583159
-0.000935461
0.058547
-0.00122519
0.0588493
-0.00160828
0.0592453
-0.00211376
0.0597652
-0.00277902
0.0604491
-0.00365176
0.0613517
-0.00479195
0.0625477
-0.00627335
0.0641413
-0.00818425
0.0662774
-0.0106224
0.0691583
-0.0136919
0.0730442
-0.0174535
0.0782896
-0.0219466
0.085242
-0.0269959
0.0941837
-0.0319099
-0.037715
0.106656
0.0697365
-2.60966e-05
0.069703
-7.34264e-05
0.0696642
-0.000105853
0.0696273
-0.000123047
0.0695936
-0.000130991
0.0695636
-0.000133389
0.0695377
-0.000131637
0.0695156
-0.000127034
0.0694969
-0.000121028
0.069481
-0.000114709
0.0694675
-0.0001086
0.0694561
-0.000102868
0.0694465
-9.76195e-05
0.0694384
-9.30903e-05
0.0694317
-8.95706e-05
0.0694262
-8.73145e-05
0.0694219
-8.64841e-05
0.0694189
-8.72411e-05
0.069417
-8.9826e-05
0.0694164
-9.46587e-05
0.0694172
-0.000102358
0.0694197
-0.000113803
0.069424
-0.000130139
0.0694307
-0.000152893
0.0694402
-0.000184036
0.0694534
-0.000226202
0.0694712
-0.000282847
0.0694951
-0.00035859
0.0695267
-0.000459528
0.0695686
-0.000593762
0.0696239
-0.000771976
0.0696968
-0.00100829
0.0697928
-0.00132126
0.0699199
-0.00173532
0.0700886
-0.00228247
0.0703142
-0.00300465
0.0706191
-0.00395662
0.0710369
-0.00520982
0.0716206
-0.00685709
0.0724552
-0.00901892
0.0736816
-0.0118489
0.0755334
-0.0155437
0.0783964
-0.0203164
0.0828704
-0.0264206
0.0897227
-0.0338479
0.0999164
-0.0421032
-0.054634
0.116835
0.0797417
-1.77487e-05
0.0797193
-5.10254e-05
0.0796898
-7.63886e-05
0.0796588
-9.20105e-05
0.0796283
-0.000100508
0.0795993
-0.000104341
0.0795724
-0.000104672
0.0795478
-0.000102436
0.0795255
-9.87275e-05
0.0795052
-9.44642e-05
0.0794868
-9.01579e-05
0.0794699
-8.60094e-05
0.0794545
-8.21596e-05
0.0794403
-7.88384e-05
0.0794271
-7.63433e-05
0.0794147
-7.49444e-05
0.0794031
-7.48416e-05
0.0793921
-7.62183e-05
0.0793816
-7.93232e-05
0.0793715
-8.45579e-05
0.0793617
-9.25222e-05
0.0793519
-0.000104056
0.0793421
-0.00012028
0.0793319
-0.000142665
0.079321
-0.000173135
0.079309
-0.000214229
0.0792955
-0.000269299
0.0792797
-0.000342795
0.0792609
-0.000440616
0.0792377
-0.000570588
0.0792088
-0.000743065
0.0791723
-0.000971765
0.0791259
-0.00127482
0.0790668
-0.00167627
0.0789923
-0.00220794
0.0788999
-0.00291223
0.078789
-0.00384571
0.0786637
-0.00508451
0.0785386
-0.00673204
0.0784502
-0.00893062
0.0784819
-0.0118808
0.0788077
-0.0158695
0.079822
-0.0213308
0.0822915
-0.0288898
0.0879548
-0.0395109
0.0993592
-0.0535078
-0.073966
0.118691
0.0877442
-1.19361e-05
0.0877278
-3.46685e-05
0.0877045
-5.30487e-05
0.0876779
-6.54364e-05
0.0876503
-7.28694e-05
0.0876228
-7.67675e-05
0.0875961
-7.79468e-05
0.0875707
-7.70713e-05
0.0875469
-7.49216e-05
0.0875246
-7.21898e-05
0.0875038
-6.92971e-05
0.0874842
-6.64347e-05
0.0874658
-6.37436e-05
0.0874484
-6.14234e-05
0.0874318
-5.97329e-05
0.0874158
-5.89133e-05
0.0874002
-5.91612e-05
0.0873846
-6.06489e-05
0.0873689
-6.36046e-05
0.0873527
-6.8369e-05
0.0873356
-7.54593e-05
0.0873172
-8.55903e-05
0.0872967
-9.973e-05
0.0872731
-0.00011914
0.0872455
-0.000145485
0.0872123
-0.000180943
0.0871714
-0.000228401
0.0871203
-0.000291677
0.0870555
-0.000375851
0.0869726
-0.000487648
0.0868656
-0.00063601
0.0867266
-0.000832795
0.0865456
-0.00109378
0.0863093
-0.00143999
0.086001
-0.00189957
0.0855991
-0.00251042
0.0850774
-0.00332399
0.0844038
-0.00441094
0.0835415
-0.00586983
0.0824511
-0.00784023
0.0810969
-0.0105266
0.0794574
-0.0142301
0.077575
-0.0194483
0.0756185
-0.0269333
0.0745929
-0.0384854
0.0780134
-0.0569282
-0.0914996
0.095547
0.0937455
-7.41548e-06
0.0937325
-2.16502e-05
0.093713
-3.35493e-05
0.0936896
-4.20097e-05
0.0936641
-4.74002e-05
0.0936378
-5.04541e-05
0.0936115
-5.16521e-05
0.0935859
-5.14271e-05
0.0935613
-5.02888e-05
0.0935378
-4.86944e-05
0.0935154
-4.6933e-05
0.0934941
-4.51516e-05
0.0934739
-4.34598e-05
0.0934545
-4.2005e-05
0.0934357
-4.09725e-05
0.0934174
-4.05426e-05
0.0933991
-4.08663e-05
0.0933805
-4.20808e-05
0.0933613
-4.43577e-05
0.0933409
-4.79498e-05
0.0933187
-5.32314e-05
0.0932938
-6.07264e-05
0.0932652
-7.11391e-05
0.0932315
-8.53957e-05
0.0931908
-0.000104712
0.0931405
-0.000130683
0.0930776
-0.00016542
0.0929976
-0.000211718
0.0928951
-0.000273289
0.0927625
-0.000355064
0.0925901
-0.000463599
0.092365
-0.000607622
0.09207
-0.000798779
0.0916827
-0.00105267
0.0911734
-0.00139032
0.0905033
-0.00184027
0.0896209
-0.00244167
0.0884588
-0.00324887
0.0869274
-0.0043385
0.0849071
-0.00582002
0.082234
-0.00785354
0.0786747
-0.010671
0.0738554
-0.014629
0.067118
-0.0201959
0.0568457
-0.0282131
0.039438
-0.0395209
-0.0520617
0.0977462
-3.56617e-06
0.0977349
-1.04296e-05
0.0977177
-1.62695e-05
0.0976962
-2.05387e-05
0.0976722
-2.33488e-05
0.0976468
-2.50041e-05
0.0976208
-2.57174e-05
0.0975951
-2.57066e-05
0.09757
-2.52257e-05
0.0975458
-2.44981e-05
0.0975226
-2.36678e-05
0.0975003
-2.2815e-05
0.0974788
-2.20014e-05
0.0974581
-2.13049e-05
0.097438
-2.08204e-05
0.0974181
-2.06422e-05
0.0973981
-2.08514e-05
0.0973776
-2.15252e-05
0.097356
-2.27563e-05
0.0973327
-2.46803e-05
0.097307
-2.74937e-05
0.0972777
-3.14725e-05
0.0972436
-3.69869e-05
0.0972028
-4.45259e-05
0.0971528
-5.47301e-05
0.0970906
-6.8443e-05
0.097012
-8.67772e-05
0.0969115
-0.000111209
0.0967819
-0.000143696
0.0966137
-0.000186845
0.0963942
-0.000244121
0.0961068
-0.000320149
0.0957291
-0.000421108
0.0952317
-0.000555308
0.0945754
-0.000733978
0.0937076
-0.000972439
0.0925577
-0.0012918
0.0910302
-0.00172149
0.0889948
-0.00230312
0.0862708
-0.00309607
0.0826034
-0.0041863
0.077629
-0.00569657
0.0708061
-0.00780629
0.0613562
-0.0107459
0.0479831
-0.0148405
0.0286458
-0.0201839
-0.023416
0.0997464
4.07502e-09
0.099736
-6.22959e-09
0.0997197
-5.03116e-09
0.0996992
-3.42362e-09
0.0996759
-9.95934e-11
0.0996509
8.25939e-09
0.0996252
1.64929e-08
0.0995995
1.76218e-08
0.0995742
1.44234e-08
0.0995497
1.55661e-08
0.099526
2.40319e-08
0.0995032
3.40459e-08
0.0994812
3.89346e-08
0.0994598
3.76655e-08
0.099439
3.43946e-08
0.0994184
3.34183e-08
0.0993975
3.59167e-08
0.0993759
4.01538e-08
0.0993531
4.37636e-08
0.0993284
4.49258e-08
0.0993009
4.35426e-08
0.0992694
3.98977e-08
0.0992324
3.52904e-08
0.0991878
3.03189e-08
0.0991331
2.57426e-08
0.0990647
2.15541e-08
0.0989779
1.77155e-08
0.0988667
1.40274e-08
0.098723
1.01547e-08
0.0985361
5.79141e-09
0.098292
7.06199e-10
0.0979719
-5.30884e-09
0.0975508
-1.2166e-08
0.0969955
-1.98431e-08
0.0962616
-2.85797e-08
0.0952892
-3.82277e-08
0.0939974
-5.0015e-08
0.092276
-6.33981e-08
0.0899729
-7.85246e-08
0.0868768
-9.18682e-08
0.0826905
-8.88662e-08
0.0769939
-6.39452e-08
0.0691876
9.10853e-09
0.0584413
-2.35166e-08
0.0436007
1.40129e-07
0.0234162
1.59879e-07
7.08507e-08
0.0997464
3.57275e-06
0.099736
1.04181e-05
0.0997197
1.62603e-05
0.0996992
2.05326e-05
0.0996759
2.33488e-05
0.0996509
2.50196e-05
0.0996252
2.57494e-05
0.0995995
2.57415e-05
0.0995742
2.52548e-05
0.0995497
2.45294e-05
0.099526
2.37154e-05
0.0995032
2.28817e-05
0.0994812
2.20774e-05
0.0994599
2.13788e-05
0.099439
2.0889e-05
0.0994184
2.07098e-05
0.0993975
2.09242e-05
0.0993759
2.16056e-05
0.0993531
2.28426e-05
0.0993284
2.47678e-05
0.0993009
2.75778e-05
0.0992694
3.15497e-05
0.0992324
3.70556e-05
0.0991878
4.45858e-05
0.0991331
5.47819e-05
0.0990647
6.8487e-05
0.0989779
8.6814e-05
0.0988667
0.000111238
0.098723
0.000143717
0.0985362
0.000186857
0.0982921
0.000244123
0.0979719
0.000320138
0.0975508
0.000421085
0.0969956
0.000555269
0.0962616
0.000733924
0.0952892
0.000972366
0.0939974
0.0012917
0.092276
0.00172137
0.0899728
0.00230297
0.0868768
0.0030959
0.0826905
0.00418614
0.0769939
0.00569647
0.0691875
0.00780621
0.0584414
0.0107461
0.0436006
0.0148404
0.0234161
0.0201843
0.0234161
0.0977461
7.42346e-06
0.0977349
2.1638e-05
0.0977177
3.35404e-05
0.0976962
4.20037e-05
0.0976722
4.74004e-05
0.0976468
5.04688e-05
0.0976208
5.16816e-05
0.0975951
5.14599e-05
0.09757
5.03173e-05
0.0975458
4.87259e-05
0.0975226
4.69796e-05
0.0975003
4.5215e-05
0.0974788
4.35313e-05
0.0974582
4.20761e-05
0.097438
4.10411e-05
0.0974181
4.06119e-05
0.0973981
4.09393e-05
0.0973776
4.21587e-05
0.097356
4.44383e-05
0.0973327
4.80304e-05
0.097307
5.33091e-05
0.0972778
6.07995e-05
0.0972436
7.1206e-05
0.0972028
8.54562e-05
0.0971528
0.000104765
0.0970906
0.000130729
0.097012
0.000165458
0.0969115
0.000211748
0.0967819
0.00027331
0.0966137
0.000355075
0.0963943
0.0004636
0.0961068
0.000607612
0.0957291
0.000798757
0.0952318
0.00105264
0.0945754
0.00139027
0.0937076
0.00184021
0.0925577
0.00244159
0.0910303
0.00324876
0.0889948
0.00433837
0.0862708
0.00581987
0.0826035
0.00785338
0.0776291
0.0106709
0.0708063
0.014629
0.0613563
0.0201958
0.0479833
0.0282134
0.0286461
0.0395213
0.052062
0.0937455
1.19429e-05
0.0937325
3.46572e-05
0.093713
5.30396e-05
0.0936896
6.54308e-05
0.0936641
7.28704e-05
0.0936378
7.6781e-05
0.0936115
7.79741e-05
0.0935859
7.71043e-05
0.0935613
7.49521e-05
0.0935378
7.22223e-05
0.0935154
6.9339e-05
0.0934942
6.64882e-05
0.0934739
6.38036e-05
0.0934545
6.14875e-05
0.0934358
5.98001e-05
0.0934174
5.89847e-05
0.0933991
5.92345e-05
0.0933806
6.0723e-05
0.0933613
6.36768e-05
0.0933409
6.844e-05
0.0933187
7.55281e-05
0.0932939
8.56584e-05
0.0932653
9.97952e-05
0.0932316
0.000119203
0.0931908
0.000145541
0.0931406
0.000180992
0.0930776
0.00022844
0.0929977
0.000291708
0.0928952
0.00037587
0.0927626
0.000487658
0.0925902
0.000636009
0.092365
0.000832786
0.0920701
0.00109376
0.0916827
0.00143996
0.0911735
0.00189953
0.0905033
0.00251036
0.089621
0.00332392
0.0884589
0.00441086
0.0869275
0.00586973
0.0849072
0.0078401
0.0822341
0.0105265
0.0786749
0.01423
0.0738556
0.0194482
0.0671182
0.0269334
0.0568458
0.0384856
0.0394381
0.0569287
0.0915003
0.0877442
1.77556e-05
0.0877278
5.10134e-05
0.0877045
7.6379e-05
0.0876779
9.20051e-05
0.0876503
0.000100509
0.0876228
0.000104351
0.0875961
0.000104694
0.0875707
0.000102468
0.0875469
9.87623e-05
0.0875246
9.45008e-05
0.0875038
9.01973e-05
0.0874842
8.60528e-05
0.0874658
8.22084e-05
0.0874485
7.88954e-05
0.0874319
7.64086e-05
0.0874159
7.50127e-05
0.0874002
7.49084e-05
0.0873846
7.62793e-05
0.0873689
7.93809e-05
0.0873528
8.46147e-05
0.0873357
9.25824e-05
0.0873173
0.00010412
0.0872967
0.000120347
0.0872732
0.00014273
0.0872456
0.000173195
0.0872124
0.000214279
0.0871715
0.000269339
0.0871204
0.000342823
0.0870557
0.000440634
0.0869727
0.000570594
0.0868657
0.000743065
0.0867267
0.000971756
0.0865457
0.00127481
0.0863094
0.00167624
0.0860011
0.00220792
0.0855992
0.0029122
0.0850775
0.00384567
0.0844039
0.00508446
0.0835416
0.00673198
0.0824512
0.00893055
0.081097
0.0118807
0.0794577
0.0158694
0.0775753
0.0213307
0.0756187
0.0288898
0.0745934
0.0395109
0.0780144
0.0535079
0.073966
0.0955485
0.0797417
2.61024e-05
0.0797193
7.3417e-05
0.0796898
0.000105845
0.0796588
0.000123043
0.0796283
0.000130993
0.0795993
0.000133393
0.0795724
0.00013165
0.0795478
0.000127058
0.0795255
0.000121062
0.0795052
0.000114746
0.0794868
0.000108636
0.07947
0.000102903
0.0794545
9.76642e-05
0.0794403
9.31477e-05
0.0794271
8.96378e-05
0.0794147
8.73788e-05
0.0794031
8.65379e-05
0.0793921
8.72829e-05
0.0793816
8.98632e-05
0.0793716
9.46986e-05
0.0793617
0.000102409
0.079352
0.000113863
0.0793422
0.000130208
0.079332
0.00015296
0.0793211
0.000184099
0.0793092
0.000226252
0.0792957
0.000282886
0.0792799
0.000358614
0.079261
0.000459542
0.0792379
0.000593766
0.079209
0.000771975
0.0791725
0.00100828
0.079126
0.00132125
0.079067
0.0017353
0.0789925
0.00228246
0.0789
0.00300463
0.0787891
0.00395661
0.0786638
0.0052098
0.0785387
0.00685707
0.0784504
0.0090189
0.0784822
0.0118489
0.0788081
0.0155436
0.0798225
0.0203163
0.082292
0.0264204
0.0879551
0.0338479
0.0993597
0.0421032
0.0546338
0.118692
0.0697365
3.9592e-05
0.069703
0.000106943
0.0696641
0.000144695
0.0696273
0.000159937
0.0695936
0.000164681
0.0695636
0.000163402
0.0695377
0.000157602
0.0695156
0.000149141
0.0694969
0.000139794
0.069481
0.000130647
0.0694675
0.000122127
0.0694561
0.00011432
0.0694465
0.000107294
0.0694384
0.000101232
0.0694317
9.63623e-05
0.0694263
9.28565e-05
0.069422
9.08203e-05
0.0694189
9.03724e-05
0.0694171
9.17293e-05
0.0694165
9.52726e-05
0.0694173
0.000101573
0.0694198
0.000111426
0.0694241
0.000125882
0.0694308
0.000146332
0.0694403
0.0001746
0.0694535
0.00021311
0.0694714
0.000265076
0.0694952
0.000334775
0.0695269
0.000427875
0.0695688
0.000551891
0.0696241
0.000716734
0.0696969
0.000935462
0.069793
0.00122519
0.06992
0.00160828
0.0700887
0.00211376
0.0703144
0.00277903
0.0706192
0.00365177
0.0710371
0.00479197
0.0716208
0.00627338
0.0724555
0.00818428
0.0736819
0.0106225
0.0755338
0.0136918
0.0783969
0.0174534
0.0828708
0.0219465
0.0897231
0.0269957
0.0999168
0.0319097
0.0377149
0.116836
0.0577251
6.45182e-05
0.0576719
0.000160128
0.0576202
0.000196381
0.0575773
0.000202841
0.0575428
0.000199295
0.0575164
0.000189787
0.0574977
0.000176277
0.0574854
0.000161435
0.0574781
0.000147098
0.0574748
0.00013404
0.0574745
0.000122419
0.0574767
0.000112145
0.0574808
0.000103162
0.0574866
9.55254e-05
0.0574936
8.93304e-05
0.0575019
8.4613e-05
0.0575113
8.13798e-05
0.057522
7.96588e-05
0.0575342
7.95966e-05
0.057548
8.14669e-05
0.0575639
8.57204e-05
0.0575824
9.29693e-05
0.0576042
0.000104054
0.0576305
0.000120069
0.0576627
0.000142491
0.0577026
0.000173265
0.0577527
0.000215007
0.0578163
0.000271185
0.0578977
0.000346432
0.0580028
0.000446872
0.0581389
0.000580624
0.058316
0.000758361
0.0585472
0.000994091
0.0588494
0.00130604
0.0592455
0.00171774
0.0597654
0.00225918
0.0604493
0.00296784
0.0613519
0.00388944
0.062548
0.00507738
0.0641416
0.00659069
0.0662778
0.00848638
0.0691588
0.0108109
0.0730448
0.0135676
0.0782902
0.0167013
0.0852428
0.0200433
0.0941843
0.0229682
0.0252423
0.106657
0.0436931
0.000121454
0.0436142
0.000239018
0.0435579
0.000252643
0.0435246
0.000236183
0.0435102
0.00021378
0.0435115
0.000188542
0.0435243
0.000163439
0.0435447
0.000141072
0.0435695
0.000122228
0.0435969
0.000106657
0.0436256
9.38207e-05
0.0436546
8.31844e-05
0.0436834
7.43833e-05
0.0437117
6.72157e-05
0.0437395
6.15557e-05
0.0437668
5.72711e-05
0.043794
5.42472e-05
0.0438212
5.24219e-05
0.043849
5.18384e-05
0.0438778
5.26443e-05
0.0439085
5.5111e-05
0.0439419
5.96209e-05
0.0439793
6.671e-05
0.0440223
7.70839e-05
0.0440731
9.17041e-05
0.0441346
0.000111847
0.0442104
0.000139241
0.0443054
0.000176187
0.0444261
0.000225778
0.0445809
0.000292118
0.0447808
0.000380677
0.0450405
0.000498684
0.045379
0.000655677
0.045821
0.000864129
0.0463985
0.0011402
0.0471533
0.00150447
0.0481386
0.00198258
0.0494228
0.00260533
0.0510925
0.00340776
0.0532569
0.00442645
0.0560502
0.00569323
0.0596356
0.00722567
0.0641949
0.00900842
0.0699331
0.0109633
0.0770338
0.0129427
0.0854467
0.0145553
0.0154637
0.0952254
0.0276306
0.000240903
0.0275858
0.00028374
0.027608
0.000230508
0.0276655
0.000178717
0.0277405
0.000138857
0.0278211
0.000107972
0.0279
8.44717e-05
0.027974
6.71354e-05
0.0280417
5.44961e-05
0.0281032
4.51955e-05
0.0281589
3.81989e-05
0.0282093
3.28037e-05
0.0282551
2.86046e-05
0.0282969
2.53723e-05
0.0283355
2.29542e-05
0.0283716
2.12068e-05
0.0284058
2.00216e-05
0.0284389
1.93342e-05
0.0284716
1.91549e-05
0.0285048
1.95444e-05
0.0285393
2.06261e-05
0.0285764
2.25596e-05
0.0286176
2.55706e-05
0.0286648
2.99438e-05
0.0287204
3.60776e-05
0.0287878
4.44966e-05
0.0288712
5.59284e-05
0.028976
7.13426e-05
0.0291098
9.20631e-05
0.0292821
0.000119857
0.0295057
0.000157112
0.0297974
0.00020702
0.0301793
0.000273858
0.0306801
0.000363313
0.0313375
0.000482897
0.0321996
0.000642372
0.0333282
0.000854133
0.0348002
0.00113333
0.0367107
0.0014974
0.0391728
0.00196451
0.0423161
0.00255003
0.0462817
0.00326032
0.0512069
0.0040834
0.0571997
0.00497053
0.0643057
0.00583682
0.0723563
0.00650484
0.00679288
0.0810272
0.0099909
0.0102746
0.0105052
0.0106839
0.0108228
0.0109307
0.0110152
0.0110823
0.0111368
0.011182
0.0112203
0.0112531
0.0112817
0.0113071
0.01133
0.0113512
0.0113712
0.0113906
0.0114097
0.0114293
0.0114499
0.0114725
0.0114981
0.011528
0.0115641
0.0116086
0.0116646
0.0117359
0.011828
0.0119479
0.012105
0.012312
0.0125859
0.0129492
0.0134321
0.0140745
0.0149287
0.016062
0.0175595
0.019524
0.0220741
0.0253345
0.0294179
0.0343885
0.0402254
0.0467302
0.0535233
0.0599669
-0.00644393
0.0652716
-0.00530443
0.0689484
-0.00367653
0.0709284
-0.0019797
0.0712908
-0.000362015
0.00111679
0.0701743
0.0895928
-0.0150097
0.0971532
-0.0128645
0.103271
-0.00979385
0.107908
-0.00661686
0.111186
-0.00363863
-0.000959462
0.113262
0.105162
-0.0249468
0.113802
-0.0215041
0.120754
-0.0167457
0.126009
-0.0118709
0.129649
-0.00727879
-0.00326529
0.131955
0.119568
-0.0378582
0.129565
-0.0315014
0.136471
-0.0236513
0.14063
-0.0160299
0.142665
-0.00931324
-0.00399779
0.143397
0.131063
-0.0520859
0.137283
-0.0377214
0.138024
-0.0243922
0.135941
-0.0139468
0.133053
-0.00642527
-0.00147609
0.130532
0.119027
-0.0524214
0.107482
-0.0261773
0.0936695
-0.0105788
0.0828487
-0.00312635
0.0757386
0.000685012
0.00251069
0.0717515
0.0431255
0.0169484
0.00636938
0.00324303
0.00392788
0.00643846
0.0431275
0.0524209
0.0169502
0.026177
0.006371
0.0105791
0.00324457
0.00312623
0.00392961
-0.000685195
-0.00251119
0.00644084
0.119027
0.0520854
0.107483
0.0377213
0.09367
0.0243921
0.0828496
0.0139466
0.0757398
0.00642469
0.00147537
0.071753
0.131063
0.0378578
0.137284
0.031501
0.138024
0.0236512
0.135941
0.0160297
0.133053
0.00931317
0.00399784
0.13053
0.119568
0.0249465
0.129565
0.0215038
0.136471
0.0167457
0.140629
0.0118711
0.142664
0.00727878
0.00326514
0.143397
0.105162
0.0150094
0.113802
0.0128645
0.120754
0.00979385
0.126009
0.00661683
0.129649
0.00363815
0.000958987
0.131956
0.0895933
0.00644389
0.0971537
0.00530445
0.103272
0.00367653
0.107909
0.0019796
0.111186
0.000361788
-0.00111682
0.113262
0.0599674
0.0652722
0.0689489
0.0709287
0.0712907
0.070174
0.0678391
0.00233552
0.0646054
0.00323404
0.0607614
0.00384425
0.0565339
0.00422775
0.0521017
0.00443244
0.0476091
0.0044929
0.0431695
0.00443995
0.038869
0.00430085
0.0347724
0.00409698
0.0309283
0.00384461
0.0273718
0.00355695
0.0241268
0.00324549
0.0212065
0.00292071
0.0186144
0.00259247
0.0163446
0.00227015
0.0143826
0.0019622
0.0127072
0.00167552
0.0112926
0.0014147
0.0101107
0.00118184
0.00913399
0.000976633
0.00833679
0.000797095
0.0076964
0.000640237
0.00719333
0.000502935
0.00681085
0.000382329
0.00653455
0.000276164
0.00635172
0.000182695
0.00625094
0.000100672
0.00622172
2.91018e-05
0.00625439
-3.27653e-05
0.00633994
-8.56465e-05
0.00646999
-0.000130139
0.00663713
-0.000167224
0.0068351
-0.000198047
0.0070581
-0.00022308
0.00730042
-0.00024239
0.00755681
-0.000256463
0.00782279
-0.000266049
0.00809451
-0.000271781
0.00836854
-0.000274098
0.00864192
-0.000273441
0.00891209
-0.000270228
0.00917695
-0.000264899
0.00943466
-0.000257757
0.00968388
-0.000249243
0.00992344
-0.000239582
0.010149
-0.000225569
-0.000233214
0.11425
0.00134811
0.114236
0.00324805
0.113304
0.00477639
0.11153
0.00600246
0.108993
0.00696912
0.10578
0.00770616
0.101977
0.00824374
0.0976701
0.00860825
0.0929492
0.00881847
0.087907
0.00888733
0.0826397
0.00882479
0.0772459
0.00863982
0.0718252
0.00834183
0.0664759
0.00794219
0.0612911
0.00745526
0.0563549
0.00689859
0.0517385
0.00629205
0.0474966
0.00565656
0.0436659
0.00501247
0.0402644
0.00437806
0.0372928
0.0037685
0.0347376
0.00319522
0.0325744
0.0026659
0.0307718
0.00218478
0.0292945
0.00175322
0.0281065
0.00137049
0.0271726
0.00103433
0.02646
0.000741617
0.0259382
0.000488786
0.0255804
0.000272069
0.0253627
8.74101e-05
0.0252641
-6.88556e-05
0.0252652
-0.000199199
0.0253475
-0.000305589
0.0254956
-0.000390521
0.0256961
-0.000457091
0.025938
-0.000508096
0.0262116
-0.000545505
0.0265084
-0.000570943
0.0268208
-0.000586025
0.0271428
-0.000592292
0.0274691
-0.000591235
0.0277952
-0.000583925
0.0281184
-0.000572513
0.0284341
-0.000555238
0.0287526
-0.000544164
-0.000500728
0.133329
-2.55184e-05
0.134072
0.00250549
0.134301
0.00454783
0.13405
0.00625302
0.133335
0.00768445
0.132155
0.00888686
0.130499
0.00990049
0.128356
0.0107514
0.125724
0.0114508
0.122612
0.0120001
0.119042
0.0123944
0.115057
0.0126258
0.110713
0.012686
0.106085
0.0125705
0.101259
0.0122807
0.0963319
0.0118262
0.0914
0.0112239
0.0865585
0.010498
0.0818936
0.00967726
0.0774785
0.00879296
0.0733707
0.00787616
0.0696101
0.00695558
0.0662199
0.00605593
0.0632075
0.00519697
0.0605672
0.0043932
0.0582834
0.00365407
0.0563329
0.00298467
0.0546878
0.00238649
0.0533181
0.0018583
0.052193
0.00139698
0.0512821
0.000998192
0.0505561
0.000656931
0.049989
0.000367793
0.0495582
0.000125113
0.049244
-7.64787e-05
0.049028
-0.000241226
0.0488927
-0.000372865
0.0488224
-0.000475325
0.0488039
-0.000552514
0.048826
-0.000608247
0.0488795
-0.000645843
0.0489565
-0.000668332
0.0490505
-0.000677923
0.0491569
-0.000678963
0.0492693
-0.00066768
0.0493962
-0.000671048
-0.000600873
0.143534
-0.000162003
0.143434
0.00260556
0.143182
0.00480063
0.142806
0.00662917
0.142316
0.00817485
0.141692
0.00951048
0.140902
0.0106907
0.139909
0.011745
0.138675
0.0126855
0.137163
0.0135118
0.135345
0.0142127
0.133202
0.0147692
0.13073
0.0151588
0.12794
0.0153606
0.12486
0.0153601
0.121535
0.0151514
0.11802
0.0147393
0.114379
0.0141388
0.110682
0.0133743
0.106997
0.0124769
0.103391
0.0114822
0.0999201
0.0104265
0.0966307
0.00934506
0.0935583
0.00826921
0.090726
0.0072253
0.0881459
0.00623396
0.0858204
0.00531
0.0837438
0.00446288
0.0819045
0.00369749
0.0802864
0.00301495
0.0788709
0.00241356
0.0776381
0.0018896
0.0765677
0.001438
0.0756398
0.00105295
0.0748349
0.000728334
0.0741358
0.000457731
0.073528
0.000234888
0.0729988
5.38307e-05
0.072537
-9.08547e-05
0.0721324
-0.000203716
0.0717754
-0.000288943
0.0714578
-0.000350712
0.0711722
-0.000392411
0.0709127
-0.000419422
0.0706738
-0.000428875
0.0704511
-0.000448348
-0.000394929
0.128949
0.00142097
0.128187
0.00336779
0.127967
0.00502074
0.128155
0.00644144
0.12862
0.00770971
0.129231
0.00889943
0.129882
0.0100394
0.130491
0.0111367
0.130987
0.0121896
0.131313
0.0131859
0.131423
0.0141024
0.131285
0.0149076
0.130876
0.015567
0.130189
0.0160482
0.129223
0.0163255
0.127992
0.0163828
0.126516
0.0162151
0.124826
0.0158289
0.122958
0.0152419
0.120954
0.0144807
0.118858
0.0135783
0.116713
0.0125713
0.114561
0.0114974
0.112437
0.0103924
0.110374
0.00928851
0.108395
0.00821278
0.106518
0.00718681
0.104754
0.00622642
0.10311
0.00534214
0.101585
0.0045398
0.100177
0.0038214
0.0988803
0.00318593
0.0976881
0.00263013
0.0965917
0.00214923
0.0955825
0.0017375
0.0946515
0.00138863
0.0937901
0.00109615
0.0929901
0.000853783
0.0922437
0.000655505
0.0915443
0.000495571
0.0908865
0.000368805
0.0902652
0.000270525
0.0896761
0.000196736
0.0891136
0.000142993
0.0885765
0.000108219
0.0880474
8.07758e-05
8.62441e-05
0.0712297
0.00194276
0.0730064
0.00159106
0.0759522
0.002075
0.0795619
0.00283164
0.0834439
0.00382773
0.0873733
0.00496995
0.0912352
0.00617745
0.0949522
0.00741962
0.098461
0.0086807
0.10171
0.00993664
0.104661
0.0111513
0.107289
0.0122803
0.109578
0.0132779
0.111523
0.0141025
0.113128
0.0147206
0.114401
0.0151097
0.115357
0.0152595
0.116013
0.0151725
0.116392
0.0148628
0.116519
0.0143539
0.116421
0.0136762
0.116127
0.0128648
0.115668
0.0119567
0.115072
0.010988
0.114369
0.00999214
0.113583
0.00899848
0.112738
0.00803139
0.111855
0.00710993
0.110949
0.00624793
0.110034
0.00545448
0.109121
0.00473455
0.108217
0.00408969
0.107328
0.00351882
0.106458
0.00301891
0.10561
0.00258557
0.104785
0.00221356
0.103984
0.00189719
0.103207
0.00163069
0.102454
0.0014084
0.101725
0.00122497
0.101018
0.00107541
0.100333
0.000955354
0.0996694
0.000860665
0.0990232
0.000789203
0.098397
0.000734445
0.0977693
0.000708461
0.000659657
0.0137447
-0.00536367
0.0199804
-0.00464476
0.0257187
-0.00366356
0.0310554
-0.00250533
0.0361409
-0.00125816
0.0411225
-1.20269e-05
0.0460722
0.0012275
0.0509923
0.00249924
0.0558525
0.00382029
0.0606106
0.00517844
0.0652221
0.0065398
0.0696469
0.00785554
0.0738515
0.00907331
0.0778085
0.0101454
0.0814963
0.0110327
0.0848988
0.011707
0.0880047
0.0121535
0.0908072
0.0123701
0.0933036
0.0123665
0.0954958
0.0121618
0.0973905
0.0117817
0.0989982
0.0112574
0.100333
0.0106221
0.101413
0.00990874
0.102257
0.00914835
0.102887
0.00836859
0.103325
0.00759302
0.103595
0.00684064
0.103717
0.0061259
0.103712
0.00545901
0.1036
0.00484639
0.103399
0.00429129
0.103123
0.00379437
0.102788
0.00335436
0.102405
0.00296854
0.101985
0.00263327
0.101538
0.00234433
0.101072
0.00209726
0.100592
0.0018876
0.100106
0.00171108
0.099618
0.00156368
0.0991313
0.00144207
0.0986493
0.00134264
0.0981728
0.00126571
0.0977064
0.0012008
0.0972349
0.00117999
0.00108917
0.000273974
-0.00563778
0.00209154
-0.00646264
0.00390687
-0.00547943
0.00582633
-0.00442556
0.0079756
-0.00340832
0.0104012
-0.00243854
0.0131334
-0.0015054
0.0161976
-0.00056542
0.019583
0.000434544
0.0232508
0.00151043
0.0271499
0.00264065
0.0312312
0.00377415
0.0354431
0.00486134
0.0397299
0.00585871
0.0440347
0.00672779
0.0483003
0.00744144
0.0524717
0.00798233
0.0564978
0.00834424
0.0603329
0.00853181
0.0639391
0.00855615
0.067288
0.00843333
0.0703598
0.00818616
0.0731427
0.00783978
0.075633
0.00741896
0.0778344
0.00694749
0.0797565
0.00644697
0.0814139
0.0059361
0.0828246
0.00543024
0.0840094
0.00494145
0.0849901
0.00447859
0.0857891
0.00404767
0.0864283
0.00365227
0.0869289
0.00329394
0.0873106
0.00297269
0.0875919
0.00268738
0.0877892
0.00243604
0.0879174