/*--------------------------------*- C++ -*----------------------------------*\
| =========                 |                                                 |
| \\      /  F ield         | OpenFOAM: The Open Source CFD Toolbox           |
|  \\    /   O peration     | Version:  2406                                  |
|   \\  /    A nd           | Website:  www.openfoam.com                      |
|    \\/     M anipulation  |                                                 |
\*---------------------------------------------------------------------------*/
FoamFile
{
    version     2.0;
    format      ascii;
    arch        "LSB;label=32;scalar=64";
    class       volScalarField;
    location    "33";
    object      p;
}
// * * * * * * * * * * * * * * * * * * * * * * * * * * * * * * * * * * * * * //

dimensions      [0 2 -2 0 0 0 0];

internalField   nonuniform List<scalar> 
1964
(
4.47842
4.46518
4.45038
4.43553
4.42029
4.40467
4.38885
4.37294
4.35698
4.34097
4.32493
4.30886
4.29276
4.27664
4.26052
4.24438
4.22822
4.21205
4.19586
4.17965
4.16342
4.14715
4.13085
4.1145
4.09808
4.08157
4.06495
4.04816
4.03115
4.01384
3.99612
3.97785
3.95882
3.93873
3.91719
3.89363
3.86725
3.83693
3.80104
3.75728
3.70239
3.63183
3.53946
3.41744
3.2567
3.04838
2.78788
4.48339
4.46676
4.45039
4.43542
4.42023
4.40459
4.38875
4.37287
4.35694
4.34094
4.32488
4.3088
4.29271
4.27662
4.26051
4.24438
4.22821
4.21204
4.19584
4.17962
4.16338
4.14712
4.13081
4.11445
4.09801
4.08149
4.06483
4.048
4.03093
4.01355
3.99573
3.97732
3.9581
3.93779
3.91594
3.89199
3.86512
3.83419
3.79754
3.75288
3.69685
3.62479
3.53022
3.40464
3.23774
3.01904
2.74331
4.48604
4.46762
4.45016
4.43522
4.4202
4.4045
4.38859
4.37272
4.35687
4.34091
4.32484
4.30872
4.29263
4.27654
4.26047
4.24436
4.22822
4.21204
4.19584
4.17961
4.16338
4.14712
4.13083
4.11449
4.0981
4.08161
4.065
4.04824
4.03127
4.014
3.99636
3.97818
3.95929
3.9394
3.91817
3.89504
3.8693
3.83983
3.80507
3.76268
3.70914
3.63924
3.54534
3.41675
3.23955
2.99699
2.67846
4.48751
4.46832
4.45006
4.43513
4.42024
4.40447
4.38842
4.37257
4.35683
4.34096
4.32486
4.30868
4.29253
4.27646
4.26043
4.24438
4.22828
4.21212
4.19592
4.1797
4.16347
4.14725
4.13101
4.11476
4.09846
4.08212
4.06571
4.0492
4.03257
4.01577
3.99875
3.98144
3.9637
3.94539
3.92626
3.90597
3.88394
3.85933
3.83072
3.79578
3.75069
3.6891
3.60095
3.47111
3.27833
2.99554
2.5989
4.48861
4.46908
4.45017
4.43514
4.42032
4.40443
4.3882
4.37236
4.35677
4.34102
4.32492
4.30865
4.29241
4.27632
4.26034
4.24437
4.22835
4.21224
4.19606
4.17986
4.16366
4.14748
4.13132
4.1152
4.0991
4.08301
4.06693
4.05087
4.03484
4.01885
4.00293
3.98709
3.97135
3.95574
3.94023
3.92477
3.90914
3.89292
3.87509
3.85363
3.82454
3.7802
3.70667
3.57965
3.36044
2.99765
2.43573
4.48945
4.46975
4.45033
4.4352
4.42044
4.40441
4.388
4.37213
4.35671
4.3411
4.32502
4.30864
4.29229
4.27615
4.26021
4.24434
4.22843
4.2124
4.19627
4.18009
4.16393
4.1478
4.13176
4.1158
4.09994
4.08418
4.06856
4.0531
4.03787
4.02296
4.0085
3.99463
3.98156
3.96953
3.95887
3.94991
3.943
3.93837
3.93587
3.93447
3.93109
3.91845
3.88016
3.78166
3.54809
3.04176
2.01489
4.49008
4.47029
4.4505
4.4353
4.42058
4.40443
4.38783
4.37193
4.35665
4.3412
4.32515
4.30867
4.29219
4.27599
4.26007
4.24429
4.22849
4.21256
4.19651
4.18037
4.16424
4.14818
4.13225
4.11648
4.10088
4.0855
4.07037
4.05559
4.04126
4.02756
4.01473
4.00306
3.99297
3.98499
3.97978
3.97822
3.98133
3.99029
4.00627
4.03011
4.06141
4.0968
4.12571
4.12041
4.00442
3.55961
2.04452
4.49053
4.47069
4.45063
4.4354
4.42074
4.40449
4.38771
4.37176
4.35658
4.34127
4.32527
4.30872
4.29213
4.27585
4.25994
4.24424
4.22854
4.21271
4.19673
4.18064
4.16455
4.14856
4.13273
4.11712
4.10178
4.08674
4.07209
4.05795
4.04448
4.03193
4.02065
4.01108
4.00384
3.99972
3.99977
4.00536
4.01826
4.04066
4.07527
4.12515
4.19349
4.28276
4.39297
4.51791
4.63377
4.66678
4.4195
4.49082
4.47096
4.45073
4.43548
4.42086
4.40454
4.38762
4.37163
4.35653
4.34133
4.32536
4.30877
4.29209
4.27575
4.25984
4.24419
4.22857
4.21282
4.1969
4.18086
4.1648
4.14886
4.13311
4.11763
4.10247
4.08771
4.07343
4.05979
4.04699
4.03535
4.02528
4.01736
4.01235
4.01126
4.01545
4.02672
4.04741
4.0806
4.13022
4.20122
4.29948
4.43156
4.60318
4.81607
5.058
5.28501
5.37655
4.49096
4.4711
4.45078
4.43552
4.42092
4.40457
4.38759
4.37156
4.3565
4.34135
4.32541
4.3088
4.29208
4.2757
4.25978
4.24416
4.22859
4.21288
4.19699
4.18098
4.16494
4.14902
4.13332
4.11791
4.10286
4.08824
4.07417
4.0608
4.04837
4.03722
4.02782
4.02081
4.01702
4.0176
4.02407
4.03846
4.06346
4.10261
4.16055
4.24318
4.35778
4.51265
4.71566
4.97015
5.26458
5.55292
5.71347
4.49096
4.4711
4.45078
4.43552
4.42092
4.40457
4.38759
4.37157
4.3565
4.34135
4.32541
4.3088
4.29208
4.2757
4.25979
4.24417
4.22859
4.21289
4.197
4.18098
4.16495
4.14903
4.13332
4.11791
4.10286
4.08825
4.07417
4.0608
4.04838
4.03723
4.02783
4.02082
4.01703
4.01761
4.02409
4.03848
4.06348
4.10264
4.16058
4.24321
4.35783
4.51271
4.7157
4.97031
5.26464
5.55294
5.71349
4.49081
4.47096
4.45073
4.43548
4.42085
4.40454
4.38764
4.37164
4.35652
4.34131
4.32535
4.30877
4.2921
4.27576
4.25985
4.2442
4.22858
4.21283
4.1969
4.18086
4.16481
4.14886
4.13311
4.11763
4.10248
4.08772
4.07345
4.0598
4.04701
4.03537
4.02531
4.01739
4.01238
4.01129
4.01549
4.02676
4.04745
4.08065
4.13028
4.20129
4.29958
4.43167
4.60333
4.81624
5.05806
5.28539
5.37662
4.49052
4.47068
4.45063
4.4354
4.42072
4.40448
4.38773
4.37177
4.35658
4.34126
4.32525
4.30872
4.29213
4.27586
4.25995
4.24425
4.22855
4.21272
4.19674
4.18065
4.16456
4.14857
4.13274
4.11713
4.10179
4.08676
4.07211
4.05797
4.04451
4.03197
4.02069
4.01113
4.00388
3.99976
3.99982
4.00542
4.01833
4.04074
4.07536
4.12526
4.19362
4.28293
4.39316
4.518
4.63388
4.66708
4.41966
4.49007
4.47028
4.4505
4.43529
4.42056
4.40443
4.38786
4.37195
4.35664
4.34117
4.32513
4.30867
4.2922
4.276
4.26009
4.24431
4.2285
4.21258
4.19652
4.18038
4.16425
4.1482
4.13226
4.11649
4.1009
4.08552
4.0704
4.05562
4.0413
4.02761
4.01478
4.00311
3.99303
3.98505
3.97985
3.9783
3.98142
3.99039
4.00639
4.03023
4.06156
4.09696
4.12583
4.12049
4.00422
3.55896
2.04455
4.48944
4.46974
4.45033
4.43519
4.42041
4.40441
4.38802
4.37216
4.3567
4.34108
4.32501
4.30864
4.29231
4.27617
4.26023
4.24436
4.22844
4.21241
4.19629
4.18011
4.16394
4.14782
4.13177
4.11582
4.09996
4.08421
4.06859
4.05314
4.03792
4.02302
4.00856
3.99469
3.98162
3.9696
3.95894
3.94999
3.94309
3.93847
3.93599
3.9346
3.93123
3.91855
3.88026
3.78152
3.54764
3.04121
2.01403
4.48859
4.46907
4.45017
4.43513
4.4203
4.40442
4.38822
4.37237
4.35677
4.341
4.32491
4.30865
4.29242
4.27634
4.26035
4.24439
4.22836
4.21226
4.19608
4.17988
4.16367
4.14749
4.13134
4.11522
4.09912
4.08304
4.06697
4.05092
4.03489
4.01891
4.00299
3.98715
3.97142
3.95581
3.94031
3.92486
3.90925
3.89304
3.87522
3.85378
3.8247
3.78039
3.70681
3.57981
3.36044
2.99724
2.43558
4.4875
4.46831
4.45006
4.43512
4.42022
4.40446
4.38843
4.37258
4.35683
4.34095
4.32486
4.30869
4.29254
4.27648
4.26044
4.2444
4.22829
4.21214
4.19594
4.17972
4.16349
4.14726
4.13103
4.11478
4.09849
4.08216
4.06575
4.04925
4.03262
4.01583
3.99882
3.98151
3.96378
3.94548
3.92635
3.90607
3.88405
3.85946
3.83086
3.79595
3.75088
3.68933
3.60123
3.47137
3.27866
2.99598
2.59882
4.48603
4.4676
4.45016
4.43522
4.42018
4.4045
4.38859
4.37273
4.35687
4.34091
4.32484
4.30873
4.29264
4.27656
4.26048
4.24438
4.22824
4.21206
4.19585
4.17963
4.16339
4.14714
4.13085
4.11452
4.09813
4.08165
4.06505
4.04829
4.03132
4.01406
3.99642
3.97825
3.95937
3.93949
3.91827
3.89515
3.86941
3.83996
3.80522
3.76285
3.70934
3.63946
3.5456
3.41704
3.23979
2.99715
2.67863
4.48337
4.46675
4.45038
4.43541
4.42022
4.40458
4.38875
4.37287
4.35694
4.34094
4.32488
4.3088
4.29272
4.27663
4.26052
4.24439
4.22823
4.21205
4.19585
4.17964
4.1634
4.14713
4.13083
4.11448
4.09805
4.08153
4.06488
4.04805
4.03099
4.01361
3.99579
3.97739
3.95818
3.93787
3.91604
3.8921
3.86524
3.83432
3.7977
3.75305
3.69704
3.625
3.53044
3.40482
3.23787
3.01908
2.7431
4.4784
4.46517
4.45037
4.43552
4.42028
4.40466
4.38885
4.37294
4.35698
4.34098
4.32493
4.30886
4.29277
4.27666
4.26053
4.24439
4.22824
4.21206
4.19588
4.17967
4.16343
4.14717
4.13088
4.11453
4.09811
4.08161
4.06499
4.0482
4.0312
4.0139
3.99619
3.97792
3.95889
3.93881
3.91728
3.89373
3.86737
3.83705
3.80117
3.75743
3.70255
3.63199
3.53961
3.41756
3.25671
3.04826
2.78762
2.47817
2.13887
1.80209
1.49336
1.22469
1.00122
2.41386
2.06106
1.72607
1.43018
1.1778
0.970916
2.28144
1.87761
1.53731
1.2608
1.0308
0.846694
2.04764
1.53754
1.1945
0.952988
0.756138
0.603847
1.59181
0.975251
0.699572
0.53416
0.388034
0.275959
0.545552
0.111827
0.149728
0.142573
0.0677134
-0.0251636
-0.926883
-0.656293
-0.175755
-0.06333
-0.0792468
-0.162606
-0.927149
-0.656307
-0.175671
-0.0632681
-0.0792191
-0.162557
0.54536
0.111965
0.149524
0.142535
0.0677516
-0.0250098
1.59172
0.974769
0.699123
0.533585
0.387955
0.275949
2.04747
1.53701
1.19375
0.952307
0.755763
0.603738
2.28103
1.87697
1.53648
1.26016
1.03021
0.846355
2.41349
2.0604
1.72536
1.42942
1.17717
0.970423
2.47777
2.13828
1.80141
1.49269
1.22411
1.00076
0.825063
0.694899
0.6057
0.549842
0.519183
0.506546
0.506047
0.512983
0.523762
0.535797
0.547317
0.557157
0.564599
0.569244
0.570928
0.569647
0.565512
0.558708
0.549467
0.538047
0.524711
0.509722
0.493331
0.475771
0.457252
0.437964
0.418072
0.39772
0.37703
0.356105
0.335032
0.31388
0.292708
0.271561
0.250478
0.229486
0.208608
0.187862
0.167259
0.146809
0.126518
0.106393
0.0864389
0.0666606
0.047067
0.0276041
0.00854561
0.811188
0.696504
0.620017
0.572589
0.54621
0.534858
0.533682
0.538671
0.54677
0.555835
0.56441
0.571516
0.576521
0.579059
0.578956
0.576185
0.570823
0.56302
0.552976
0.540916
0.527078
0.5117
0.49501
0.477223
0.458534
0.439119
0.419132
0.398708
0.377964
0.356996
0.335888
0.314708
0.293509
0.272339
0.251232
0.230218
0.209317
0.188547
0.16792
0.147447
0.127132
0.106984
0.0869994
0.0671858
0.0475986
0.0279546
0.00855302
0.713405
0.629268
0.582816
0.559425
0.550034
0.550208
0.556338
0.565113
0.574241
0.582436
0.588989
0.593485
0.595683
0.595467
0.592812
0.58776
0.580412
0.570914
0.559445
0.546204
0.531399
0.51524
0.497924
0.479641
0.460563
0.440843
0.42062
0.400013
0.379126
0.358048
0.336852
0.315602
0.294346
0.273128
0.251981
0.230929
0.209995
0.189194
0.168538
0.148035
0.127691
0.107511
0.0874929
0.0676316
0.0479989
0.0282792
0.00854642
0.508739
0.473703
0.477734
0.495593
0.517809
0.542599
0.567112
0.588232
0.604494
0.615802
0.62259
0.625413
0.624809
0.62125
0.615116
0.606711
0.596282
0.584047
0.570207
0.554953
0.538469
0.520928
0.502492
0.48331
0.463519
0.443238
0.422578
0.401632
0.380484
0.359205
0.337855
0.316486
0.295138
0.273848
0.252642
0.231543
0.210569
0.189732
0.169043
0.148509
0.128133
0.107919
0.0878632
0.0679563
0.0482562
0.028478
0.00854867
0.227776
0.2631
0.334753
0.402631
0.463867
0.521304
0.571509
0.610926
0.63895
0.656712
0.665834
0.667979
0.664691
0.657279
0.646765
0.6339
0.619221
0.603113
0.585858
0.567667
0.548709
0.52912
0.509014
0.488488
0.467627
0.446505
0.425188
0.403734
0.382196
0.360618
0.339041
0.317498
0.296019
0.274627
0.253343
0.232182
0.211157
0.190278
0.16955
0.148979
0.128568
0.108315
0.0882175
0.0682634
0.0485068
0.0286766
0.0087332
-0.0559417
0.0625035
0.203611
0.313825
0.410042
0.499297
0.575284
0.633743
0.674857
0.700609
0.713434
0.715904
0.710501
0.699396
0.684325
0.666585
0.647099
0.626498
0.605204
0.583488
0.561525
0.539424
0.517252
0.495051
0.472847
0.450661
0.428508
0.406403
0.38436
0.362395
0.34052
0.318749
0.297096
0.275571
0.254182
0.232939
0.211848
0.190913
0.170136
0.149521
0.129066
0.108769
0.0886261
0.0686232
0.0488225
0.0289225
0.00917316
-0.240516
-0.0507136
0.130334
0.260141
0.378213
0.489409
0.583783
0.656723
0.708589
0.741429
0.757944
0.761233
0.754432
0.740375
0.721396
0.69929
0.675359
0.650499
0.625296
0.60011
0.575145
0.550501
0.526212
0.502272
0.47866
0.455343
0.432291
0.409476
0.386876
0.364476
0.342263
0.32023
0.298373
0.276687
0.255174
0.23383
0.212657
0.191653
0.170817
0.150147
0.129641
0.109295
0.0891022
0.0690466
0.0492031
0.0292086
0.00983899
-0.309154
-0.0644676
0.111256
0.244483
0.372812
0.493763
0.597127
0.678317
0.736917
0.774432
0.793509
0.797467
0.789787
0.773691
0.751898
0.726549
0.699229
0.671049
0.642738
0.614745
0.58731
0.560541
0.534455
0.509019
0.484175
0.459855
0.435992
0.412527
0.38941
0.366598
0.34406
0.321769
0.299707
0.27786
0.256216
0.234766
0.213505
0.192427
0.171527
0.150799
0.13024
0.109842
0.0895997
0.0694892
0.0496094
0.0294946
0.0106116
-0.0815128
0.0258105
0.140897
0.26086
0.386412
0.507006
0.612229
0.696408
0.757839
0.797392
0.817553
0.821682
0.813375
0.796015
0.772501
0.745151
0.715712
0.685421
0.655103
0.625265
0.596183
0.567973
0.540649
0.514166
0.488447
0.463402
0.438946
0.414997
0.391487
0.368359
0.345565
0.323069
0.300842
0.278861
0.257108
0.235569
0.214233
0.193091
0.172135
0.151358
0.130753
0.110311
0.0900258
0.0698695
0.0499565
0.0297327
0.011301
0.0403034
0.0867402
0.168673
0.278055
0.399314
0.517858
0.622655
0.707255
0.769286
0.809281
0.829618
0.833633
0.824939
0.806954
0.782633
0.754358
0.723937
0.692661
0.661395
0.630677
0.600798
0.571883
0.543946
0.516938
0.490774
0.465357
0.44059
0.416386
0.392667
0.369367
0.346434
0.323824
0.301505
0.279448
0.257633
0.236042
0.214662
0.193483
0.172494
0.151688
0.131055
0.110588
0.0902777
0.0700933
0.0501618
0.0298712
0.0117096
0.0403209
0.0867316
0.168656
0.278052
0.399313
0.517856
0.622651
0.707248
0.769274
0.809267
0.829604
0.833622
0.824933
0.806953
0.782637
0.754366
0.723945
0.692668
0.661402
0.630682
0.600802
0.571887
0.543951
0.516944
0.490781
0.465365
0.4406
0.416396
0.392676
0.369376
0.346443
0.323834
0.301514
0.279457
0.257642
0.236052
0.214672
0.193493
0.172504
0.151697
0.131064
0.110596
0.0902853
0.0701002
0.0501683
0.0298746
0.0117132
-0.0814704
0.0258
0.140886
0.26085
0.386397
0.506999
0.612227
0.696398
0.757816
0.797359
0.817517
0.821651
0.813358
0.796013
0.772513
0.745173
0.715737
0.685445
0.655123
0.625282
0.596197
0.567987
0.540665
0.514185
0.488468
0.463427
0.438972
0.415024
0.391515
0.368386
0.345593
0.323097
0.30087
0.278889
0.257136
0.235597
0.214262
0.19312
0.172164
0.151386
0.13078
0.110336
0.0900486
0.0698893
0.0499727
0.0297463
0.0113098
-0.309077
-0.0644085
0.111298
0.244471
0.372793
0.493764
0.59714
0.678327
0.736913
0.774411
0.793476
0.797435
0.789768
0.773693
0.75192
0.726585
0.699271
0.67109
0.642774
0.614775
0.587336
0.560566
0.534481
0.509048
0.484208
0.459891
0.436031
0.412569
0.389452
0.366641
0.344102
0.321812
0.29975
0.277903
0.256259
0.234811
0.21355
0.192473
0.171572
0.150844
0.130282
0.109882
0.0896352
0.0695204
0.0496351
0.0295142
0.010623
-0.240451
-0.0506049
0.130398
0.260147
0.378199
0.489402
0.583797
0.656755
0.708621
0.741444
0.75794
0.76122
0.754426
0.740386
0.721427
0.699337
0.675413
0.650553
0.625344
0.600152
0.575183
0.550536
0.526247
0.502311
0.478702
0.455389
0.43234
0.409527
0.386929
0.36453
0.342317
0.320285
0.298428
0.276744
0.255231
0.233889
0.212716
0.191712
0.170875
0.150204
0.129696
0.109346
0.089148
0.0690866
0.0492357
0.0292329
0.00984906
-0.0558454
0.0625451
0.203665
0.313874
0.410065
0.499306
0.575312
0.633793
0.674917
0.700656
0.713463
0.715918
0.710516
0.699421
0.684366
0.666638
0.647159
0.626558
0.60526
0.583538
0.561572
0.539468
0.517298
0.495098
0.472899
0.450715
0.428566
0.406462
0.384422
0.362457
0.340584
0.318814
0.297162
0.275637
0.254251
0.233008
0.211918
0.190982
0.170206
0.149587
0.12913
0.108828
0.0886799
0.0686688
0.0488585
0.0289502
0.00917937
0.227842
0.263087
0.334751
0.402681
0.463926
0.521351
0.571554
0.610978
0.639003
0.656758
0.665867
0.668004
0.664716
0.657312
0.646808
0.633952
0.619279
0.603173
0.585915
0.567722
0.548762
0.529173
0.509068
0.488545
0.467687
0.446568
0.425253
0.403802
0.382265
0.360689
0.339112
0.317571
0.296093
0.274703
0.253419
0.232259
0.211234
0.190354
0.169625
0.149052
0.128636
0.108379
0.0882745
0.0683124
0.0485454
0.0287027
0.00873518
0.508674
0.473623
0.4777
0.495629
0.517868
0.542657
0.567155
0.588268
0.604523
0.615831
0.622614
0.625439
0.624836
0.621285
0.615157
0.606761
0.596335
0.584105
0.570265
0.555013
0.538528
0.52099
0.502555
0.483378
0.463587
0.443311
0.422651
0.401709
0.38056
0.359284
0.337934
0.316567
0.295219
0.273931
0.252724
0.231627
0.21065
0.189814
0.169121
0.148586
0.128204
0.107986
0.0879214
0.0680067
0.0482932
0.0285035
0.00854746
0.713165
0.629113
0.582742
0.559411
0.550057
0.550233
0.556355
0.565119
0.574251
0.58245
0.589013
0.593513
0.595719
0.595507
0.592861
0.587812
0.580472
0.570976
0.559512
0.546271
0.531471
0.515312
0.498
0.479718
0.460643
0.440924
0.420704
0.400096
0.379212
0.358133
0.33694
0.315688
0.294435
0.273215
0.252069
0.231016
0.210082
0.189277
0.168619
0.148111
0.127764
0.107576
0.0875519
0.0676796
0.0480361
0.0283009
0.00854389
0.810864
0.696313
0.619919
0.572557
0.546211
0.534865
0.533685
0.538674
0.546779
0.555854
0.564438
0.571551
0.576562
0.579106
0.579009
0.576244
0.570887
0.563089
0.553049
0.540992
0.527157
0.511782
0.495094
0.477309
0.458621
0.439207
0.419221
0.398799
0.378055
0.357088
0.33598
0.314799
0.293601
0.27243
0.251322
0.230306
0.209403
0.18863
0.168
0.147522
0.127202
0.107047
0.0870539
0.0672312
0.0476323
0.0279719
0.00854971
0.824736
0.694685
0.605573
0.549779
0.519161
0.506548
0.506063
0.513009
0.523796
0.535838
0.547363
0.557208
0.564654
0.569304
0.570992
0.569716
0.565586
0.558787
0.54955
0.538132
0.524799
0.509813
0.493424
0.475865
0.457347
0.43806
0.418169
0.397818
0.377128
0.356203
0.33513
0.313978
0.292805
0.271658
0.250573
0.229579
0.208699
0.187949
0.167342
0.146887
0.126591
0.106459
0.0864952
0.0667081
0.0471
0.0276223
0.00854732
)
;

boundaryField
{
    inlet
    {
        type            zeroGradient;
    }
    outlet
    {
        type            fixedValue;
        value           uniform 0;
    }
    upperWall
    {
        type            zeroGradient;
    }
    lowerWall
    {
        type            zeroGradient;
    }
    frontAndBack
    {
        type            empty;
    }
}


// ************************************************************************* //
