/*--------------------------------*- C++ -*----------------------------------*\
| =========                 |                                                 |
| \\      /  F ield         | OpenFOAM: The Open Source CFD Toolbox           |
|  \\    /   O peration     | Version:  2406                                  |
|   \\  /    A nd           | Website:  www.openfoam.com                      |
|    \\/     M anipulation  |                                                 |
\*---------------------------------------------------------------------------*/
FoamFile
{
    version     2.0;
    format      ascii;
    arch        "LSB;label=32;scalar=64";
    class       surfaceScalarField;
    location    "33";
    object      phi;
}
// * * * * * * * * * * * * * * * * * * * * * * * * * * * * * * * * * * * * * //

dimensions      [0 3 -1 0 0 0 0];

oriented        oriented;

internalField   nonuniform List<scalar> 
3796
(
0.0196979
-0.000197955
0.0198786
-0.000180311
0.019985
-0.000106126
0.0200532
-6.81002e-05
0.0201024
-4.93497e-05
0.020138
-3.55134e-05
0.0201626
-2.44651e-05
0.0201805
-1.76158e-05
0.0201945
-1.39864e-05
0.0202065
-1.20313e-05
0.0202164
-1.01036e-05
0.0202246
-8.23872e-06
0.0202311
-6.51653e-06
0.0202369
-5.58277e-06
0.0202423
-5.10873e-06
0.0202478
-5.30724e-06
0.0202536
-5.60418e-06
0.0202599
-6.23809e-06
0.0202667
-6.90435e-06
0.0202747
-7.98833e-06
0.020284
-9.42401e-06
0.0202957
-1.16768e-05
0.0203106
-1.47932e-05
0.02033
-1.93493e-05
0.0203557
-2.55479e-05
0.0203901
-3.42265e-05
0.0204362
-4.59498e-05
0.0204985
-6.20832e-05
0.0205825
-8.39298e-05
0.0206965
-0.000113861
0.0208512
-0.000154567
0.0210616
-0.000210314
0.0213482
-0.000286383
0.0217389
-0.00039058
0.0222721
-0.000532931
0.0229999
-0.000727543
0.0239927
-0.000992447
0.0253447
-0.00135143
0.0271782
-0.00183288
0.0296484
-0.00246931
0.03294
-0.00329071
0.0372559
-0.00431426
0.0427807
-0.00552331
0.0496177
-0.0068357
0.0576837
-0.00806233
0.0665543
-0.00886502
-0.00883495
0.0753913
0.0554393
-0.000136893
0.0554746
-0.000215488
0.0555449
-0.000176045
0.0556115
-0.000134309
0.0556705
-0.00010822
0.0557215
-8.65568e-05
0.055764
-6.67761e-05
0.0557986
-5.18741e-05
0.0558274
-4.22871e-05
0.0558517
-3.6234e-05
0.0558728
-3.11719e-05
0.0558907
-2.63907e-05
0.0559063
-2.20214e-05
0.0559199
-1.89659e-05
0.0559325
-1.72358e-05
0.0559447
-1.7007e-05
0.0559573
-1.76651e-05
0.0559706
-1.92237e-05
0.0559853
-2.14019e-05
0.0560019
-2.46119e-05
0.0560216
-2.91058e-05
0.0560456
-3.56885e-05
0.056076
-4.50019e-05
0.0561151
-5.82629e-05
0.0561665
-7.66238e-05
0.0562347
-0.000102055
0.0563259
-0.000136763
0.0564484
-0.000184226
0.0566137
-0.000248744
0.0568368
-0.000336662
0.0571388
-0.000456185
0.0575477
-0.000618938
0.0581019
-0.000840245
0.058853
-0.00114123
0.0598703
-0.00154977
0.0612465
-0.00210314
0.0631042
-0.00284933
0.0656031
-0.00384918
0.068947
-0.00517539
0.0733882
-0.00690895
0.0792263
-0.0091265
0.0867915
-0.011877
0.0964075
-0.0151368
0.108318
-0.0187437
0.122553
-0.0222936
0.138706
-0.0250178
-0.0259036
0.155774
0.0874448
-8.18344e-05
0.0873998
-0.000169912
0.0873964
-0.000172238
0.0874141
-0.000151944
0.0874413
-0.000135478
0.087473
-0.000118125
0.0875052
-9.86337e-05
0.0875353
-8.14208e-05
0.0875629
-6.93086e-05
0.087588
-6.10178e-05
0.0876109
-5.39051e-05
0.0876312
-4.67529e-05
0.0876491
-4.00265e-05
0.087665
-3.47483e-05
0.0876797
-3.17133e-05
0.0876941
-3.08278e-05
0.0877089
-3.18431e-05
0.0877246
-3.43073e-05
0.0877418
-3.81596e-05
0.0877611
-4.36687e-05
0.0877837
-5.15084e-05
0.0878107
-6.27117e-05
0.0878444
-7.86759e-05
0.0878873
-0.000101158
0.0879434
-0.000132517
0.0880174
-0.000175755
0.0881161
-0.000235039
0.0882482
-0.000315889
0.0884258
-0.00042596
0.0886652
-0.000575559
0.0889882
-0.000778807
0.0894244
-0.00105474
0.0900136
-0.00142914
0.0908092
-0.0019365
0.0918827
-0.00262288
0.0933288
-0.00354876
0.0952726
-0.00479259
0.0978774
-0.00645328
0.101354
-0.00865103
0.105969
-0.0115232
0.112053
-0.0152104
0.120003
-0.0198262
0.130262
-0.0254001
0.143293
-0.0317814
0.159455
-0.038461
0.178801
-0.0443691
-0.0477339
0.200602
0.115468
-4.98194e-05
0.115417
-0.000119472
0.115384
-0.000139184
0.115369
-0.000135668
0.115364
-0.000130528
0.115368
-0.000122169
0.115378
-0.000108826
0.115391
-9.46306e-05
0.115406
-8.37081e-05
0.115422
-7.59265e-05
0.115438
-6.91022e-05
0.115454
-6.16547e-05
0.115468
-5.40937e-05
0.11548
-4.76963e-05
0.115492
-4.37104e-05
0.115504
-4.24041e-05
0.115516
-4.36575e-05
0.115529
-4.69759e-05
0.115544
-5.22963e-05
0.115561
-5.98193e-05
0.11558
-7.04454e-05
0.115603
-8.54185e-05
0.115631
-0.000106652
0.115666
-0.000136467
0.115712
-0.000178051
0.115772
-0.000235426
0.115851
-0.000314137
0.115957
-0.000421509
0.116099
-0.000567656
0.11629
-0.000766157
0.116548
-0.0010356
0.116894
-0.00140097
0.117362
-0.00189609
0.117992
-0.0025662
0.118841
-0.00347177
0.119985
-0.0046926
0.121526
-0.00633321
0.123601
-0.00852788
0.126396
-0.0114455
0.130162
-0.0152905
0.135248
-0.0202967
0.142122
-0.0267041
0.151413
-0.0347004
0.163936
-0.0443132
0.18063
-0.0551687
0.202566
-0.0663381
-0.0749657
0.229816
0.139482
-3.17352e-05
0.139444
-8.1763e-05
0.13941
-0.000104214
0.139383
-0.000108838
0.139363
-0.000110328
0.139349
-0.000108389
0.139341
-0.000100832
0.139337
-9.11877e-05
0.139337
-8.33741e-05
0.13934
-7.80328e-05
0.139346
-7.30502e-05
0.139352
-6.6964e-05
0.139358
-5.99564e-05
0.139363
-5.37535e-05
0.139368
-4.96144e-05
0.139374
-4.8426e-05
0.13938
-4.99669e-05
0.139388
-5.40305e-05
0.139397
-6.03216e-05
0.139407
-6.92149e-05
0.139419
-8.14798e-05
0.139433
-9.86837e-05
0.139449
-0.00012279
0.139469
-0.000156656
0.139494
-0.000203718
0.139528
-0.000268779
0.139572
-0.000357936
0.13963
-0.000479699
0.139708
-0.000645307
0.139812
-0.000870298
0.139953
-0.00117547
0.140142
-0.00158924
0.140396
-0.00214969
0.140738
-0.00290839
0.141201
-0.00393422
0.141828
-0.00531949
0.142682
-0.00718678
0.143853
-0.00969843
0.145475
-0.0130674
0.147755
-0.0175707
0.15102
-0.0235633
0.155799
-0.0314876
0.162955
-0.0418609
0.173841
-0.0552112
0.190419
-0.0717635
0.215183
-0.0910703
-0.107586
0.247814
0.159489
-2.06374e-05
0.159463
-5.59618e-05
0.159434
-7.5379e-05
0.159408
-8.20492e-05
0.159385
-8.5987e-05
0.159363
-8.72207e-05
0.159345
-8.37605e-05
0.15933
-7.7774e-05
0.15932
-7.27567e-05
0.159313
-6.96175e-05
0.159309
-6.67176e-05
0.159306
-6.25461e-05
0.159303
-5.71961e-05
0.1593
-5.20118e-05
0.159298
-4.85406e-05
0.159296
-4.76412e-05
0.159295
-4.94712e-05
0.159295
-5.38077e-05
0.159297
-6.0467e-05
0.159299
-6.97065e-05
0.159301
-8.2309e-05
0.159302
-9.97098e-05
0.159304
-0.000123961
0.159305
-0.000157808
0.159305
-0.000204843
0.159306
-0.000269756
0.159307
-0.000358796
0.159307
-0.000480337
0.159308
-0.000645723
0.159308
-0.000870333
0.159308
-0.00117505
0.159308
-0.00158816
0.159307
-0.00214799
0.159305
-0.00290639
0.159305
-0.00393345
0.15931
-0.00532399
0.15933
-0.0072065
0.159387
-0.00975555
0.15953
-0.0132098
0.159857
-0.0178986
0.160576
-0.0242828
0.162107
-0.0330202
0.165314
-0.0450726
0.171961
-0.0618664
0.185568
-0.0853469
0.210789
-0.116285
-0.138948
0.242203
0.175493
-1.35361e-05
0.175474
-3.72677e-05
0.175451
-5.19868e-05
0.175428
-5.82766e-05
0.175405
-6.25099e-05
0.175382
-6.47106e-05
0.17536
-6.3249e-05
0.17534
-5.96126e-05
0.175324
-5.66246e-05
0.175311
-5.50768e-05
0.175301
-5.37658e-05
0.175292
-5.1275e-05
0.175283
-4.75887e-05
0.175273
-4.37628e-05
0.175264
-4.11884e-05
0.175255
-4.07119e-05
0.175247
-4.26034e-05
0.17524
-4.6689e-05
0.175234
-5.28674e-05
0.175227
-6.12793e-05
0.175219
-7.26369e-05
0.175209
-8.81246e-05
0.175195
-0.000109581
0.175177
-0.000139393
0.175152
-0.000180758
0.175119
-0.000237793
0.175076
-0.000316021
0.175018
-0.000422784
0.174941
-0.000568073
0.174836
-0.000765377
0.174694
-0.00103309
0.174503
-0.00139612
0.174244
-0.0018884
0.173894
-0.00255596
0.173423
-0.00346157
0.17279
-0.00469099
0.171946
-0.00636207
0.170829
-0.0086381
0.169366
-0.011748
0.167485
-0.016018
0.165125
-0.0219242
0.162284
-0.0301827
0.159127
-0.0419226
0.15629
-0.0590257
0.155778
-0.0848468
0.162786
-0.123261
-0.159566
0.183427
0.187495
-8.18674e-06
0.18748
-2.29371e-05
0.187461
-3.27318e-05
0.187441
-3.72793e-05
0.18742
-4.04682e-05
0.187397
-4.24411e-05
0.187374
-4.20085e-05
0.187352
-4.00269e-05
0.187334
-3.835e-05
0.187318
-3.76218e-05
0.187304
-3.70587e-05
0.187292
-3.57235e-05
0.187278
-3.34999e-05
0.187265
-3.11162e-05
0.187251
-2.95352e-05
0.187237
-2.94122e-05
0.187224
-3.09795e-05
0.187211
-3.41642e-05
0.187198
-3.88932e-05
0.187184
-4.53021e-05
0.187167
-5.38774e-05
0.187146
-6.552e-05
0.187119
-8.15518e-05
0.187084
-0.000103768
0.187037
-0.000134517
0.186975
-0.000176879
0.186893
-0.000234936
0.186784
-0.000314157
0.186638
-0.000421938
0.186441
-0.000568312
0.186175
-0.000766927
0.185816
-0.00103635
0.18533
-0.00140187
0.184673
-0.00189799
0.183784
-0.00257198
0.182582
-0.00348886
0.180959
-0.00473876
0.178768
-0.00644774
0.175814
-0.00879428
0.171829
-0.0120343
0.166442
-0.0165404
0.159115
-0.0228613
0.148999
-0.0318135
0.134565
-0.0446059
0.112559
-0.0628429
0.0750509
-0.0857607
-0.0845179
0.195496
-3.92589e-06
0.195483
-1.09353e-05
0.195467
-1.57138e-05
0.195449
-1.8035e-05
0.195429
-1.97662e-05
0.195406
-2.09374e-05
0.195383
-2.0876e-05
0.195361
-1.99868e-05
0.195341
-1.91914e-05
0.195325
-1.88608e-05
0.19531
-1.86383e-05
0.195295
-1.80566e-05
0.19528
-1.70533e-05
0.195263
-1.59774e-05
0.195247
-1.5305e-05
0.19523
-1.5378e-05
0.195213
-1.63012e-05
0.195196
-1.80603e-05
0.195179
-2.06189e-05
0.19516
-2.40705e-05
0.195137
-2.86856e-05
0.195108
-3.4946e-05
0.195072
-4.35596e-05
0.195024
-5.54738e-05
0.19496
-7.19333e-05
0.194877
-9.45721e-05
0.194767
-0.000125554
0.19462
-0.000167793
0.194423
-0.000225217
0.194158
-0.000303175
0.1938
-0.000408933
0.193316
-0.000552396
0.192662
-0.000747069
0.191776
-0.00101143
0.190576
-0.00137085
0.188948
-0.00186036
0.186738
-0.00252871
0.183734
-0.00344434
0.179643
-0.00470426
0.174054
-0.00644723
0.166382
-0.00887279
0.155782
-0.0122671
0.140993
-0.0170328
0.120074
-0.0236977
0.0899178
-0.0327062
0.0464438
-0.0423047
-0.0380773
0.199496
1.51594e-08
0.199485
1.18286e-07
0.19947
1.35897e-07
0.199452
1.5044e-07
0.199433
2.47761e-07
0.199411
3.21135e-07
0.199387
2.65203e-07
0.199365
1.43738e-07
0.199345
1.08151e-07
0.199328
2.26342e-07
0.199313
4.17942e-07
0.199297
5.36306e-07
0.199281
5.05281e-07
0.199264
3.26894e-07
0.199246
8.66839e-08
0.199227
-1.20711e-07
0.199209
-2.38441e-07
0.199191
-2.55341e-07
0.199171
-2.10092e-07
0.199149
-1.56532e-07
0.199123
-1.40401e-07
0.199091
-1.93938e-07
0.199049
-3.16268e-07
0.198994
-4.99158e-07
0.198922
-7.17208e-07
0.198828
-9.5327e-07
0.198702
-1.19244e-06
0.198535
-1.4301e-06
0.198311
-1.66883e-06
0.19801
-1.91619e-06
0.197603
-2.18113e-06
0.197054
-2.4738e-06
0.19631
-2.80012e-06
0.195303
-3.16837e-06
0.193936
-3.58053e-06
0.19208
-4.04753e-06
0.189556
-4.57607e-06
0.186116
-5.19397e-06
0.181417
-5.8892e-06
0.174974
-6.67255e-06
0.166105
-7.58049e-06
0.15384
-8.34454e-06
0.136808
-9.32132e-06
0.113108
-1.03586e-05
0.0803947
-9.75893e-06
0.0380772
1.40215e-06
-6.03805e-06
0.199496
4.02525e-06
0.199485
1.09194e-05
0.19947
1.5949e-05
0.199452
1.85067e-05
0.199433
2.03609e-05
0.199411
2.14923e-05
0.199387
2.12507e-05
0.199365
2.02177e-05
0.199345
1.95035e-05
0.199328
1.94593e-05
0.199313
1.95459e-05
0.199297
1.90945e-05
0.199281
1.79464e-05
0.199263
1.65184e-05
0.199245
1.54266e-05
0.199227
1.51569e-05
0.199209
1.5905e-05
0.199191
1.76428e-05
0.199171
2.02754e-05
0.199149
2.37989e-05
0.199123
2.8405e-05
0.19909
3.45371e-05
0.199048
4.28938e-05
0.198994
5.44538e-05
0.198922
7.04942e-05
0.198827
9.26851e-05
0.198702
0.000123212
0.198535
0.000164994
0.198311
0.000221956
0.198009
0.00029943
0.197603
0.000404665
0.197053
0.000547553
0.196309
0.000741583
0.195302
0.00100523
0.193935
0.00136384
0.192079
0.00185245
0.189555
0.00251978
0.186115
0.00343424
0.181415
0.00469284
0.174972
0.00643429
0.166103
0.00885838
0.153838
0.0122508
0.136805
0.0170149
0.113108
0.0236794
0.0804035
0.0326964
0.0380742
0.0422862
0.0380667
0.195496
8.22614e-06
0.195483
2.31408e-05
0.195467
3.29925e-05
0.195449
3.75987e-05
0.195429
4.09435e-05
0.195406
4.30269e-05
0.195383
4.25095e-05
0.195361
4.03708e-05
0.195342
3.86838e-05
0.195325
3.81638e-05
0.19531
3.78694e-05
0.195295
3.66525e-05
0.195279
3.43077e-05
0.195263
3.1612e-05
0.195246
2.96651e-05
0.195229
2.92628e-05
0.195213
3.06917e-05
0.195197
3.38735e-05
0.195179
3.86574e-05
0.19516
4.50996e-05
0.195137
5.36237e-05
0.195108
6.51016e-05
0.195071
8.08651e-05
0.195023
0.000102735
0.19496
0.000133095
0.194876
0.000175051
0.194766
0.000232699
0.194619
0.000311509
0.194422
0.000418868
0.194156
0.000564794
0.193798
0.00076292
0.193315
0.0010318
0.19266
0.00139671
0.191774
0.00189215
0.190573
0.0025654
0.188944
0.00348144
0.186734
0.00473042
0.18373
0.00643837
0.179638
0.00878377
0.174049
0.0120226
0.166377
0.0165273
0.155776
0.0228468
0.140988
0.0317982
0.120081
0.0445931
0.0899139
0.0628252
0.0464499
0.0857576
0.0845113
0.187495
1.3621e-05
0.18748
3.73127e-05
0.187461
5.22626e-05
0.187441
5.87038e-05
0.18742
6.29822e-05
0.187396
6.51596e-05
0.187373
6.3625e-05
0.187352
6.00009e-05
0.187334
5.712e-05
0.187319
5.5737e-05
0.187305
5.45079e-05
0.187291
5.19859e-05
0.187278
4.81261e-05
0.187264
4.40908e-05
0.18725
4.1315e-05
0.187237
4.07247e-05
0.187224
4.25644e-05
0.187211
4.66539e-05
0.187198
5.28113e-05
0.187184
6.1165e-05
0.187167
7.23732e-05
0.187146
8.76526e-05
0.187118
0.000108829
0.187083
0.000138339
0.187036
0.000179374
0.186974
0.000236088
0.186892
0.000313978
0.186782
0.000420404
0.186636
0.000565319
0.186439
0.000762227
0.186172
0.00102948
0.185813
0.00139202
0.185326
0.00188373
0.184669
0.00255068
0.183779
0.00345561
0.182577
0.00468431
0.180953
0.00635459
0.178762
0.00862979
0.175806
0.0117388
0.171821
0.016008
0.166433
0.0219131
0.159107
0.0301712
0.148996
0.0419103
0.134565
0.059015
0.112568
0.0848387
0.0750532
0.12326
0.159572
0.175493
2.0703e-05
0.175474
5.61356e-05
0.175451
7.56193e-05
0.175428
8.2333e-05
0.175405
8.63318e-05
0.175381
8.76629e-05
0.175359
8.42494e-05
0.17534
7.82934e-05
0.175325
7.33324e-05
0.175312
7.0215e-05
0.175301
6.72874e-05
0.175291
6.30187e-05
0.175282
5.75367e-05
0.175272
5.22607e-05
0.175263
4.87464e-05
0.175255
4.78513e-05
0.175247
4.96985e-05
0.175241
5.40039e-05
0.175234
6.05794e-05
0.175227
6.96513e-05
0.175219
8.20386e-05
0.175208
9.91868e-05
0.175194
0.00012318
0.175175
0.000156776
0.17515
0.00020357
0.175118
0.000268247
0.175074
0.000357042
0.175016
0.000478314
0.174938
0.000643396
0.174833
0.000867654
0.174691
0.00117197
0.174499
0.00158463
0.174239
0.00214396
0.173889
0.00290181
0.173417
0.00392829
0.172783
0.00531821
0.171938
0.00720007
0.17082
0.00974847
0.169357
0.0132021
0.167475
0.0178902
0.165115
0.0242739
0.162275
0.0330107
0.159125
0.0450634
0.156293
0.0618546
0.155795
0.0853428
0.162795
0.116277
0.13895
0.183427
0.159489
3.17833e-05
0.159463
8.1821e-05
0.159435
0.00010438
0.159408
0.000109027
0.159384
0.000110604
0.159362
0.000108745
0.159344
0.000101436
0.15933
9.19065e-05
0.15932
8.41118e-05
0.159313
7.85801e-05
0.159309
7.34065e-05
0.159305
6.71316e-05
0.159302
6.01483e-05
0.159299
5.39767e-05
0.159297
5.00153e-05
0.159295
4.88823e-05
0.159295
5.04684e-05
0.159295
5.441e-05
0.159297
6.05389e-05
0.159298
6.91656e-05
0.1593
8.11989e-05
0.159301
9.81357e-05
0.159302
0.000122068
0.159303
0.000155733
0.159303
0.000202677
0.159304
0.000267558
0.159304
0.000356576
0.159304
0.000478105
0.159304
0.00064349
0.159304
0.000868153
0.159304
0.001173
0.159303
0.00158635
0.159301
0.00214641
0.159298
0.00290461
0.159297
0.00392995
0.159301
0.00531467
0.15932
0.00718144
0.159377
0.00969251
0.159519
0.0130609
0.159846
0.0175637
0.160564
0.0235554
0.162097
0.0314787
0.16531
0.0418508
0.171974
0.0551978
0.185581
0.0717404
0.21081
0.091051
0.107559
0.242208
0.139482
4.98404e-05
0.139444
0.000119441
0.13941
0.000139209
0.139383
0.000135808
0.139363
0.0001307
0.139348
0.000122545
0.13934
0.000109433
0.139337
9.54599e-05
0.139338
8.44258e-05
0.139341
7.64238e-05
0.139345
6.92515e-05
0.139351
6.16947e-05
0.139356
5.41479e-05
0.139361
4.79998e-05
0.139367
4.42057e-05
0.139373
4.30868e-05
0.13938
4.42887e-05
0.139388
4.74893e-05
0.139397
5.25116e-05
0.139407
5.97852e-05
0.139418
7.01181e-05
0.139431
8.49318e-05
0.139447
0.000106007
0.139467
0.000135776
0.139492
0.000177271
0.139525
0.000234606
0.139568
0.000313185
0.139626
0.000420436
0.139704
0.000566352
0.139808
0.000764634
0.139948
0.00103376
0.140136
0.00139883
0.140389
0.00189357
0.140731
0.00256333
0.141193
0.00346846
0.141819
0.0046889
0.142672
0.00632905
0.143841
0.00852331
0.145462
0.0114404
0.147741
0.015285
0.151006
0.0202905
0.155788
0.0266967
0.162947
0.0346901
0.173843
0.0443003
0.190435
0.0551461
0.215195
0.0662994
0.0749311
0.247825
0.115468
8.18435e-05
0.115417
0.000170035
0.115385
0.00017232
0.115369
0.000151921
0.115364
0.000135452
0.115367
0.000118365
0.115378
9.92714e-05
0.115391
8.22361e-05
0.115407
6.99339e-05
0.115422
6.11996e-05
0.115438
5.38331e-05
0.115452
4.66307e-05
0.115466
4.01177e-05
0.115479
3.51365e-05
0.115491
3.23175e-05
0.115503
3.15145e-05
0.115516
3.24429e-05
0.115529
3.46824e-05
0.115544
3.82953e-05
0.115561
4.35405e-05
0.115579
5.12242e-05
0.115602
6.23092e-05
0.115629
7.82472e-05
0.115664
0.000100719
0.115709
0.00013208
0.115769
0.000175291
0.115848
0.000234515
0.115953
0.000315254
0.116095
0.000425182
0.116285
0.000574591
0.116542
0.000777636
0.116888
0.00105333
0.117354
0.00142749
0.117984
0.00193459
0.118832
0.0026207
0.119975
0.0035463
0.121515
0.00478989
0.123589
0.00645034
0.126382
0.00864798
0.130148
0.01152
0.135232
0.0152073
0.142106
0.0198234
0.151401
0.0253966
0.163927
0.031775
0.180627
0.0384528
0.20258
0.044356
0.0477035
0.229828
0.0874448
0.000136979
0.0873998
0.000215469
0.0873963
0.000176222
0.0874138
0.000134435
0.0874405
0.000108201
0.087472
8.65315e-05
0.0875045
6.7155e-05
0.0875351
5.24058e-05
0.0875629
4.27226e-05
0.0875878
3.62536e-05
0.08761
3.09742e-05
0.0876298
2.61618e-05
0.0876475
2.21077e-05
0.0876637
1.92937e-05
0.0876789
1.78446e-05
0.0876937
1.75625e-05
0.0877088
1.81347e-05
0.0877245
1.93974e-05
0.0877414
2.13845e-05
0.0877603
2.43832e-05
0.0877824
2.88407e-05
0.087809
3.53884e-05
0.0878423
4.4797e-05
0.087885
5.80765e-05
0.0879408
7.65235e-05
0.0880145
0.00010191
0.0881128
0.000136623
0.0882445
0.000183964
0.0884217
0.000248424
0.0886604
0.00033618
0.0889828
0.000455625
0.0894182
0.00061821
0.0900066
0.000839439
0.0908014
0.00114026
0.091874
0.00154873
0.0933192
0.00210196
0.095262
0.00284813
0.0978657
0.00384797
0.101341
0.00517439
0.105955
0.00690825
0.112039
0.00912656
0.119988
0.0118781
0.130251
0.0151397
0.143287
0.0187478
0.159455
0.0222979
0.178807
0.0250205
0.0259047
0.200625
0.0554392
0.000197919
0.0554746
0.000180453
0.0555448
0.000106319
0.055611
6.80709e-05
0.0556697
4.9193e-05
0.0557207
3.54606e-05
0.0557634
2.47781e-05
0.0557984
1.78889e-05
0.0558271
1.41018e-05
0.0558512
1.18367e-05
0.0558717
9.88028e-06
0.0558894
8.06181e-06
0.0559049
6.60566e-06
0.0559189
5.77384e-06
0.0559319
5.47428e-06
0.0559446
5.56755e-06
0.0559573
5.83056e-06
0.0559705
6.2522e-06
0.0559848
6.84434e-06
0.0560011
7.79918e-06
0.0560204
9.2615e-06
0.0560441
1.14969e-05
0.0560742
1.47166e-05
0.0561131
1.9282e-05
0.0561643
2.55734e-05
0.0562323
3.42167e-05
0.0563233
4.59814e-05
0.0564455
6.20344e-05
0.0566103
8.3889e-05
0.056833
0.000113725
0.0571344
0.000154439
0.0575428
0.0002101
0.0580964
0.000286197
0.0588469
0.000390322
0.0598635
0.000532726
0.0612391
0.000727289
0.0630961
0.000992295
0.0655944
0.0013513
0.0689378
0.00183303
0.0733791
0.00246973
0.0792176
0.00329176
0.0867844
0.00431637
0.0964047
0.00552688
0.108322
0.00684036
0.122563
0.0080687
0.138724
0.00887281
0.00883902
0.155798
0.019698
0.0198785
0.0199848
0.0200528
0.020102
0.0201375
0.0201623
0.0201802
0.0201943
0.0202061
0.0202159
0.0202239
0.0202306
0.0202364
0.020242
0.0202476
0.0202535
0.0202597
0.0202665
0.0202743
0.0202835
0.020295
0.0203097
0.020329
0.0203546
0.0203889
0.0204349
0.020497
0.0205809
0.0206947
0.0208491
0.0210593
0.0213456
0.021736
0.0222688
0.0229963
0.0239888
0.0253403
0.0271737
0.029644
0.0329364
0.0372538
0.0427821
0.0496246
0.0576953
0.0665692
0.0754085
0.08276
-0.00737051
0.0873432
-0.00458425
0.0887653
-0.00142354
0.0874089
0.00135509
0.0838575
0.00355164
0.00517223
0.078687
0.17146
-0.0230667
0.183555
-0.016686
0.191207
-0.0090745
0.194415
-0.00184806
0.193435
0.00453548
0.00989641
0.188716
0.220825
-0.0432898
0.236331
-0.0321831
0.246764
-0.0194955
0.252591
-0.00766305
0.254239
0.00289559
0.0120515
0.252085
0.252974
-0.0664401
0.267535
-0.0467268
0.275457
-0.0273972
0.278838
-0.0110297
0.279023
0.00271323
0.0143631
0.276712
0.267422
-0.0860129
0.271691
-0.0509647
0.269564
-0.02526
0.2658
-0.00726352
0.262382
0.00613244
0.0175144
0.259225
0.235563
-0.0793334
0.215224
-0.0306156
0.199138
-0.00917634
0.190653
0.00122129
0.18932
0.00746203
0.0154489
0.191385
0.104098
0.0734815
0.0643045
0.0655253
0.0729874
0.0884355
0.104085
0.0793365
0.0734723
0.0306122
0.0642964
0.0091784
0.0655158
-0.00121771
0.0729752
-0.00745569
-0.0154422
0.0884181
0.235549
0.0859926
0.215204
0.0509593
0.199119
0.0252642
0.190631
0.00727178
0.189297
-0.00612059
-0.017505
0.191358
0.267424
0.0664066
0.271682
0.0467069
0.269552
0.0273955
0.265784
0.0110374
0.262361
-0.00270616
-0.0143562
0.259202
0.252989
0.0432633
0.267543
0.0321625
0.275457
0.0194817
0.278829
0.00765544
0.279011
-0.00289822
-0.0120513
0.276696
0.220848
0.0230545
0.236347
0.0166665
0.24677
0.00905503
0.252588
0.00183282
0.254228
-0.00454475
-0.00989805
0.252073
0.171485
0.00737018
0.183573
0.00457722
0.191215
0.00141405
0.194412
-0.00136471
0.193425
-0.00355734
-0.0051739
0.188701
0.0827787
0.0873565
0.0887709
0.0874064
0.0838492
0.0786755
0.0724764
0.00621367
0.0658126
0.00666664
0.0592215
0.00659276
0.0530742
0.00614768
0.0475712
0.00550287
0.0427936
0.00477727
0.0387514
0.00404197
0.0354073
0.00334385
0.0326945
0.00271265
0.0305322
0.00216209
0.0288374
0.00169446
0.0275312
0.00130576
0.0265417
0.000988981
0.0258053
0.00073579
0.0252673
0.000537491
0.0248811
0.000385624
0.0246082
0.000272308
0.0244173
0.000190405
0.0242832
0.000133579
0.0241864
9.63237e-05
0.0241119
7.39406e-05
0.0240489
6.25129e-05
0.0239896
5.88416e-05
0.0239287
6.03818e-05
0.0238631
6.51587e-05
0.023791
7.16846e-05
0.0237117
7.88763e-05
0.0236254
8.59763e-05
0.0235326
9.24851e-05
0.0234342
9.80989e-05
0.0233313
0.000102662
0.0232249
0.000106123
0.0231162
0.000108506
0.0230061
0.000109881
0.0228956
0.000110349
0.0227855
0.000110027
0.0226764
0.000109042
0.0225688
0.000107519
0.0224631
0.00010559
0.0223596
0.000103387
0.0222585
0.000101058
0.0221595
9.87802e-05
0.0220623
9.70589e-05
0.0219659
9.61365e-05
0.0218691
9.67915e-05
0.0217653
0.000103908
0.000137184
0.180912
0.0140223
0.170872
0.01671
0.159534
0.017933
0.147738
0.0179449
0.136141
0.0171002
0.125223
0.0156956
0.115298
0.0139665
0.106533
0.0121085
0.0989739
0.0102711
0.0925829
0.00855252
0.0872685
0.00700825
0.0829107
0.00566286
0.0793786
0.00452019
0.0765426
0.00357077
0.0742816
0.00279744
0.0724867
0.00217934
0.0710633
0.00169456
0.0699309
0.00132174
0.0690223
0.00104102
0.068283
0.00083454
0.0676692
0.000686684
0.0671465
0.00058411
0.0666887
0.000515672
0.0662758
0.000472261
0.0658934
0.00044659
0.0655313
0.000432961
0.0651823
0.000427024
0.0648419
0.000425542
0.0645075
0.000426183
0.0641776
0.000427328
0.0638518
0.000427909
0.0635301
0.000427279
0.0632131
0.000425096
0.0629013
0.00042124
0.0625956
0.000415744
0.0622967
0.000408742
0.0620051
0.000400435
0.0617213
0.000391064
0.0614459
0.000380896
0.0611788
0.000370226
0.0609202
0.000359382
0.0606699
0.000348783
0.0604274
0.000339032
0.0601923
0.000331
0.0599623
0.000326553
0.0597389
0.000327415
0.000354624
0.246518
0.0195897
0.23817
0.0250578
0.227833
0.0282708
0.216223
0.0295563
0.203974
0.0293515
0.191658
0.0280125
0.179754
0.0258698
0.168619
0.0232435
0.158481
0.0204076
0.149462
0.0175709
0.14159
0.0148798
0.134826
0.0124265
0.129086
0.0102598
0.124261
0.00839511
0.120233
0.00682542
0.116882
0.00552929
0.114098
0.00447752
0.111781
0.00363772
0.109844
0.00297735
0.108212
0.00246562
0.106823
0.00207461
0.105626
0.00177981
0.104581
0.00156024
0.103654
0.00139836
0.10282
0.00127982
0.102059
0.00119312
0.101356
0.00112922
0.1007
0.00108112
0.100082
0.00104357
0.0994961
0.0010127
0.0989378
0.000985709
0.0984039
0.000960684
0.0978923
0.000936349
0.0974013
0.000911922
0.0969298
0.000886979
0.0964769
0.000861353
0.0960421
0.00083506
0.0956248
0.000808242
0.0952244
0.000781132
0.0948404
0.000754031
0.0944722
0.000727317
0.0941192
0.000701447
0.0937808
0.000677044
0.0934566
0.000654845
0.0931466
0.000636412
0.0928521
0.000621923
0.000620663
0.27205
0.0242466
0.265538
0.0315676
0.257725
0.0360842
0.248894
0.0383906
0.239298
0.03895
0.229256
0.0380556
0.219095
0.0360306
0.209113
0.0332231
0.199568
0.0299514
0.190654
0.0264838
0.1825
0.0230341
0.175167
0.0197588
0.168666
0.0167606
0.162966
0.0140953
0.158008
0.0117827
0.15372
0.00981662
0.150023
0.00817408
0.146837
0.00682234
0.144089
0.00572431
0.141712
0.0048423
0.139645
0.0041404
0.137838
0.00358593
0.136248
0.00315014
0.134837
0.00280841
0.133576
0.00254013
0.13244
0.00232839
0.131409
0.00215957
0.130467
0.00202288
0.1296
0.0019099
0.128798
0.0018142
0.128052
0.00173092
0.127356
0.00165646
0.126704
0.00158825
0.126091
0.00152445
0.125514
0.00146382
0.124969
0.00140556
0.124455
0.00134921
0.123969
0.00129452
0.123508
0.00124145
0.123072
0.00119007
0.122659
0.00114058
0.122266
0.00109329
0.121894
0.00104861
0.121542
0.00100705
0.121209
0.000969257
0.120895
0.000935595
0.000897312
0.255336
0.0281331
0.251272
0.0356301
0.247195
0.0401627
0.242789
0.0427996
0.237898
0.0438425
0.23252
0.0434335
0.226722
0.0418265
0.220632
0.0393115
0.214411
0.0361699
0.208229
0.0326657
0.20223
0.0290322
0.196531
0.0254579
0.191211
0.0220807
0.186315
0.0189903
0.181862
0.0162352
0.177847
0.0138311
0.17425
0.0117703
0.171041
0.0100298
0.168187
0.00857734
0.165652
0.00737699
0.163399
0.00639224
0.161396
0.00558841
0.159612
0.00493399
0.158018
0.00440127
0.156591
0.00396649
0.155309
0.00360972
0.154154
0.00331454
0.153109
0.00306764
0.15216
0.00285835
0.151295
0.00267826
0.150505
0.0025208
0.14978
0.0023809
0.149113
0.00225471
0.148498
0.00213932
0.147929
0.00203259
0.147401
0.00193294
0.146911
0.00183924
0.146455
0.00175074
0.146029
0.0016669
0.145632
0.00158742
0.14526
0.00151216
0.144911
0.00144111
0.144585
0.00137434
0.14428
0.00131213
0.143995
0.00125406
0.143728
0.00120294
0.00112736
0.192425
0.0270907
0.19483
0.0332249
0.197738
0.0372556
0.20027
0.0402688
0.202139
0.0419729
0.203221
0.0423502
0.203484
0.0415613
0.202986
0.0398067
0.201838
0.0373165
0.200169
0.0343342
0.198112
0.031089
0.195794
0.0277756
0.193329
0.0245458
0.190811
0.0215081
0.188314
0.0187309
0.185895
0.0162491
0.183592
0.0140722
0.18143
0.0121909
0.179422
0.0105842
0.177574
0.00922454
0.175884
0.00808146
0.174347
0.00712453
0.172956
0.00632503
0.171699
0.00565689
0.170568
0.00509722
0.169551
0.00462635
0.168637
0.00422771
0.167817
0.00388755
0.16708
0.0035946
0.166418
0.00333974
0.165823
0.00311564
0.165287
0.00291646
0.164804
0.0027376
0.164368
0.00257544
0.163973
0.00242718
0.163615
0.00229063
0.16329
0.00216412
0.162994
0.00204636
0.162724
0.0019364
0.162478
0.00183352
0.162253
0.00173723
0.162046
0.00164717
0.161857
0.00156309
0.161684
0.00148504
0.161526
0.00141198
0.16138
0.00134874
0.00124551
0.0998937
0.0156319
0.113251
0.019868
0.125062
0.0254442
0.135275
0.0300554
0.144126
0.0331186
0.1517
0.0347737
0.158086
0.035173
0.163385
0.0345068
0.167688
0.0330128
0.171087
0.0309347
0.173682
0.028494
0.17558
0.0258778
0.17689
0.0232353
0.17772
0.0206777
0.178169
0.0182809
0.178327
0.0160905
0.17827
0.0141281
0.178062
0.0123974
0.177756
0.0108895
0.177392
0.00958788
0.177001
0.00847178
0.176606
0.00751887
0.176224
0.00670707
0.175865
0.00601565
0.175536
0.00542585
0.17524
0.00492113
0.17498
0.00448725
0.174755
0.00411213
0.174564
0.00378563
0.174404
0.00349936
0.174273
0.00324644
0.174168
0.00302123
0.174086
0.00281917
0.174025
0.00263659
0.173981
0.0024705
0.173953
0.00231855
0.173938
0.00217883
0.173934
0.00204983
0.17394
0.00193036
0.173954
0.00181947
0.173975
0.00171642
0.174001
0.00162067
0.174032
0.00153174
0.174067
0.0014496
0.174106
0.0013725
0.174147
0.00130756
0.0011952
0.0224651
-0.00683252
0.0412113
0.00112082
0.0565622
0.0100905
0.0701815
0.0164323
0.0826227
0.0206739
0.0941001
0.0232938
0.104686
0.0245857
0.114373
0.0248199
0.123127
0.0242582
0.130931
0.0231311
0.137793
0.021632
0.143752
0.0199186
0.148871
0.0181159
0.15323
0.0163184
0.156917
0.0145933
0.160022
0.0129842
0.162634
0.0115159
0.164832
0.0101986
0.166689
0.00903219
0.168266
0.00800968
0.169618
0.00711975
0.170787
0.006349
0.171811
0.00568334
0.172717
0.00510901
0.173529
0.00461315
0.174266
0.00418416
0.174941
0.00381179
0.175566
0.00348718
0.176148
0.00320276
0.176695
0.00295213
0.177212
0.00272994
0.177701
0.00253176
0.178166
0.0023539
0.178609
0.00219334
0.179032
0.0020476
0.179435
0.00191465
0.179821
0.00179285
0.18019
0.00168084
0.180543
0.00157753
0.18088
0.00148203
0.181202
0.00139364
0.181511
0.0013118
0.181807
0.00123602
0.18209
0.0011662
0.182361
0.00110091
0.182622
0.00104644
0.000949897
-0.000690581
-0.00614229
0.00421491
-0.0037879
0.0124711
0.00183029
0.022646
0.00625314
0.0340113
0.00930556
0.0460264
0.0112774
0.0582305
0.0123814
0.0702401
0.0128105
0.0817603
0.0127382
0.0925825
0.0123088
0.102576
0.0116386
0.111674
0.0108201
0.119863
0.00992623
0.127169
0.0090123
0.133643
0.00811846
0.139355
0.00727187
0.144381
0.00648912
0.148801
0.00577866
0.15269
0.0051429
0.15612
0.0045801
0.159153
0.00408584
0.161848
0.00365417
0.164252
0.00327848
0.166409
0.00295203
0.168354
0.00266839
0.170116
0.0024216
0.171721
0.00220632
0.17319
0.00201786
0.174541
0.00185216
0.175787
0.00170574
0.176941
0.00157567
0.178013
0.00145947
0.179012
0.00135507
0.179944
0.00126077
0.180817
0.00117515
0.181634
0.00109704
0.182401
0.00102547
0.183123
0.000959656
0.183801
0.000898963
0.18444
0.000842868
0.185043
0.000790945