/*--------------------------------*- C++ -*----------------------------------*\
| =========                 |                                                 |
| \\      /  F ield         | OpenFOAM: The Open Source CFD Toolbox           |
|  \\    /   O peration     | Version:  2406                                  |
|   \\  /    A nd           | Website:  www.openfoam.com                      |
|    \\/     M anipulation  |                                                 |
\*---------------------------------------------------------------------------*/
FoamFile
{
    version     2.0;
    format      ascii;
    arch        "LSB;label=32;scalar=64";
    class       volVectorField;
    location    "33";
    object      U;
}
// * * * * * * * * * * * * * * * * * * * * * * * * * * * * * * * * * * * * * //

dimensions      [0 1 -1 0 0 0 0];

internalField   nonuniform List<vector> 
1964
(
(0.19425 -0.000884863 0)
(0.197761 -0.0006943 0)
(0.199507 -0.000341172 0)
(0.200263 -0.000204824 0)
(0.200795 -0.000144432 0)
(0.201218 -9.24545e-05 0)
(0.20152 -5.17155e-05 0)
(0.201726 -3.50039e-05 0)
(0.201881 -3.27847e-05 0)
(0.202009 -3.14434e-05 0)
(0.202118 -2.28641e-05 0)
(0.202208 -1.26384e-05 0)
(0.202281 -5.67468e-06 0)
(0.202341 -5.88261e-06 0)
(0.202396 -9.61593e-06 0)
(0.20245 -1.51173e-05 0)
(0.202506 -1.80976e-05 0)
(0.202566 -1.97146e-05 0)
(0.202631 -1.93158e-05 0)
(0.202704 -1.99611e-05 0)
(0.20279 -2.18094e-05 0)
(0.202893 -2.71745e-05 0)
(0.203023 -3.54979e-05 0)
(0.203192 -4.8502e-05 0)
(0.203413 -6.57e-05 0)
(0.203708 -8.95299e-05 0)
(0.204103 -0.000120683 0)
(0.204634 -0.000163343 0)
(0.205351 -0.000220443 0)
(0.206322 -0.000299097 0)
(0.207638 -0.000406092 0)
(0.209427 -0.000553811 0)
(0.211863 -0.000756364 0)
(0.215181 -0.00103626 0)
(0.219709 -0.00142151 0)
(0.225891 -0.00195342 0)
(0.23433 -0.00268415 0)
(0.24584 -0.00368468 0)
(0.261496 -0.00503788 0)
(0.282685 -0.00683988 0)
(0.31112 -0.00916874 0)
(0.348779 -0.0120518 0)
(0.397683 -0.0153736 0)
(0.459405 -0.0187556 0)
(0.534263 -0.0213952 0)
(0.619909 -0.0219126 0)
(0.710421 -0.0188613 0)
(0.551923 -0.00182228 0)
(0.553921 -0.0024354 0)
(0.555354 -0.00173134 0)
(0.555875 -0.00116401 0)
(0.556391 -0.000853372 0)
(0.556963 -0.000633648 0)
(0.557452 -0.000457857 0)
(0.557831 -0.000338034 0)
(0.558137 -0.000266428 0)
(0.5584 -0.000222782 0)
(0.55863 -0.000186571 0)
(0.558827 -0.000154195 0)
(0.558992 -0.000126932 0)
(0.559134 -0.000110692 0)
(0.559262 -0.000102521 0)
(0.559385 -0.00010321 0)
(0.559508 -0.000107394 0)
(0.559638 -0.000116719 0)
(0.559777 -0.000129701 0)
(0.559932 -0.000150241 0)
(0.56011 -0.000179824 0)
(0.560325 -0.000223911 0)
(0.560591 -0.000285853 0)
(0.560931 -0.000373699 0)
(0.561375 -0.000494149 0)
(0.561961 -0.000660565 0)
(0.562742 -0.000886857 0)
(0.563789 -0.00119652 0)
(0.565197 -0.00161745 0)
(0.567099 -0.0021921 0)
(0.569669 -0.00297438 0)
(0.57315 -0.00404206 0)
(0.577865 -0.00549699 0)
(0.584256 -0.00748158 0)
(0.592918 -0.0101834 0)
(0.604647 -0.0138563 0)
(0.620505 -0.0188272 0)
(0.641889 -0.0255122 0)
(0.670603 -0.0344068 0)
(0.708928 -0.0460539 0)
(0.759638 -0.0609473 0)
(0.825933 -0.0793372 0)
(0.911181 -0.100903 0)
(1.01838 -0.124255 0)
(1.14925 -0.146252 0)
(1.30209 -0.161219 0)
(1.47115 -0.16198 0)
(0.87233 -0.00113506 0)
(0.87352 -0.00201613 0)
(0.87425 -0.00187374 0)
(0.874142 -0.00155207 0)
(0.874208 -0.00131429 0)
(0.874539 -0.00109612 0)
(0.874905 -0.000877139 0)
(0.875217 -0.000698738 0)
(0.87549 -0.00057904 0)
(0.87575 -0.000501113 0)
(0.875998 -0.000434271 0)
(0.876222 -0.000368673 0)
(0.876413 -0.000308061 0)
(0.876577 -0.000264581 0)
(0.876724 -0.000241543 0)
(0.876866 -0.000238681 0)
(0.87701 -0.000249137 0)
(0.877163 -0.000270421 0)
(0.877328 -0.000300001 0)
(0.87751 -0.000342698 0)
(0.877717 -0.000403345 0)
(0.87796 -0.000492523 0)
(0.878257 -0.000620187 0)
(0.878633 -0.000801855 0)
(0.879118 -0.00105446 0)
(0.879755 -0.00140336 0)
(0.8806 -0.00188009 0)
(0.88173 -0.0025306 0)
(0.883247 -0.003415 0)
(0.885288 -0.00461829 0)
(0.888041 -0.00625333 0)
(0.891757 -0.00847623 0)
(0.896777 -0.0114951 0)
(0.903559 -0.0155926 0)
(0.912716 -0.0211428 0)
(0.925065 -0.0286413 0)
(0.941692 -0.0387258 0)
(0.96402 -0.0522002 0)
(0.993903 -0.070026 0)
(1.03371 -0.0932774 0)
(1.08643 -0.122986 0)
(1.1557 -0.15985 0)
(1.24575 -0.203678 0)
(1.36119 -0.252555 0)
(1.50649 -0.301522 0)
(1.68336 -0.341062 0)
(1.89238 -0.357922 0)
(1.15273 -0.000630023 0)
(1.15374 -0.00140179 0)
(1.1543 -0.00156438 0)
(1.15389 -0.00148334 0)
(1.15358 -0.00139172 0)
(1.15361 -0.00126623 0)
(1.15374 -0.00109717 0)
(1.15386 -0.000929642 0)
(1.15398 -0.000806601 0)
(1.15412 -0.000720131 0)
(1.1543 -0.000646655 0)
(1.15447 -0.000567193 0)
(1.15462 -0.000489818 0)
(1.15475 -0.000425027 0)
(1.15486 -0.000387493 0)
(1.15497 -0.000375518 0)
(1.15509 -0.000388906 0)
(1.15522 -0.000419039 0)
(1.15536 -0.000466923 0)
(1.15552 -0.000532387 0)
(1.1557 -0.00062617 0)
(1.15591 -0.000758225 0)
(1.15616 -0.000948154 0)
(1.15647 -0.00121498 0)
(1.15686 -0.00158911 0)
(1.15738 -0.0021044 0)
(1.15806 -0.00281227 0)
(1.15897 -0.00377641 0)
(1.16018 -0.00508961 0)
(1.16181 -0.00687224 0)
(1.16401 -0.00929385 0)
(1.16696 -0.0125778 0)
(1.17095 -0.0170315 0)
(1.17632 -0.0230607 0)
(1.18357 -0.031212 0)
(1.19333 -0.0421994 0)
(1.2065 -0.0569566 0)
(1.22423 -0.0766651 0)
(1.24813 -0.102784 0)
(1.28033 -0.137018 0)
(1.32378 -0.181189 0)
(1.38248 -0.236922 0)
(1.4618 -0.304944 0)
(1.56885 -0.383864 0)
(1.71263 -0.467722 0)
(1.90184 -0.544067 0)
(2.15311 -0.590129 0)
(1.39298 -0.00038752 0)
(1.39395 -0.000967434 0)
(1.39456 -0.00119856 0)
(1.39412 -0.00122889 0)
(1.39366 -0.00122541 0)
(1.3935 -0.00118314 0)
(1.39346 -0.00108172 0)
(1.39341 -0.000962005 0)
(1.39335 -0.000866197 0)
(1.39335 -0.000800793 0)
(1.39341 -0.000741619 0)
(1.39349 -0.000672989 0)
(1.39356 -0.00059561 0)
(1.39362 -0.000527653 0)
(1.39366 -0.00048199 0)
(1.3937 -0.000467641 0)
(1.39376 -0.000481435 0)
(1.39383 -0.000520695 0)
(1.39392 -0.000581029 0)
(1.39402 -0.000666165 0)
(1.39413 -0.000782912 0)
(1.39426 -0.000947322 0)
(1.3944 -0.00117827 0)
(1.39458 -0.00150409 0)
(1.3948 -0.0019577 0)
(1.39509 -0.00258577 0)
(1.39546 -0.00344663 0)
(1.39596 -0.00462264 0)
(1.39663 -0.00622185 0)
(1.39752 -0.00839478 0)
(1.39872 -0.0113419 0)
(1.40033 -0.0153384 0)
(1.4025 -0.0207515 0)
(1.40542 -0.0280785 0)
(1.40936 -0.0379804 0)
(1.41469 -0.0513395 0)
(1.42194 -0.0693153 0)
(1.43184 -0.0934236 0)
(1.4455 -0.125609 0)
(1.46454 -0.168317 0)
(1.49155 -0.224513 0)
(1.5306 -0.297583 0)
(1.58823 -0.390872 0)
(1.67509 -0.506541 0)
(1.80649 -0.641942 0)
(2.00623 -0.785797 0)
(2.30457 -0.891789 0)
(1.59316 -0.000252587 0)
(1.59409 -0.000666008 0)
(1.59477 -0.000878837 0)
(1.59439 -0.000945126 0)
(1.5939 -0.000980618 0)
(1.59368 -0.000984443 0)
(1.59356 -0.000934711 0)
(1.59341 -0.000859414 0)
(1.59323 -0.000796904 0)
(1.59312 -0.000757365 0)
(1.59307 -0.00072146 0)
(1.59307 -0.00067264 0)
(1.59307 -0.000610211 0)
(1.59304 -0.000550169 0)
(1.593 -0.000507919 0)
(1.59296 -0.000494575 0)
(1.59294 -0.000510584 0)
(1.59294 -0.000554201 0)
(1.59295 -0.000621957 0)
(1.59297 -0.000716528 0)
(1.593 -0.000844865 0)
(1.59302 -0.0010224 0)
(1.59303 -0.00126954 0)
(1.59304 -0.00161564 0)
(1.59305 -0.00209687 0)
(1.59305 -0.00276241 0)
(1.59306 -0.00367551 0)
(1.59306 -0.00492289 0)
(1.59307 -0.00662005 0)
(1.59307 -0.00892552 0)
(1.59307 -0.0120526 0)
(1.59307 -0.0162921 0)
(1.59305 -0.0220354 0)
(1.59304 -0.0298126 0)
(1.59302 -0.0403359 0)
(1.59303 -0.0545652 0)
(1.59313 -0.0737882 0)
(1.59348 -0.099735 0)
(1.5944 -0.134729 0)
(1.5966 -0.181895 0)
(1.60149 -0.245458 0)
(1.61205 -0.331149 0)
(1.63418 -0.44674 0)
(1.68035 -0.602645 0)
(1.77221 -0.81089 0)
(1.96082 -1.07787 0)
(2.24435 -1.32412 0)
(1.75327 -0.0001665 0)
(1.75416 -0.000452754 0)
(1.75489 -0.000622484 0)
(1.75459 -0.000690997 0)
(1.75411 -0.000737045 0)
(1.75387 -0.000759102 0)
(1.75374 -0.000738747 0)
(1.75355 -0.000692452 0)
(1.75331 -0.000653711 0)
(1.75313 -0.000632085 0)
(1.75302 -0.000614878 0)
(1.75296 -0.000584926 0)
(1.7529 -0.000541741 0)
(1.75281 -0.000495588 0)
(1.7527 -0.000463035 0)
(1.75259 -0.000453367 0)
(1.7525 -0.000471119 0)
(1.75242 -0.000514033 0)
(1.75236 -0.000581344 0)
(1.7523 -0.000673519 0)
(1.75224 -0.000798254 0)
(1.75215 -0.00096761 0)
(1.75203 -0.00120213 0)
(1.75187 -0.00152751 0)
(1.75166 -0.00197961 0)
(1.75137 -0.00260321 0)
(1.751 -0.0034596 0)
(1.7505 -0.00462875 0)
(1.74984 -0.00622069 0)
(1.74894 -0.00838252 0)
(1.74773 -0.0113161 0)
(1.7461 -0.0152931 0)
(1.74389 -0.0206846 0)
(1.7409 -0.0279915 0)
(1.73687 -0.0378961 0)
(1.73145 -0.051325 0)
(1.7242 -0.0695451 0)
(1.71457 -0.0942967 0)
(1.7019 -0.127996 0)
(1.68548 -0.174048 0)
(1.66466 -0.237347 0)
(1.63918 -0.325148 0)
(1.60986 -0.448634 0)
(1.58158 -0.62582 0)
(1.5675 -0.886498 0)
(1.62209 -1.26193 0)
(1.65644 -1.63567 0)
(1.87335 -0.000106375 0)
(1.87421 -0.000293651 0)
(1.87496 -0.000414313 0)
(1.87471 -0.000470068 0)
(1.87425 -0.00051022 0)
(1.87402 -0.000534636 0)
(1.87389 -0.000527539 0)
(1.87369 -0.000500132 0)
(1.87343 -0.000476459 0)
(1.8732 -0.00046585 0)
(1.87306 -0.000458815 0)
(1.87297 -0.000443041 0)
(1.87288 -0.000415813 0)
(1.87275 -0.000385341 0)
(1.8726 -0.000363285 0)
(1.87244 -0.000358618 0)
(1.87229 -0.000374847 0)
(1.87216 -0.000411832 0)
(1.87203 -0.000468525 0)
(1.87191 -0.000546209 0)
(1.87176 -0.00065007 0)
(1.87158 -0.000790486 0)
(1.87135 -0.000983064 0)
(1.87104 -0.00124947 0)
(1.87063 -0.00161808 0)
(1.8701 -0.0021263 0)
(1.86939 -0.00282337 0)
(1.86845 -0.00377535 0)
(1.8672 -0.00507111 0)
(1.86551 -0.00683135 0)
(1.86324 -0.00921984 0)
(1.86018 -0.0124595 0)
(1.85604 -0.0168534 0)
(1.85043 -0.0228147 0)
(1.84285 -0.0309078 0)
(1.8326 -0.0419073 0)
(1.81875 -0.056883 0)
(1.80007 -0.0773263 0)
(1.77489 -0.105343 0)
(1.74098 -0.143949 0)
(1.69528 -0.19756 0)
(1.63356 -0.272784 0)
(1.54954 -0.379849 0)
(1.43346 -0.535158 0)
(1.26687 -0.765425 0)
(1.00924 -1.0825 0)
(0.42591 -1.15924 0)
(1.95339 -5.95618e-05 0)
(1.95423 -0.000165643 0)
(1.955 -0.000237742 0)
(1.95478 -0.000272367 0)
(1.95433 -0.000297949 0)
(1.95411 -0.000315473 0)
(1.95399 -0.000314469 0)
(1.95378 -0.000300433 0)
(1.95351 -0.000287665 0)
(1.95327 -0.000282435 0)
(1.95311 -0.000279736 0)
(1.95301 -0.000272218 0)
(1.9529 -0.000257931 0)
(1.95275 -0.000241443 0)
(1.95258 -0.000229811 0)
(1.95238 -0.000228632 0)
(1.9522 -0.000240381 0)
(1.95203 -0.000265289 0)
(1.95186 -0.000303 0)
(1.95169 -0.00035454 0)
(1.9515 -0.000423354 0)
(1.95125 -0.000516127 0)
(1.95093 -0.000642958 0)
(1.95051 -0.000817834 0)
(1.94996 -0.00105922 0)
(1.94924 -0.00139146 0)
(1.94829 -0.00184672 0)
(1.94702 -0.0024681 0)
(1.94533 -0.00331364 0)
(1.94307 -0.00446214 0)
(1.94001 -0.00602063 0)
(1.93589 -0.00813486 0)
(1.93031 -0.0110035 0)
(1.92276 -0.0148983 0)
(1.91254 -0.0201915 0)
(1.89868 -0.0273971 0)
(1.87988 -0.0372288 0)
(1.85436 -0.0506875 0)
(1.81967 -0.0691921 0)
(1.7724 -0.0947753 0)
(1.70779 -0.130378 0)
(1.61905 -0.180266 0)
(1.49629 -0.250576 0)
(1.3251 -0.349733 0)
(1.08219 -0.486119 0)
(0.735667 -0.64005 0)
(0.18614 -0.610595 0)
(1.99342 -1.92791e-05 0)
(1.99425 -5.31216e-05 0)
(1.99501 -7.67461e-05 0)
(1.99481 -8.82022e-05 0)
(1.99437 -9.64328e-05 0)
(1.99415 -0.000102453 0)
(1.99403 -0.000102931 0)
(1.99383 -9.9176e-05 0)
(1.99356 -9.52195e-05 0)
(1.99331 -9.29443e-05 2.59274e-34)
(1.99314 -9.12534e-05 0)
(1.99303 -8.84306e-05 0)
(1.99292 -8.42446e-05 0)
(1.99276 -8.01109e-05 0)
(1.99257 -7.7932e-05 0)
(1.99237 -7.90701e-05 2.53631e-34)
(1.99217 -8.40601e-05 0)
(1.99198 -9.29687e-05 0)
(1.99179 -0.000105943 0)
(1.9916 -0.000123664 0)
(1.99137 -0.000147655 0)
(1.99109 -0.00018037 0)
(1.99073 -0.000225343 0)
(1.99025 -0.000287318 -2.46134e-34)
(1.98963 -0.000372585 0)
(1.98881 -0.000489463 0)
(1.98772 -0.000649048 0)
(1.98629 -0.000866271 0)
(1.98437 -0.00116132 0)
(1.98179 -0.00156161 0)
(1.97832 -0.00210438 0)
(1.97363 -0.00284041 0)
(1.9673 -0.00383887 0)
(1.95871 -0.00519453 0)
(1.94708 -0.00703745 0)
(1.93129 -0.00954768 0)
(1.90985 -0.0129755 0)
(1.88067 -0.0176734 0)
(1.84087 -0.0241394 0)
(1.78647 -0.0330865 0)
(1.71183 -0.0455325 0)
(1.60906 -0.0629215 -2.96707e-34)
(1.467 -0.0872342 0)
(1.27046 -0.1209 0)
(0.998308 -0.165334 0)
(0.63355 -0.209882 0)
(0.133323 -0.185134 0)
(1.99342 1.99222e-05 0)
(1.99425 5.4217e-05 0)
(1.99501 7.92987e-05 0)
(1.99481 9.21202e-05 0)
(1.99437 0.000101971 0)
(1.99415 0.000108534 0)
(1.99403 0.000107505 0)
(1.99383 0.000101703 0)
(1.99356 9.77015e-05 0)
(1.99331 9.80703e-05 -2.59274e-34)
(1.99314 0.00010001 0)
(1.99303 9.92195e-05 0)
(1.99292 9.41007e-05 0)
(1.99276 8.63643e-05 0)
(1.99257 7.95151e-05 0)
(1.99237 7.66709e-05 -2.53631e-34)
(1.99217 7.94777e-05 0)
(1.99198 8.8069e-05 0)
(1.9918 0.000101908 0)
(1.9916 0.000120597 0)
(1.99137 0.000144768 0)
(1.99109 0.00017633 0)
(1.99072 0.000218796 0)
(1.99025 0.000277156 2.46135e-34)
(1.98962 0.000358133 0)
(1.9888 0.000470396 0)
(1.98772 0.000625306 0)
(1.98628 0.000837858 0)
(1.98436 0.00112819 0)
(1.98179 0.00152353 0)
(1.97832 0.00206097 0)
(1.97363 0.00279108 0)
(1.96729 0.00378292 0)
(1.95871 0.00513114 0)
(1.94707 0.00696572 0)
(1.93128 0.00946656 0)
(1.90984 0.0128837 0)
(1.88065 0.0175692 0)
(1.84086 0.0240211 0)
(1.78645 0.032952 0)
(1.71181 0.0453806 0)
(1.60904 0.062751 2.96717e-34)
(1.46698 0.0870439 0)
(1.27045 0.120698 0)
(0.998347 0.165174 0)
(0.633575 0.209792 0)
(0.133328 0.185015 0)
(1.95339 6.02533e-05 0)
(1.95423 0.000166594 0)
(1.955 0.000240116 0)
(1.95478 0.000276204 0)
(1.95433 0.000303306 0)
(1.95411 0.000321289 0)
(1.95398 0.000318933 0)
(1.95378 0.000303242 0)
(1.95352 0.000290729 0)
(1.95328 0.000288038 0)
(1.95312 0.000288429 0)
(1.95301 0.000282334 0)
(1.9529 0.000266772 0)
(1.95275 0.00024686 0)
(1.95257 0.000231133 0)
(1.95238 0.000226682 0)
(1.9522 0.000236789 0)
(1.95203 0.000261577 0)
(1.95187 0.000299981 0)
(1.95169 0.000352095 0)
(1.95149 0.000420639 0)
(1.95125 0.000511948 0)
(1.95092 0.000636132 0)
(1.9505 0.000807473 0)
(1.94995 0.00104481 0)
(1.94923 0.00137277 0)
(1.94828 0.00182372 0)
(1.94701 0.00244075 0)
(1.94532 0.00328186 0)
(1.94305 0.00442564 0)
(1.94 0.00597901 0)
(1.93587 0.00808755 0)
(1.93029 0.0109499 0)
(1.92274 0.0148375 0)
(1.91251 0.0201229 0)
(1.89865 0.0273197 0)
(1.87985 0.0371416 0)
(1.85433 0.0505892 0)
(1.81963 0.0690813 0)
(1.77236 0.0946506 0)
(1.70774 0.130238 0)
(1.61899 0.180109 0)
(1.49623 0.250409 0)
(1.3251 0.349568 0)
(1.08222 0.485976 0)
(0.735659 0.639945 0)
(0.186201 0.610497 0)
(1.87335 0.000107005 0)
(1.87421 0.000294844 0)
(1.87496 0.000417124 0)
(1.87471 0.000473846 0)
(1.87425 0.000514996 0)
(1.87402 0.00053982 0)
(1.87388 0.00053194 0)
(1.87368 0.000503664 0)
(1.87343 0.000480497 0)
(1.87321 0.000471776 0)
(1.87307 0.000466681 0)
(1.87297 0.00045136 0)
(1.87287 0.000422684 0)
(1.87274 0.000389483 0)
(1.87259 0.000364556 0)
(1.87243 0.000357859 0)
(1.87229 0.000373192 0)
(1.87216 0.000410183 0)
(1.87203 0.000467101 0)
(1.87191 0.000544613 0)
(1.87176 0.00064747 0)
(1.87158 0.000785953 0)
(1.87134 0.000975792 0)
(1.87103 0.00123893 0)
(1.87062 0.00160397 0)
(1.87008 0.00210854 0)
(1.86938 0.0028019 0)
(1.86843 0.00375008 0)
(1.86718 0.00504184 0)
(1.86549 0.00679776 0)
(1.86322 0.00918148 0)
(1.86015 0.0124158 0)
(1.856 0.0168038 0)
(1.85039 0.0227586 0)
(1.84281 0.0308445 0)
(1.83255 0.0418362 0)
(1.8187 0.0568033 0)
(1.80001 0.0772374 0)
(1.77482 0.105243 0)
(1.7409 0.14384 0)
(1.69519 0.197439 0)
(1.63348 0.272655 0)
(1.54948 0.379709 0)
(1.43345 0.535048 0)
(1.26692 0.765301 0)
(1.00928 1.08246 0)
(0.42595 1.15923 0)
(1.75327 0.000167245 0)
(1.75416 0.00045397 0)
(1.75489 0.000625054 0)
(1.75459 0.00069478 0)
(1.75411 0.00074124 0)
(1.75387 0.000763738 0)
(1.75373 0.00074284 0)
(1.75354 0.000696754 0)
(1.75332 0.000658681 0)
(1.75313 0.000638386 0)
(1.75302 0.000621364 0)
(1.75296 0.000590939 0)
(1.75289 0.000545858 0)
(1.7528 0.00049826 0)
(1.75269 0.000464299 0)
(1.75259 0.000454378 0)
(1.7525 0.000471942 0)
(1.75242 0.000514994 0)
(1.75236 0.000581641 0)
(1.75231 0.000672791 0)
(1.75224 0.000795472 0)
(1.75214 0.000962602 0)
(1.75202 0.00119427 0)
(1.75186 0.00151702 0)
(1.75164 0.00196615 0)
(1.75136 0.00258709 0)
(1.75098 0.00344043 0)
(1.75048 0.00460663 0)
(1.74981 0.00619499 0)
(1.74891 0.00835316 0)
(1.7477 0.0112822 0)
(1.74606 0.0152547 0)
(1.74384 0.0206407 0)
(1.74085 0.027942 0)
(1.73681 0.0378403 0)
(1.73138 0.0512626 0)
(1.72413 0.0694756 0)
(1.71449 0.0942201 0)
(1.70181 0.127913 0)
(1.68539 0.173958 0)
(1.66456 0.237251 0)
(1.63908 0.325048 0)
(1.6098 0.448537 0)
(1.58158 0.62572 0)
(1.5676 0.886461 0)
(1.62224 1.26193 0)
(1.65647 1.63576 0)
(1.59316 0.000253165 0)
(1.59409 0.000667196 0)
(1.59477 0.000881176 0)
(1.59439 0.000947772 0)
(1.5939 0.000984115 0)
(1.59367 0.000988602 0)
(1.59355 0.000940422 0)
(1.5934 0.000865781 0)
(1.59324 0.000803971 0)
(1.59312 0.000763459 0)
(1.59308 0.000726445 0)
(1.59307 0.000675696 0)
(1.59305 0.000612676 0)
(1.59302 0.00055213 0)
(1.59299 0.000510894 0)
(1.59295 0.000497895 0)
(1.59294 0.000514527 0)
(1.59294 0.00055723 0)
(1.59295 0.000623824 0)
(1.59297 0.000715966 0)
(1.59299 0.000842133 0)
(1.59301 0.00101692 0)
(1.59302 0.00126205 0)
(1.59303 0.0016058 0)
(1.59303 0.00208534 0)
(1.59303 0.00274866 0)
(1.59303 0.00365985 0)
(1.59303 0.00490454 0)
(1.59304 0.00659909 0)
(1.59303 0.00890101 0)
(1.59303 0.0120246 0)
(1.59302 0.0162596 0)
(1.593 0.0219986 0)
(1.59297 0.0297705 0)
(1.59295 0.0402888 0)
(1.59295 0.0545122 0)
(1.59305 0.0737295 0)
(1.59338 0.0996702 0)
(1.5943 0.134658 0)
(1.59648 0.181819 0)
(1.60137 0.245376 0)
(1.61194 0.33106 0)
(1.6341 0.44665 0)
(1.68039 0.602526 0)
(1.77236 0.810773 0)
(1.96101 1.07777 0)
(2.2445 1.32405 0)
(1.39299 0.000387861 0)
(1.39395 0.000967463 0)
(1.39456 0.00119921 0)
(1.39412 0.00123001 0)
(1.39366 0.00122756 0)
(1.39349 0.00118666 0)
(1.39345 0.00108797 0)
(1.3934 0.000970028 0)
(1.39336 0.000874192 0)
(1.39336 0.000806509 0)
(1.39341 0.000744571 0)
(1.39348 0.000673858 0)
(1.39355 0.000596746 0)
(1.3936 0.000530082 0)
(1.39365 0.000486688 0)
(1.39369 0.000473555 0)
(1.39376 0.000487521 0)
(1.39383 0.000525336 0)
(1.39392 0.000583419 0)
(1.39402 0.000665754 0)
(1.39412 0.000780049 0)
(1.39425 0.000942233 0)
(1.39439 0.00117172 0)
(1.39456 0.00149618 0)
(1.39478 0.00194884 0)
(1.39506 0.00257556 0)
(1.39543 0.0034351 0)
(1.39593 0.0046091 0)
(1.39659 0.00620616 0)
(1.39748 0.00837619 0)
(1.39867 0.0113204 0)
(1.40028 0.0153132 0)
(1.40244 0.0207226 0)
(1.40535 0.0280452 0)
(1.40928 0.0379427 0)
(1.4146 0.0512969 0)
(1.42184 0.0692678 0)
(1.43173 0.093371 0)
(1.44538 0.125551 0)
(1.46441 0.168252 0)
(1.49141 0.22444 0)
(1.53047 0.297498 0)
(1.58813 0.390759 0)
(1.67505 0.506396 0)
(1.80657 0.641678 0)
(2.0064 0.785448 0)
(2.3047 0.891419 0)
(1.15273 0.00063015 0)
(1.15374 0.00140215 0)
(1.1543 0.00156455 0)
(1.15389 0.00148377 0)
(1.15358 0.0013916 0)
(1.1536 0.00126888 0)
(1.15373 0.00110277 0)
(1.15386 0.000938121 0)
(1.15398 0.000813181 0)
(1.15413 0.000723733 0)
(1.15429 0.000646357 0)
(1.15446 0.000566617 0)
(1.1546 0.000489998 0)
(1.15473 0.000428837 0)
(1.15485 0.000393001 0)
(1.15496 0.000382896 0)
(1.15509 0.000394936 0)
(1.15522 0.000423681 0)
(1.15536 0.000468338 0)
(1.15552 0.000531729 0)
(1.15569 0.000622918 0)
(1.1559 0.000754072 0)
(1.15614 0.000942672 0)
(1.15645 0.00120951 0)
(1.15684 0.00158272 0)
(1.15735 0.00209791 0)
(1.15803 0.00280437 0)
(1.15893 0.00376768 0)
(1.16014 0.00507868 0)
(1.16177 0.00685972 0)
(1.16396 0.00927841 0)
(1.1669 0.0125602 0)
(1.17088 0.0170104 0)
(1.17625 0.0230369 0)
(1.18348 0.0311842 0)
(1.19324 0.0421686 0)
(1.20639 0.0569217 0)
(1.22411 0.076627 0)
(1.248 0.102742 0)
(1.28019 0.136972 0)
(1.32363 0.18114 0)
(1.38232 0.236865 0)
(1.46165 0.304866 0)
(1.56874 0.383748 0)
(1.71257 0.467535 0)
(1.9019 0.54375 0)
(2.15325 0.589713 0)
(0.872331 0.00113558 0)
(0.873519 0.00201676 0)
(0.874249 0.00187552 0)
(0.87414 0.00155291 0)
(0.874204 0.00131445 0)
(0.874529 0.0010973 0)
(0.874894 0.000882889 0)
(0.875211 0.000706009 0)
(0.87549 0.000585055 0)
(0.87575 0.000502026 0)
(0.875993 0.000432931 0)
(0.87621 0.000366664 0)
(0.876398 0.000309342 0)
(0.876562 0.000268425 0)
(0.876713 0.000248204 0)
(0.87686 0.00024499 0)
(0.877008 0.00025476 0)
(0.877162 0.000273066 0)
(0.877326 0.000300871 0)
(0.877504 0.000340988 0)
(0.877706 0.000400999 0)
(0.877945 0.000489103 0)
(0.878239 0.000617249 0)
(0.878611 0.000798589 0)
(0.879093 0.00105177 0)
(0.879727 0.00140008 0)
(0.88057 0.00187681 0)
(0.881696 0.00252604 0)
(0.883208 0.00340978 0)
(0.885244 0.00461119 0)
(0.88799 0.00624509 0)
(0.891699 0.00846574 0)
(0.896712 0.0114832 0)
(0.903486 0.0155782 0)
(0.912634 0.0211268 0)
(0.924974 0.0286228 0)
(0.941591 0.0387061 0)
(0.963909 0.0521788 0)
(0.993781 0.0700053 0)
(1.03358 0.0932571 0)
(1.0863 0.122971 0)
(1.15556 0.159841 0)
(1.24562 0.203677 0)
(1.3611 0.252549 0)
(1.50645 0.301512 0)
(1.68339 0.341025 0)
(1.89251 0.357793 0)
(0.551923 0.00182252 0)
(0.55392 0.00243695 0)
(0.555354 0.00173297 0)
(0.555872 0.00116469 0)
(0.556385 0.000853128 0)
(0.556954 0.00063422 0)
(0.557443 0.000461883 0)
(0.557827 0.000342808 0)
(0.558136 0.000269088 0)
(0.558398 0.000221732 0)
(0.558623 0.000183711 0)
(0.558815 0.000152064 0)
(0.558979 0.000127937 0)
(0.559122 0.00011415 0)
(0.559254 0.000108081 0)
(0.559381 0.000108055 0)
(0.559507 0.000110869 0)
(0.559637 0.000117546 0)
(0.559774 0.000128541 0)
(0.559925 0.000147626 0)
(0.5601 0.000176998 0)
(0.560311 0.000221427 0)
(0.560574 0.000284472 0)
(0.560912 0.000373044 0)
(0.561354 0.000494376 0)
(0.561938 0.000660736 0)
(0.562717 0.000886993 0)
(0.563761 0.00119579 0)
(0.565166 0.00161608 0)
(0.567063 0.0021896 0)
(0.569629 0.00297121 0)
(0.573104 0.00403789 0)
(0.577813 0.0054924 0)
(0.584199 0.00747618 0)
(0.592854 0.0101778 0)
(0.604576 0.0138503 0)
(0.620428 0.0188215 0)
(0.641804 0.0255075 0)
(0.670513 0.0344043 0)
(0.708835 0.0460562 0)
(0.759547 0.0609569 0)
(0.825851 0.0793617 0)
(0.911127 0.10095 0)
(1.01838 0.124321 0)
(1.14932 0.146335 0)
(1.30222 0.16131 0)
(1.47136 0.162053 0)
(0.19425 0.0008847 0)
(0.19776 0.000694285 0)
(0.199506 0.000342567 0)
(0.20026 0.000204742 0)
(0.200791 0.000142733 0)
(0.201213 9.10034e-05 0)
(0.201515 5.24494e-05 0)
(0.201723 3.53921e-05 0)
(0.201879 3.25018e-05 0)
(0.202006 2.9856e-05 0)
(0.202114 2.18601e-05 0)
(0.202203 1.19367e-05 0)
(0.202275 5.9766e-06 0)
(0.202336 5.97578e-06 0)
(0.202392 1.02962e-05 0)
(0.202448 1.54174e-05 0)
(0.202505 1.89954e-05 0)
(0.202565 2.01883e-05 0)
(0.20263 2.00175e-05 0)
(0.202702 1.99433e-05 0)
(0.202785 2.16929e-05 0)
(0.202887 2.63414e-05 0)
(0.203015 3.47945e-05 0)
(0.203182 4.75128e-05 0)
(0.203403 6.52832e-05 0)
(0.203696 8.91202e-05 0)
(0.20409 0.000120968 0)
(0.20462 0.000163567 0)
(0.205336 0.000221155 0)
(0.206304 0.000299466 0)
(0.207619 0.000406705 0)
(0.209406 0.000553945 0)
(0.211838 0.000756723 0)
(0.215153 0.00103623 0)
(0.219678 0.00142194 0)
(0.225856 0.00195375 0)
(0.234292 0.00268538 0)
(0.245798 0.00368625 0)
(0.261451 0.00504173 0)
(0.28264 0.00684539 0)
(0.311079 0.00917884 0)
(0.348749 0.0120665 0)
(0.397676 0.0153953 0)
(0.459444 0.0187839 0)
(0.534354 0.0214399 0)
(0.620045 0.0219757 0)
(0.710585 0.0189135 0)
(0.794102 -0.0104941 0)
(0.856039 0.00123281 0)
(0.886882 0.0117038 0)
(0.886573 0.0185565 0)
(0.860779 0.0221861 0)
(0.81595 0.0234773 0)
(1.64006 -0.137602 0)
(1.78381 -0.0909922 0)
(1.88468 -0.0374187 0)
(1.93894 0.012161 0)
(1.94909 0.0539498 0)
(1.91937 0.0867459 0)
(2.11115 -0.322162 0)
(2.29778 -0.239562 0)
(2.42915 -0.141668 0)
(2.50808 -0.0472316 0)
(2.54364 0.0382732 0)
(2.5406 0.112162 0)
(2.42279 -0.533655 0)
(2.62417 -0.400309 0)
(2.73344 -0.250555 0)
(2.7814 -0.110086 0)
(2.79502 0.0154322 0)
(2.78425 0.124974 0)
(2.60395 -0.760811 0)
(2.73257 -0.526892 0)
(2.72327 -0.307092 0)
(2.67665 -0.125008 0)
(2.6375 0.023788 0)
(2.60726 0.150752 0)
(2.46131 -0.977132 0)
(2.29921 -0.531158 0)
(2.06089 -0.227968 0)
(1.92378 -0.0393616 0)
(1.88272 0.082581 0)
(1.89425 0.18245 0)
(1.50078 -0.818658 0)
(0.92886 -0.183183 0)
(0.631284 0.016322 0)
(0.616214 0.0515959 0)
(0.683807 0.0643393 0)
(0.764071 0.125294 0)
(1.50072 0.818712 0)
(0.928756 0.183156 0)
(0.63119 -0.0162945 0)
(0.616128 -0.0515397 0)
(0.6837 -0.0642906 0)
(0.763938 -0.125258 0)
(2.46128 0.977117 0)
(2.29901 0.531172 0)
(2.06068 0.228003 0)
(1.92359 0.0394186 0)
(1.88249 -0.082469 0)
(1.894 -0.182344 0)
(2.60401 0.760482 0)
(2.73254 0.526736 0)
(2.72316 0.307114 0)
(2.67652 0.125107 0)
(2.63732 -0.0236642 0)
(2.60703 -0.150642 0)
(2.42293 0.533266 0)
(2.62429 0.400049 0)
(2.73349 0.250437 0)
(2.78137 0.110075 0)
(2.79492 -0.0154295 0)
(2.7841 -0.124949 0)
(2.11139 0.321974 0)
(2.298 0.239354 0)
(2.42927 0.14148 0)
(2.50809 0.0470798 0)
(2.54357 -0.0383667 0)
(2.54048 -0.112197 0)
(1.64031 0.137587 0)
(1.78404 0.0908805 0)
(1.88482 0.0372718 0)
(1.93897 -0.0122936 0)
(1.94902 -0.0540249 0)
(1.91924 -0.0867567 0)
(0.794287 0.010518 0)
(0.856206 -0.00124316 0)
(0.886983 -0.0117279 0)
(0.886588 -0.0185853 0)
(0.860722 -0.0222091 0)
(0.815846 -0.0234906 0)
(0.757863 0.022866 0)
(0.692323 0.0206375 0)
(0.625042 0.0173641 0)
(0.560646 0.0138526 0)
(0.501997 0.0106743 0)
(0.450416 0.0079972 0)
(0.406277 0.00579893 0)
(0.369398 0.00403915 0)
(0.339228 0.00267551 0)
(0.314999 0.00164925 0)
(0.295871 0.000894705 0)
(0.28102 0.000352373 0)
(0.269685 -2.66617e-05 0)
(0.261184 -0.000281016 0)
(0.254925 -0.000440601 0)
(0.2504 -0.000528401 0)
(0.247186 -0.000562247 0)
(0.244934 -0.000556316 0)
(0.243362 -0.000522148 0)
(0.24225 -0.000469197 0)
(0.241426 -0.000405147 0)
(0.240763 -0.00033603 0)
(0.240169 -0.000266394 0)
(0.239581 -0.000199468 0)
(0.238957 -0.000137376 0)
(0.238273 -8.13713e-05 0)
(0.237519 -3.20401e-05 0)
(0.236692 1.05006e-05 0)
(0.235796 4.64655e-05 0)
(0.234839 7.62717e-05 0)
(0.233831 0.000100468 0)
(0.232783 0.000119658 0)
(0.231706 0.000134473 0)
(0.23061 0.00014552 0)
(0.229506 0.000153386 0)
(0.228402 0.000158604 0)
(0.227304 0.000161673 0)
(0.22622 0.000163041 0)
(0.225153 0.000163131 0)
(0.224107 0.000162336 0)
(0.223084 0.000161124 0)
(0.222084 0.000160194 0)
(0.221105 0.000161923 0)
(0.220141 0.000166883 0)
(0.219187 0.000171212 0)
(0.218142 0.0002217 0)
(0.216762 0.000478046 0)
(1.85517 0.109568 0)
(1.76385 0.121645 0)
(1.65466 0.123612 0)
(1.53699 0.117908 0)
(1.41854 0.107464 0)
(1.30494 0.0945829 0)
(1.20008 0.0808747 0)
(1.10632 0.0674845 0)
(1.02466 0.0551567 0)
(0.955054 0.0442749 0)
(0.896777 0.03496 0)
(0.848715 0.0271773 0)
(0.809577 0.0208089 0)
(0.778037 0.0156978 0)
(0.752828 0.0116746 0)
(0.732794 0.00857247 0)
(0.716915 0.00623578 0)
(0.704316 0.00452356 0)
(0.69426 0.0033111 0)
(0.686142 0.00249025 0)
(0.679473 0.00196895 0)
(0.673867 0.00167045 0)
(0.669023 0.00153203 0)
(0.664713 0.00150362 0)
(0.660769 0.00154615 0)
(0.657069 0.00162997 0)
(0.653529 0.00173324 0)
(0.650093 0.00184046 0)
(0.646726 0.00194114 0)
(0.643408 0.00202867 0)
(0.640131 0.00209938 0)
(0.636894 0.0021517 0)
(0.6337 0.00218557 0)
(0.630555 0.00220193 0)
(0.627466 0.00220239 0)
(0.624442 0.00218889 0)
(0.621488 0.00216358 0)
(0.618611 0.00212873 0)
(0.615814 0.00208662 0)
(0.613102 0.00203964 0)
(0.610474 0.00199042 0)
(0.607931 0.00194224 0)
(0.605466 0.00190112 0)
(0.603084 0.00187309 0)
(0.600766 0.00188296 0)
(0.598499 0.00194498 0)
(0.595751 0.00229302 0)
(2.50135 0.171602 0)
(2.43023 0.213065 0)
(2.33465 0.235534 0)
(2.22291 0.241651 0)
(2.10202 0.235328 0)
(1.97788 0.220118 0)
(1.85568 0.199165 0)
(1.73968 0.175266 0)
(1.63284 0.150677 0)
(1.53687 0.127006 0)
(1.45243 0.10527 0)
(1.37941 0.0860178 0)
(1.31714 0.0694488 0)
(1.2646 0.055527 0)
(1.22063 0.04407 0)
(1.18401 0.034818 0)
(1.1536 0.0274798 0)
(1.12833 0.0217625 0)
(1.10726 0.0173891 0)
(1.08958 0.0141079 0)
(1.07462 0.0116967 0)
(1.06181 0.00996492 0)
(1.05069 0.00875209 0)
(1.0409 0.00792631 0)
(1.03215 0.00738127 0)
(1.02422 0.00703313 0)
(1.01694 0.00681715 0)
(1.01017 0.00668457 0)
(1.00382 0.00659958 0)
(0.997811 0.00653671 0)
(0.9921 0.00647858 0)
(0.986647 0.006414 0)
(0.981425 0.00633637 0)
(0.976415 0.00624249 0)
(0.971606 0.00613151 0)
(0.966986 0.00600426 0)
(0.96255 0.00586264 0)
(0.958291 0.00570929 0)
(0.954204 0.00554731 0)
(0.950283 0.00538022 0)
(0.946524 0.00521202 0)
(0.942921 0.00504754 0)
(0.939464 0.00489347 0)
(0.936155 0.00475858 0)
(0.932978 0.00465951 0)
(0.930027 0.00460875 0)
(0.926414 0.00476626 0)
(2.74987 0.216646 0)
(2.69322 0.284255 0)
(2.6199 0.326346 0)
(2.53544 0.346756 0)
(2.44262 0.349735 0)
(2.34371 0.338783 0)
(2.2418 0.31742 0)
(2.14026 0.289212 0)
(2.04201 0.257353 0)
(1.9493 0.224435 0)
(1.86373 0.192406 0)
(1.78621 0.162602 0)
(1.71709 0.135821 0)
(1.65621 0.112429 0)
(1.60309 0.0924722 0)
(1.55705 0.075786 0)
(1.51732 0.0620775 0)
(1.4831 0.0509909 0)
(1.45361 0.0421512 0)
(1.42815 0.0351939 0)
(1.40606 0.029782 0)
(1.38682 0.0256156 0)
(1.36993 0.0224353 0)
(1.35501 0.0200221 0)
(1.34172 0.0181953 0)
(1.32979 0.0168086 0)
(1.319 0.0157456 0)
(1.30917 0.0149156 0)
(1.30016 0.014249 0)
(1.29184 0.0136939 0)
(1.28412 0.0132119 0)
(1.27692 0.0127758 0)
(1.27019 0.0123666 0)
(1.26388 0.011972 0)
(1.25794 0.0115843 0)
(1.25234 0.0111993 0)
(1.24705 0.0108154 0)
(1.24205 0.0104327 0)
(1.23732 0.0100529 0)
(1.23284 0.00967836 0)
(1.2286 0.0093125 0)
(1.22457 0.00895964 0)
(1.22075 0.0086253 0)
(1.21714 0.00831621 0)
(1.2137 0.00804356 0)
(1.21058 0.00780693 0)
(1.20671 0.00761674 0)
(2.57564 0.261166 0)
(2.53591 0.340928 0)
(2.49334 0.390579 0)
(2.45067 0.417791 0)
(2.40485 0.427052 0)
(2.35359 0.420986 0)
(2.29725 0.402599 0)
(2.23727 0.375224 0)
(2.17524 0.342029 0)
(2.11282 0.305827 0)
(2.05158 0.268975 0)
(1.99286 0.233299 0)
(1.93762 0.200079 0)
(1.88649 0.170095 0)
(1.83974 0.143713 0)
(1.79744 0.120989 0)
(1.75945 0.101763 0)
(1.72551 0.0857396 0)
(1.69529 0.0725536 0)
(1.66844 0.0618161 0)
(1.64458 0.0531454 0)
(1.62339 0.0461869 0)
(1.60452 0.0406238 0)
(1.5877 0.0361813 0)
(1.57266 0.0326268 0)
(1.55916 0.0297674 0)
(1.54702 0.0274459 0)
(1.53605 0.0255366 0)
(1.52611 0.0239399 0)
(1.51707 0.0225787 0)
(1.50882 0.0213938 0)
(1.50127 0.0203402 0)
(1.49433 0.019385 0)