/*--------------------------------*- C++ -*----------------------------------*\
| =========                 |                                                 |
| \\      /  F ield         | OpenFOAM: The Open Source CFD Toolbox           |
|  \\    /   O peration     | Version:  2406                                  |
|   \\  /    A nd           | Website:  www.openfoam.com                      |
|    \\/     M anipulation  |                                                 |
\*---------------------------------------------------------------------------*/
FoamFile
{
    version     2.0;
    format      ascii;
    arch        "LSB;label=32;scalar=64";
    class       volScalarField;
    location    "77";
    object      p;
}
// * * * * * * * * * * * * * * * * * * * * * * * * * * * * * * * * * * * * * //

dimensions      [0 2 -2 0 0 0 0];

internalField   nonuniform List<scalar> 
1800
(
0.0843289
0.0851912
0.0856642
0.085498
0.0848648
0.0838167
0.0822749
0.0801311
0.0772874
0.0735721
0.0861855
0.086193
0.0861611
0.0858695
0.0852173
0.0841672
0.0826696
0.0806655
0.0781346
0.0751076
0.0892653
0.0884858
0.087898
0.0874941
0.0869156
0.086003
0.0847551
0.0832065
0.0814477
0.0797218
0.0933032
0.0921338
0.0912167
0.0907624
0.0903191
0.0896437
0.0887635
0.0877693
0.0867649
0.0859117
0.0978842
0.0965467
0.0954985
0.0950794
0.0948187
0.0944347
0.0939622
0.0935076
0.0931523
0.09299
0.102315
0.100945
0.0999596
0.0996983
0.0996641
0.0995779
0.099486
0.0994915
0.0996514
0.100013
0.105837
0.10459
0.103842
0.103815
0.104
0.104167
0.104379
0.104723
0.105234
0.105936
0.107828
0.106979
0.106629
0.106809
0.107127
0.107462
0.107873
0.108417
0.109116
0.109984
0.107992
0.107963
0.108169
0.108482
0.10882
0.109204
0.109677
0.110266
0.110991
0.111869
0.106976
0.107736
0.108363
0.108744
0.10908
0.10948
0.109962
0.110541
0.111243
0.112089
0.0726602
0.0726398
0.0726151
0.0725912
0.0725671
0.0725418
0.072515
0.0724867
0.0724564
0.0724232
0.0723855
0.0723409
0.0722862
0.0722174
0.0721306
0.0720236
0.0719007
0.0717795
0.0716987
0.0717217
0.0719362
0.072463
0.0734834
0.0752532
0.0780656
0.0822194
0.0880171
0.0955404
0.104426
0.113928
0.123005
0.130521
0.135664
0.137422
0.134805
0.0726842
0.0726622
0.0726394
0.0726185
0.0725965
0.0725728
0.0725479
0.0725219
0.0724948
0.0724663
0.0724355
0.0724014
0.0723628
0.0723186
0.0722676
0.072207
0.0721325
0.0720425
0.0719438
0.0718567
0.0718164
0.0718949
0.0722819
0.0733838
0.0757758
0.0799091
0.0858593
0.0934283
0.102218
0.111528
0.120515
0.128028
0.132882
0.134111
0.13104
0.0727081
0.0726806
0.0726572
0.0726379
0.0726168
0.0725936
0.0725694
0.0725448
0.0725203
0.0724961
0.0724722
0.0724488
0.0724255
0.0724008
0.072369
0.0723184
0.0722302
0.072079
0.0718311
0.0714584
0.0709819
0.0705609
0.0705799
0.0715669
0.074027
0.0781231
0.08382
0.091042
0.0994306
0.108225
0.116447
0.122945
0.12657
0.126397
0.121833
0.0727059
0.0726722
0.0726469
0.0726266
0.0726038
0.0725788
0.0725531
0.0725277
0.0725037
0.0724821
0.0724638
0.0724501
0.0724406
0.0724288
0.0724021
0.0723407
0.0722155
0.0719895
0.0716211
0.0710926
0.0704751
0.0700054
0.0700145
0.0709083
0.0731728
0.0770215
0.0824165
0.0891687
0.0968097
0.104529
0.111267
0.115835
0.117082
0.114122
0.106548
0.0726447
0.0726085
0.0725832
0.072562
0.0725372
0.0725101
0.0724825
0.0724558
0.0724322
0.0724135
0.0724017
0.0723988
0.0724017
0.0723991
0.0723765
0.0723158
0.072188
0.0719554
0.0715848
0.0710706
0.0704837
0.0700418
0.0701046
0.0710944
0.073359
0.0770604
0.0821245
0.0882503
0.0948506
0.101016
0.105585
0.107272
0.104862
0.0974537
0.0849026
0.0724834
0.0724567
0.0724423
0.0724283
0.0724081
0.0723843
0.0723599
0.0723364
0.0723177
0.0723067
0.0723046
0.0723128
0.0723267
0.0723345
0.0723252
0.0722859
0.0721857
0.071983
0.0716568
0.0712286
0.0708009
0.0706041
0.0709727
0.0722544
0.0747151
0.0784468
0.0832856
0.0887899
0.0942224
0.0985574
0.10054
0.0987992
0.0920333
0.0790548
0.0596524
0.072171
0.0721883
0.0722197
0.0722381
0.0722403
0.0722342
0.072225
0.0722163
0.0722124
0.0722159
0.0722263
0.0722446
0.0722707
0.0722954
0.0723032
0.0722795
0.0722089
0.0720788
0.0718976
0.0717239
0.0716905
0.0720221
0.0730049
0.0749078
0.0778941
0.0819322
0.0867301
0.0917171
0.0960326
0.0985493
0.0978748
0.0925498
0.0811886
0.0624174
0.0362538
0.0716061
0.0717898
0.0719601
0.0720619
0.0721125
0.072139
0.0721521
0.072159
0.0721702
0.0721891
0.0722123
0.0722408
0.0722757
0.0723204
0.0723797
0.0724542
0.0725493
0.0726872
0.0729137
0.0733148
0.0740315
0.0752582
0.0772063
0.0800361
0.0837824
0.0882924
0.0931874
0.0978493
0.101385
0.102626
0.0999233
0.0914561
0.0745878
0.0479728
0.0127034
0.0704015
0.0713077
0.0718354
0.0720249
0.0721129
0.0721742
0.0722033
0.072212
0.0722224
0.0722494
0.0723045
0.0724
0.07255
0.0727705
0.0730806
0.0735023
0.074067
0.074822
0.0758305
0.0771779
0.0789775
0.0813592
0.0844353
0.0882504
0.0927345
0.0976716
0.102682
0.107223
0.110545
0.111684
0.109019
0.100476
0.080353
0.0449805
-0.0179731
0.0677688
0.0708653
0.0720662
0.0721117
0.0721308
0.0722496
0.0723488
0.072433
0.0725574
0.072753
0.0730366
0.0734312
0.0739652
0.0746667
0.0755638
0.0766876
0.0780759
0.079773
0.0818293
0.0843002
0.0872448
0.0907141
0.094729
0.0992503
0.104156
0.109228
0.114161
0.118577
0.122027
0.124025
0.123726
0.120179
0.108346
0.0833393
-0.0060415
0.0703186
0.0720753
0.0729901
0.0728028
0.0727531
0.0730221
0.0733818
0.0737798
0.0742784
0.0749211
0.0757302
0.0767318
0.0779556
0.079426
0.0811633
0.0831891
0.0855273
0.0882025
0.0912356
0.0946408
0.0984227
0.102569
0.10704
0.111752
0.11657
0.121312
0.125767
0.129731
0.13304
0.135631
0.13748
0.13891
0.139352
0.140632
0.125956
0.073043
0.073504
0.0744683
0.074941
0.0753825
0.0760641
0.0769038
0.0778453
0.0789261
0.0801943
0.0816804
0.0834068
0.085391
0.0876431
0.0901691
0.0929742
0.0960618
0.0994302
0.103068
0.106953
0.111049
0.115304
0.119644
0.123971
0.128161
0.132081
0.135605
0.138655
0.141225
0.143439
0.145548
0.148037
0.151234
0.155871
0.158529
0.07865
0.0787899
0.0796395
0.0804559
0.0812535
0.0822673
0.0835284
0.0849822
0.086624
0.088485
0.0905887
0.0929415
0.0955396
0.0983745
0.101435
0.104708
0.108173
0.111803
0.115561
0.119398
0.123255
0.127064
0.130745
0.134212
0.137374
0.140154
0.142496
0.144388
0.145886
0.147139
0.14841
0.150115
0.152684
0.156582
0.160071
0.0854789
0.0857452
0.0866202
0.087734
0.0889754
0.0904382
0.0921558
0.0940923
0.0962305
0.0985809
0.101148
0.103921
0.106877
0.109994
0.113244
0.116597
0.120013
0.123449
0.126852
0.130167
0.133333
0.136291
0.138985
0.141367
0.143397
0.145051
0.146325
0.147235
0.147837
0.148242
0.148651
0.149399
0.150921
0.15348
0.155874
0.0931585
0.0937953
0.0948918
0.0962887
0.0978824
0.0996816
0.101706
0.103943
0.106372
0.10898
0.111749
0.11465
0.11765
0.120711
0.123793
0.126851
0.129841
0.132712
0.13542
0.137921
0.140178
0.142163
0.143861
0.14527
0.146397
0.147258
0.147867
0.148236
0.148383
0.148361
0.148317
0.148542
0.149402
0.150973
0.152503
0.100644
0.101606
0.102907
0.104485
0.106277
0.108265
0.110451
0.112818
0.115337
0.117975
0.120698
0.123468
0.12624
0.128972
0.131617
0.134133
0.136481
0.138629
0.140554
0.142242
0.143689
0.144901
0.145893
0.146693
0.147331
0.147831
0.148198
0.148415
0.14846
0.148354
0.148215
0.148305
0.148846
0.149922
0.150935
0.10686
0.108034
0.109464
0.111125
0.112982
0.11501
0.117193
0.119504
0.12191
0.124373
0.126851
0.129303
0.131684
0.133953
0.136073
0.138016
0.139763
0.141306
0.142648
0.143797
0.144769
0.145585
0.146269
0.146848
0.147346
0.147776
0.148129
0.148368
0.148464
0.148434
0.148381
0.148515
0.149034
0.14986
0.15036
0.111038
0.112289
0.113738
0.115371
0.117166
0.119099
0.121147
0.123282
0.12547
0.127674
0.129856
0.131975
0.133994
0.135884
0.137621
0.139194
0.1406
0.141845
0.142941
0.143901
0.144739
0.145472
0.146115
0.146684
0.147188
0.147631
0.148003
0.148282
0.148457
0.148555
0.148674
0.148965
0.149497
0.150027
0.150162
0.112912
0.114123
0.1155
0.117033
0.118706
0.1205
0.122393
0.12436
0.126371
0.128395
0.130398
0.132345
0.134206
0.135955
0.137573
0.139054
0.140399
0.141611
0.1427
0.143673
0.144535
0.145294
0.145961
0.146546
0.14706
0.147508
0.147884
0.148187
0.148429
0.148649
0.148923
0.149325
0.149815
0.150143
0.150137
0.113089
0.114249
0.115566
0.117034
0.11864
0.120369
0.1222
0.124111
0.126074
0.128062
0.130042
0.131982
0.13385
0.13562
0.137269
0.138785
0.140163
0.141406
0.14252
0.143515
0.144397
0.145177
0.145865
0.146467
0.146993
0.147442
0.147816
0.148124
0.148397
0.14868
0.149035
0.149492
0.149965
0.150231
0.150202
0.127678
0.116477
0.102031
0.0854297
0.0678201
0.0502194
0.0334292
0.0180187
0.00433885
-0.00745055
0.123505
0.111942
0.0972555
0.0805852
0.0630597
0.0456492
0.0291204
0.0140161
0.000643043
-0.0109005
0.112799
0.0998907
0.0842709
0.0672339
0.0498465
0.032937
0.0171667
0.00298747
-0.00939536
-0.0199775
0.0945685
0.0791596
0.0619826
0.0445131
0.0275771
0.0117273
-0.00253781
-0.0149286
-0.0254312
-0.0341959
0.068038
0.0489084
0.0300812
0.0127592
-0.00301248
-0.0170517
-0.0289754
-0.0387009
-0.0464753
-0.0526446
0.0350634
0.0102265
-0.00999969
-0.0260805
-0.0397666
-0.0511013
-0.0596867
-0.0657884
-0.0700095
-0.0728817
0.0014265
-0.0322423
-0.0541947
-0.068467
-0.079534
-0.0871911
-0.0911208
-0.0923652
-0.0920948
-0.0910393
-0.0364774
-0.0776198
-0.0980273
-0.107469
-0.112949
-0.114511
-0.112588
-0.108794
-0.104335
-0.0998152
-0.105048
-0.13073
-0.133588
-0.130762
-0.126384
-0.121445
-0.116297
-0.111147
-0.105931
-0.100606
-0.180548
-0.159414
-0.14179
-0.13661
-0.13052
-0.123597
-0.117085
-0.111398
-0.106553
-0.101949
-0.017296
-0.0254506
-0.0323131
-0.0380296
-0.0426342
-0.0461976
-0.0488312
-0.0506472
-0.0517416
-0.0521978
-0.0520916
-0.0514911
-0.0504551
-0.0490332
-0.0472671
-0.0451924
-0.0428413
-0.0402444
-0.0374334
-0.0344456
-0.0313273
-0.0281379
-0.0249508
-0.0218505
-0.0189248
-0.0162507
-0.0138805
-0.0118296
-0.0100699
-0.0085505
-0.00722701
-0.0060723
-0.00507395
-0.0042201
-0.00349009
-0.0207344
-0.0289896
-0.0357427
-0.041159
-0.0453989
-0.0486023
-0.0508993
-0.052406
-0.05322
-0.0534234
-0.0530882
-0.0522772
-0.0510442
-0.0494343
-0.047486
-0.0452336
-0.0427096
-0.0399476
-0.0369846
-0.0338638
-0.0306386
-0.0273752
-0.0241536
-0.0210636
-0.0181924
-0.0156082
-0.0133558
-0.0114324
-0.00977827
-0.00832469
-0.0070344
-0.00590145
-0.00492762
-0.00410367
-0.00340389
-0.0288781
-0.0362527
-0.0422709
-0.0471137
-0.0509302
-0.0538366
-0.0559307
-0.0572987
-0.0580146
-0.0581419
-0.0577348
-0.0568405
-0.0554989
-0.0537435
-0.0516041
-0.0491089
-0.0462884
-0.0431782
-0.0398223
-0.0362763
-0.0326099
-0.0289079
-0.0252683
-0.0217953
-0.0185869
-0.0157207
-0.01324
-0.0111398
-0.0093732
-0.00788328
-0.00662451
-0.00556244
-0.00466834
-0.00390671
-0.00324419
-0.0414343
-0.0473763
-0.0522355
-0.0561568
-0.0592279
-0.0615317
-0.0631537
-0.064172
-0.0646519
-0.0646472
-0.0642006
-0.0633425
-0.0620921
-0.0604603
-0.0584537
-0.0560781
-0.0533414
-0.0502574
-0.0468488
-0.0431529
-0.0392248
-0.0351402
-0.0309954
-0.0269017
-0.0229753
-0.0193236
-0.0160301
-0.013143
-0.0106744
-0.00861027
-0.00691943
-0.00555987
-0.00448517
-0.00364301
-0.00298002
-0.0575514
-0.0615243
-0.0648007
-0.0674665
-0.0695398
-0.0710645
-0.0721023
-0.0727028
-0.0729035
-0.0727388
-0.0722394
-0.0714253
-0.0703026
-0.0688654
-0.0671021
-0.0649999
-0.0625483
-0.0597412
-0.0565794
-0.0530734
-0.0492482
-0.0451477
-0.0408373
-0.036404
-0.0319507
-0.027587
-0.023417
-0.0195284
-0.0159855
-0.0128295
-0.0100848
-0.00776504
-0.00587132
-0.00438456
-0.00326268
-0.0748863
-0.0765048
-0.0779554
-0.079179
-0.0801111
-0.080768
-0.0811881
-0.0813847
-0.0813556
-0.0811026
-0.0806341
-0.0799561
-0.0790643
-0.0779404
-0.0765565
-0.0748809
-0.0728841
-0.0705414
-0.0678347
-0.0647535
-0.0612989
-0.0574871
-0.0533546
-0.0489599
-0.0443809
-0.0397083
-0.035035
-0.0304456
-0.0260097
-0.0217838
-0.017822
-0.0141845
-0.0109359
-0.00813633
-0.00582549
-0.0898197
-0.0891708
-0.0891051
-0.0892007
-0.0892284
-0.0891713
-0.0890547
-0.0888824
-0.0886464
-0.0883373
-0.0879463
-0.0874648
-0.0868783
-0.0861614
-0.0852751
-0.0841731
-0.0828063
-0.0811291
-0.0790989
-0.0766809
-0.0738492
-0.0705945
-0.0669298
-0.0628942
-0.0585521
-0.0539836
-0.049274
-0.0444964
-0.0396991
-0.0349073
-0.030139
-0.0254287
-0.0208442
-0.0164926
-0.012508
-0.0959888
-0.0940358
-0.0934052
-0.0931812
-0.0930151
-0.092868
-0.0927253
-0.0925727
-0.0924133
-0.0922527
-0.0920881
-0.0919119
-0.0917117
-0.0914657
-0.0911395
-0.090688
-0.0900589
-0.0891944
-0.0880334
-0.0865143
-0.0845801
-0.0821879
-0.0793217
-0.0760019
-0.072285
-0.0682537
-0.064002
-0.0596055
-0.0550931
-0.0504399
-0.0455887
-0.0404865
-0.0351274
-0.029586
-0.0240256
-0.0962587
-0.0945611
-0.0941061
-0.0938679
-0.0936489
-0.0934763
-0.0933447
-0.0932388
-0.0931634
-0.0931293
-0.0931407
-0.0931941
-0.0932814
-0.0933851
-0.0934788
-0.0935287
-0.0934956
-0.0933273
-0.0929614
-0.0923247
-0.0913404
-0.0899377
-0.0880705
-0.0857346
-0.0829732
-0.0798814
-0.0765812
-0.0731694
-0.0696585
-0.0659596
-0.0619087
-0.0573199
-0.0520568
-0.0460979
-0.0395671
-0.0966199
-0.0946292
-0.0940181
-0.093787
-0.0936324
-0.093503
-0.0933926
-0.093303
-0.0932435
-0.0932275
-0.0932675
-0.0933715
-0.0935378
-0.0937556
-0.0940033
-0.0942591
-0.0944978
-0.0946823
-0.0947596
-0.0946597
-0.0943009
-0.0936069
-0.0925262
-0.0910432
-0.0891926
-0.0870864
-0.0849041
-0.0828043
-0.0808164
-0.0787948
-0.0764368
-0.0733549
-0.0692032
-0.0638012
-0.0571857
-0.0945429
-0.094169
-0.0939012
-0.093753
-0.0936404
-0.0935356
-0.09344
-0.0933638
-0.0933177
-0.0933132
-0.0933624
-0.0934741
-0.0936508
-0.0938816
-0.0941445
-0.094426
-0.0947138
-0.0949821
-0.0951937
-0.0952884
-0.0951801
-0.0947885
-0.0940683
-0.0930125
-0.0916691
-0.0901889
-0.0888389
-0.0878774
-0.0874048
-0.08728
-0.0870919
-0.0862239
-0.0840485
-0.0801437
-0.0743907
-0.0937358
-0.0937046
-0.0936357
-0.0935746
-0.0935171
-0.0934562
-0.0933974
-0.0933518
-0.0933315
-0.0933482
-0.0934123
-0.0935321
-0.0937092
-0.0939336
-0.0941913
-0.0944719
-0.0947627
-0.0950418
-0.0952708
-0.0953861
-0.0953068
-0.0949583
-0.0942971
-0.0933136
-0.0920603
-0.0907363
-0.0897313
-0.0894593
-0.0901285
-0.0916467
-0.0935326
-0.0949645
-0.0950533
-0.0931393
-0.0889135
-0.0933959
-0.0934114
-0.0934083
-0.0933949
-0.0933775
-0.0933532
-0.0933251
-0.0933011
-0.0932937
-0.0933169
-0.0933822
-0.0934983
-0.0936697
-0.0938921
-0.0941525
-0.0944321
-0.0947111
-0.0949672
-0.0951648
-0.0952478
-0.095142
-0.0947671
-0.0940691
-0.0930389
-0.0917236
-0.0903393
-0.0893309
-0.0892711
-0.0905526
-0.0932058
-0.0967234
-0.100086
-0.102154
-0.102103
-0.0995061
-0.0932128
-0.0932425
-0.0932598
-0.0932667
-0.0932708
-0.0932711
-0.0932676
-0.0932646
-0.0932698
-0.0932939
-0.0933477
-0.0934416
-0.0935819
-0.093767
-0.0939854
-0.0942214
-0.0944578
-0.0946729
-0.0948353
-0.0948977
-0.0947975
-0.0944652
-0.0938417
-0.0928896
-0.0916105
-0.0902178
-0.0892967
-0.089438
-0.0910368
-0.0942785
-0.0987178
-0.103219
-0.106487
-0.107622
-0.106178
-0.0931262
-0.0931576
-0.0931794
-0.0931927
-0.0932055
-0.0932181
-0.0932295
-0.0932412
-0.0932572
-0.093283
-0.0933261
-0.0933953
-0.0934967
-0.0936297
-0.0937864
-0.0939556
-0.0941247
-0.0942789
-0.094397
-0.0944471
-0.0943877
-0.0941786
-0.0937782
-0.0931256
-0.0921603
-0.0910137
-0.0901847
-0.0903994
-0.0923685
-0.0962449
-0.101344
-0.106358
-0.109975
-0.111322
-0.11009
-0.0930989
-0.0931261
-0.0931464
-0.0931612
-0.0931763
-0.0931933
-0.093212
-0.0932324
-0.093256
-0.093285
-0.0933235
-0.093377
-0.0934498
-0.0935414
-0.093646
-0.0937572
-0.0938689
-0.093976
-0.0940707
-0.0941381
-0.0941576
-0.0941117
-0.0939793
-0.093699
-0.0931904
-0.0924987
-0.0919353
-0.0921585
-0.0940624
-0.0981
-0.103574
-0.108861
-0.11259
-0.113824
-0.112293
-0.0931027
-0.093124
-0.0931419
-0.0931566
-0.0931727
-0.0931911
-0.0932126
-0.0932373
-0.0932656
-0.0932981
-0.0933364
-0.0933833
-0.093441
-0.0935089
-0.0935843
-0.0936628
-0.0937432
-0.093826
-0.0939113
-0.093996
-0.0940767
-0.0941523
-0.0942184
-0.0942414
-0.0941621
-0.0939541
-0.0937265
-0.0939123
-0.0953424
-0.0987729
-0.104007
-0.109507
-0.113272
-0.114162
-0.112322
-0.0931193
-0.0931349
-0.0931507
-0.0931657
-0.0931824
-0.0932018
-0.0932246
-0.0932512
-0.0932821
-0.0933175
-0.0933579
-0.0934039
-0.0934561
-0.0935148
-0.0935784
-0.0936446
-0.0937125
-0.0937846
-0.0938638
-0.0939543
-0.0940616
-0.0941932
-0.0943532
-0.0945335
-0.094707
-0.0948387
-0.0949314
-0.0951426
-0.0959357
-0.097993
-0.101674
-0.106374
-0.110457
-0.112129
-0.110626
-0.0931367
-0.0931479
-0.0931622
-0.0931785
-0.0931967
-0.0932174
-0.0932414
-0.0932693
-0.0933014
-0.0933379
-0.093379
-0.0934247
-0.0934748
-0.0935287
-0.0935858
-0.0936457
-0.0937089
-0.0937772
-0.0938545
-0.093947
-0.0940633
-0.0942126
-0.0944036
-0.0946405
-0.0949191
-0.0952267
-0.0955601
-0.0959623
-0.0965447
-0.0974821
-0.0990192
-0.101334
-0.104036
-0.105919
-0.105507
-0.0931474
-0.0931574
-0.093173
-0.0931908
-0.0932104
-0.0932324
-0.0932574
-0.0932862
-0.0933193
-0.0933571
-0.0933996
-0.0934468
-0.0934981
-0.0935527
-0.0936097
-0.0936687
-0.0937304
-0.0937967
-0.0938718
-0.0939618
-0.0940751
-0.0942213
-0.0944108
-0.0946546
-0.0949651
-0.0953622
-0.0958832
-0.096578
-0.0974568
-0.0984325
-0.0993726
-0.100215
-0.10084
-0.100794
-0.0993418
-0.00286235
-0.00231965
-0.00185017
-0.00144768
-0.00111055
-0.000837003
-0.000621206
-0.000455224
-0.0003229
-0.000155923
-0.00280135
-0.00227813
-0.00182366
-0.00143009
-0.00109358
-0.000812657
-0.000587694
-0.000419563
-0.000297682
-0.000163727
-0.00266687
-0.00216895
-0.00173869
-0.0013584
-0.00101973
-0.000727166
-0.000492432
-0.000330907
-0.000243998
-0.000168614
-0.00244694
-0.00199969
-0.00160043
-0.00122979
-0.000889786
-0.000589774
-0.000348893
-0.000196128
-0.000160477
-0.000169805
-0.0024429
-0.00185014
-0.00140726
-0.00104766
-0.000727064
-0.000436395
-0.000200435
-5.95277e-05
-6.36491e-05
-0.000166964
-0.00401087
-0.00266128
-0.00170805
-0.00105575
-0.000605129
-0.000286036
-6.67656e-05
3.87644e-05
7.10747e-06
-0.000184966
-0.00902409
-0.00614127
-0.003899
-0.00226717
-0.00115831
-0.000465781
-7.1427e-05
6.48132e-05
7.64182e-05
-0.000398206
-0.0186754
-0.0137834
-0.00956325
-0.00615418
-0.00359306
-0.00183952
-0.000731525
-0.000259482
0.000147663
-0.0011273
-0.0327193
-0.0258967
-0.019469
-0.0137752
-0.00905058
-0.00544607
-0.00282913
-0.00144985
0.000133581
-0.00279282
-0.0495881
-0.0413861
-0.0330439
-0.0250602
-0.0178663
-0.0118652
-0.00699855
-0.00403153
-0.000265211
-0.00536258
-0.0669477
-0.0581768
-0.0485775
-0.0387465
-0.0292625
-0.0207699
-0.0132957
-0.0082201
-0.0015435
-0.00805123
-0.0823992
-0.073876
-0.0638087
-0.0528224
-0.0415847
-0.0309332
-0.0209943
-0.0136489
-0.00409898
-0.00989654
-0.0942587
-0.0865123
-0.0766221
-0.0651648
-0.0528384
-0.0406042
-0.0287453
-0.0193518
-0.00779955
-0.0103191
-0.102001
-0.095102
-0.0856714
-0.074173
-0.0612886
-0.0480407
-0.034948
-0.0239984
-0.011826
-0.00926152
-0.106272
-0.0998014
-0.0906683
-0.0791735
-0.0659434
-0.0520128
-0.0382207
-0.0262644
-0.0148779
-0.00703089
-0.108194
-0.101541
-0.0922353
-0.0804396
-0.0667151
-0.052088
-0.0377734
-0.0252
-0.0155871
-0.00405319
-0.107943
-0.100885
-0.0910872
-0.0786947
-0.0642074
-0.0486485
-0.0336246
-0.0205068
-0.0129231
-0.000572959
-0.106027
-0.0984676
-0.0879118
-0.0746677
-0.0592219
-0.0425477
-0.0265157
-0.0127067
-0.00672574
0.00341309
-0.101778
-0.0944099
-0.083645
-0.0697997
-0.0533582
-0.035501
-0.0181741
-0.00320988
0.00237496
0.0088977
-0.0957206
-0.0891897
-0.0790708
-0.0653047
-0.0485836
-0.0300609
-0.0116439
0.0033612
0.00944732
0.0151227
)
;

boundaryField
{
    inlet
    {
        type            zeroGradient;
    }
    outlet
    {
        type            fixedValue;
        value           uniform 0;
    }
    upperWall
    {
        type            zeroGradient;
    }
    lowerWall
    {
        type            zeroGradient;
    }
    frontAndBack
    {
        type            empty;
    }
}


// ************************************************************************* //
