/*--------------------------------*- C++ -*----------------------------------*\
| =========                 |                                                 |
| \\      /  F ield         | OpenFOAM: The Open Source CFD Toolbox           |
|  \\    /   O peration     | Version:  2406                                  |
|   \\  /    A nd           | Website:  www.openfoam.com                      |
|    \\/     M anipulation  |                                                 |
\*---------------------------------------------------------------------------*/
FoamFile
{
    version     2.0;
    format      ascii;
    arch        "LSB;label=32;scalar=64";
    class       surfaceScalarField;
    location    "77";
    object      phi;
}
// * * * * * * * * * * * * * * * * * * * * * * * * * * * * * * * * * * * * * //

dimensions      [0 3 -1 0 0 0 0];

oriented        oriented;

internalField   nonuniform List<scalar> 
3470
(
0.0193388
-0.000338826
0.0199227
-0.000583905
0.0206359
-0.00071321
0.0214542
-0.000818233
0.0223765
-0.00092228
0.0234105
-0.00103401
0.0245756
-0.00116512
0.0259153
-0.00133965
0.0274735
-0.00155827
-0.00209934
0.0295729
0.0509301
-0.000268946
0.0510098
-0.000663622
0.0512597
-0.00096311
0.0516727
-0.0012312
0.052251
-0.0015006
0.0530013
-0.00178428
0.0539341
-0.00209786
0.0550618
-0.00246739
0.0564286
-0.00292507
-0.00353667
0.0578659
0.0749864
-0.000255352
0.0750248
-0.000701968
0.0751579
-0.00109628
0.0753967
-0.00147001
0.0757473
-0.00185112
0.076217
-0.00225399
0.0768115
-0.00269235
0.0775297
-0.00318557
0.0783584
-0.00375385
-0.00441852
0.0792403
0.0909939
-0.000249282
0.0909949
-0.00070297
0.0910352
-0.0011365
0.0911307
-0.00156559
0.0912873
-0.00200768
0.0915077
-0.00247443
0.091792
-0.0029766
0.0921335
-0.00352708
0.0925179
-0.0041382
-0.00481882
0.0929182
0.0989809
-0.000230147
0.0989328
-0.000654873
0.098878
-0.00108173
0.0988317
-0.00151928
0.0987982
-0.0019742
0.0987771
-0.00245333
0.0987651
-0.0029646
0.0987542
-0.00351614
0.0987305
-0.00411445
-0.00476243
0.0986741
0.0989599
-0.000190067
0.098852
-0.000546953
0.0986984
-0.000928092
0.0985119
-0.00133281
0.0982942
-0.00175652
0.0980424
-0.00220148
0.0977509
-0.00267311
0.0974103
-0.00317553
0.0970066
-0.00371078
-0.00427844
0.0965226
0.0909308
-0.000120905
0.0907547
-0.000370817
0.0905019
-0.00067525
0.0901811
-0.00101201
0.0897896
-0.00136508
0.0893225
-0.00173433
0.0887721
-0.00212271
0.0881271
-0.00253055
0.0873729
-0.00295661
-0.00339848
0.086493
0.0748801
-9.83096e-07
0.0746306
-0.000121366
0.0742862
-0.000330843
0.0738451
-0.000570921
0.0733004
-0.000820361
0.072646
-0.00107985
0.0718729
-0.0013497
0.0709694
-0.00162696
0.0699212
-0.00190845
-0.00219099
0.0687137
0.0507871
0.000211935
0.0504878
0.000177961
0.0501076
4.93645e-05
0.0496292
-9.25828e-05
0.0490429
-0.000234057
0.0483389
-0.000375827
0.0475051
-0.000515853
0.0465288
-0.000650715
0.0453983
-0.000777957
-0.000895683
0.044103
0.0192119
0.0193899
0.0194393
0.0193467
0.0191126
0.0187368
0.018221
0.0175702
0.0167923
0.0158966
-1.53334e-05
1.5329e-05
-7.49179e-05
5.95783e-05
-0.000163433
8.85025e-05
-0.000265383
0.000101928
-0.000374347
0.000108931
-0.000488649
0.000114254
-0.000608256
0.000119543
-0.000733708
0.000125369
-0.000866082
0.000132274
-0.00100742
0.000141223
-0.00116134
0.000153812
-0.00133401
0.000172578
-0.00153566
0.000201598
-0.00178281
0.000247155
-0.00210163
0.000318857
-0.00253249
0.000430917
-0.00313356
0.00060112
-0.00397834
0.000844789
-0.00514066
0.00116232
-0.00666397
0.00152332
-0.00852125
0.00185733
-0.0105844
0.0020632
-0.012624
0.00203977
-0.0143445
0.00172065
-0.015446
0.00110169
-0.0156961
0.000250282
-0.0149994
-0.000696477
-0.0133697
-0.0016295
-0.0108378
-0.00253167
-0.00746636
-0.00337124
-0.00332039
-0.00414577
0.00151241
-0.00483264
0.00689015
-0.00537762
0.012599
-0.00570879
-0.00581713
0.0184162
-9.28555e-05
0.000108183
-0.00027787
0.000244579
-0.00051346
0.000324063
-0.000773971
0.000362388
-0.00104923
0.000384114
-0.00133699
0.000401912
-0.00163827
0.000420698
-0.00195587
0.000442805
-0.00229454
0.000470759
-0.00266196
0.000508449
-0.00307007
0.000561734
-0.00353666
0.000639024
-0.004087
0.000751861
-0.00475457
0.000914712
-0.00557942
0.00114373
-0.00660164
0.00145316
-0.00784747
0.00184695
-0.00930836
0.00230569
-0.0109181
0.00277211
-0.0125382
0.00314355
-0.0139623
0.0032816
-0.0149459
0.00304695
-0.0152569
0.00235103
-0.0147365
0.00120059
-0.0133614
-0.000273126
-0.0112527
-0.00185805
-0.00848296
-0.00346584
-0.0049886
-0.00512348
-0.000732811
-0.00678706
0.00429581
-0.00839954
0.0100147
-0.00986442
0.0162774
-0.0110952
0.0229228
-0.0120229
0.0297807
-0.0125665
-0.0126855
0.0366491
-0.000197289
0.000305475
-0.0005335
0.000580798
-0.000926526
0.000717082
-0.00134274
0.000778581
-0.00177222
0.000813549
-0.00221391
0.000843544
-0.00267008
0.000876786
-0.00314475
0.000917382
-0.00364377
0.000969652
-0.00417513
0.00103966
-0.00474895
0.00113539
-0.00537676
0.00126666
-0.00606956
0.00144451
-0.00683374
0.00167877
-0.00766403
0.00197392
-0.00853407
0.00232315
-0.00938626
0.00269915
-0.0101244
0.00304387
-0.0106149
0.00326278
-0.0107028
0.00323156
-0.0102424
0.0028215
-0.00913261
0.00193755
-0.00734976
0.000568544
-0.00500278
-0.00114603
-0.00220257
-0.00307295
0.00110678
-0.00516701
0.00506037
-0.00741911
0.00969556
-0.00975843
0.0149971
-0.0120884
0.0208993
-0.0143016
0.0273094
-0.0162744
0.0340991
-0.0178847
0.0411077
-0.0190314
0.0481677
-0.0196265
-0.0196137
0.0550961
-0.000316179
0.000621672
-0.000807245
0.0010719
-0.00134377
0.00125363
-0.0018851
0.00131991
-0.00242295
0.0013514
-0.00295762
0.00137821
-0.00349104
0.00141018
-0.00402489
0.00145119
-0.00455998
0.00150465
-0.00509551
0.00157507
-0.00562755
0.00166725
-0.00614655
0.00178544
-0.00663431
0.00193203
-0.00706001
0.00210425
-0.00737555
0.00228932
-0.00751251
0.00246004
-0.00738359
0.00257023
-0.00689036
0.00255073
-0.00593782
0.00231044
-0.00445263
0.00174667
-0.00241933
0.000788581
0.000103193
-0.000584579
0.00302172
-0.00234967
0.00635769
-0.00448179
0.0102059
-0.00692098
0.0146379
-0.00959884
0.0196633
-0.0124443
0.0252528
-0.0153478
0.0313375
-0.018173
0.0378144
-0.0207784
0.0445669
-0.0230268
0.051471
-0.0247888
0.0583944
-0.0259547
0.0651912
-0.0264232
-0.0261207
0.0716983
-0.000441457
0.00106316
-0.00106577
0.00169627
-0.00169625
0.00188417
-0.0022908
0.00191452
-0.00284568
0.00190633
-0.00336282
0.00189539
-0.0038426
0.00189
-0.00428212
0.0018907
-0.00467418
0.00189666
-0.00500678
0.00190752
-0.0052615
0.00192176
-0.00541122
0.00193487
-0.00541845
0.00193897
-0.00523495
0.00192045
-0.00480061
0.00185471
-0.00404507
0.00170427
-0.00289523
0.00142022
-0.00128963
0.000945047
0.000806083
0.000214721
0.00338382
-0.000830964
0.00643422
-0.0022617
0.00996382
-0.00411407
0.0139938
-0.00637957
0.0185344
-0.00902232
0.0235857
-0.0119722
0.0291148
-0.0151278
0.0350414
-0.0183709
0.0412599
-0.0215662
0.0476567
-0.0245697
0.0541237
-0.0272454
0.0605654
-0.0294684
0.0669052
-0.0311284
0.0730758
-0.0321252
0.078985
-0.0323323
-0.031633
0.0844974
-0.000568794
0.001632
-0.00127517
0.00240274
-0.00190317
0.00251225
-0.00242785
0.00243927
-0.00285905
0.00233761
-0.00320312
0.00223955
-0.00345994
0.00214687
-0.00362312
0.00205392
-0.00367958
0.00195305
-0.00361042
0.00183821
-0.00339054
0.00170162
-0.00298598
0.00152996
-0.00235367
0.00130626
-0.0014437
0.0010101
-0.000199347
0.000609978
0.00143501
6.95418e-05
0.00351226
-0.000657365
0.00608614
-0.00162913
0.00920055
-0.00289985
0.0128843
-0.00451484
0.0171311
-0.0065085
0.0219055
-0.00888844
0.0271525
-0.0116266
0.0327908
-0.0146605
0.0387152
-0.0178965
0.0448049
-0.0212175
0.0509298
-0.0244956
0.0569653
-0.0276016
0.0628073
-0.0304116
0.0683826
-0.0328206
0.0736493
-0.034735
0.0786089
-0.0360879
0.0832875
-0.0368037
0.0876896
-0.0367343
-0.0357458
0.0918025
-0.000698565
0.00233061
-0.00138626
0.00309053
-0.00183696
0.00296304
-0.00209313
0.00269555
-0.00219834
0.00244294
-0.00216543
0.00220678
-0.00199303
0.00197459
-0.00167297
0.00173395
-0.00118856
0.00146864
-0.000516149
0.00116568
0.000374087
0.000811146
0.00151922
0.000384549
0.00296442
-0.00013919
0.00476861
-0.000794297
0.00699767
-0.00161926
0.00971479
-0.00264779
0.0129697
-0.00391245
0.0167845
-0.00544411
0.0211533
-0.00726877
0.0260396
-0.00940127
0.0313713
-0.0118402
0.0370442
-0.0145613
0.0429304
-0.0175127
0.0488863
-0.0206164
0.0547636
-0.0237739
0.0604207
-0.0268745
0.0657312
-0.0298061
0.0705951
-0.0324653
0.074948
-0.0347645
0.0787699
-0.0366424
0.0820867
-0.0380518
0.0849828
-0.0389839
0.0875753
-0.0393961
0.0899886
-0.0391474
-0.0385158
0.0927588
-0.000816349
0.00314701
-0.00121495
0.00348924
-0.00112407
0.00287228
-0.000763246
0.00233485
-0.000228889
0.00190875
0.000476017
0.00150203
0.00136285
0.00108794
0.00244585
0.000651052
0.00374613
0.000168431
0.00529895
-0.000387157
0.00715601
-0.00104597
0.00937251
-0.00183202
0.0120001
-0.00276681
0.015077
-0.0038713
0.0186228
-0.00516509
0.0226404
-0.00666545
0.0271135
-0.00838563
0.0320022
-0.010333
0.0372403
-0.0125069
0.042735
-0.014896
0.0483691
-0.0174743
0.0540067
-0.0201989
0.0595022
-0.0230083
0.06471
-0.0258242
0.0694933
-0.0285571
0.0737319
-0.0311131
0.0773292
-0.0334033
0.0802173
-0.0353535
0.0823673
-0.0369144
0.0837993
-0.0380742
0.0846098
-0.0388623
0.0849862
-0.0393602
0.0852258
-0.0396355
0.0856055
-0.039527
-0.0405733
0.0876632
-0.000574972
0.00372203
0.000342373
0.00257197
0.00176926
0.00144548
0.00329129
0.000812913
0.00492204
0.000278105
0.00671534
-0.000291154
0.00871427
-0.000910895
0.0109585
-0.00159309
0.0134862
-0.0023592
0.0163289
-0.00322991
0.0195048
-0.00422182
0.0230221
-0.00534933
0.02688
-0.00662478
0.0310665
-0.00805777
0.0355557
-0.00965428
0.0403062
-0.011416
0.0452601
-0.0133396
0.0503428
-0.0154156
0.0554627
-0.0176269
0.0605139
-0.0199472
0.0653786
-0.0223391
0.0699331
-0.0247534
0.0740531
-0.0271283
0.0776208
-0.0293919
0.08053
-0.0314661
0.0826895
-0.0332727
0.0840273
-0.0347411
0.0844924
-0.0358185
0.0840624
-0.0364844
0.082754
-0.0367658
0.0806741
-0.0367823
0.0780728
-0.0367587
0.0756476
-0.0372101
0.0743973
-0.0382763
-0.0424495
0.0762736
0.00513273
-0.00141069
0.0088594
-0.00115468
0.0119297
-0.00162475
0.0149036
-0.00216097
0.0178996
-0.00271791
0.0209658
-0.00335722
0.0241487
-0.00409381
0.0274848
-0.00492916
0.0309951
-0.00586947
0.0346882
-0.00692296
0.0385623
-0.00809596
0.0426054
-0.00939239
0.0467943
-0.0108137
0.0510951
-0.0123585
0.0554625
-0.0140217
0.0598405
-0.015794
0.0641625
-0.0176616
0.0683517
-0.0196048
0.0723225
-0.0215977
0.0759819
-0.0236066
0.0792324
-0.0255896
0.0819748
-0.0274957
0.0841122
-0.0292656
0.0855534
-0.0308331
0.0862165
-0.0321292
0.086031
-0.0330871
0.0849403
-0.0336503
0.0829029
-0.0337811
0.0798929
-0.0334744
0.0758977
-0.0327705
0.070923
-0.0318076
0.0649947
-0.0308303
0.058469
-0.0306843
0.0528571
-0.0326644
-0.0447454
0.0551532
0.0311474
-0.00298517
0.0335627
-0.00357004
0.0360665
-0.0041285
0.0386848
-0.00477929
0.041453
-0.0054861
0.044353
-0.0062572
0.0473718
-0.00711253
0.0505027
-0.00806013
0.0537353
-0.00910199
0.0570517
-0.0102394
0.0604282
-0.0114724
0.0638347
-0.012799
0.0672348
-0.0142138
0.0705849
-0.0157086
0.0738347
-0.0172715
0.0769273
-0.0188867
0.0797994
-0.0205337
0.0823816
-0.022187
0.0845992
-0.0238153
0.0863736
-0.025381
0.0876234
-0.0268394
0.0882672
-0.0281395
0.0882261
-0.0292245
0.0874277
-0.0300347
0.0858095
-0.030511
0.0833239
-0.0306014
0.0799404
-0.0302669
0.0756484
-0.0294891
0.0704524
-0.0282783
0.0643591
-0.0266773
0.057332
-0.0247805
0.0491983
-0.0226965
0.0392279
-0.0207138
0.0253241
-0.0187604
-0.0194214
0.0591862
-0.00430539
0.0606865
-0.00507031
0.0623501
-0.00579212
0.0641329
-0.00656212
0.0660405
-0.0073937
0.0680635
-0.00828021
0.0701783
-0.0092273
0.0723595
-0.0102414
0.0745811
-0.0113236
0.0768137
-0.0124719
0.079024
-0.0136827
0.0811747
-0.0149497
0.0832243
-0.0162634
0.0851267
-0.017611
0.0868312
-0.018976
0.0882824
-0.0203379
0.0894205
-0.0216717
0.0901811
-0.0229476
0.0904965
-0.0241308
0.0902967
-0.0251811
0.089511
-0.0260538
0.0880722
-0.0267007
0.08592
-0.0270722
0.0830065
-0.0271212
0.0793028
-0.0268073
0.0748046
-0.0261032
0.0695369
-0.0249992
0.0635553
-0.0235075
0.0569403
-0.0216633
0.0497829
-0.01952
0.0421454
-0.0171431
0.0340085
-0.0145596
0.0250359
-0.0117411
0.0146017
-0.00832627
-0.00481966
0.0801183
-0.0051834
0.0810396
-0.00599155
0.0820461
-0.00679862
0.0831161
-0.0076321
0.0842326
-0.00851027
0.0853831
-0.00943069
0.0865478
-0.010392
0.0877022
-0.0113958
0.0888195
-0.0124408
0.0898699
-0.0135224
0.0908202
-0.014633
0.0916329
-0.0157624
0.0922668
-0.0168972
0.0926766
-0.0180208
0.092813
-0.0191124
0.0926229
-0.0201477
0.0920495
-0.0210983
0.0910339
-0.021932
0.0895162
-0.022613
0.0874383
-0.0231032
0.084748
-0.0233634
0.0814034
-0.0233561
0.0773795
-0.0230483
0.0726747
-0.0224164
0.0673178
-0.0214504
0.061373
-0.0201583
0.0549423
-0.0185685
0.0481642
-0.0167294
0.0412054
-0.0147045
0.0342446
-0.0125592
0.027427
-0.0103255
0.0207806
-0.00791328
0.0140604
-0.00502109
0.00690461
-0.00117049
0.00208491
0.0933021
-0.00556736
0.0936697
-0.00635914
0.094039
-0.00716786
0.0944015
-0.0079946
0.0947396
-0.00884836
0.0950378
-0.00972886
0.0952777
-0.0106319
0.0954359
-0.011554
0.0954852
-0.0124901
0.0953954
-0.0134326
0.0951328
-0.0143704
0.0946602
-0.0152899
0.0939373
-0.0161743
0.0929201
-0.0170036
0.0915623
-0.0177546
0.0898158
-0.0184012
0.0876322
-0.0189147
0.0849654
-0.0192652
0.0817749
-0.0194225
0.07803
-0.0193583
0.073715
-0.0190485
0.0688353
-0.0184763
0.0634227
-0.0176358
0.0575412
-0.0165349
0.0512894
-0.0151987
0.0448015
-0.0136703
0.0382437
-0.0120107
0.0318087
-0.0102944
0.0257044
-0.00860022
0.020123
-0.00697777
0.0151631
-0.0053656
0.0107363
-0.00348649
0.00656147
-0.000846294
0.00265249
0.00273836
0.00473738
0.0985633
-0.00545656
0.098388
-0.00618387
0.0981484
-0.00692827
0.0978368
-0.00768302
0.0974369
-0.00844845
0.0969303
-0.00922226
0.0962967
-0.00999829
0.095512
-0.0107693
0.094549
-0.0115271
0.0933775
-0.0122611
0.091965
-0.0129579
0.0902769
-0.0136017
0.0882766
-0.014174
0.0859272
-0.0146542
0.0831929
-0.0150202
0.0800407
-0.015249
0.0764444
-0.0153184
0.0723872
-0.015208
0.0678667
-0.0149021
0.0628995
-0.0143911
0.0575251
-0.0136741
0.0518097
-0.0127609
0.0458477
-0.0116738
0.0397608
-0.0104481
0.0336944
-0.00913222
0.0278102
-0.00778612
0.0222802
-0.00648075
0.0172803
-0.00529452
0.0129695
-0.00428945
0.00942478
-0.00343301
0.00655222
-0.00249303
0.00410495
-0.0010392
0.00188794
0.00137066
0.00025722
0.00436903
0.00499459
0.0959404
-0.0048743
0.0952459
-0.00548936
0.0944296
-0.00611203
0.0934802
-0.00673359
0.0923809
-0.00734917
0.0911123
-0.00795363
0.0896534
-0.00853939
0.0879814
-0.00909731
0.0860715
-0.00961718
0.0838977
-0.0100873
0.0814339
-0.0104941
0.0786547
-0.0108225
0.0755374
-0.0110567
0.072064
-0.0111807
0.0682232
-0.0111795
0.0640144
-0.0110402
0.0594502
-0.0107541
0.0545597
-0.0103176
0.0493919
-0.00973432
0.044017
-0.00901618
0.0385266
-0.00818368
0.0330314
-0.00726573
0.0276558
-0.00629818
0.0225292
-0.00532144
0.0177755
-0.00437859
0.0135067
-0.00351729
0.00982213
-0.0027962
0.00680174
-0.00227413
0.00446445
-0.00195215
0.00270167
-0.00167023
0.00128258
-0.00107391
2.83428e-05
0.000215067
-0.000923462
0.00232246
-0.00102429
0.00446983
0.00397028
0.0854703
-0.00385159
0.0842894
-0.00430846
0.0829371
-0.00475974
0.0814002
-0.00519668
0.0796634
-0.00561237
0.07771
-0.00600026
0.0755232
-0.00635261
0.0730866
-0.00666073
0.0703849
-0.00691546
0.0674051
-0.00710743
0.0641382
-0.00722717
0.0605813
-0.00726561
0.0567394
-0.00721485
0.0526276
-0.00706899
0.0482733
-0.00682519
0.0437177
-0.00648464
0.0390171
-0.0060535
0.034243
-0.00554346
0.0294805
-0.00497187
0.0248253
-0.00436097
0.0203777
-0.00373603
0.0162347
-0.0031228
0.0124801
-0.00254358
0.00917336
-0.00201476
0.00634501
-0.00155027
0.00400326
-0.00117556
0.00214561
-0.000938589
0.000742138
-0.000870698
-0.000300931
-0.000909129
-0.00113207
-0.000839122
-0.00184558
-0.000360422
-0.00236049
0.00072995
-0.00234379
0.00230572
-0.00139853
0.0035245
0.00257173
0.0673323
-0.00247019
0.0657638
-0.00273992
0.0639969
-0.0029929
0.0620224
-0.0032221
0.0598316
-0.0034216
0.0574177
-0.00358636
0.0547765
-0.00371144
0.0519079
-0.00379212
0.0488168
-0.00382439
0.0455147
-0.00380536
0.042021
-0.00373347
0.0383642
-0.00360874
0.0345824
-0.0034331
0.0307241
-0.00321067
0.0268469
-0.00294799
0.0230164
-0.00265418
0.0193033
-0.00234046
0.0157792
-0.00201935
0.0125114
-0.0017041
0.00955707
-0.00140669
0.00695604
-0.00113504
0.00472679
-0.000893597
0.0028626
-0.000679435
0.00133539
-0.000487592
0.000109797
-0.000324723
-0.000851075
-0.000214737
-0.00159158
-0.000198156
-0.00217614
-0.00028621
-0.00267738
-0.000407973
-0.0031148
-0.000401787
-0.00339808
-7.72257e-05
-0.00332197
0.000653763
-0.00261923
0.00160287
-0.00123367
0.00213883
0.00133804
0.0426344
-0.00100161
0.0409874
-0.00109286
0.0391608
-0.00116636
0.0371582
-0.0012195
0.0349873
-0.00125068
0.0326602
-0.00125927
0.0301941
-0.00124534
0.0276115
-0.00120961
0.0249409
-0.00115378
0.0222162
-0.00108065
0.0194768
-0.000994034
0.0167665
-0.000898522
0.0141325
-0.000799036
0.0116218
-0.000700066
0.00927829
-0.000604466
0.00713938
-0.000515287
0.00523246
-0.000433578
0.00356963
-0.000356547
0.00214895
-0.000283461
0.000958275
-0.000216069
-2.00583e-05
-0.000156759
-0.000809637
-0.000104067
-0.00143272
-5.63915e-05
-0.00190708
-1.32664e-05
-0.00225456
2.27241e-05
-0.00250806
3.87123e-05
-0.0027221
1.58286e-05
-0.00295751
-5.08715e-05
-0.00323401
-0.000131556
-0.00347963
-0.000156245
-0.00352107
-3.58585e-05
-0.00313806
0.000270665
-0.00219564
0.000660352
-0.000885807
0.000828895
0.000452209
0.014895
0.0138021
0.0126358
0.0114163
0.0101656
0.00890632
0.00766098
0.00645136
0.00529758
0.00421692
0.00322288
0.00232436
0.00152532
0.000825246
0.000220774
-0.000294519
-0.000728105
-0.00108466
-0.00136813
-0.00158421
-0.00174097
-0.00184505
-0.00190144
-0.00191471
-0.001892
-0.00185329
-0.00183748
-0.00188836
-0.00201993
-0.00217619
-0.00221206
-0.00194141
-0.00128109
-0.000452209
0.0241274
-0.00571109
0.0295287
-0.00540128
0.0344523
-0.00492353
0.038783
-0.00433058
0.0424572
-0.00367412
0.0454519
-0.00299461
0.0477742
-0.00232212
0.0494532
-0.00167883
0.0505305
-0.00107702
-0.000519363
0.0510501
0.0433184
-0.0123803
0.0495977
-0.0116806
0.0553374
-0.0106631
0.0604455
-0.00943855
0.0648818
-0.00811027
0.0686428
-0.0067555
0.0717517
-0.0054309
0.0742505
-0.00417737
0.0761931
-0.00301938
-0.00196559
0.0776395
0.0616922
-0.0189763
0.0677649
-0.0177531
0.0731856
-0.0160838
0.0779072
-0.01416
0.0819356
-0.0121386
0.0853043
-0.0101241
0.0880648
-0.00819116
0.0902801
-0.00639248
0.0920173
-0.00475641
-0.00329033
0.0933423
0.0777221
-0.025
0.0830746
-0.0231055
0.0876788
-0.0206878
0.0915663
-0.0180474
0.0947991
-0.0153713
0.097439
-0.0127638
0.0995526
-0.0103046
0.101211
-0.00805101
0.102485
-0.00603025
-0.004245
0.10344
0.0894126
-0.0299152
0.093575
-0.0272678
0.0970135
-0.0241262
0.0998305
-0.0208643
0.102088
-0.0176287
0.103831
-0.0145064
0.105123
-0.0115966
0.106045
-0.00897237
0.106678
-0.00666348
-0.00466827
0.107102
0.0953887
-0.0335012
0.0982654
-0.0301444
0.100495
-0.0263559
0.102081
-0.0224499
0.103002
-0.0185497
0.103338
-0.0148421
0.103247
-0.011505
0.102895
-0.00862082
0.102427
-0.00619474
-0.00419673
0.101955
0.0953718
-0.0361141
0.096922
-0.0316945
0.0972295
-0.0266631
0.0962427
-0.0214629
0.0942285
-0.0165352
0.0916712
-0.0122846
0.0890126
-0.00884618
0.086546
-0.00615402
0.0844356
-0.00408404
-0.00252921
0.0827684
0.0888921
-0.0373427
0.0867181
-0.0295203
0.0815943
-0.021539
0.074942
-0.0148102
0.068089
-0.00968187
0.0618881
-0.00608323
0.0567145
-0.00367211
0.0526351
-0.00207403
0.0495741
-0.00102242
-0.000378736
0.0474243
0.0702613
-0.0313302
0.0582399
-0.0174987
0.0444927
-0.00779142
0.0331166
-0.00343356
0.0246196
-0.00118418
0.0186244
-8.72915e-05
0.0146245
0.000328646
0.0121046
0.000446921
0.0105458
0.000537592
0.000286253
0.00988204
0.0238232
0.00632476
-0.00146635
-0.0048996
-0.00608345
-0.00617042
-0.00584144
-0.00539419
-0.00485624
-0.00456914
0.0510334
1.68992e-05
0.0505011
0.000532648
0.0495048
0.000996553
0.0481083
0.00139688
0.0463714
0.00173727
0.0443478
0.00202405
0.0420856
0.00226267
0.0396283
0.00245793
0.0370149
0.00261404
0.0342812
0.00273437
0.0314607
0.00282138
0.028585
0.00287659
0.0256853
0.00290065
0.0227928
0.00289344
0.0199395
0.00285424
0.0171584
0.00278201
0.0144835
0.0026758
0.0119489
0.00253528
0.00958828
0.00236122
0.00743252
0.00215619
0.00550776
0.00192502
0.00383245
0.00167543
0.00241425
0.0014182
0.00124748
0.0011667
0.000313212
0.000934165
-0.000425531
0.000738654
-0.00101742
0.00059187
-0.0014995
0.000482141
-0.00188983
0.000390528
-0.00218974
0.000300265
-0.00239698
0.000207774
-0.00251622
0.00011994
-0.00256421
4.87293e-05
-0.00256326
-1.38312e-07
-3.54906e-05
-0.002527
0.0786752
-0.0010185
0.0793736
-0.000165456
0.0797569
0.00061359
0.0798272
0.00132688
0.079585
0.00197975
0.0790304
0.00257903
0.0781624
0.00313109
0.0769797
0.00364116
0.0754809
0.00411333
0.0736653
0.00455052
0.071533
0.00495439
0.0690849
0.00532529
0.0663242
0.00566209
0.0632563
0.0059621
0.0598902
0.00622102
0.0562398
0.00643308
0.0523249
0.00659132
0.0481727
0.00668801
0.0438189
0.00671535
0.0393093
0.00666613
0.0346999
0.00653459
0.0300582
0.00631723
0.0254629
0.00601353
0.021003
0.00562657
0.0167735
0.00516362
0.0128753
0.00463691
0.00940472
0.00406263
0.00642613
0.00346107
0.00395904
0.00285823
0.00197729
0.00228298
0.000423727
0.00176271
-0.000777246
0.0013225
-0.00169648
0.000969684
-0.00238202
0.000687116
0.000456387
-0.00287206
0.094312
-0.00198788
0.0949804
-0.00083361
0.0953997
0.0001945
0.0956071
0.00111978
0.0956268
0.00196033
0.0954742
0.00273187
0.0951568
0.00344873
0.0946749
0.00412342
0.0940221
0.00476643
0.0931867
0.00538625
0.092152
0.00598952
0.0908967
0.00658095
0.0893961
0.00716311
0.0876225
0.0077362
0.0855462
0.00829776
0.0831372
0.00884253
0.0803666
0.00936227
0.077209
0.0098459
0.073645
0.0102796
0.069664
0.0106473
0.0652676
0.0109312
0.0604726
0.0111123
0.0553148
0.0111715
0.0498504
0.011091
0.0441586
0.0108556
0.038341
0.0104547
0.0325193
0.00988457
0.0268295
0.00915128
0.0214149
0.00827331
0.0164159
0.00728258
0.0119565
0.00622285
0.00813336
0.00514666
0.0049944
0.00410984
0.00251851
0.00316448
0.00234948
0.000627145
0.104135
-0.00268203
0.104616
-0.00131506
0.104921
-0.000109605
0.105075
0.000966189
0.105097
0.00193809
0.105003
0.00282648
0.104802
0.00364944
0.104503
0.00442304
0.104108
0.00516126
0.103618
0.00587646
0.103028
0.00657953
0.10233
0.00727986
0.101508
0.00798511
0.100543
0.00870095
0.0994106
0.00943069
0.0980785
0.0101749
0.0965099
0.0109311
0.0946629
0.0116931
0.0924917
0.012451
0.0899488
0.0131905
0.0869874
0.0138928
0.0835649
0.014535
0.0796471
0.0150895
0.0752125
0.0155258
0.0702574
0.0158109
0.0648003
0.0159121
0.058886
0.0157992
0.05259
0.0154476
0.046021
0.0148428
0.0393207
0.0139834
0.0326602
0.0128839
0.0262314
0.0115761
0.0202327
0.0101093
0.0148485
0.00854946
0.00697611
0.0102227
0.107383
-0.0029636
0.107572
-0.00150335
0.107694
-0.000231517
0.107766
0.000895022
0.107795
0.00190909
0.107786
0.00283577
0.107739
0.00369608
0.107655
0.00450773
0.10753
0.00528605
0.107362
0.00604482
0.107145
0.00679665
0.106872
0.00755285
0.106534
0.00832337
0.106118
0.00911647
0.10561
0.00993856
0.104992
0.0107939
0.104239
0.0116842
0.103324
0.0126085
0.102212
0.0135624
0.100865
0.0145381
0.0992351
0.0155232
0.0972701
0.0165004
0.094913
0.017447
0.0921042
0.0183349
0.088785
0.0191306
0.0849019
0.0197958
0.0804125
0.0202891
0.0752929
0.0205678
0.0695459
0.0205903
0.0632102
0.0203196
0.0563683
0.0197265
0.0491511
0.0187939
0.041739
0.0175221
0.034355
0.0159341
0.0140811
0.0272507
0.101567
-0.00257489
0.1013
-0.00123571
0.101152
-8.39653e-05
0.101113
0.00093509
0.101167
0.00185462
0.101304
0.00269957
0.101509
0.00349114
0.10177
0.0042466
0.102076
0.0049809
0.102412
0.00570798
0.102768
0.00644093
0.103129
0.00719195
0.10348
0.00797218
0.103805
0.00879136
0.104086
0.00965749
0.104304
0.0105764
0.104436
0.0115517
0.104461
0.0125843
0.104351
0.0136724
0.104078
0.0148109
0.103611
0.0159914
0.10291
0.0172013
0.101934
0.018424
0.100631
0.0196387
0.0989418
0.0208198
0.0968008
0.0219374
0.0941337
0.0229567
0.0908641
0.023838
0.0869189
0.024536
0.0822391
0.0250001
0.0767912
0.0251749
0.0705817
0.0250039
0.0636694
0.024435
0.0561752
0.0234289
0.0219703
0.0482865
0.0816035
-0.00140962
0.0809
-0.000531817
0.0805783
0.000238172
0.0805748
0.000938942
0.0808431
0.00158679
0.0813431
0.00219993
0.0820418
0.00279273
0.0829117
0.00337698
0.0839284
0.00396432
0.0850698
0.00456646
0.0863156
0.00519501
0.0876456
0.00586166
0.0890396
0.00657783
0.0904761
0.00735445
0.0919321
0.00820111
0.0933826
0.00912565
0.0948004
0.0101336
0.0961565
0.0112282
0.0974195
0.0124095
0.0985567
0.013674
0.099534
0.0150145
0.100316
0.0164196
0.100866
0.0178743
0.101146
0.01936
0.10111
0.020856
0.100709
0.0223395
0.0998799
0.023786
0.0985505
0.025168
0.0966342
0.0264528
0.094037
0.0275978
0.0906641
0.0285482
0.0864334
0.0292351
0.0812901
0.0295787
0.0752243
0.0294952
0.0289081
0.068287
0.0462195
-0.000204167
0.0457508
-6.22792e-05
0.045867
0.000122821
0.0464663
0.00034043
0.0474482
0.000605722
0.048734
0.000914863
0.0502699
0.00125728
0.0520188
0.00162841
0.0539533
0.00202981
0.0560536
0.00246583
0.0583046
0.00294348
0.0606933
0.00347211
0.0632072
0.00406291
0.0658327
0.00472791
0.0685537
0.0054791
0.071351
0.00632754
0.0742011
0.00728293
0.0770757
0.00835324
0.0799415
0.00954364
0.0827601
0.0108555
0.0854894
0.0122856
0.0880843
0.0138253
0.0904987
0.0154606
0.0926858
0.0171737
0.0945984
0.0189442
0.0961873
0.0207515
0.0973983
0.0225759
0.0981673
0.0243998
0.0984179
0.026203
0.098059
0.0279574
0.096988
0.0296198
0.0950962
0.0311274
0.092279
0.0323963
0.088449
0.0333256
0.033806
0.0835513
0.0107475
-0.00106779
0.01217
-0.00148268
0.0138436
-0.00154879
0.015585
-0.00139896
0.017345
-0.00115274
0.0191434
-0.000882203
0.0210128
-0.000611378
0.0229816
-0.0003401
0.0250743
-6.32901e-05
0.0273114
0.000227795
0.0297082
0.000545229
0.0322764
0.000901865
0.0350255
0.00131163
0.0379617
0.00178927
0.0410882
0.00235029
0.0444046
0.00300906
0.0479057
0.00378027
0.0515791
0.00467881
0.0554044
0.00571785
0.0593522
0.00690776
0.0633838
0.0082546
0.0674524
0.00975757
0.071505
0.0114092
0.0754838
0.0131963
0.0793278
0.0151018
0.0829731
0.0171078
0.0863506
0.0192001
0.0893823
0.0213697
0.0919782
0.0236085
0.0940361
0.0259006
0.0954435
0.0282132
0.0960823
0.0304893
0.0958342
0.0326449
0.0945869
0.0345732
0.036152
0.0922411
-0.00154847
-0.00408617
0.00039003
-0.00341795
0.00172164
-0.00287719
0.00281746
-0.0024921
0.00383923
-0.00217218
0.00486039
-0.00190192
0.00592863
-0.00167885
0.00707804
-0.00148993
0.00833255
-0.00131925
0.00971459
-0.00115679
0.0112493
-0.000993032
0.0129599
-0.000813036
0.0148665
-0.000599782
0.0169876
-0.000336703
0.0193459
-1.26345e-05
0.0219645
0.000386634
0.0248611
0.000880854
0.0280498
0.00148831
0.03154
0.00222704
0.0353332
0.00311495
0.0394202
0.0041689
0.0437811
0.00539874
0.0483842
0.00680858
0.0531864
0.00839683
0.0581346
0.0101566
0.0631654
0.0120799
0.0682021
0.0141663
0.0731478
0.0164265
0.0778831
0.0188752
0.0822686
0.0215167
0.0861518
0.0243312
0.0893777
0.0272641
0.0917993
0.0302237
0.093282
0.0330906
0.0357294
0.0937045
-0.00142042
-0.00266432
-0.00156015
-0.0032756
-0.001416
-0.00301885
-0.00119658
-0.0027093
-0.000926908
-0.00244025
-0.000603934
-0.00222412
-0.000220422
-0.00206287
0.000239399
-0.00195177
0.000797027
-0.00188056
0.00147103
-0.00183606
0.00227434
-0.00180292
0.00321586
-0.00176207
0.00430056
-0.00169235
0.00553084
-0.00157478
0.0069111
-0.00139968
0.00845972
-0.00116735
0.0102107
-0.000873154
0.0122018
-0.00050399
0.0144782
-4.79386e-05
0.0170847
0.000511466
0.020059
0.00119901
0.0234369
0.00202597
0.0272456
0.00300512
0.0314988
0.00414921
0.0361963
0.00546468
0.0413233
0.0069582
0.0468382
0.00865591
0.0526592
0.0106092
0.0586604
0.0128771
0.0646745
0.0155048
0.0705039
0.0185032
0.0759415
0.0218273
0.0807903
0.0253751
0.0848723
0.0290083
0.0325731
0.0880281
-0.00084786
-0.00181536
-0.00155484
-0.00256632
-0.00198271
-0.0025891
-0.00225241
-0.00243823
-0.00241798
-0.00227402
-0.00250133
-0.00214101
-0.00251356
-0.00205203
-0.00245946
-0.0020086
-0.00233781
-0.00200637
-0.00214255
-0.00203683
-0.00186473
-0.00208738
-0.00149312
-0.00214106
-0.00101557
-0.00217761
-0.000420733
-0.00217682
0.000297368
-0.00212388
0.00113663
-0.00201021
0.00209513
-0.00183283
0.00318011
-0.00158674
0.00439939
-0.00126219
0.00578048
-0.000861962
0.0073857
-0.000396366
0.00930273
0.000119945
0.0116326
0.000686918
0.0144653
0.00132767
0.0178821
0.00205812
0.021963
0.00288555
0.026754
0.00387161
0.0322289
0.00513922
0.0382921
0.00681751
0.0447843
0.00901517
0.051496
0.0117928
0.0582015
0.0151222
0.0646853
0.018891
0.0707421
0.0229506
0.0271401
0.0761741
-0.000613427
-0.00120087
-0.00131299
-0.00186512
-0.00189222
-0.00200859
-0.00235664
-0.00197303
-0.00273186
-0.00189861
-0.00303656
-0.00183689
-0.0032837
-0.00180629
-0.0034822
-0.0018124
-0.00363744
-0.00185423
-0.00375184
-0.00192617
-0.00382519
-0.00201811
-0.00385455
-0.00211578
-0.00383376
-0.00220211
-0.00375342
-0.00226016
-0.00360305
-0.00227618
-0.00337365
-0.0022401
-0.00306028
-0.00214472
-0.00265945
-0.00198366
-0.00216171
-0.00175299
-0.00155557
-0.0014576
-0.000827603
-0.00111015
4.05637e-05
-0.00073097
0.00110569
-0.000360472
0.00251073
-6.13323e-05
0.00445456
0.000127048
0.00714573
0.000204494
0.0107331
0.000290914
0.0152273
0.000649614
0.0205471
0.00150046
0.0265374
0.00302629
0.0329936
0.00533649
0.0397299
0.00838504
0.0466098
0.0120096
0.0534937
0.016065
0.0204208
0.0602113
-0.000449602
-0.000750751
-0.00104717
-0.00126643
-0.0016151
-0.00143991
-0.00212032
-0.00146744
-0.00256849
-0.00145055
-0.00297144
-0.00143448
-0.00334055
-0.00143822
-0.00368553
-0.00146886
-0.00401428
-0.00152723
-0.00433286
-0.0016095
-0.00464499
-0.00170781
-0.00495168
-0.00181072
-0.00525081
-0.0019041
-0.0055381
-0.00197345
-0.0058084
-0.00200557
-0.00605721
-0.00199011
-0.00628018
-0.00191925
-0.00647113