/*--------------------------------*- C++ -*----------------------------------*\
| =========                 |                                                 |
| \\      /  F ield         | OpenFOAM: The Open Source CFD Toolbox           |
|  \\    /   O peration     | Version:  2406                                  |
|   \\  /    A nd           | Website:  www.openfoam.com                      |
|    \\/     M anipulation  |                                                 |
\*---------------------------------------------------------------------------*/
FoamFile
{
    version     2.0;
    format      ascii;
    arch        "LSB;label=32;scalar=64";
    class       volVectorField;
    location    "77";
    object      U;
}
// * * * * * * * * * * * * * * * * * * * * * * * * * * * * * * * * * * * * * //

dimensions      [0 1 -1 0 0 0 0];

internalField   nonuniform List<vector> 
1800
(
(0.192252 -0.00231248 0)
(0.196465 -0.00474973 0)
(0.202364 -0.00556044 0)
(0.210067 -0.0058144 0)
(0.218919 -0.00600977 0)
(0.228703 -0.00627737 0)
(0.239631 -0.00668465 0)
(0.251978 -0.00743565 0)
(0.266504 -0.00817058 0)
(0.28132 -0.0135273 0)
(0.509274 -0.00253546 0)
(0.509363 -0.00631294 0)
(0.511001 -0.00886889 0)
(0.514268 -0.0109286 0)
(0.519211 -0.0129177 0)
(0.525842 -0.0149922 0)
(0.534221 -0.0172932 0)
(0.544467 -0.0200678 0)
(0.556739 -0.0236242 0)
(0.570848 -0.0286907 0)
(0.74948 -0.00244443 0)
(0.749729 -0.00670878 0)
(0.75077 -0.0103062 0)
(0.752581 -0.0136342 0)
(0.755439 -0.0170003 0)
(0.759505 -0.0205565 0)
(0.764815 -0.0244498 0)
(0.771367 -0.0289065 0)
(0.779101 -0.0341973 0)
(0.787758 -0.0407703 0)
(0.909562 -0.00239553 0)
(0.909678 -0.00694395 0)
(0.910126 -0.0112025 0)
(0.910782 -0.0153574 0)
(0.911942 -0.0196065 0)
(0.91379 -0.0240843 0)
(0.916324 -0.0289207 0)
(0.919472 -0.0342788 0)
(0.923129 -0.0403272 0)
(0.927113 -0.0471967 0)
(0.98956 -0.00228447 0)
(0.98938 -0.00676216 0)
(0.989133 -0.0111673 0)
(0.988624 -0.0156089 0)
(0.988128 -0.0202007 0)
(0.987821 -0.0250383 0)
(0.987677 -0.0302191 0)
(0.987593 -0.0358486 0)
(0.987453 -0.0420183 0)
(0.987099 -0.0487764 0)
(0.989511 -0.00200415 0)
(0.988958 -0.00602408 0)
(0.98794 -0.0101494 0)
(0.986237 -0.0144405 0)
(0.984119 -0.0189265 0)
(0.981745 -0.0236513 0)
(0.979059 -0.0286763 0)
(0.975936 -0.0340606 0)
(0.97225 -0.039845 0)
(0.967854 -0.0460382 0)
(0.909413 -0.00148737 0)
(0.908416 -0.00466031 0)
(0.906578 -0.00815639 0)
(0.903692 -0.0119149 0)
(0.900035 -0.0158672 0)
(0.895729 -0.0200209 0)
(0.890681 -0.0244121 0)
(0.884746 -0.0290625 0)
(0.877787 -0.0339734 0)
(0.869657 -0.0391267 0)
(0.749232 -0.000642081 0)
(0.747644 -0.00256083 0)
(0.744951 -0.00516647 0)
(0.740987 -0.00811377 0)
(0.735983 -0.0111966 0)
(0.729991 -0.0144 0)
(0.722896 -0.0177448 0)
(0.714552 -0.0212232 0)
(0.704828 -0.0248114 0)
(0.693586 -0.0284779 0)
(0.508956 0.000528938 0)
(0.506583 0.000303422 0)
(0.503271 -0.00108453 0)
(0.498945 -0.00292488 0)
(0.493622 -0.00487402 0)
(0.487204 -0.00689029 0)
(0.479551 -0.00896755 0)
(0.470533 -0.0110676 0)
(0.460028 -0.0131479 0)
(0.447926 -0.0151711 0)
(0.191967 0.00126781 0)
(0.193655 0.00194794 0)
(0.194325 0.001339 0)
(0.194134 0.00039617 0)
(0.192623 -0.000505761 0)
(0.189597 -0.00133342 0)
(0.185113 -0.00208902 0)
(0.17926 -0.00275197 0)
(0.172103 -0.00330542 0)
(0.163715 -0.00374259 0)
(-2.04099e-06 -1.76499e-05 0)
(-0.000381868 0.000110132 0)
(-0.00114414 0.000202829 0)
(-0.0021192 0.000241768 0)
(-0.00318372 0.000259728 0)
(-0.00430198 0.000271306 0)
(-0.00547038 0.000280447 0)
(-0.00669284 0.000287677 0)
(-0.007977 0.000293337 0)
(-0.00933721 0.000298154 0)
(-0.0108 0.000303468 0)
(-0.0124117 0.00031144 0)
(-0.0142506 0.000327456 0)
(-0.0164456 0.000364766 0)
(-0.0192033 0.000456842 0)
(-0.0228496 0.000677014 0)
(-0.0278736 0.00115479 0)
(-0.0349406 0.0020788 0)
(-0.0448261 0.00365928 0)
(-0.0582156 0.0060003 0)
(-0.0753254 0.00888506 0)
(-0.0954418 0.0116121 0)
(-0.116682 0.0131302 0)
(-0.136258 0.0125536 0)
(-0.151103 0.00974645 0)
(-0.15836 0.00547365 0)
(-0.155719 0.000795024 0)
(-0.143667 -0.00372845 0)
(-0.122375 -0.0081248 0)
(-0.0920975 -0.0125281 0)
(-0.0537556 -0.0170731 0)
(-0.00896309 -0.0212851 0)
(0.0411117 -0.023953 0)
(0.0960809 -0.0249404 0)
(0.154064 -0.0248635 0)
(-0.000268011 0.000444175 0)
(-0.00170594 0.00122476 0)
(-0.00386347 0.00173274 0)
(-0.00639096 0.00198276 0)
(-0.0090855 0.00211935 0)
(-0.0119011 0.00222492 0)
(-0.014841 0.00233088 0)
(-0.0179255 0.00244993 0)
(-0.0211909 0.00259445 0)
(-0.0246967 0.00278538 0)
(-0.0285375 0.00305694 0)
(-0.0328581 0.0034636 0)
(-0.0378703 0.004092 0)
(-0.043866 0.00507481 0)
(-0.0512194 0.00659862 0)
(-0.0603582 0.00888907 0)
(-0.0716649 0.0121441 0)
(-0.0852908 0.0163956 0)
(-0.100913 0.0213178 0)
(-0.117529 0.0260768 0)
(-0.133403 0.0293517 0)
(-0.146216 0.0296447 0)
(-0.153429 0.0258835 0)
(-0.152796 0.0179699 0)
(-0.143012 0.00683639 0)
(-0.124627 -0.00591437 0)
(-0.100282 -0.0190204 0)
(-0.06876 -0.0322164 0)
(-0.029445 -0.0453461 0)
(0.0172649 -0.0580028 0)
(0.0708203 -0.0696922 0)
(0.130614 -0.0798468 0)
(0.195309 -0.0874091 0)
(0.263089 -0.0917591 0)
(0.332039 -0.0929195 0)
(-0.000649383 0.00185599 0)
(-0.00346594 0.00379286 0)
(-0.00719815 0.00486214 0)
(-0.0113053 0.0053775 0)
(-0.0155482 0.00567602 0)
(-0.0199011 0.00592633 0)
(-0.0243817 0.00619605 0)
(-0.0290229 0.00652015 0)
(-0.0338734 0.00693671 0)
(-0.0390021 0.00750228 0)
(-0.0445003 0.00829803 0)
(-0.0504783 0.00943516 0)
(-0.0570536 0.0110566 0)
(-0.0643242 0.0133188 0)
(-0.0723166 0.0163525 0)
(-0.0809032 0.0201987 0)
(-0.0896962 0.0247096 0)
(-0.097947 0.0294246 0)
(-0.104503 0.0334605 0)
(-0.107892 0.0355152 0)
(-0.106564 0.0341044 0)
(-0.099184 0.0280854 0)
(-0.0849377 0.0173238 0)
(-0.0639248 0.00272887 0)
(-0.0374289 -0.01429 0)
(-0.00659525 -0.0325319 0)
(0.0301028 -0.0518371 0)
(0.073044 -0.0720317 0)
(0.122615 -0.0924134 0)
(0.178661 -0.112054 0)
(0.240363 -0.12975 0)
(0.306552 -0.14441 0)
(0.375796 -0.155143 0)
(0.446434 -0.161186 0)
(0.516695 -0.162071 0)
(-0.0011056 0.00441445 0)
(-0.00543151 0.00795824 0)
(-0.0106924 0.00958524 0)
(-0.0161495 0.0102801 0)
(-0.0215542 0.0106647 0)
(-0.0269118 0.0110003 0)
(-0.0322466 0.0113834 0)
(-0.0375789 0.0118612 0)
(-0.0429224 0.012481 0)
(-0.048281 0.0133064 0)
(-0.0536348 0.0144157 0)
(-0.0589191 0.0158963 0)
(-0.0640009 0.0178295 0)
(-0.068648 0.0202525 0)
(-0.0724793 0.0231069 0)
(-0.0749225 0.0261839 0)
(-0.0751988 0.0290549 0)
(-0.0723645 0.0310062 0)
(-0.0654326 0.0310422 0)
(-0.0535763 0.0280488 0)
(-0.0363522 0.0210964 0)
(-0.0136573 0.00973725 0)
(0.0142168 -0.00578108 0)
(0.0459547 -0.0246908 0)
(0.0818604 -0.0463102 0)
(0.123109 -0.0702865 0)
(0.170422 -0.0961995 0)
(0.223672 -0.12309 0)
(0.282262 -0.14967 0)
(0.345297 -0.174602 0)
(0.411679 -0.196536 0)
(0.480177 -0.214174 0)
(0.549531 -0.226398 0)
(0.618377 -0.23221 0)
(0.685204 -0.23094 0)
(-0.00162689 0.00820433 0)
(-0.00742696 0.0136115 0)
(-0.0138541 0.0155671 0)
(-0.0200389 0.0161592 0)
(-0.0257839 0.0163743 0)
(-0.0311382 0.0165518 0)
(-0.036125 0.0167906 0)
(-0.0407338 0.0171195 0)
(-0.0449155 0.0175589 0)
(-0.0485775 0.0181351 0)
(-0.05157 0.0188694 0)
(-0.0536627 0.019763 0)
(-0.0545355 0.0207812 0)
(-0.0537699 0.0218216 0)
(-0.0508246 0.0226716 0)
(-0.0450381 0.0229844 0)
(-0.0356823 0.0222658 0)
(-0.0220666 0.0198799 0)
(-0.00371339 0.015095 0)
(0.019413 0.00721468 0)
(0.0474734 -0.00438653 0)
(0.0804459 -0.0200282 0)
(0.118398 -0.0399105 0)
(0.161378 -0.0638911 0)
(0.209484 -0.0912641 0)
(0.262592 -0.121127 0)
(0.320156 -0.152432 0)
(0.381209 -0.183887 0)
(0.44459 -0.21403 0)
(0.509149 -0.241408 0)
(0.573878 -0.264646 0)
(0.637867 -0.282492 0)
(0.700492 -0.293887 0)
(0.760964 -0.297704 0)
(0.81833 -0.292991 0)
(-0.00223058 0.0132625 0)
(-0.00931858 0.020403 0)
(-0.016131 0.0221097 0)
(-0.0219085 0.0220647 0)
(-0.026662 0.0216514 0)
(-0.0305286 0.021234 0)
(-0.0335417 0.0208712 0)
(-0.035668 0.0205428 0)
(-0.0368067 0.0202103 0)
(-0.0367998 0.0198428 0)
(-0.0354267 0.0193936 0)
(-0.0323849 0.018773 0)
(-0.0272909 0.0178437 0)
(-0.0196912 0.0164209 0)
(-0.0090382 0.0142341 0)
(0.00524025 0.0109341 0)
(0.023573 0.00608239 0)
(0.0466351 -0.000906162 0)
(0.074894 -0.0106303 0)
(0.108797 -0.0237193 0)
(0.148495 -0.0407626 0)
(0.193766 -0.0620484 0)
(0.244123 -0.0874577 0)
(0.298865 -0.116464 0)
(0.357044 -0.148193 0)
(0.417499 -0.181514 0)
(0.478945 -0.215134 0)
(0.540077 -0.247663 0)
(0.599712 -0.277704 0)
(0.656941 -0.303994 0)
(0.7112 -0.325377 0)
(0.762201 -0.340892 0)
(0.810323 -0.349607 0)
(0.85542 -0.350264 0)
(0.897886 -0.341685 0)
(-0.00298826 0.0197629 0)
(-0.0109649 0.0276659 0)
(-0.0166521 0.0279446 0)
(-0.0200763 0.026452 0)
(-0.0218183 0.0248102 0)
(-0.0221669 0.0232635 0)
(-0.0211535 0.0217834 0)
(-0.0187268 0.0202674 0)
(-0.0147521 0.018587 0)
(-0.00903752 0.01665 0)
(-0.00131115 0.0143623 0)
(0.00878658 0.0115664 0)
(0.0216562 0.00806418 0)
(0.0377193 0.00358956 0)
(0.0577259 -0.00226594 0)
(0.0822754 -0.00990275 0)
(0.112022 -0.0197736 0)
(0.147314 -0.0323373 0)
(0.18825 -0.0480233 0)
(0.23464 -0.0671543 0)
(0.28595 -0.0898834 0)
(0.341294 -0.1161 0)
(0.39948 -0.145369 0)
(0.459116 -0.176951 0)
(0.518707 -0.209849 0)
(0.57677 -0.242888 0)
(0.631937 -0.27483 0)
(0.683061 -0.304485 0)
(0.729274 -0.330785 0)
(0.770177 -0.352893 0)
(0.805699 -0.370062 0)
(0.836465 -0.381818 0)
(0.863608 -0.387191 0)
(0.887848 -0.384539 0)
(0.912308 -0.372554 0)
(-0.00404896 0.0283008 0)
(-0.0114992 0.0339443 0)
(-0.0125781 0.0306559 0)
(-0.00996533 0.0269365 0)
(-0.0054032 0.0236194 0)
(0.000780355 0.0204544 0)
(0.0087047 0.0173606 0)
(0.0185045 0.0141751 0)
(0.0303958 0.0106722 0)
(0.0445309 0.00665036 0)
(0.0614366 0.00184373 0)
(0.0816801 -0.00402293 0)
(0.105777 -0.0112243 0)
(0.134238 -0.0200708 0)
(0.167319 -0.0308475 0)
(0.20514 -0.043818 0)
(0.24765 -0.0592121 0)
(0.294576 -0.0772084 0)
(0.345394 -0.0979111 0)
(0.399314 -0.121308 0)
(0.455281 -0.147228 0)
(0.512015 -0.175299 0)
(0.568081 -0.204925 0)
(0.621993 -0.235303 0)
(0.672312 -0.265475 0)
(0.717734 -0.294408 0)
(0.757156 -0.321097 0)
(0.789758 -0.344669 0)
(0.814996 -0.364466 0)
(0.832911 -0.380162 0)
(0.84368 -0.391704 0)
(0.8494 -0.399517 0)
(0.850771 -0.403494 0)
(0.853372 -0.401569 0)
(0.860473 -0.395408 0)
(-0.00367758 0.0374819 0)
(-0.00284263 0.0353589 0)
(0.00954771 0.0257963 0)
(0.0248011 0.0198362 0)
(0.0407285 0.0150613 0)
(0.057718 0.0100789 0)
(0.0765412 0.00472013 0)
(0.0976837 -0.00106818 0)
(0.121452 -0.00750774 0)
(0.148247 -0.0148834 0)
(0.178314 -0.0234395 0)
(0.211772 -0.0333755 0)
(0.248664 -0.0448678 0)
(0.288933 -0.0580713 0)
(0.332393 -0.0731073 0)
(0.378711 -0.0900583 0)
(0.427394 -0.108959 0)
(0.477779 -0.129783 0)
(0.529035 -0.152422 0)
(0.58017 -0.176666 0)
(0.63006 -0.202178 0)
(0.677483 -0.22848 0)
(0.721182 -0.254944 0)
(0.759928 -0.280814 0)
(0.792586 -0.305252 0)
(0.818161 -0.327405 0)
(0.835827 -0.34649 0)
(0.844981 -0.361884 0)
(0.845201 -0.373259 0)
(0.836617 -0.38072 0)
(0.819211 -0.385093 0)
(0.796364 -0.388073 0)
(0.766513 -0.393156 0)
(0.751079 -0.400413 0)
(0.735369 -0.433897 0)
(0.0458819 0.0141663 0)
(0.0724306 0.0116753 0)
(0.102195 0.00301249 0)
(0.13377 -0.00429042 0)
(0.164071 -0.0104868 0)
(0.194125 -0.0168564 0)
(0.225181 -0.0239025 0)
(0.257724 -0.0317735 0)
(0.29194 -0.0406053 0)
(0.32795 -0.0505497 0)
(0.365802 -0.061731 0)
(0.405434 -0.0742406 0)
(0.446667 -0.0881445 0)
(0.489214 -0.103479 0)
(0.53268 -0.120242 0)
(0.57656 -0.138389 0)
(0.620239 -0.157822 0)
(0.662997 -0.178385 0)
(0.70402 -0.19985 0)
(0.742412 -0.221907 0)
(0.777214 -0.244151 0)
(0.807435 -0.266074 0)
(0.832084 -0.287069 0)
(0.850211 -0.306448 0)
(0.86094 -0.323474 0)
(0.863501 -0.337425 0)
(0.857252 -0.347659 0)
(0.841714 -0.353713 0)
(0.816526 -0.355442 0)
(0.781664 -0.353167 0)
(0.736699 -0.34819 0)
(0.683909 -0.342848 0)
(0.618325 -0.344206 0)
(0.574713 -0.358426 0)
(0.489534 -0.451141 0)
(0.305048 -0.0251487 0)
(0.324433 -0.0304383 0)
(0.347031 -0.0344396 0)
(0.37307 -0.0390601 0)
(0.40047 -0.0445643 0)
(0.428796 -0.0510612 0)
(0.458314 -0.0586509 0)
(0.489078 -0.0673668 0)
(0.520947 -0.0772167 0)
(0.553748 -0.088211 0)
(0.587279 -0.100356 0)
(0.621278 -0.113642 0)
(0.655412 -0.128036 0)
(0.68928 -0.143477 0)
(0.722414 -0.159867 0)
(0.754277 -0.177072 0)
(0.784267 -0.19491 0)
(0.811719 -0.213147 0)
(0.835911 -0.231491 0)
(0.856074 -0.249582 0)
(0.871404 -0.266982 0)
(0.881081 -0.283178 0)
(0.884295 -0.297583 0)
(0.880277 -0.30956 0)
(0.868342 -0.318454 0)
(0.847926 -0.323652 0)
(0.818629 -0.324645 0)
(0.780249 -0.321122 0)
(0.732758 -0.313073 0)
(0.676319 -0.300881 0)
(0.610739 -0.285682 0)
(0.536214 -0.269208 0)
(0.446758 -0.257021 0)
(0.349271 -0.257238 0)
(0.133764 -0.307807 0)
(0.58548 -0.0362264 0)
(0.599565 -0.0431436 0)
(0.61478 -0.0498287 0)
(0.631934 -0.0571768 0)
(0.650567 -0.0652566 0)
(0.670298 -0.0739625 0)
(0.691008 -0.0833363 0)
(0.712537 -0.0934581 0)
(0.734628 -0.104364 0)
(0.756983 -0.116058 0)
(0.779287 -0.128524 0)
(0.801191 -0.141725 0)
(0.822302 -0.155592 0)
(0.842183 -0.17002 0)
(0.860351 -0.184867 0)
(0.876275 -0.199952 0)
(0.889378 -0.215046 0)
(0.899038 -0.229874 0)
(0.904593 -0.2441 0)
(0.90535 -0.257331 0)
(0.900601 -0.269113 0)
(0.889646 -0.278935 0)
(0.871835 -0.286249 0)
(0.846611 -0.290495 0)
(0.813573 -0.291149 0)
(0.772537 -0.287779 0)
(0.723597 -0.280112 0)
(0.667156 -0.26809 0)
(0.603909 -0.251925 0)
(0.534779 -0.232096 0)
(0.460593 -0.209427 0)
(0.382047 -0.184715 0)
(0.297407 -0.159545 0)
(0.206705 -0.130863 0)
(0.0874943 -0.114585 0)
(0.796781 -0.0486128 0)
(0.805838 -0.0566475 0)
(0.815308 -0.0646247 0)
(0.825605 -0.0728897 0)
(0.836612 -0.0816033 0)
(0.848031 -0.0907741 0)
(0.859655 -0.100439 0)
(0.871301 -0.110645 0)
(0.88273 -0.121403 0)
(0.893653 -0.132685 0)
(0.903747 -0.144434 0)
(0.91266 -0.156569 0)
(0.920001 -0.168972 0)
(0.925338 -0.181494 0)
(0.928199 -0.193945 0)
(0.92807 -0.206099 0)
(0.9244 -0.217682 0)
(0.916606 -0.228379 0)
(0.90409 -0.237825 0)
(0.886254 -0.245614 0)
(0.862537 -0.251305 0)
(0.832453 -0.254446 0)
(0.795651 -0.254596 0)
(0.75198 -0.251372 0)
(0.701558 -0.244496 0)
(0.644837 -0.233853 0)
(0.582646 -0.219531 0)
(0.516193 -0.201845 0)
(0.447022 -0.181316 0)
(0.376915 -0.158596 0)
(0.307612 -0.134317 0)
(0.240392 -0.108485 0)
(0.174333 -0.0797618 0)
(0.10947 -0.044134 0)
(0.0382079 -0.0152526 0)
(0.931133 -0.0548209 0)
(0.934951 -0.0628418 0)
(0.938601 -0.0710255 0)
(0.942226 -0.079455 0)
(0.945766 -0.0882431 0)
(0.949012 -0.0974003 0)
(0.951757 -0.106901 0)
(0.953804 -0.11672 0)
(0.954912 -0.12682 0)
(0.954793 -0.137136 0)
(0.953121 -0.147574 0)
(0.949542 -0.158013 0)
(0.943671 -0.168297 0)
(0.935084 -0.17824 0)
(0.92333 -0.187618 0)
(0.907932 -0.196171 0)
(0.888402 -0.203605 0)
(0.864262 -0.209593 0)
(0.835069 -0.213787 0)
(0.800454 -0.21583 0)
(0.760173 -0.215382 0)
(0.714157 -0.212146 0)
(0.662579 -0.205907 0)
(0.605907 -0.196575 0)
(0.544947 -0.184228 0)
(0.480867 -0.169145 0)
(0.415179 -0.151812 0)
(0.349689 -0.132898 0)
(0.286421 -0.113184 0)
(0.227473 -0.0933942 0)
(0.174526 -0.0736775 0)
(0.12786 -0.0524888 0)
(0.0857462 -0.0256157 0)
(0.0484701 0.0112037 0)
(0.0123627 0.0370218 0)
(0.986326 -0.0560857 0)
(0.984944 -0.0637825 0)
(0.982881 -0.0716917 0)
(0.980129 -0.079772 0)
(0.976603 -0.0880432 0)
(0.972126 -0.0964867 0)
(0.966485 -0.105051 0)
(0.959457 -0.113681 0)
(0.95079 -0.122309 0)
(0.940197 -0.130845 0)
(0.927363 -0.139167 0)
(0.91195 -0.147121 0)
(0.893601 -0.154527 0)
(0.871947 -0.161174 0)
(0.846617 -0.166823 0)
(0.817261 -0.171214 0)
(0.783576 -0.174073 0)
(0.745335 -0.175128 0)
(0.702432 -0.174128 0)
(0.654926 -0.170862 0)
(0.603087 -0.165192 0)
(0.547436 -0.157079 0)
(0.488775 -0.146615 0)
(0.428193 -0.134046 0)
(0.367039 -0.119789 0)
(0.306868 -0.10443 0)
(0.249363 -0.0886964 0)
(0.196269 -0.0734177 0)
(0.149311 -0.059417 0)
(0.109858 -0.0470259 0)
(0.0779645 -0.0349611 0)
(0.0517944 -0.0193492 0)
(0.029449 0.00551042 0)
(0.0112333 0.0400272 0)
(-0.00103286 0.0544627 0)
(0.962572 -0.0525987 0)
(0.956233 -0.0594199 0)
(0.94871 -0.0663748 0)
(0.939908 -0.0733876 0)
(0.929702 -0.0804255 0)
(0.917916 -0.0874473 0)
(0.904337 -0.0943864 0)
(0.888744 -0.101161 0)
(0.870898 -0.107673 0)
(0.850546 -0.113805 0)
(0.827424 -0.119411 0)
(0.801272 -0.124328 0)
(0.771843 -0.128371 0)
(0.738928 -0.131342 0)
(0.702374 -0.133039 0)
(0.662114 -0.133266 0)
(0.618197 -0.13185 0)
(0.570827 -0.128663 0)
(0.520386 -0.123637 0)
(0.467468 -0.11679 0)
(0.412884 -0.10824 0)
(0.357655 -0.0982177 0)
(0.302974 -0.0870708 0)
(0.250139 -0.0752525 0)
(0.200446 -0.0632994 0)
(0.155091 -0.0518115 0)
(0.11512 -0.0414674 0)
(0.0814339 -0.0330119 0)
(0.0546281 -0.0268977 0)
(0.0343398 -0.0221732 0)
(0.0186464 -0.0154552 0)
(0.00560693 -0.00188634 0)
(-0.00516566 0.0222283 0)
(-0.0106204 0.0493242 0)
(-0.00663798 0.0481789 0)
(0.860189 -0.0444743 0)
(0.849214 -0.0499335 0)
(0.836585 -0.055404 0)
(0.822172 -0.0607999 0)
(0.805841 -0.0660567 0)
(0.787434 -0.0711087 0)
(0.766778 -0.0758738 0)
(0.743703 -0.0802549 0)
(0.718048 -0.0841453 0)
(0.68967 -0.087428 0)
(0.658454 -0.0899765 0)
(0.624335 -0.0916587 0)
(0.587317 -0.0923438 0)
(0.547497 -0.0919117 0)
(0.505081 -0.0902652 0)
(0.460408 -0.0873452 0)
(0.413965 -0.0831453 0)
(0.366392 -0.0777247 0)
(0.318479 -0.0712189 0)
(0.271139 -0.0638419 0)
(0.22537 -0.0558791 0)
(0.18218 -0.0476701 0)
(0.142503 -0.0395759 0)
(0.107083 -0.0319376 0)
(0.0763855 -0.0250544 0)
(0.0505838 -0.0192483 0)
(0.0296604 -0.0150115 0)
(0.0134566 -0.0128255 0)
(0.00137531 -0.0122971 0)
(-0.0078994 -0.011127 0)
(-0.0157358 -0.00552767 0)
(-0.022024 0.0074082 0)
(-0.0245945 0.0266152 0)
(-0.0200413 0.0427605 0)
(-0.00717792 0.0332184 0)
(0.68068 -0.0321751 0)
(0.665965 -0.0358339 0)
(0.649317 -0.0393704 0)
(0.630633 -0.0427031 0)
(0.609826 -0.0457603 0)
(0.586818 -0.0484742 0)
(0.561551 -0.050772 0)
(0.534 -0.0525781 0)
(0.504183 -0.0538183 0)
(0.472182 -0.0544244 0)
(0.438145 -0.0543364 0)
(0.40231 -0.0535072 0)
(0.365008 -0.0519099 0)
(0.326672 -0.0495449 0)
(0.287837 -0.046448 0)
(0.249124 -0.0426984 0)
(0.211222 -0.0384211 0)
(0.174857 -0.0337834 0)
(0.140738 -0.0289891 0)
(0.1095 -0.0242595 0)
(0.0816466 -0.0197995 0)
(0.0574776 -0.0157612 0)
(0.0370569 -0.0122087 0)
(0.0201994 -0.00912508 0)
(0.00654561 -0.00652635 0)
(-0.00427924 -0.00464788 0)
(-0.0126634 -0.00399709 0)
(-0.0191414 -0.00470416 0)
(-0.0245296 -0.00584364 0)
(-0.0294524 -0.00535795 0)
(-0.0334607 -0.000897361 0)
(-0.0347297 0.00864732 0)
(-0.0307571 0.0210807 0)
(-0.0201767 0.0287195 0)
(-0.00538985 0.0188889 0)
(0.434127 -0.0170955 0)
(0.41856 -0.0188688 0)
(0.401192 -0.020433 0)
(0.382034 -0.0217338 0)
(0.361143 -0.0227275 0)
(0.338619 -0.0233805 0)
(0.314606 -0.0236663 0)
(0.289303 -0.0235663 0)
(0.262963 -0.0230744 0)
(0.235899 -0.0222001 0)
(0.208477 -0.0209705 0)
(0.181117 -0.0194316 0)
(0.154276 -0.0176478 0)
(0.128433 -0.0156991 0)
(0.104054 -0.0136725 0)
(0.0815559 -0.0116517 0)
(0.0612701 -0.00971269 0)
(0.0434093 -0.0079178 0)
(0.0280193 -0.00630772 0)
(0.0150066 -0.00490014 0)
(0.00419089 -0.00368718 0)
(-0.00462992 -0.00263152 0)
(-0.0116533 -0.00167768 0)
(-0.0170734 -0.000805468 0)
(-0.0210969 -0.00010404 0)
(-0.0239819 0.00020141 0)
(-0.0261763 -0.000161386 0)
(-0.02833 -0.00121185 0)
(-0.0309942 -0.00238845 0)
(-0.0339992 -0.00251606 0)
(-0.0359017 -0.000261922 0)
(-0.0343436 0.0048505 0)
(-0.0274118 0.0111239 0)
(-0.0157047 0.0139991 0)
(-0.00348713 0.00816448 0)
(0.1542 -0.00405834 0)
(0.143691 -0.00424545 0)
(0.132351 -0.00429801 0)
(0.120373 -0.00421701 0)
(0.107971 -0.00401309 0)
(0.0953702 -0.0037047 0)
(0.0827983 -0.00331479 0)
(0.0704793 -0.00286983 0)
(0.0586251 -0.00239998 0)
(0.0474247 -0.0019377 0)
(0.0370328 -0.00151406 0)
(0.0275603 -0.00115414 0)
(0.0190685 -0.000871925 0)
(0.0115708 -0.000665312 0)
(0.00504021 -0.00051234 0)
(-0.00057895 -0.000378852 0)
(-0.00533879 -0.000243665 0)
(-0.00928397 -0.000101228 0)
(-0.0124668 4.5176e-05 0)
(-0.0149444 0.000179995 0)
(-0.0167896 0.000285452 0)
(-0.0180773 0.000360361 0)
(-0.0188649 0.000420104 0)
(-0.0191937 0.000482948 0)
(-0.0191074 0.000543259 0)
(-0.018733 0.000544485 0)
(-0.0183785 0.00039825 0)
(-0.0185009 5.6498e-05 0)
(-0.0194788 -0.000406914 0)
(-0.0211755 -0.000740604 0)
(-0.0224825 -0.000541678 0)
(-0.0213878 0.000501684 0)
(-0.0164509 0.00206914 0)
(-0.00870113 0.00286113 0)
(-0.00186786 0.00161245 0)
(0.212312 -0.0238622 0)
(0.268438 -0.0219686 0)
(0.320543 -0.0193334 0)
(0.367198 -0.0162048 0)
(0.407489 -0.0128256 0)
(0.440984 -0.00938231 0)
(0.467626 -0.00601303 0)
(0.487617 -0.00282178 0)
(0.501349 0.000135541 0)
(0.509232 0.00284403 0)
(0.400124 -0.0909479 0)
(0.465285 -0.0860359 0)
(0.525737 -0.0787105 0)
(0.580225 -0.0697439 0)
(0.628082 -0.0598841 0)
(0.669117 -0.0497161 0)
(0.703453 -0.0396779 0)
(0.731434 -0.030088 0)
(0.753539 -0.0211363 0)
(0.770396 -0.0128903 0)
(0.58469 -0.15772 0)
(0.648419 -0.148502 0)
(0.706174 -0.135422 0)
(0.757007 -0.119876 0)
(0.800748 -0.103143 0)
(0.837667 -0.0861849 0)
(0.868223 -0.0697097 0)
(0.892988 -0.0542164 0)
(0.912617 -0.0399924 0)
(0.927785 -0.0271302 0)
(0.748235 -0.222377 0)
(0.805459 -0.207107 0)
(0.855417 -0.186958 0)
(0.897831 -0.164184 0)
(0.933281 -0.140534 0)
(0.962507 -0.117174 0)
(0.986158 -0.094938 0)
(1.00489 -0.0743877 0)
(1.0194 -0.0558109 0)
(1.03039 -0.0392685 0)
(0.87081 -0.278821 0)
(0.916494 -0.255899 0)
(0.954571 -0.227752 0)
(0.985682 -0.197821 0)
(1.01086 -0.167951 0)
(1.03076 -0.139152 0)
(1.04582 -0.112216 0)
(1.05672 -0.0876931 0)
(1.06429 -0.0658265 0)
(1.06939 -0.0466245 0)
(0.936465 -0.321634 0)
(0.969668 -0.29122 0)
(0.995787 -0.256298 0)
(1.0147 -0.22078 0)
(1.02692 -0.185787 0)
(1.03297 -0.15216 0)
(1.03387 -0.121017 0)
(1.03127 -0.0931727 0)
(1.02683 -0.0689317 0)
(1.02189 -0.0482356 0)
(0.939613 -0.347222 0)
(0.964291 -0.311987 0)
(0.97544 -0.272341 0)
(0.970641 -0.230635 0)
(0.954073 -0.188633 0)
(0.930301 -0.148871 0)
(0.903479 -0.113501 0)
(0.877229 -0.0834987 0)
(0.853997 -0.0589177 0)
(0.835003 -0.0393452 0)
(0.885363 -0.366049 0)
(0.887796 -0.320126 0)
(0.849723 -0.264038 0)
(0.784711 -0.204242 0)
(0.713925 -0.149475 0)
(0.647845 -0.104614 0)
(0.590687 -0.0702346 0)
(0.544309 -0.0447133 0)
(0.508806 -0.0260972 0)
(0.483273 -0.01303 0)
(0.75733 -0.388498 0)
(0.661129 -0.284571 0)
(0.510976 -0.1803 0)
(0.381092 -0.0993895 0)
(0.281894 -0.0444801 0)
(0.210809 -0.01254 0)
(0.161969 0.00269139 0)
(0.130405 0.00853757 0)
(0.111599 0.0113004 0)
(0.102052 0.0131494 0)
(0.438108 -0.29443 0)
(0.182141 -0.0941479 0)
(-0.0256155 0.0182371 0)
(-0.0417336 0.0249572 0)
(-0.0557734 0.0179115 0)
(-0.0619979 0.0108233 0)
(-0.0601226 0.00648022 0)
(-0.0565839 0.00386204 0)
(-0.0531811 -0.000411868 0)
(-0.0472099 -0.0134747 0)
(0.511962 0.00546006 0)
(0.509008 0.00806142 0)
(0.501114 0.010497 0)
(0.488993 0.0125762 0)
(0.473208 0.0142048 0)
(0.454285 0.0153713 0)
(0.432737 0.0161018 0)
(0.40903 0.0164358 0)
(0.383581 0.0164178 0)
(0.356758 0.0160928 0)
(0.328903 0.0155032 0)
(0.300339 0.0146872 0)
(0.271381 0.0136778 0)
(0.242339 0.0125038 0)
(0.213527 0.0111906 0)
(0.18527 0.00976277 0)
(0.157905 0.00824781 0)
(0.131777 0.00668052 0)
(0.107231 0.00510719 0)
(0.0845988 0.00358837 0)
(0.0641749 0.00219708 0)
(0.0461894 0.00101158 0)
(0.0307734 0.000101505 0)
(0.0179242 -0.000491382 0)
(0.00748276 -0.000780325 0)
(-0.000889603 -0.000831938 0)
(-0.00758845 -0.000694113 0)
(-0.0129628 -0.00047559 0)
(-0.0173015 -0.000356507 0)
(-0.0207179 -0.000419262 0)
(-0.0232091 -0.000587467 0)
(-0.0247925 -0.000724966 0)
(-0.0255854 -0.000769508 0)
(-0.0257848 -0.000749973 0)
(-0.0255719 -0.000720479 0)
(0.782467 -0.00527422 0)
(0.791081 0.00183366 0)
(0.796484 0.00839832 0)
(0.79874 0.0143664 0)
(0.797876 0.0197422 0)
(0.793891 0.0245689 0)
(0.786776 0.0288945 0)
(0.776521 0.0327583 0)
(0.763112 0.0361888 0)
(0.746539 0.0392039 0)
(0.726795 0.0418105 0)
(0.703886 0.044005 0)
(0.677831 0.0457736 0)
(0.648669 0.0470925 0)
(0.616471 0.0479291 0)
(0.581347 0.0482445 0)
(0.543463 0.0479964 0)
(0.503051 0.0471448 0)
(0.460424 0.0456577 0)
(0.415987 0.0435197 0)
(0.370249 0.0407399 0)
(0.323825 0.0373618 0)
(0.277446 0.0334705 0)
(0.231948 0.0291982 0)
(0.188264 0.0247227 0)
(0.147369 0.0202535 0)
(0.110258 0.0160358 0)
(0.0778412 0.0123053 0)
(0.0506227 0.00918036 0)
(0.028553 0.00663462 0)
(0.0110934 0.004592 0)
(-0.00254794 0.00301013 0)
(-0.0130836 0.0018246 0)
(-0.0210119 0.00087993 0)
(-0.0267804 5.95346e-05 0)
(0.93913 -0.0156191 0)
(0.947182 -0.00537228 0)
(0.952506 0.00379362 0)
(0.955557 0.0120755 0)
(0.956637 0.0196423 0)
(0.955942 0.0266318 0)
(0.953581 0.0331562 0)
(0.949589 0.0393054 0)
(0.943936 0.0451492 0)
(0.936529 0.0507389 0)
(0.927224 0.0561074 0)
(0.915831 0.0612686 0)
(0.902117 0.0662151 0)
(0.885818 0.0709173 0)
(0.866643 0.0753222 0)
(0.844292 0.0793542 0)
(0.818464 0.0829163 0)
(0.788884 0.0858931 0)
(0.755319 0.0881553 0)
(0.717612 0.0895664 0)
(0.675709 0.0899904 0)
(0.629695 0.0893019 0)
(0.579823 0.0873968 0)
(0.526545 0.0842034 0)
(0.470537 0.0796956 0)
(0.4127 0.0739094 0)
(0.35416 0.066952 0)
(0.296234 0.0590165 0)
(0.240349 0.0504094 0)
(0.187948 0.0415506 0)
(0.140379 0.0329336 0)
(0.0987685 0.025063 0)
(0.0638944 0.0183655 0)
(0.0359727 0.0130383 0)
(0.0144196 0.00896809 0)
(1.0385 -0.0246668 0)
(1.04427 -0.0117949 0)
(1.04811 -0.000369802 0)
(1.05034 0.00988023 0)
(1.05118 0.019172 0)
(1.05079 0.0276826 0)
(1.04929 0.0355698 0)
(1.04678 0.0429766 0)
(1.0433 0.0500304 0)
(1.03888 0.0568442 0)
(1.03349 0.0635169 0)
(1.02708 0.0701316 0)
(1.01952 0.0767506 0)
(1.01064 0.0834118 0)
(1.00023 0.0901237 0)
(0.987988 0.0968626 0)
(0.973584 0.103569 0)
(0.956619 0.110146 0)
(0.936649 0.116457 0)
(0.913203 0.122329 0)
(0.8858 0.127549 0)
(0.853985 0.131873 0)
(0.81736 0.135033 0)
(0.775636 0.136745 0)
(0.728672 0.136734 0)
(0.67653 0.134753 0)
(0.619518 0.130613 0)
(0.558232 0.124214 0)
(0.493588 0.115596 0)
(0.426843 0.104963 0)
(0.359576 0.0926879 0)
(0.293628 0.0793018 0)
(0.230992 0.0654643 0)
(0.173646 0.0519287 0)
(0.123298 0.0394668 0)
(1.07276 -0.0299244 0)
(1.075 -0.0153969 0)
(1.07647 -0.0026417 0)
(1.07741 0.00869167 0)
(1.07791 0.0188884 0)
(1.07801 0.0281885 0)
(1.07773 0.0368014 0)
(1.07707 0.0449074 0)
(1.07603 0.0526595 0)
(1.07458 0.0601896 0)
(1.07266 0.0676136 0)
(1.07023 0.0750348 0)
(1.0672 0.0825434 0)
(1.06347 0.0902141 0)
(1.05889 0.0981024 0)
(1.05331 0.106241 0)
(1.04652 0.114634 0)
(1.03825 0.123256 0)
(1.02822 0.132043 0)
(1.01604 0.140889 0)
(1.00128 0.149638 0)
(0.983445 0.15808 0)
(0.961986 0.165947 0)
(0.936311 0.172918 0)
(0.905817 0.17862 0)
(0.869929 0.182651 0)
(0.828152 0.184603 0)
(0.780136 0.184086 0)
(0.725754 0.180773 0)
(0.665192 0.174435 0)
(0.599039 0.164982 0)
(0.528351 0.152499 0)
(0.45469 0.137288 0)
(0.380097 0.119891 0)
(0.306994 0.101112 0)
(1.01741 -0.0307771 0)
(1.01402 -0.015935 0)
(1.01195 -0.00304295 0)
(1.01107 0.00836318 0)
(1.01119 0.0186001 0)
(1.01217 0.0279251 0)
(1.01391 0.0365611 0)
(1.01627 0.0447014 0)
(1.01914 0.0525161 0)
(1.02238 0.060159 0)
(1.02588 0.0677686 0)
(1.02949 0.075468 0)
(1.03309 0.0833658 0)
(1.03651 0.0915544 0)
(1.03959 0.100108 0)
(1.04213 0.10908 0)
(1.04393 0.118498 0)
(1.04478 0.128367 0)
(1.04442 0.13866 0)
(1.04259 0.14932 0)
(1.03898 0.160254 0)
(1.03324 0.171326 0)
(1.02498 0.182351 0)
(1.01372 0.19309 0)
(0.998922 0.203249 0)
(0.979951 0.212473 0)
(0.9561 0.220357 0)
(0.926607 0.226443 0)
(0.890704 0.230241 0)
(0.847704 0.231243 0)
(0.797109 0.228958 0)
(0.738751 0.222955 0)
(0.672923 0.212932 0)
(0.600503 0.198798 0)
(0.523032 0.18076 0)
(0.820729 -0.024056 0)
(0.811352 -0.0117558 0)
(0.806432 -0.0013006 0)
(0.805012 0.00798268 0)
(0.806469 0.0164339 0)
(0.810393 0.0242878 0)
(0.816459 0.0317243 0)
(0.824371 0.0388867 0)
(0.833866 0.045906 0)
(0.844711 0.0529137 0)
(0.856697 0.0600408 0)
(0.869622 0.0674136 0)
(0.883289 0.0751506 0)
(0.897494 0.0833593 0)
(0.912014 0.0921313 0)
(0.92661 0.101538 0)
(0.941021 0.111627 0)
(0.954966 0.122418 0)
(0.968142 0.133902 0)
(0.980229 0.146032 0)
(0.990893 0.158731 0)
(0.999785 0.171882 0)
(1.00655 0.185334 0)
(1.0108 0.198902 0)
(1.01214 0.212372 0)
(1.01009 0.225495 0)
(1.00411 0.237987 0)
(0.993516 0.249513 0)
(0.977513 0.259667 0)
(0.955188 0.26795 0)
(0.92557 0.273761 0)
(0.88774 0.276406 0)
(0.840969 0.275149 0)
(0.784888 0.269299 0)
(0.719661 0.258334 0)
(0.466211 -0.00463571 0)
(0.45777 0.00143431 0)
(0.456469 0.00654305 0)
(0.460551 0.01112 0)
(0.468722 0.0154051 0)
(0.480211 0.0196002 0)
(0.49444 0.0238519 0)
(0.510955 0.0282619 0)
(0.529434 0.0329169 0)
(0.549653 0.0379035 0)
(0.571443 0.043312 0)
(0.594668 0.0492409 0)
(0.619207 0.0557929 0)
(0.644933 0.0630725 0)
(0.671704 0.0711776 0)
(0.699344 0.0801953 0)
(0.727642 0.0901956 0)
(0.756341 0.101228 0)
(0.785133 0.113311 0)
(0.81366 0.126427 0)
(0.841515 0.140513 0)
(0.868259 0.155459 0)
(0.893431 0.171112 0)
(0.916563 0.187282 0)
(0.937186 0.203762 0)
(0.954822 0.22034 0)
(0.968963 0.236808 0)
(0.979029 0.252951 0)
(0.984328 0.268517 0)
(0.984026 0.283156 0)
(0.977146 0.296374 0)
(0.962614 0.307493 0)
(0.939332 0.31566 0)
(0.906298 0.319897 0)
(0.862756 0.319203 0)
(0.0996293 0.00561064 0)
(0.111721 -8.19621e-05 0)
(0.12928 -0.00272987 0)
(0.147096 -0.00314117 0)
(0.164571 -0.00205203 0)
(0.182259 -4.76085e-05 0)
(0.20055 0.002499 0)
(0.219706 0.0054242 0)
(0.239961 0.00868419 0)
(0.261571 0.0122975 0)
(0.284709 0.0163284 0)
(0.309501 0.0208706 0)
(0.336057 0.0260409 0)
(0.364458 0.031967 0)
(0.394756 0.0387825 0)
(0.426968 0.0466157 0)
(0.461071 0.0555887 0)
(0.49698 0.0658136 0)
(0.534536 0.0773801 0)
(0.57349 0.090342 0)
(0.613501 0.104706 0)
(0.65414 0.120416 0)
(0.6949 0.137357 0)
(0.73522 0.155361 0)
(0.774501 0.174226 0)
(0.812115 0.193746 0)
(0.847403 0.213741 0)
(0.879642 0.234066 0)
(0.908004 0.254577 0)
(0.931531 0.275055 0)
(0.949146 0.295125 0)
(0.959687 0.314197 0)
(0.961951 0.331441 0)
(0.954766 0.345821 0)
(0.937046 0.356161 0)
(-0.0300916 -0.0355386 0)
(-0.00660542 -0.0307635 0)
(0.0102754 -0.0268006 0)
(0.0227351 -0.0232348 0)
(0.0332568 -0.0197929 0)
(0.0433725 -0.0166541 0)
(0.0537673 -0.013893 0)
(0.0648228 -0.0114087 0)
(0.0768256 -0.00907493 0)
(0.0899509 -0.006776 0)