/*--------------------------------*- C++ -*----------------------------------*\
| =========                 |                                                 |
| \\      /  F ield         | OpenFOAM: The Open Source CFD Toolbox           |
|  \\    /   O peration     | Version:  2406                                  |
|   \\  /    A nd           | Website:  www.openfoam.com                      |
|    \\/     M anipulation  |                                                 |
\*---------------------------------------------------------------------------*/
FoamFile
{
    version     2.0;
    format      ascii;
    arch        "LSB;label=32;scalar=64";
    class       volVectorField;
    location    "25";
    object      U;
}
// * * * * * * * * * * * * * * * * * * * * * * * * * * * * * * * * * * * * * //

dimensions      [0 1 -1 0 0 0 0];

internalField   nonuniform List<vector> 
1900
(
(0.187009 -0.00125958 0)
(0.194793 -0.0010091 0)
(0.198675 -0.000874039 0)
(0.201632 -0.000954858 0)
(0.205401 -0.00122273 0)
(0.210595 -0.00182567 0)
(0.218194 -0.00311364 0)
(0.230572 -0.00610177 0)
(0.255363 -0.0165777 0)
(0.294189 -0.0635723 0)
(0.502931 -0.00370244 0)
(0.510126 -0.00551028 0)
(0.515178 -0.0055957 0)
(0.519591 -0.00643391 0)
(0.525885 -0.00832817 0)
(0.534652 -0.0117361 0)
(0.546775 -0.0178735 0)
(0.564102 -0.0292159 0)
(0.589727 -0.0514804 0)
(0.619125 -0.0996139 0)
(0.743276 -0.00349364 0)
(0.749033 -0.00719368 0)
(0.753077 -0.00934645 0)
(0.756457 -0.011962 0)
(0.761845 -0.0158804 0)
(0.769526 -0.0218974 0)
(0.7796 -0.0314366 0)
(0.792332 -0.0469069 0)
(0.80729 -0.0724186 0)
(0.819222 -0.114367 0)
(0.903671 -0.00312384 0)
(0.90844 -0.00781968 0)
(0.911096 -0.0115866 0)
(0.912374 -0.0157583 0)
(0.915027 -0.0212403 0)
(0.919113 -0.0289068 0)
(0.924085 -0.0400072 0)
(0.92926 -0.0562682 0)
(0.933101 -0.0798513 0)
(0.931597 -0.112606 0)
(0.98381 -0.00271368 0)
(0.987764 -0.00745842 0)
(0.988968 -0.011901 0)
(0.987919 -0.0168117 0)
(0.987369 -0.0228966 0)
(0.98723 -0.0309052 0)
(0.986622 -0.04175 0)
(0.984521 -0.0564636 0)
(0.97933 -0.0759726 0)
(0.968312 -0.100445 0)
(0.983735 -0.00200543 0)
(0.987008 -0.00602584 0)
(0.986875 -0.0103369 0)
(0.983798 -0.0151601 0)
(0.980466 -0.0209071 0)
(0.97667 -0.0281378 0)
(0.971411 -0.0374382 0)
(0.963649 -0.0493393 0)
(0.952062 -0.064136 0)
(0.934863 -0.0814863 0)
(0.903457 -0.000869804 0)
(0.906323 -0.00362556 0)
(0.905263 -0.00730879 0)
(0.900905 -0.011441 0)
(0.895801 -0.0161447 0)
(0.889616 -0.0218184 0)
(0.881371 -0.0288026 0)
(0.870167 -0.0373258 0)
(0.855021 -0.0474138 0)
(0.834817 -0.0586726 0)
(0.74297 0.000797645 0)
(0.746074 -0.00062909 0)
(0.744963 -0.00361322 0)
(0.740507 -0.00673471 0)
(0.735034 -0.00998089 0)
(0.728143 -0.0136822 0)
(0.719005 -0.0180356 0)
(0.70695 -0.0231248 0)
(0.691326 -0.0289074 0)
(0.671495 -0.0351115 0)
(0.502657 0.00246758 0)
(0.507358 0.00179015 0)
(0.50747 -0.000609495 0)
(0.504314 -0.00253529 0)
(0.500028 -0.00420392 0)
(0.494332 -0.00594372 0)
(0.486696 -0.00786797 0)
(0.476738 -0.0100126 0)
(0.464104 -0.0123583 0)
(0.448488 -0.014788 0)
(0.186924 0.00109529 0)
(0.193556 0.000484638 0)
(0.194935 3.56143e-05 0)
(0.193998 -0.000226542 0)
(0.192266 -0.000449029 0)
(0.189739 -0.000664215 0)
(0.186254 -0.000888962 0)
(0.18171 -0.00112078 0)
(0.176009 -0.00135336 0)
(0.169078 -0.00157668 0)
(-0.000455036 0.0004437 0)
(-0.00272993 0.00080747 0)
(-0.00550367 0.000791824 0)
(-0.00766788 0.000544432 0)
(-0.0084681 0.000213653 0)
(-0.00769948 -0.000121628 0)
(-0.00545766 -0.00041571 0)
(-0.00198685 -0.00064666 0)
(0.00240602 -0.000808164 0)
(0.00740524 -0.000903362 0)
(0.0127187 -0.000940725 0)
(0.0180952 -0.000931072 0)
(0.0233325 -0.000885744 0)
(0.0282778 -0.00081556 0)
(0.0328243 -0.000730015 0)
(0.0369062 -0.000637016 0)
(0.0404913 -0.0005427 0)
(0.0435743 -0.000451606 0)
(0.04617 -0.000366783 0)
(0.048308 -0.000290124 0)
(0.050027 -0.000222528 0)
(0.0513709 -0.000164231 0)
(0.0523861 -0.000114928 0)
(0.0531184 -7.40303e-05 0)
(0.0536117 -4.07245e-05 0)
(0.0539072 -1.41465e-05 0)
(0.054042 6.6094e-06 0)
(0.0540494 2.23826e-05 0)
(0.0539583 3.39746e-05 0)
(0.0537941 4.20808e-05 0)
(0.0535779 4.73373e-05 0)
(0.0533276 5.02697e-05 0)
(0.0530579 5.13517e-05 0)
(0.0527806 5.09611e-05 0)
(0.0525051 4.9442e-05 0)
(-0.000914524 0.00277829 0)
(-0.00554312 0.00507581 0)
(-0.0104028 0.00471235 0)
(-0.0134739 0.00262908 0)
(-0.0134227 -0.000207879 0)
(-0.00993248 -0.00312529 0)
(-0.00325678 -0.00571864 0)
(0.0060523 -0.00778349 0)
(0.0173183 -0.00924966 0)
(0.0298525 -0.0101312 0)
(0.0430196 -0.0104904 0)
(0.0562737 -0.0104133 0)
(0.0691728 -0.00999402 0)
(0.0813802 -0.00932401 0)
(0.0926571 -0.00848638 0)
(0.102851 -0.00755244 0)
(0.111884 -0.00658058 0)
(0.119734 -0.0056163 0)
(0.126428 -0.0046933 0)
(0.132024 -0.00383485 0)
(0.136603 -0.00305561 0)
(0.140261 -0.00236317 0)
(0.143101 -0.0017598 0)
(0.145227 -0.00124375 0)
(0.146742 -0.000810514 0)
(0.14774 -0.000453782 0)
(0.148313 -0.000166214 0)
(0.14854 5.99822e-05 0)
(0.148494 0.000232618 0)
(0.148238 0.000359255 0)
(0.147827 0.000446997 0)
(0.147306 0.000502367 0)
(0.146716 0.00053126 0)
(0.146087 0.000538923 0)
(0.145446 0.000529969 0)
(-0.00112244 0.00614858 0)
(-0.00645097 0.010384 0)
(-0.0109996 0.00868915 0)
(-0.0124727 0.00342432 0)
(-0.00953296 -0.00333358 0)
(-0.00205971 -0.0101351 0)
(0.00943819 -0.0161065 0)
(0.0241474 -0.0208116 0)
(0.0411549 -0.0241115 0)
(0.0595687 -0.0260515 0)
(0.078587 -0.0267815 0)
(0.0975321 -0.0265015 0)
(0.115861 -0.0254271 0)
(0.133162 -0.0237673 0)
(0.149146 -0.0217116 0)
(0.163626 -0.0194233 0)
(0.176507 -0.0170372 0)
(0.187767 -0.0146596 0)
(0.197438 -0.0123705 0)
(0.205594 -0.0102268 0)
(0.212342 -0.00826532 0)
(0.217805 -0.00650711 0)
(0.222116 -0.00496031 0)
(0.225415 -0.00362348 0)
(0.227835 -0.00248821 0)
(0.229508 -0.00154138 0)
(0.230556 -0.000766914 0)
(0.23109 -0.000147191 0)
(0.231211 0.000335905 0)
(0.231009 0.000700225 0)
(0.230561 0.000962862 0)
(0.229936 0.00113974 0)
(0.229189 0.0012455 0)
(0.228369 0.00129329 0)
(0.227514 0.00129489 0)
(-0.00122276 0.0098138 0)
(-0.00602305 0.0151906 0)
(-0.00834159 0.0108104 0)
(-0.00605196 0.0010396 0)
(0.00168536 -0.0106851 0)
(0.0144813 -0.0220844 0)
(0.0314317 -0.0318487 0)
(0.0514598 -0.0393691 0)
(0.0734964 -0.0444962 0)
(0.0965724 -0.0473574 0)
(0.11986 -0.0482295 0)
(0.142683 -0.0474562 0)
(0.164519 -0.0453961 0)
(0.184981 -0.042391 0)
(0.203804 -0.0387488 0)
(0.220827 -0.0347336 0)
(0.235978 -0.0305635 0)
(0.249252 -0.0264116 0)
(0.260699 -0.0224089 0)
(0.270409 -0.0186496 0)
(0.278502 -0.0151964 0)
(0.285117 -0.012086 0)
(0.290401 -0.00933412 0)
(0.294507 -0.00694074 0)
(0.297586 -0.00489393 0)
(0.299781 -0.00317348 0)
(0.301231 -0.00175383 0)
(0.302062 -0.000606316 0)
(0.302388 0.000299027 0)
(0.302313 0.000992163 0)
(0.301929 0.00150212 0)
(0.301313 0.00185631 0)
(0.300535 0.00208014 0)
(0.299651 0.00219677 0)
(0.29871 0.00222702 0)
(-0.00129012 0.0131081 0)
(-0.00441668 0.0178371 0)
(-0.00243753 0.00889661 0)
(0.00594978 -0.00666189 0)
(0.0204863 -0.0239253 0)
(0.0399653 -0.0399352 0)
(0.0629968 -0.0531451 0)
(0.088276 -0.062944 0)
(0.114681 -0.0692954 0)
(0.141296 -0.0724855 0)
(0.167395 -0.0729599 0)
(0.192429 -0.0712235 0)
(0.215993 -0.0677806 0)
(0.237812 -0.0631007 0)
(0.257712 -0.0575999 0)
(0.27561 -0.0516327 0)
(0.291487 -0.0454901 0)
(0.305383 -0.0394026 0)
(0.317378 -0.0335451 0)
(0.32758 -0.0280438 0)
(0.336122 -0.0229829 0)
(0.343147 -0.0184125 0)
(0.348807 -0.0143546 0)
(0.353254 -0.0108099 0)
(0.356639 -0.00776296 0)
(0.359106 -0.00518671 0)
(0.360792 -0.00304647 0)
(0.361823 -0.00130291 0)
(0.362316 8.55589e-05 0)
(0.362375 0.00116088 0)
(0.362094 0.00196408 0)
(0.361555 0.00253427 0)
(0.360829 0.00290799 0)
(0.359976 0.00311888 0)
(0.359048 0.0031974 0)
(-0.00123628 0.0154793 0)
(-0.00101101 0.0165282 0)
(0.00807525 0.000507059 0)
(0.0253972 -0.0219881 0)
(0.0488333 -0.0447691 0)
(0.0761525 -0.0646401 0)
(0.105545 -0.0801991 0)
(0.135641 -0.0910945 0)
(0.165443 -0.0975584 0)
(0.194248 -0.100114 0)
(0.221572 -0.0994035 0)
(0.247094 -0.0960921 0)
(0.270615 -0.0908135 0)
(0.292033 -0.0841411 0)
(0.311316 -0.0765741 0)
(0.328488 -0.0685323 0)
(0.343614 -0.0603578 0)
(0.356792 -0.0523194 0)
(0.368138 -0.0446203 0)
(0.377784 -0.0374062 0)
(0.385871 -0.0307739 0)
(0.392543 -0.02478 0)
(0.397946 -0.0194487 0)
(0.402223 -0.0147791 0)
(0.405511 -0.0107508 0)
(0.407941 -0.00733015 0)
(0.409638 -0.00447378 0)
(0.410716 -0.00213269 0)
(0.411282 -0.000254874 0)
(0.411429 0.00121241 0)
(0.411246 0.00232101 0)
(0.410807 0.00312068 0)
(0.410179 0.00365828 0)
(0.40942 0.0039772 0)
(0.408578 0.00411705 0)
(-0.000746671 0.0163032 0)
(0.00623432 0.00862481 0)
(0.0267179 -0.0176015 0)
(0.0564076 -0.0475449 0)
(0.0905569 -0.0747429 0)
(0.126102 -0.0966814 0)
(0.16123 -0.112655 0)
(0.194869 -0.122859 0)
(0.226414 -0.127921 0)
(0.255564 -0.128633 0)
(0.282197 -0.125823 0)
(0.306303 -0.120282 0)
(0.32794 -0.112734 0)
(0.347212 -0.103814 0)
(0.364248 -0.0940659 0)
(0.379193 -0.0839414 0)
(0.392203 -0.0738033 0)
(0.403433 -0.0639341 0)
(0.413037 -0.0545446 0)
(0.421168 -0.0457839 0)
(0.427968 -0.0377491 0)
(0.433578 -0.0304944 0)
(0.438126 -0.0240401 0)
(0.441738 -0.0183796 0)
(0.444529 -0.0134862 0)
(0.446608 -0.0093186 0)
(0.448076 -0.00582568 0)
(0.449025 -0.00294995 0)
(0.449542 -0.000630702 0)
(0.449704 0.00119368 0)
(0.449582 0.00258389 0)
(0.449238 0.00359841 0)
(0.448728 0.00429257 0)
(0.4481 0.00471793 0)
(0.447395 0.00492184 0)
(0.00105393 0.0133051 0)
(0.0224571 -0.0112139 0)
(0.0608261 -0.0501835 0)
(0.106181 -0.0859652 0)
(0.151342 -0.114511 0)
(0.19364 -0.135349 0)
(0.232193 -0.148981 0)
(0.266763 -0.156285 0)
(0.297426 -0.158263 0)
(0.324421 -0.155909 0)
(0.348053 -0.150155 0)
(0.368643 -0.141847 0)
(0.386506 -0.131733 0)
(0.401939 -0.120457 0)
(0.41522 -0.108563 0)
(0.426602 -0.0964948 0)
(0.436312 -0.0846038 0)
(0.444554 -0.0731601 0)
(0.451507 -0.062361 0)
(0.457329 -0.0523424 0)
(0.46216 -0.0431887 0)
(0.466121 -0.0349426 0)
(0.469321 -0.0276138 0)
(0.471855 -0.0211863 0)
(0.473811 -0.0156248 0)
(0.475266 -0.0108803 0)
(0.476291 -0.00689423 0)
(0.47695 -0.00360232 0)
(0.477303 -0.000937167 0)
(0.477402 0.00116933 0)
(0.477296 0.00278419 0)
(0.477028 0.00397209 0)
(0.476639 0.00479444 0)
(0.476161 0.00530869 0)
(0.475625 0.00556786 0)
(0.0128888 -0.00942318 0)
(0.0624646 -0.056986 0)
(0.125066 -0.103875 0)
(0.185595 -0.138442 0)
(0.237782 -0.162324 0)
(0.281923 -0.177621 0)
(0.319172 -0.185804 0)
(0.350472 -0.18809 0)
(0.376643 -0.185579 0)
(0.398429 -0.179267 0)
(0.416493 -0.170055 0)
(0.431416 -0.158745 0)
(0.443699 -0.146039 0)
(0.453781 -0.132536 0)
(0.462035 -0.118736 0)
(0.46878 -0.10504 0)
(0.474284 -0.0917614 0)
(0.478771 -0.0791344 0)
(0.482421 -0.0673249 0)
(0.485382 -0.0564412 0)
(0.487774 -0.0465446 0)
(0.48969 -0.0376588 0)
(0.491206 -0.0297779 0)
(0.492385 -0.0228733 0)
(0.493276 -0.0169001 0)
(0.493921 -0.0118014 0)
(0.494355 -0.00751249 0)
(0.49461 -0.00396401 0)
(0.494714 -0.00108426 0)
(0.494691 0.00119869 0)
(0.494565 0.00295536 0)
(0.494357 0.0042538 0)
(0.494086 0.00515868 0)
(0.493769 0.00573071 0)
(0.493422 0.00602613 0)
(0.0914487 -0.0797362 0)
(0.171459 -0.141601 0)
(0.245522 -0.176601 0)
(0.306704 -0.197913 0)
(0.3538 -0.210557 0)
(0.390483 -0.216722 0)
(0.419407 -0.21749 0)
(0.442114 -0.213707 0)
(0.45972 -0.206194 0)
(0.473158 -0.195754 0)
(0.48322 -0.183145 0)
(0.490584 -0.169058 0)
(0.495819 -0.154103 0)
(0.499406 -0.138797 0)
(0.501747 -0.123567 0)
(0.503168 -0.108749 0)
(0.503933 -0.0945989 0)
(0.504248 -0.0813003 0)
(0.504269 -0.0689759 0)
(0.504111 -0.0576979 0)
(0.503856 -0.0474984 0)
(0.50356 -0.0383774 0)
(0.503258 -0.030311 0)
(0.50297 -0.0232574 0)
(0.502705 -0.0171618 0)
(0.502466 -0.0119607 0)
(0.502252 -0.0075849 0)
(0.502058 -0.00396217 0)
(0.50188 -0.00101917 0)
(0.501713 0.00131702 0)
(0.501555 0.00311751 0)
(0.501401 0.00445073 0)
(0.501251 0.00538178 0)
(0.501105 0.00597185 0)
(0.500961 0.00627778 0)
(0.385336 -0.179298 0)
(0.407449 -0.215979 0)
(0.436002 -0.232564 0)
(0.466775 -0.241305 0)
(0.491779 -0.244405 0)
(0.510648 -0.24283 0)
(0.524396 -0.237257 0)
(0.533769 -0.228288 0)
(0.539446 -0.216565 0)
(0.54212 -0.202747 0)
(0.542451 -0.187476 0)
(0.541033 -0.171342 0)
(0.538376 -0.154862 0)
(0.534912 -0.138465 0)
(0.530992 -0.122499 0)
(0.526897 -0.107228 0)
(0.522839 -0.0928422 0)
(0.518971 -0.0794704 0)
(0.515398 -0.0671881 0)
(0.512183 -0.0560289 0)
(0.509358 -0.0459942 0)
(0.506928 -0.0370608 0)
(0.504882 -0.0291873 0)
(0.503193 -0.02232 0)
(0.501831 -0.0163961 0)
(0.500757 -0.0113476 0)
(0.499933 -0.00710358 0)
(0.499322 -0.00359151 0)
(0.498887 -0.000739228 0)
(0.498597 0.00152428 0)
(0.498422 0.00326779 0)
(0.498337 0.00455734 0)
(0.498321 0.00545565 0)
(0.498354 0.00602174 0)
(0.498423 0.00631054 0)
(0.638354 -0.179508 0)
(0.630947 -0.224628 0)
(0.625929 -0.245186 0)
(0.625925 -0.253542 0)
(0.625843 -0.254273 0)
(0.623919 -0.24951 0)
(0.619984 -0.240654 0)
(0.614098 -0.228715 0)
(0.606479 -0.214507 0)
(0.597499 -0.198742 0)
(0.587592 -0.182052 0)
(0.577183 -0.16498 0)
(0.566652 -0.147979 0)
(0.556318 -0.131411 0)
(0.546432 -0.11555 0)
(0.537183 -0.100593 0)
(0.528699 -0.0866701 0)
(0.521057 -0.0738571 0)
(0.514289 -0.062186 0)
(0.508393 -0.0516558 0)
(0.503341 -0.0422409 0)
(0.499085 -0.0338985 0)
(0.495562 -0.0265737 0)
(0.492703 -0.0202042 0)
(0.490435 -0.014723 0)
(0.488685 -0.0100608 0)
(0.48738 -0.00614789 0)
(0.486452 -0.00291464 0)
(0.48584 -0.000292876 0)
(0.485485 0.00178369 0)
(0.485336 0.00337888 0)
(0.48535 0.00455372 0)
(0.485485 0.0053661 0)
(0.485711 0.00587051 0)
(0.485997 0.00611769 0)
(0.816606 -0.169325 0)
(0.796724 -0.208987 0)
(0.773343 -0.231006 0)
(0.751927 -0.240857 0)
(0.731606 -0.242104 0)
(0.711515 -0.237047 0)
(0.691451 -0.227476 0)
(0.671374 -0.214757 0)
(0.651353 -0.199935 0)
(0.631583 -0.183844 0)
(0.612328 -0.167153 0)
(0.593855 -0.150397 0)
(0.576401 -0.13399 0)
(0.560152 -0.118238 0)
(0.545239 -0.103358 0)
(0.53174 -0.089489 0)
(0.519682 -0.0767106 0)
(0.509053 -0.0650551 0)
(0.499807 -0.0545198 0)
(0.491872 -0.0450767 0)
(0.485159 -0.036681 0)
(0.479567 -0.0292767 0)
(0.474989 -0.0228014 0)
(0.471315 -0.0171895 0)
(0.468436 -0.0123741 0)
(0.46625 -0.00828874 0)
(0.464656 -0.00486811 0)
(0.463563 -0.00204867 0)
(0.462886 0.000231099 0)
(0.46255 0.00203027 0)
(0.462486 0.00340545 0)
(0.462635 0.0044105 0)
(0.462943 0.00509648 0)
(0.463368 0.00551137 0)
(0.46387 0.00569995 0)
(0.918254 -0.151026 0)
(0.892027 -0.182329 0)
(0.859659 -0.202165 0)
(0.826009 -0.211974 0)
(0.792447 -0.213793 0)
(0.759395 -0.209438 0)
(0.727208 -0.200575 0)
(0.696149 -0.188621 0)
(0.666417 -0.174704 0)
(0.63821 -0.15971 0)
(0.611723 -0.14432 0)
(0.58712 -0.129048 0)
(0.564519 -0.11427 0)
(0.543985 -0.100241 0)
(0.525532 -0.0871294 0)
(0.509129 -0.0750277 0)
(0.494707 -0.0639761 0)
(0.482168 -0.0539751 0)
(0.471392 -0.0449985 0)
(0.462245 -0.0370018 0)
(0.454585 -0.0299301 0)
(0.448266 -0.0237224 0)
(0.443146 -0.0183157 0)
(0.439082 -0.0136466 0)
(0.435943 -0.00965323 0)
(0.433601 -0.00627576 0)
(0.43194 -0.00345675 0)
(0.430851 -0.00114119 0)
(0.430236 0.000723341 0)
(0.430007 0.0021869 0)
(0.430086 0.00329702 0)
(0.430402 0.00409895 0)
(0.430895 0.00463535 0)
(0.431515 0.00494643 0)
(0.432215 0.00506959 0)
(0.948002 -0.127316 0)
(0.917799 -0.150273 0)
(0.881082 -0.16586 0)
(0.841355 -0.173962 0)
(0.800625 -0.175566 0)
(0.760086 -0.171909 0)
(0.720609 -0.16431 0)
(0.682811 -0.153998 0)
(0.647105 -0.142007 0)
(0.613775 -0.129156 0)
(0.583008 -0.116066 0)
(0.55491 -0.103192 0)
(0.529512 -0.0908502 0)
(0.506783 -0.0792444 0)
(0.486639 -0.0684944 0)
(0.468961 -0.0586565 0)
(0.453598 -0.0497423 0)
(0.440385 -0.0417329 0)
(0.429143 -0.0345897 0)
(0.419694 -0.0282627 0)
(0.411856 -0.0226959 0)
(0.405457 -0.0178314 0)
(0.400329 -0.0136118 0)
(0.396314 -0.00998158 0)
(0.393266 -0.0068879 0)
(0.391046 -0.00428081 0)
(0.389529 -0.00211325 0)
(0.388601 -0.00034079 0)
(0.388159 0.00107846 0)
(0.388109 0.00218421 0)
(0.388369 0.00301401 0)
(0.388865 0.00360347 0)
(0.389536 0.00398617 0)
(0.390326 0.00419371 0)
(0.39119 0.00425551 0)
(0.910218 -0.0996434 0)
(0.877859 -0.115291 0)
(0.839652 -0.126168 0)
(0.798037 -0.131804 0)
(0.754958 -0.132655 0)
(0.711868 -0.12953 0)
(0.669893 -0.123385 0)
(0.629852 -0.115165 0)
(0.5923 -0.105693 0)
(0.557578 -0.095626 0)
(0.525873 -0.0854617 0)
(0.497245 -0.0755539 0)
(0.471663 -0.0661392 0)
(0.449022 -0.0573626 0)
(0.429172 -0.0493 0)
(0.411928 -0.0419785 0)
(0.397091 -0.0353919 0)
(0.38445 -0.0295125 0)
(0.373797 -0.0243001 0)
(0.364927 -0.019708 0)
(0.357646 -0.0156872 0)
(0.351768 -0.0121892 0)
(0.34712 -0.00916736 0)
(0.343542 -0.00657789 0)
(0.340887 -0.00437975 0)
(0.339019 -0.00253513 0)
(0.337815 -0.00100861 0)
(0.337163 0.000232527 0)
(0.336963 0.00121922 0)
(0.337126 0.00198028 0)
(0.337572 0.00254322 0)
(0.33823 0.00293373 0)
(0.339041 0.00317632 0)
(0.339953 0.00329376 0)
(0.340921 0.0033076 0)
(0.808623 -0.0699958 0)
(0.776445 -0.0796193 0)
(0.739505 -0.0862255 0)
(0.699573 -0.0894353 0)
(0.65832 -0.0894886 0)
(0.617153 -0.0869095 0)
(0.577196 -0.0823405 0)
(0.539282 -0.0764273 0)
(0.503971 -0.0697376 0)
(0.471589 -0.0627241 0)
(0.442285 -0.0557234 0)
(0.416073 -0.0489694 0)
(0.392871 -0.0426124 0)
(0.37253 -0.0367382 0)
(0.354861 -0.0313858 0)
(0.339652 -0.0265618 0)
(0.326684 -0.0222517 0)
(0.315737 -0.0184283 0)
(0.306599 -0.0150579 0)
(0.299067 -0.0121038 0)
(0.292955 -0.00952952 0)
(0.288087 -0.00729971 0)
(0.284301 -0.0053816 0)
(0.281452 -0.00374466 0)
(0.279404 -0.00236126 0)
(0.278036 -0.00120582 0)
(0.277239 -0.000255143 0)
(0.276912 0.000512457 0)
(0.276967 0.00111691 0)
(0.277324 0.00157716 0)
(0.277914 0.00191077 0)
(0.278676 0.0021346 0)
(0.279555 0.00226428 0)
(0.280507 0.00231475 0)
(0.281493 0.00229975 0)
(0.647049 -0.0411274 0)
(0.618188 -0.0460846 0)
(0.58584 -0.0493264 0)
(0.551335 -0.0506636 0)
(0.516013 -0.0502506 0)
(0.481046 -0.0484048 0)
(0.447373 -0.0455039 0)
(0.415681 -0.041919 0)
(0.386413 -0.0379706 0)
(0.359809 -0.0339091 0)
(0.335949 -0.0299157 0)
(0.314798 -0.0261113 0)
(0.296244 -0.0225698 0)
(0.280123 -0.0193291 0)
(0.266242 -0.0164021 0)
(0.2544 -0.0137847 0)
(0.244395 -0.0114626 0)
(0.236028 -0.00941584 0)
(0.229115 -0.00762194 0)
(0.223483 -0.00605787 0)
(0.218974 -0.00470147 0)
(0.215442 -0.00353196 0)
(0.212756 -0.00253042 0)
(0.210796 -0.00167965 0)
(0.209454 -0.000964209 0)
(0.208633 -0.0003701 0)
(0.208245 0.000115322 0)
(0.208213 0.000503723 0)
(0.208465 0.000805841 0)
(0.208939 0.00103179 0)
(0.209581 0.00119099 0)
(0.210341 0.00129242 0)
(0.211179 0.00134448 0)
(0.21206 0.00135516 0)
(0.212953 0.00133185 0)
(0.429782 -0.0170526 0)
(0.408258 -0.018819 0)
(0.384617 -0.0198511 0)
(0.359793 -0.0201061 0)
(0.33472 -0.0196778 0)
(0.310203 -0.0187171 0)
(0.286864 -0.0173865 0)
(0.265139 -0.0158371 0)
(0.245288 -0.0141929 0)
(0.227428 -0.0125468 0)
(0.211569 -0.010962 0)
(0.197647 -0.0094786 0)
(0.185549 -0.00811798 0)
(0.175134 -0.00688888 0)
(0.166251 -0.00579109 0)
(0.158743 -0.00481909 0)
(0.152462 -0.00396415 0)
(0.147266 -0.00321639 0)
(0.143024 -0.00256539 0)
(0.139617 -0.00200136 0)
(0.136935 -0.00151496 0)
(0.134881 -0.00109801 0)
(0.133366 -0.000742925 0)
(0.132313 -0.000443275 0)
(0.131649 -0.000193083 0)
(0.131311 1.27013e-05 0)
(0.131241 0.000178907 0)
(0.131389 0.000309673 0)
(0.131709 0.000409112 0)
(0.132161 0.000480798 0)
(0.132709 0.000528381 0)
(0.133322 0.000555051 0)
(0.133973 0.000564106 0)
(0.134641 0.000558389 0)
(0.135305 0.000540837 0)
(0.160925 -0.00176629 0)
(0.151721 -0.00188585 0)
(0.141799 -0.0019155 0)
(0.13157 -0.00186293 0)
(0.121423 -0.00174942 0)
(0.111671 -0.00159702 0)
(0.102542 -0.00142486 0)
(0.0941763 -0.00124802 0)
(0.0866454 -0.00107697 0)
(0.0799646 -0.000917878 0)
(0.0741111 -0.000773839 0)
(0.0690375 -0.000645924 0)
(0.0646827 -0.000533965 0)
(0.0609792 -0.000437047 0)
(0.0578584 -0.00035384 0)
(0.0552542 -0.000282835 0)
(0.0531045 -0.000222511 0)
(0.0513527 -0.000171437 0)
(0.0499473 -0.000128323 0)
(0.0488423 -9.20355e-05 0)
(0.0479967 -6.15989e-05 0)
(0.047374 -3.61791e-05 0)
(0.0469414 -1.50726e-05 0)
(0.0466699 2.31557e-06 0)
(0.0465335 1.64826e-05 0)
(0.046509 2.78515e-05 0)
(0.0465756 3.67753e-05 0)
(0.0467146 4.356e-05 0)
(0.0469095 4.84649e-05 0)
(0.0471457 5.17257e-05 0)
(0.0474102 5.3547e-05 0)
(0.047692 5.4124e-05 0)
(0.0479814 5.36296e-05 0)
(0.0482704 5.2235e-05 0)
(0.0485525 5.00929e-05 0)
(0.0522385 4.70584e-05 0)
(0.0519862 4.40592e-05 0)
(0.051752 4.06253e-05 0)
(0.0515381 3.6937e-05 0)
(0.0513459 3.31141e-05 0)
(0.0511758 2.92868e-05 0)
(0.0510276 2.55284e-05 0)
(0.0509003 2.19306e-05 0)
(0.0507928 1.85301e-05 0)
(0.0507034 1.53879e-05 0)
(0.144813 0.000508405 0)
(0.144204 0.000477664 0)
(0.143629 0.00044066 0)
(0.143098 0.000399819 0)
(0.142614 0.00035714 0)
(0.142182 0.000314222 0)
(0.1418 0.000272329 0)
(0.141468 0.000232408 0)
(0.141184 0.000195153 0)
(0.140945 0.000161019 0)
(0.226656 0.00126059 0)
(0.225819 0.00119938 0)
(0.225021 0.00111893 0)
(0.224276 0.00102577 0)
(0.223592 0.000925283 0)
(0.222975 0.000821915 0)
(0.222426 0.000719185 0)
(0.221945 0.000619853 0)
(0.221531 0.00052595 0)
(0.221179 0.000438941 0)
(0.297749 0.00218935 0)
(0.2968 0.00209995 0)
(0.295886 0.00197279 0)
(0.295023 0.00181979 0)
(0.294226 0.00165097 0)
(0.2935 0.00147456 0)
(0.29285 0.0012972 0)
(0.292277 0.00112413 0)
(0.291779 0.000959286 0)
(0.291353 0.000805525 0)
(0.358085 0.00317079 0)
(0.357123 0.00306312 0)
(0.356187 0.00289531 0)
(0.355297 0.00268535 0)
(0.354467 0.00244843 0)
(0.353706 0.00219718 0)
(0.353021 0.00194186 0)
(0.352413 0.00169059 0)
(0.351881 0.00144963 0)
(0.351422 0.00122353 0)
(0.407694 0.00411349 0)
(0.406801 0.00399824 0)
(0.405924 0.00379907 0)
(0.405084 0.00354001 0)
(0.404296 0.00324149 0)
(0.403569 0.0029206 0)
(0.402911 0.00259132 0)
(0.402323 0.00226484 0)
(0.401806 0.00194982 0)
(0.401358 0.0016527 0)
(0.446648 0.0049472 0)
(0.445887 0.00483236 0)
(0.445135 0.00461114 0)
(0.444412 0.00431296 0)
(0.443729 0.00396298 0)
(0.443096 0.00358239 0)
(0.44252 0.00318862 0)
(0.442003 0.00279573 0)
(0.441547 0.00241468 0)
(0.44115 0.0020537 0)
(0.475055 0.00562023 0)
(0.474475 0.00550921 0)
(0.473899 0.00527328 0)
(0.473343 0.00494607 0)
(0.472817 0.00455652 0)
(0.472328 0.00412911 0)
(0.47188 0.0036841 0)
(0.471478 0.00323791 0)
(0.471122 0.00280346 0)
(0.47081 0.0023905 0)
(0.493059 0.00609635 0)
(0.49269 0.00598783 0)
(0.492327 0.00574191 0)
(0.491976 0.00539491 0)
(0.491643 0.00497822 0)
(0.491334 0.0045185 0)
(0.491051 0.00403794 0)
(0.490796 0.00355459 0)
(0.490569 0.00308272 0)
(0.490371 0.00263317 0)
(0.50082 0.00635173 0)
(0.500685 0.00624095 0)
(0.500555 0.00598772 0)
(0.500431 0.00562929 0)
(0.500316 0.00519797 0)
(0.50021 0.00472131 0)
(0.500112 0.00422233 0)
(0.500025 0.00371983 0)
(0.499947 0.00322868 0)
(0.499878 0.00276027 0)
(0.498515 0.00637256 0)
(0.498621 0.00625373 0)
(0.498733 0.00599523 0)
(0.498847 0.00563349 0)
(0.498957 0.0052002 0)
(0.49906 0.00472245 0)
(0.499156 0.00422292 0)
(0.499243 0.00372018 0)
(0.499321 0.00322898 0)
(0.499388 0.0027606 0)
(0.486323 0.00615442 0)
(0.486668 0.00602331 0)
(0.487018 0.00576268 0)
(0.487361 0.00540649 0)
(0.487689 0.00498433 0)
(0.487997 0.00452159 0)
(0.488279 0.00403953 0)
(0.488533 0.00355558 0)
(0.48876 0.00308357 0)
(0.488958 0.00263411 0)
(0.464418 0.00570351 0)
(0.464986 0.00555975 0)
(0.465554 0.00530261 0)
(0.466107 0.00496224 0)
(0.466632 0.00456495 0)
(0.46712 0.00413332 0)
(0.467567 0.00368626 0)
(0.467969 0.0032393 0)
(0.468325 0.00280472 0)
(0.468636 0.00239194 0)
(0.432961 0.0050395 0)
(0.433722 0.00488773 0)
(0.434473 0.00464284 0)
(0.435198 0.00433011 0)
(0.435882 0.00397174 0)
(0.436515 0.00358666 0)
(0.437091 0.00319083 0)
(0.437608 0.00279721 0)
(0.438064 0.00241616 0)
(0.438461 0.00205544 0)
(0.39209 0.00419886 0)
(0.392994 0.00404863 0)
(0.393877 0.00382733 0)
(0.394721 0.00355491 0)
(0.395512 0.00324885 0)
(0.39624 0.00292409 0)
(0.396899 0.00259315 0)
(0.397487 0.00226622 0)
(0.398004 0.00195134 0)
(0.398452 0.00165456 0)
(0.341909 0.00323745 0)
(0.342887 0.0031016 0)
(0.343833 0.00291621 0)
(0.344729 0.00269598 0)
(0.345562 0.0024534 0)
(0.346324 0.00219949 0)
(0.347011 0.0019431 0)
(0.347619 0.00169175 0)
(0.348151 0.00145101 0)
(0.34861 0.00122533 0)
(0.282482 0.00223224 0)
(0.283449 0.0021238 0)
(0.284373 0.00198518 0)
(0.285241 0.00182562 0)
(0.286041 0.00165348 0)
(0.286768 0.00147557 0)
(0.287419 0.00129787 0)
(0.287992 0.00112488 0)
(0.28849 0.000960395 0)
(0.288916 0.000806927 0)
(0.213834 0.00128149 0)
(0.214685 0.00121033 0)
(0.21549 0.00112411 0)
(0.216239 0.00102783 0)
(0.216924 0.000925913 0)
(0.217542 0.000822033 0)
(0.218091 0.000719321 0)
(0.218572 0.000620181 0)
(0.218986 0.000526558 0)
(0.219339 0.000439755 0)
(0.135952 0.000513902 0)
(0.136569 0.000480093 0)
(0.137147 0.000441394 0)
(0.13768 0.000399828 0)
(0.138163 0.000356858 0)
(0.138596 0.000313997 0)
(0.138978 0.000272191 0)
(0.13931 0.000232468 0)
(0.139594 0.000195304 0)
(0.139833 0.000161313 0)
(0.0488225 4.73573e-05 0)
(0.0490762 4.41631e-05 0)
(0.049311 4.06462e-05 0)
(0.0495248 3.6921e-05 0)
(0.0497168 3.31014e-05 0)
(0.0498867 2.92771e-05 0)
(0.0500349 2.55361e-05 0)
(0.0501622 2.19408e-05 0)
(0.0502699 1.85521e-05 0)
(0.0503594 1.54052e-05 0)
(0.0506305 1.25119e-05 0)
(0.0505724 9.93879e-06 0)
(0.0505271 7.65377e-06 0)
(0.050493 5.67573e-06 0)
(0.0504684 3.97354e-06 0)
(0.0504516 2.55381e-06 0)
(0.0504413 1.3753e-06 0)
(0.0504361 4.37598e-07 0)
(0.050435 -3.05302e-07 0)
(0.050437 -8.56458e-07 0)
(0.0504412 -1.26237e-06 0)
(0.0504469 -1.52538e-06 0)
(0.0504535 -1.68947e-06 0)
(0.0504607 -1.75427e-06 0)
(0.050468 -1.75954e-06 0)
(0.0504752 -1.70116e-06 0)
(0.0504821 -1.61403e-06 0)
(0.0504885 -1.49013e-06 0)
(0.0504943 -1.35956e-06 0)
(0.0504996 -1.2108e-06 0)
(0.0505043 -1.06987e-06 0)
(0.0505084 -9.22411e-07 0)
(0.0505119 -7.90989e-07 0)
(0.0505149 -6.59446e-07 0)
(0.0505174 -5.47745e-07 0)
(0.0505195 -4.38478e-07 0)
(0.0505212 -3.50145e-07 0)
(0.0505225 -2.64377e-07 0)
(0.0505236 -1.9906e-07 0)
(0.0505245 -1.35229e-07 0)
(0.0505251 -9.06457e-08 0)
(0.0505256 -4.60132e-08 0)
(0.0505259 -1.99769e-08 0)
(0.0505262 6.86047e-09 0)
(0.0505263 1.69359e-08 0)
(0.140747 0.000130284 0)
(0.140587 0.000103054 0)
(0.140459 7.93196e-05 0)
(0.140361 5.8962e-05 0)
(0.140287 4.17977e-05 0)
(0.140234 2.75798e-05 0)
(0.140199 1.60385e-05 0)
(0.140178 6.87577e-06 0)
(0.140168 -2.01086e-07 0)
(0.140167 -5.48883e-06 0)
(0.140172 -9.26106e-06 0)
(0.140183 -1.17813e-05 0)
(0.140196 -1.32806e-05 0)
(0.140212 -1.39738e-05 0)
(0.140228 -1.40406e-05 0)
(0.140245 -1.36438e-05 0)
(0.140261 -1.29124e-05 0)
(0.140276 -1.19614e-05 0)
(0.140291 -1.08756e-05 0)
(0.140304 -9.73025e-06 0)
(0.140315 -8.57497e-06 0)
(0.140326 -7.4548e-06 0)
(0.140335 -6.39353e-06 0)
(0.140342 -5.41481e-06 0)
(0.140349 -4.52495e-06 0)
(0.140355 -3.73387e-06 0)
(0.140359 -3.03689e-06 0)
(0.140363 -2.43599e-06 0)
(0.140366 -1.92056e-06 0)
(0.140368 -1.48879e-06 0)
(0.14037 -1.12722e-06 0)
(0.140371 -8.32441e-07 0)
(0.140372 -5.89555e-07 0)
(0.140373 -3.94844e-07 0)
(0.140373 -2.32202e-07 0)
(0.220885 0.00035974 0)
(0.220644 0.000288866 0)
(0.22045 0.000226452 0)
(0.220298 0.000172381 0)
(0.220181 0.000126286 0)
(0.220096 8.76752e-05 0)
(0.220036 5.59143e-05 0)
(0.219997 3.03361e-05 0)
(0.219975 1.02106e-05 0)
(0.219967 -5.16001e-06 0)
(0.219969 -1.64845e-05 0)
(0.219979 -2.44e-05 0)
(0.219994 -2.95253e-05 0)
(0.220012 -3.23886e-05 0)
(0.220033 -3.34878e-05 0)
(0.220054 -3.32261e-05 0)
(0.220075 -3.19769e-05 0)
(0.220095 -3.00239e-05 0)
(0.220115 -2.76281e-05 0)
(0.220132 -2.49715e-05 0)
(0.220149 -2.22237e-05 0)
(0.220163 -1.94866e-05 0)
(0.220175 -1.68611e-05 0)
(0.220186 -1.43917e-05 0)
(0.220196 -1.21312e-05 0)
(0.220203 -1.0086e-05 0)
(0.22021 -8.27824e-06 0)
(0.220215 -6.69122e-06 0)
(0.22022 -5.32961e-06 0)
(0.220223 -4.16421e-06 0)
(0.220226 -3.19104e-06 0)
(0.220228 -2.37513e-06 0)
(0.22023 -1.70933e-06 0)
(0.220231 -1.15673e-06 0)
(0.220232 -7.08407e-07 0)
(0.290994 0.000664755 0)
(0.290697 0.000538076 0)
(0.290456 0.000425941 0)
(0.290264 0.000328263 0)
(0.290115 0.000244553 0)
(0.290003 0.000174004 0)
(0.289922 0.000115609 0)
(0.289868 6.82089e-05 0)
(0.289834 3.05915e-05 0)
(0.289817 1.51499e-06 0)
(0.289813 -2.02209e-05 0)
(0.289819 -3.57701e-05 0)
(0.289832 -4.61907e-05 0)
(0.28985 -5.24558e-05 0)
(0.289871 -5.54196e-05 0)
(0.289894 -5.58409e-05 0)
(0.289917 -5.43584e-05 0)
(0.289939 -5.15219e-05 0)
(0.289961 -4.77735e-05 0)
(0.289981 -4.34822e-05 0)
(0.289999 -3.89281e-05 0)
(0.290016 -3.43372e-05 0)
(0.29003 -2.98665e-05 0)
(0.290043 -2.56375e-05 0)
(0.290054 -2.17208e-05 0)
(0.290063 -1.81675e-05 0)
(0.290071 -1.49923e-05 0)
(0.290078 -1.22027e-05 0)
(0.290083 -9.78068e-06 0)
(0.290087 -7.71e-06 0)
(0.290091 -5.95565e-06 0)
(0.290093 -4.48992e-06 0)
(0.290095 -3.27047e-06 0)
(0.290097 -2.26488e-06 0)
(0.290098 -1.42711e-06 0)
(0.351034 0.00101543 0)
(0.35071 0.000827252 0)
(0.350444 0.000659897 0)
(0.35023 0.000513449 0)
(0.350063 0.000387348 0)
(0.349935 0.00028055 0)
(0.34984 0.000191663 0)
(0.349774 0.000119073 0)
(0.349731 6.10403e-05 0)
(0.349706 1.57861e-05 0)
(0.349697 -1.8445e-05 0)
(0.349698 -4.33297e-05 0)
(0.349707 -6.04357e-05 0)
(0.349723 -7.11907e-05 0)
(0.349742 -7.68751e-05 0)
(0.349763 -7.86101e-05 0)
(0.349786 -7.73646e-05 0)
(0.349808 -7.39558e-05 0)
(0.349829 -6.90646e-05 0)
(0.34985 -6.32422e-05 0)
(0.349868 -5.69293e-05 0)
(0.349885 -5.04648e-05 0)
(0.3499 -4.41053e-05 0)
(0.349914 -3.80331e-05 0)
(0.349925 -3.23743e-05 0)
(0.349935 -2.72044e-05 0)
(0.349943 -2.2564e-05 0)
(0.34995 -1.84618e-05 0)
(0.349956 -1.48877e-05 0)
(0.349961 -1.18127e-05 0)
(0.349964 -9.19995e-06 0)
(0.349967 -7.00218e-06 0)
(0.349969 -5.17025e-06 0)
(0.349971 -3.64921e-06 0)
(0.349972 -2.38431e-06 0)
(0.400976 0.00137797 0)
(0.400655 0.00112849 0)
(0.40039 0.000905719 0)
(0.400176 0.000710008 0)
(0.400005 0.000540818 0)
(0.399874 0.000396928 0)
(0.399775 0.000276634 0)
(0.399705 0.0001779 0)
(0.399657 9.85061e-05 0)
(0.399628 3.6154e-05 0)
(0.399613 -1.14364e-05 0)
(0.399611 -4.64615e-05 0)
(0.399616 -7.098e-05 0)
(0.399628 -8.68809e-05 0)