/*--------------------------------*- C++ -*----------------------------------*\
| =========                 |                                                 |
| \\      /  F ield         | OpenFOAM: The Open Source CFD Toolbox           |
|  \\    /   O peration     | Version:  2406                                  |
|   \\  /    A nd           | Website:  www.openfoam.com                      |
|    \\/     M anipulation  |                                                 |
\*---------------------------------------------------------------------------*/
FoamFile
{
    version     2.0;
    format      ascii;
    arch        "LSB;label=32;scalar=64";
    class       volScalarField;
    location    "938";
    object      p;
}
// * * * * * * * * * * * * * * * * * * * * * * * * * * * * * * * * * * * * * //

dimensions      [0 2 -2 0 0 0 0];

internalField   nonuniform List<scalar> 
190000
(
-0.0471259
-0.0449583
-0.043754
-0.043192
-0.0428678
-0.0426626
-0.0425368
-0.0424639
-0.042427
-0.0424157
-0.0424238
-0.042447
-0.0424825
-0.0425281
-0.0425822
-0.0426436
-0.0427113
-0.0427847
-0.042863
-0.0429459
-0.0430328
-0.0431235
-0.0432176
-0.0433148
-0.0434151
-0.0435181
-0.0436237
-0.0437318
-0.0438423
-0.0439549
-0.0440697
-0.0441865
-0.0443052
-0.0444259
-0.0445484
-0.0446726
-0.0447986
-0.0449262
-0.0450555
-0.0451863
-0.0453187
-0.0454527
-0.0455882
-0.0457252
-0.0458636
-0.0460035
-0.0461449
-0.0462877
-0.0464319
-0.0465776
-0.0467247
-0.0468732
-0.0470231
-0.0471744
-0.0473271
-0.0474813
-0.0476369
-0.047794
-0.0479525
-0.0481125
-0.048274
-0.048437
-0.0486015
-0.0487676
-0.0489353
-0.0491045
-0.0492754
-0.0494479
-0.0496222
-0.0497982
-0.049976
-0.0501557
-0.0503372
-0.0505207
-0.0507063
-0.0508939
-0.0510837
-0.0512758
-0.0514703
-0.0516673
-0.0518669
-0.0520693
-0.0522746
-0.0524831
-0.0526949
-0.0529104
-0.0531298
-0.0533535
-0.053582
-0.0538157
-0.0540554
-0.0543018
-0.0545559
-0.0548187
-0.0550915
-0.055377
-0.0556752
-0.0559408
-0.0560386
-0.0564339
-0.0452759
-0.0443704
-0.0436682
-0.0432322
-0.0429396
-0.0427394
-0.042608
-0.0425268
-0.0424816
-0.0424633
-0.0424656
-0.042484
-0.0425156
-0.0425579
-0.0426093
-0.0426684
-0.0427342
-0.0428059
-0.0428829
-0.0429645
-0.0430504
-0.0431402
-0.0432335
-0.04333
-0.0434297
-0.0435321
-0.0436373
-0.0437449
-0.0438549
-0.0439672
-0.0440817
-0.0441982
-0.0443167
-0.0444371
-0.0445594
-0.0446835
-0.0448093
-0.0449368
-0.0450659
-0.0451967
-0.045329
-0.0454629
-0.0455983
-0.0457352
-0.0458736
-0.0460135
-0.0461549
-0.0462977
-0.0464419
-0.0465876
-0.0467346
-0.0468832
-0.0470331
-0.0471845
-0.0473373
-0.0474915
-0.0476472
-0.0478044
-0.047963
-0.0481231
-0.0482847
-0.0484478
-0.0486125
-0.0487787
-0.0489465
-0.0491159
-0.049287
-0.0494598
-0.0496342
-0.0498105
-0.0499885
-0.0501685
-0.0503503
-0.0505341
-0.05072
-0.050908
-0.0510983
-0.0512908
-0.0514858
-0.0516834
-0.0518836
-0.0520867
-0.0522928
-0.0525022
-0.0527151
-0.0529317
-0.0531525
-0.0533779
-0.0536084
-0.0538447
-0.0540875
-0.0543381
-0.0545978
-0.054869
-0.0551548
-0.0554612
-0.0557973
-0.0561764
-0.0566543
-0.0574444
-0.0440888
-0.043822
-0.0434687
-0.043163
-0.0429283
-0.0427564
-0.0426368
-0.0425589
-0.0425135
-0.0424935
-0.0424936
-0.0425098
-0.0425393
-0.0425798
-0.0426296
-0.0426873
-0.0427518
-0.0428225
-0.0428985
-0.0429793
-0.0430644
-0.0431535
-0.0432462
-0.0433423
-0.0434414
-0.0435435
-0.0436483
-0.0437556
-0.0438653
-0.0439773
-0.0440916
-0.0442079
-0.0443262
-0.0444464
-0.0445685
-0.0446925
-0.0448181
-0.0449455
-0.0450746
-0.0452052
-0.0453375
-0.0454713
-0.0456067
-0.0457436
-0.045882
-0.0460218
-0.0461632
-0.0463059
-0.0464502
-0.0465958
-0.046743
-0.0468915
-0.0470415
-0.0471929
-0.0473457
-0.0475
-0.0476558
-0.047813
-0.0479717
-0.0481318
-0.0482935
-0.0484567
-0.0486215
-0.0487878
-0.0489557
-0.0491253
-0.0492965
-0.0494694
-0.049644
-0.0498204
-0.0499987
-0.0501788
-0.0503608
-0.0505449
-0.050731
-0.0509193
-0.0511098
-0.0513027
-0.051498
-0.0516959
-0.0518965
-0.0521
-0.0523066
-0.0525165
-0.05273
-0.0529473
-0.0531688
-0.053395
-0.0536264
-0.0538637
-0.0541078
-0.0543597
-0.0546209
-0.0548933
-0.0551797
-0.0554834
-0.0558083
-0.0561582
-0.0565394
-0.0569389
-0.0434956
-0.043455
-0.0432753
-0.0430624
-0.0428815
-0.0427417
-0.0426395
-0.0425703
-0.0425289
-0.0425104
-0.0425107
-0.0425266
-0.0425554
-0.042595
-0.0426439
-0.0427008
-0.0427647
-0.0428346
-0.04291
-0.0429902
-0.0430749
-0.0431635
-0.0432558
-0.0433515
-0.0434503
-0.0435521
-0.0436566
-0.0437637
-0.0438732
-0.043985
-0.044099
-0.0442152
-0.0443334
-0.0444535
-0.0445755
-0.0446993
-0.0448249
-0.0449522
-0.0450811
-0.0452117
-0.0453439
-0.0454777
-0.045613
-0.0457499
-0.0458882
-0.0460281
-0.0461694
-0.0463122
-0.0464564
-0.046602
-0.0467491
-0.0468977
-0.0470477
-0.0471991
-0.047352
-0.0475063
-0.0476621
-0.0478193
-0.047978
-0.0481382
-0.0483
-0.0484632
-0.048628
-0.0487944
-0.0489624
-0.049132
-0.0493032
-0.0494762
-0.0496509
-0.0498274
-0.0500057
-0.0501859
-0.050368
-0.0505522
-0.0507384
-0.0509267
-0.0511173
-0.0513103
-0.0515057
-0.0517036
-0.0519043
-0.0521079
-0.0523145
-0.0525243
-0.0527377
-0.0529549
-0.0531762
-0.053402
-0.0536328
-0.0538692
-0.0541118
-0.0543613
-0.0546187
-0.0548848
-0.0551605
-0.0554453
-0.0557363
-0.0560238
-0.0562843
-0.0564696
-0.0431153
-0.0431739
-0.0430988
-0.0429588
-0.0428256
-0.0427165
-0.0426327
-0.0425738
-0.042538
-0.0425223
-0.0425239
-0.04254
-0.0425686
-0.0426078
-0.0426561
-0.0427124
-0.0427757
-0.042845
-0.0429199
-0.0429996
-0.0430838
-0.0431721
-0.043264
-0.0433593
-0.0434579
-0.0435593
-0.0436636
-0.0437704
-0.0438797
-0.0439914
-0.0441052
-0.0442212
-0.0443393
-0.0444593
-0.0445811
-0.0447048
-0.0448303
-0.0449575
-0.0450864
-0.0452169
-0.0453491
-0.0454828
-0.0456181
-0.0457549
-0.0458932
-0.046033
-0.0461742
-0.046317
-0.0464612
-0.0466068
-0.0467539
-0.0469024
-0.0470524
-0.0472038
-0.0473566
-0.0475109
-0.0476667
-0.0478239
-0.0479827
-0.0481429
-0.0483046
-0.0484678
-0.0486326
-0.048799
-0.048967
-0.0491366
-0.0493078
-0.0494808
-0.0496555
-0.0498319
-0.0500102
-0.0501903
-0.0503724
-0.0505565
-0.0507426
-0.0509309
-0.0511214
-0.0513142
-0.0515094
-0.0517071
-0.0519075
-0.0521107
-0.0523168
-0.0525261
-0.0527387
-0.052955
-0.053175
-0.0533992
-0.0536278
-0.0538612
-0.0540997
-0.0543435
-0.0545926
-0.0548468
-0.0551046
-0.0553627
-0.0556139
-0.0558435
-0.0560245
-0.0561139
-0.0428324
-0.0429403
-0.0429348
-0.0428537
-0.042763
-0.0426833
-0.0426187
-0.0425716
-0.0425429
-0.0425312
-0.0425347
-0.0425518
-0.0425805
-0.0426195
-0.0426675
-0.0427232
-0.0427859
-0.0428548
-0.0429291
-0.0430083
-0.043092
-0.0431798
-0.0432714
-0.0433664
-0.0434646
-0.0435657
-0.0436697
-0.0437763
-0.0438854
-0.0439968
-0.0441105
-0.0442263
-0.0443442
-0.044464
-0.0445857
-0.0447093
-0.0448347
-0.0449618
-0.0450906
-0.045221
-0.045353
-0.0454867
-0.0456219
-0.0457586
-0.0458968
-0.0460365
-0.0461778
-0.0463204
-0.0464646
-0.0466101
-0.0467572
-0.0469056
-0.0470556
-0.0472069
-0.0473597
-0.047514
-0.0476697
-0.0478269
-0.0479855
-0.0481457
-0.0483073
-0.0484705
-0.0486352
-0.0488015
-0.0489694
-0.0491389
-0.0493101
-0.0494829
-0.0496575
-0.0498338
-0.0500119
-0.0501919
-0.0503738
-0.0505576
-0.0507435
-0.0509314
-0.0511215
-0.0513139
-0.0515086
-0.0517058
-0.0519055
-0.0521078
-0.052313
-0.052521
-0.0527322
-0.0529465
-0.0531643
-0.0533855
-0.0536103
-0.0538388
-0.0540708
-0.054306
-0.0545436
-0.054782
-0.0550182
-0.0552471
-0.0554595
-0.0556405
-0.0557666
-0.0558059
-0.0426081
-0.0427405
-0.0427812
-0.0427463
-0.0426929
-0.0426412
-0.0425965
-0.0425628
-0.0425426
-0.0425362
-0.0425429
-0.0425616
-0.0425912
-0.0426304
-0.0426781
-0.0427336
-0.0427958
-0.0428641
-0.0429379
-0.0430166
-0.0430998
-0.0431872
-0.0432783
-0.0433729
-0.0434707
-0.0435715
-0.0436752
-0.0437815
-0.0438903
-0.0440015
-0.0441149
-0.0442305
-0.0443482
-0.0444678
-0.0445894
-0.0447128
-0.044838
-0.044965
-0.0450936
-0.0452239
-0.0453558
-0.0454893
-0.0456244
-0.045761
-0.0458992
-0.0460388
-0.0461799
-0.0463225
-0.0464665
-0.046612
-0.0467589
-0.0469073
-0.0470571
-0.0472084
-0.0473611
-0.0475152
-0.0476708
-0.0478279
-0.0479864
-0.0481465
-0.048308
-0.048471
-0.0486356
-0.0488017
-0.0489694
-0.0491388
-0.0493097
-0.0494823
-0.0496566
-0.0498327
-0.0500105
-0.0501901
-0.0503716
-0.0505551
-0.0507404
-0.0509278
-0.0511173
-0.051309
-0.0515029
-0.051699
-0.0518976
-0.0520986
-0.0523022
-0.0525084
-0.0527172
-0.0529288
-0.0531432
-0.0533602
-0.0535798
-0.0538017
-0.0540253
-0.0542498
-0.0544736
-0.0546942
-0.0549078
-0.0551082
-0.0552862
-0.0554282
-0.055516
-0.0555274
-0.0424196
-0.0425649
-0.0426367
-0.0426374
-0.0426157
-0.04259
-0.0425652
-0.0425459
-0.0425357
-0.0425361
-0.0425472
-0.0425686
-0.0425997
-0.0426396
-0.0426877
-0.0427431
-0.042805
-0.042873
-0.0429463
-0.0430246
-0.0431073
-0.0431942
-0.0432848
-0.043379
-0.0434764
-0.0435768
-0.0436801
-0.0437861
-0.0438946
-0.0440055
-0.0441186
-0.0442339
-0.0443514
-0.0444708
-0.0445921
-0.0447153
-0.0448404
-0.0449671
-0.0450956
-0.0452257
-0.0453575
-0.0454908
-0.0456257
-0.0457622
-0.0459002
-0.0460396
-0.0461806
-0.046323
-0.0464669
-0.0466123
-0.0467591
-0.0469073
-0.0470569
-0.047208
-0.0473606
-0.0475146
-0.04767
-0.0478269
-0.0479852
-0.0481451
-0.0483064
-0.0484692
-0.0486335
-0.0487994
-0.0489669
-0.0491359
-0.0493065
-0.0494788
-0.0496527
-0.0498283
-0.0500057
-0.0501848
-0.0503657
-0.0505485
-0.0507332
-0.0509198
-0.0511084
-0.051299
-0.0514917
-0.0516865
-0.0518834
-0.0520826
-0.052284
-0.0524876
-0.0526934
-0.0529014
-0.0531114
-0.0533231
-0.0535363
-0.0537502
-0.0539641
-0.0541765
-0.0543854
-0.0545879
-0.0547795
-0.0549542
-0.0551032
-0.0552153
-0.0552768
-0.0552732
-0.0422542
-0.0424069
-0.0425002
-0.0425282
-0.0425329
-0.0425304
-0.0425247
-0.0425202
-0.0425211
-0.0425294
-0.0425461
-0.0425713
-0.0426048
-0.0426463
-0.0426952
-0.042751
-0.042813
-0.0428808
-0.0429539
-0.0430318
-0.0431141
-0.0432006
-0.0432908
-0.0433845
-0.0434815
-0.0435815
-0.0436844
-0.04379
-0.0438982
-0.0440087
-0.0441216
-0.0442366
-0.0443537
-0.0444729
-0.0445939
-0.0447169
-0.0448417
-0.0449682
-0.0450964
-0.0452263
-0.0453579
-0.045491
-0.0456257
-0.045762
-0.0458998
-0.0460391
-0.0461798
-0.0463221
-0.0464657
-0.0466109
-0.0467575
-0.0469055
-0.0470549
-0.0472058
-0.0473581
-0.0475119
-0.0476671
-0.0478237
-0.0479818
-0.0481413
-0.0483024
-0.0484649
-0.0486289
-0.0487944
-0.0489614
-0.04913
-0.0493002
-0.049472
-0.0496454
-0.0498205
-0.0499972
-0.0501756
-0.0503557
-0.0505377
-0.0507214
-0.0509069
-0.0510942
-0.0512835
-0.0514746
-0.0516676
-0.0518626
-0.0520594
-0.052258
-0.0524585
-0.0526606
-0.0528641
-0.0530689
-0.0532745
-0.0534802
-0.0536853
-0.0538886
-0.0540884
-0.0542824
-0.0544672
-0.0546386
-0.0547908
-0.0549162
-0.0550059
-0.0550498
-0.0550384
-0.0421047
-0.0422622
-0.0423711
-0.0424198
-0.0424461
-0.0424638
-0.0424757
-0.0424858
-0.0424981
-0.0425152
-0.0425385
-0.0425685
-0.0426054
-0.0426492
-0.0426997
-0.0427564
-0.0428189
-0.0428869
-0.04296
-0.0430378
-0.0431199
-0.043206
-0.0432958
-0.0433892
-0.0434858
-0.0435854
-0.0436879
-0.0437931
-0.0439009
-0.0440111
-0.0441236
-0.0442383
-0.0443551
-0.0444739
-0.0445947
-0.0447174
-0.0448418
-0.0449681
-0.0450961
-0.0452257
-0.045357
-0.0454899
-0.0456243
-0.0457603
-0.0458979
-0.0460369
-0.0461774
-0.0463194
-0.0464628
-0.0466077
-0.046754
-0.0469018
-0.0470509
-0.0472015
-0.0473536
-0.047507
-0.0476619
-0.0478182
-0.0479759
-0.0481351
-0.0482957
-0.0484578
-0.0486214
-0.0487864
-0.048953
-0.049121
-0.0492906
-0.0494618
-0.0496345
-0.0498088
-0.0499847
-0.0501622
-0.0503414
-0.0505222
-0.0507047
-0.0508888
-0.0510747
-0.0512622
-0.0514514
-0.0516423
-0.0518347
-0.0520287
-0.0522241
-0.0524208
-0.0526186
-0.0528171
-0.053016
-0.0532148
-0.0534125
-0.0536083
-0.0538007
-0.0539878
-0.0541672
-0.0543357
-0.054489
-0.0546221
-0.0547286
-0.0548016
-0.0548338
-0.0548189
-0.0419668
-0.042128
-0.0422484
-0.0423131
-0.0423568
-0.0423918
-0.0424196
-0.0424434
-0.0424671
-0.0424934
-0.0425238
-0.0425593
-0.0426004
-0.0426473
-0.0426999
-0.0427582
-0.0428217
-0.0428904
-0.0429638
-0.0430417
-0.0431238
-0.0432098
-0.0432994
-0.0433925
-0.0434888
-0.0435881
-0.0436902
-0.0437951
-0.0439025
-0.0440123
-0.0441244
-0.0442388
-0.0443553
-0.0444737
-0.0445942
-0.0447165
-0.0448407
-0.0449666
-0.0450943
-0.0452236
-0.0453546
-0.0454872
-0.0456213
-0.045757
-0.0458943
-0.046033
-0.0461732
-0.0463149
-0.046458
-0.0466025
-0.0467485
-0.0468959
-0.0470448
-0.047195
-0.0473467
-0.0474997
-0.0476542
-0.0478101
-0.0479674
-0.0481261
-0.0482862
-0.0484478
-0.0486108
-0.0487753
-0.0489412
-0.0491086
-0.0492774
-0.0494478
-0.0496197
-0.049793
-0.0499679
-0.0501444
-0.0503223
-0.0505018
-0.0506828
-0.0508654
-0.0510494
-0.0512349
-0.0514219
-0.0516102
-0.0517998
-0.0519905
-0.0521822
-0.0523747
-0.0525677
-0.0527607
-0.0529532
-0.0531447
-0.0533341
-0.0535203
-0.0537018
-0.0538767
-0.0540425
-0.054196
-0.0543336
-0.0544508
-0.0545424
-0.0546031
-0.0546276
-0.0546117
-0.0418379
-0.042002
-0.0421312
-0.0422084
-0.0422663
-0.0423159
-0.0423577
-0.042394
-0.0424286
-0.0424641
-0.042502
-0.0425435
-0.0425894
-0.0426399
-0.0426953
-0.0427556
-0.0428207
-0.0428904
-0.0429646
-0.0430429
-0.0431252
-0.0432113
-0.0433009
-0.0433938
-0.0434899
-0.043589
-0.0436909
-0.0437954
-0.0439025
-0.044012
-0.0441238
-0.0442378
-0.0443539
-0.0444721
-0.0445922
-0.0447142
-0.044838
-0.0449636
-0.0450909
-0.0452199
-0.0453505
-0.0454828
-0.0456166
-0.0457519
-0.0458888
-0.0460272
-0.046167
-0.0463083
-0.0464511
-0.0465952
-0.0467408
-0.0468878
-0.0470363
-0.0471861
-0.0473373
-0.0474899
-0.0476438
-0.0477992
-0.047956
-0.0481141
-0.0482737
-0.0484346
-0.048597
-0.0487607
-0.0489259
-0.0490925
-0.0492605
-0.0494299
-0.0496008
-0.049773
-0.0499468
-0.0501219
-0.0502984
-0.0504764
-0.0506557
-0.0508363
-0.0510183
-0.0512015
-0.0513859
-0.0515713
-0.0517576
-0.0519448
-0.0521324
-0.0523203
-0.052508
-0.0526952
-0.0528811
-0.0530651
-0.053246
-0.0534228
-0.0535937
-0.053757
-0.0539102
-0.0540505
-0.0541746
-0.0542786
-0.0543585
-0.0544101
-0.0544297
-0.0544144
-0.0417161
-0.0418825
-0.0420188
-0.0421059
-0.0421752
-0.0422371
-0.0422911
-0.0423388
-0.0423835
-0.0424279
-0.0424733
-0.0425211
-0.042572
-0.0426267
-0.0426853
-0.0427482
-0.0428152
-0.0428864
-0.0429616
-0.0430407
-0.0431236
-0.04321
-0.0432997
-0.0433927
-0.0434888
-0.0435877
-0.0436894
-0.0437938
-0.0439006
-0.0440098
-0.0441213
-0.044235
-0.0443508
-0.0444686
-0.0445883
-0.04471
-0.0448334
-0.0449587
-0.0450856
-0.0452142
-0.0453445
-0.0454764
-0.0456098
-0.0457447
-0.0458812
-0.0460192
-0.0461586
-0.0462995
-0.0464418
-0.0465856
-0.0467307
-0.0468773
-0.0470252
-0.0471745
-0.0473252
-0.0474772
-0.0476306
-0.0477854
-0.0479415
-0.048099
-0.0482579
-0.0484181
-0.0485797
-0.0487426
-0.0489069
-0.0490725
-0.0492395
-0.0494079
-0.0495775
-0.0497486
-0.0499209
-0.0500945
-0.0502695
-0.0504456
-0.050623
-0.0508015
-0.0509812
-0.0511618
-0.0513433
-0.0515255
-0.0517084
-0.0518916
-0.0520748
-0.0522578
-0.0524401
-0.0526212
-0.0528003
-0.0529767
-0.0531493
-0.0533169
-0.0534778
-0.0536303
-0.0537722
-0.0539008
-0.0540134
-0.0541066
-0.0541773
-0.0542223
-0.0542388
-0.0542251
-0.0415999
-0.0417682
-0.0419102
-0.0420053
-0.0420839
-0.0421562
-0.0422208
-0.0422787
-0.0423328
-0.0423855
-0.0424383
-0.0424923
-0.0425485
-0.0426075
-0.0426698
-0.0427355
-0.0428049
-0.0428779
-0.0429545
-0.0430347
-0.0431183
-0.0432053
-0.0432955
-0.0433887
-0.0434849
-0.0435838
-0.0436855
-0.0437897
-0.0438963
-0.0440053
-0.0441166
-0.04423
-0.0443455
-0.0444629
-0.0445824
-0.0447036
-0.0448267
-0.0449516
-0.0450782
-0.0452064
-0.0453363
-0.0454677
-0.0456007
-0.0457353
-0.0458713
-0.0460088
-0.0461478
-0.0462882
-0.0464301
-0.0465733
-0.0467179
-0.0468639
-0.0470113
-0.0471601
-0.0473101
-0.0474616
-0.0476143
-0.0477684
-0.0479238
-0.0480806
-0.0482386
-0.048398
-0.0485587
-0.0487207
-0.0488839
-0.0490485
-0.0492144
-0.0493815
-0.0495498
-0.0497194
-0.0498902
-0.0500622
-0.0502353
-0.0504095
-0.0505847
-0.0507609
-0.0509379
-0.0511157
-0.0512942
-0.051473
-0.0516521
-0.0518311
-0.0520098
-0.0521877
-0.0523644
-0.0525393
-0.0527116
-0.0528805
-0.053045
-0.0532037
-0.0533553
-0.0534979
-0.0536296
-0.0537481
-0.0538509
-0.0539354
-0.0539989
-0.0540391
-0.054054
-0.0540424
-0.0414883
-0.0416581
-0.0418049
-0.0419064
-0.0419928
-0.0420739
-0.0421477
-0.0422145
-0.0422771
-0.0423376
-0.0423974
-0.0424576
-0.0425191
-0.0425826
-0.0426486
-0.0427175
-0.0427895
-0.0428646
-0.0429429
-0.0430244
-0.0431091
-0.0431969
-0.0432876
-0.0433813
-0.0434778
-0.0435769
-0.0436786
-0.0437828
-0.0438893
-0.0439982
-0.0441092
-0.0442224
-0.0443376
-0.0444548
-0.0445739
-0.0446949
-0.0448176
-0.0449421
-0.0450683
-0.0451961
-0.0453256
-0.0454566
-0.0455892
-0.0457233
-0.0458588
-0.0459959
-0.0461344
-0.0462743
-0.0464156
-0.0465583
-0.0467023
-0.0468477
-0.0469945
-0.0471426
-0.047292
-0.0474427
-0.0475947
-0.0477481
-0.0479027
-0.0480586
-0.0482157
-0.0483742
-0.0485338
-0.0486948
-0.0488569
-0.0490203
-0.0491848
-0.0493506
-0.0495174
-0.0496855
-0.0498545
-0.0500247
-0.0501958
-0.0503678
-0.0505407
-0.0507144
-0.0508886
-0.0510634
-0.0512385
-0.0514138
-0.0515889
-0.0517636
-0.0519375
-0.0521102
-0.0522812
-0.0524499
-0.0526155
-0.0527772
-0.0529339
-0.0530844
-0.0532272
-0.0533609
-0.0534836
-0.0535933
-0.0536878
-0.0537652
-0.0538231
-0.0538599
-0.0538741
-0.0538649
-0.0413802
-0.0415514
-0.0417021
-0.041809
-0.0419019
-0.0419904
-0.0420721
-0.042147
-0.0422172
-0.0422849
-0.0423512
-0.0424173
-0.0424841
-0.0425521
-0.042622
-0.0426942
-0.042769
-0.0428464
-0.0429266
-0.0430097
-0.0430957
-0.0431844
-0.043276
-0.0433702
-0.0434671
-0.0435665
-0.0436684
-0.0437727
-0.0438793
-0.0439881
-0.044099
-0.044212
-0.044327
-0.044444
-0.0445628
-0.0446834
-0.0448058
-0.0449299
-0.0450557
-0.0451832
-0.0453122
-0.0454428
-0.0455749
-0.0457085
-0.0458436
-0.0459801
-0.046118
-0.0462574
-0.0463981
-0.0465402
-0.0466836
-0.0468284
-0.0469744
-0.0471218
-0.0472705
-0.0474205
-0.0475717
-0.0477242
-0.0478779
-0.0480328
-0.048189
-0.0483464
-0.0485049
-0.0486647
-0.0488256
-0.0489876
-0.0491508
-0.049315
-0.0494803
-0.0496466
-0.0498138
-0.0499819
-0.0501509
-0.0503206
-0.050491
-0.0506619
-0.0508333
-0.0510049
-0.0511765
-0.051348
-0.051519
-0.0516893
-0.0518584
-0.0520259
-0.0521912
-0.0523538
-0.0525129
-0.0526676
-0.0528168
-0.0529596
-0.0530945
-0.0532201
-0.0533348
-0.0534369
-0.0535246
-0.0535961
-0.0536498
-0.0536842
-0.0536983
-0.0536917
-0.041275
-0.0414473
-0.0416014
-0.0417129
-0.0418112
-0.041906
-0.0419946
-0.0420765
-0.0421536
-0.0422279
-0.0423004
-0.0423721
-0.0424438
-0.0425164
-0.0425902
-0.0426658
-0.0427434
-0.0428233
-0.0429057
-0.0429905
-0.0430779
-0.0431678
-0.0432603
-0.0433553
-0.0434527
-0.0435526
-0.0436548
-0.0437593
-0.0438659
-0.0439747
-0.0440856
-0.0441985
-0.0443134
-0.0444301
-0.0445486
-0.044669
-0.0447911
-0.0449148
-0.0450403
-0.0451673
-0.0452959
-0.045426
-0.0455576
-0.0456907
-0.0458253
-0.0459612
-0.0460986
-0.0462373
-0.0463774
-0.0465189
-0.0466616
-0.0468057
-0.046951
-0.0470976
-0.0472455
-0.0473946
-0.047545
-0.0476965
-0.0478492
-0.0480032
-0.0481583
-0.0483145
-0.0484719
-0.0486303
-0.0487899
-0.0489505
-0.0491121
-0.0492747
-0.0494382
-0.0496026
-0.0497679
-0.0499339
-0.0501006
-0.0502678
-0.0504356
-0.0506036
-0.0507719
-0.0509402
-0.0511082
-0.0512758
-0.0514427
-0.0516084
-0.0517727
-0.051935
-0.0520948
-0.0522514
-0.0524042
-0.0525522
-0.0526946
-0.0528302
-0.0529578
-0.0530762
-0.0531839
-0.0532795
-0.0533614
-0.0534281
-0.0534785
-0.0535113
-0.0535259
-0.0535219
-0.041172
-0.0413454
-0.0415024
-0.0416176
-0.0417205
-0.0418208
-0.0419154
-0.0420035
-0.0420868
-0.042167
-0.0422452
-0.0423222
-0.0423988
-0.0424756
-0.0425534
-0.0426324
-0.042713
-0.0427954
-0.0428799
-0.0429666
-0.0430556
-0.0431468
-0.0432404
-0.0433363
-0.0434344
-0.0435348
-0.0436374
-0.0437422
-0.043849
-0.0439579
-0.0440688
-0.0441817
-0.0442964
-0.044413
-0.0445313
-0.0446514
-0.0447732
-0.0448966
-0.0450216
-0.0451482
-0.0452764
-0.045406
-0.0455372
-0.0456698
-0.0458038
-0.0459391
-0.0460759
-0.046214
-0.0463534
-0.0464942
-0.0466362
-0.0467795
-0.0469241
-0.0470698
-0.0472168
-0.047365
-0.0475144
-0.047665
-0.0478167
-0.0479695
-0.0481234
-0.0482784
-0.0484345
-0.0485916
-0.0487497
-0.0489087
-0.0490687
-0.0492296
-0.0493912
-0.0495537
-0.0497168
-0.0498806
-0.0500448
-0.0502095
-0.0503745
-0.0505396
-0.0507047
-0.0508695
-0.0510339
-0.0511976
-0.0513602
-0.0515215
-0.0516809
-0.0518381
-0.0519924
-0.0521433
-0.0522901
-0.0524318
-0.0525677
-0.0526967
-0.0528178
-0.0529298
-0.0530313
-0.0531213
-0.0531983
-0.0532613
-0.0533091
-0.0533409
-0.0533563
-0.0533549
-0.0410709
-0.0412451
-0.0414045
-0.0415231
-0.0416299
-0.0417348
-0.0418347
-0.0419283
-0.0420171
-0.0421028
-0.0421862
-0.0422681
-0.0423492
-0.0424303
-0.0425118
-0.0425941
-0.0426777
-0.0427628
-0.0428496
-0.0429382
-0.0430289
-0.0431215
-0.0432163
-0.0433131
-0.0434121
-0.0435131
-0.0436162
-0.0437213
-0.0438285
-0.0439375
-0.0440485
-0.0441614
-0.044276
-0.0443924
-0.0445106
-0.0446304
-0.0447519
-0.044875
-0.0449997
-0.0451259
-0.0452536
-0.0453828
-0.0455134
-0.0456455
-0.0457789
-0.0459137
-0.0460498
-0.0461872
-0.046326
-0.046466
-0.0466072
-0.0467497
-0.0468934
-0.0470383
-0.0471844
-0.0473316
-0.04748
-0.0476295
-0.04778
-0.0479317
-0.0480843
-0.048238
-0.0483927
-0.0485483
-0.0487049
-0.0488623
-0.0490205
-0.0491795
-0.0493392
-0.0494996
-0.0496605
-0.0498219
-0.0499837
-0.0501457
-0.0503078
-0.0504698
-0.0506317
-0.050793
-0.0509537
-0.0511134
-0.0512719
-0.0514286
-0.0515834
-0.0517355
-0.0518846
-0.05203
-0.052171
-0.0523069
-0.0524368
-0.0525598
-0.0526749
-0.0527811
-0.0528773
-0.0529624
-0.0530354
-0.0530953
-0.0531412
-0.0531726
-0.0531889
-0.0531902
-0.040971
-0.041146
-0.0413076
-0.041429
-0.0415391
-0.0416482
-0.0417527
-0.0418511
-0.0419449
-0.0420354
-0.0421236
-0.0422101
-0.0422956
-0.0423806
-0.0424657
-0.0425513
-0.0426379
-0.0427256
-0.0428147
-0.0429053
-0.0429977
-0.0430919
-0.0431879
-0.0432858
-0.0433856
-0.0434874
-0.0435911
-0.0436967
-0.0438041
-0.0439134
-0.0440245
-0.0441374
-0.044252
-0.0443684
-0.0444864
-0.044606
-0.0447272
-0.04485
-0.0449743
-0.0451001
-0.0452274
-0.0453561
-0.0454862
-0.0456177
-0.0457505
-0.0458847
-0.0460201
-0.0461569
-0.0462949
-0.0464341
-0.0465745
-0.0467162
-0.046859
-0.0470029
-0.047148
-0.0472942
-0.0474415
-0.0475898
-0.0477392
-0.0478896
-0.0480409
-0.0481932
-0.0483464
-0.0485005
-0.0486554
-0.0488111
-0.0489675
-0.0491246
-0.0492823
-0.0494405
-0.0495991
-0.049758
-0.0499172
-0.0500764
-0.0502356
-0.0503946
-0.0505531
-0.0507109
-0.0508679
-0.0510237
-0.0511779
-0.0513303
-0.0514804
-0.0516277
-0.0517717
-0.0519119
-0.0520475
-0.0521779
-0.0523022
-0.0524197
-0.0525295
-0.0526306
-0.0527222
-0.0528032
-0.0528728
-0.0529302
-0.0529747
-0.0530058
-0.0530233
-0.0530272
-0.0408722
-0.0410478
-0.0412114
-0.0413351
-0.0414482
-0.0415608
-0.0416693
-0.041772
-0.0418702
-0.0419653
-0.0420579
-0.0421486
-0.042238
-0.0423268
-0.0424154
-0.0425042
-0.0425936
-0.0426839
-0.0427753
-0.042868
-0.0429622
-0.0430579
-0.0431552
-0.0432543
-0.0433551
-0.0434576
-0.043562
-0.0436681
-0.0437759
-0.0438855
-0.0439968
-0.0441098
-0.0442244
-0.0443407
-0.0444585
-0.044578
-0.0446989
-0.0448214
-0.0449454
-0.0450708
-0.0451976
-0.0453258
-0.0454554
-0.0455863
-0.0457185
-0.045852
-0.0459868
-0.0461228
-0.04626
-0.0463985
-0.046538
-0.0466788
-0.0468207
-0.0469636
-0.0471077
-0.0472528
-0.0473989
-0.0475461
-0.0476942
-0.0478432
-0.0479932
-0.048144
-0.0482957
-0.0484481
-0.0486013
-0.0487552
-0.0489097
-0.0490648
-0.0492204
-0.0493763
-0.0495325
-0.049689
-0.0498455
-0.0500019
-0.0501581
-0.0503139
-0.0504691
-0.0506234
-0.0507767
-0.0509286
-0.0510787
-0.0512268
-0.0513724
-0.051515
-0.0516542
-0.0517894
-0.0519199
-0.0520452
-0.0521645
-0.052277
-0.052382
-0.0524786
-0.052566
-0.0526435
-0.0527103
-0.0527657
-0.0528092
-0.0528404
-0.0528592
-0.0528655
-0.0407741
-0.0409503
-0.0411155
-0.0412414
-0.041357
-0.0414726
-0.0415847
-0.0416913
-0.0417935
-0.0418925
-0.0419891
-0.0420837
-0.0421769
-0.0422692
-0.0423611
-0.042453
-0.0425452
-0.0426381
-0.0427317
-0.0428265
-0.0429224
-0.0430197
-0.0431184
-0.0432186
-0.0433204
-0.0434238
-0.0435289
-0.0436355
-0.0437438
-0.0438537
-0.0439652
-0.0440783
-0.044193
-0.0443093
-0.044427
-0.0445463
-0.044667
-0.0447892
-0.0449128
-0.0450378
-0.0451642
-0.0452919
-0.0454209
-0.0455513
-0.0456828
-0.0458157
-0.0459497
-0.046085
-0.0462214
-0.046359
-0.0464977
-0.0466375
-0.0467784
-0.0469203
-0.0470633
-0.0472073
-0.0473522
-0.0474981
-0.0476449
-0.0477925
-0.0479411
-0.0480904
-0.0482404
-0.0483912
-0.0485426
-0.0486946
-0.0488472
-0.0490002
-0.0491536
-0.0493072
-0.049461
-0.0496149
-0.0497687
-0.0499223
-0.0500755
-0.0502281
-0.05038
-0.0505308
-0.0506804
-0.0508284
-0.0509745
-0.0511184
-0.0512597
-0.0513978
-0.0515324
-0.0516629
-0.0517887
-0.0519093
-0.0520239
-0.0521318
-0.0522325
-0.0523251
-0.052409
-0.0524835
-0.0525479
-0.0526017
-0.0526446
-0.0526761
-0.0526962
-0.0527049
-0.0406765
-0.0408531
-0.0410199
-0.0411476
-0.0412654
-0.0413837
-0.041499
-0.041609
-0.0417147
-0.0418174
-0.0419176
-0.0420158
-0.0421125
-0.0422081
-0.0423032
-0.0423979
-0.0424928
-0.0425881
-0.042684
-0.0427808
-0.0428785
-0.0429774
-0.0430775
-0.0431789
-0.0432818
-0.043386
-0.0434918
-0.043599
-0.0437078
-0.0438181
-0.0439298
-0.0440431
-0.0441579
-0.0442741
-0.0443918
-0.0445109
-0.0446314
-0.0447533
-0.0448766
-0.0450012
-0.0451271
-0.0452543
-0.0453828
-0.0455125
-0.0456435
-0.0457756
-0.0459089
-0.0460434
-0.046179
-0.0463157
-0.0464535
-0.0465923
-0.0467321
-0.046873
-0.0470148
-0.0471576
-0.0473013
-0.0474459
-0.0475913
-0.0477376
-0.0478846
-0.0480323
-0.0481807
-0.0483297
-0.0484793
-0.0486294
-0.0487799
-0.0489308
-0.0490819
-0.0492332
-0.0493846
-0.0495359
-0.0496869
-0.0498377
-0.0499878
-0.0501373
-0.0502859
-0.0504333
-0.0505792
-0.0507235
-0.0508657
-0.0510056
-0.0511426
-0.0512765
-0.0514067
-0.0515328
-0.0516542
-0.0517704
-0.0518807
-0.0519846
-0.0520814
-0.0521705
-0.0522512
-0.0523231
-0.0523856
-0.0524382
-0.0524806
-0.0525126
-0.0525341
-0.0525451
-0.0405791
-0.0407562
-0.0409243
-0.0410537
-0.0411733
-0.0412941
-0.0414121
-0.0415252
-0.0416341
-0.0417401
-0.0418436
-0.0419451
-0.042045
-0.0421437
-0.0422417
-0.0423392
-0.0424367
-0.0425343
-0.0426324
-0.0427311
-0.0428306
-0.042931
-0.0430325
-0.0431352
-0.0432391
-0.0433443
-0.0434508
-0.0435586
-0.0436679
-0.0437786
-0.0438906
-0.0440041
-0.0441189
-0.0442352
-0.0443528
-0.0444717
-0.044592
-0.0447137
-0.0448366
-0.0449608
-0.0450863
-0.045213
-0.0453409
-0.04547
-0.0456003
-0.0457317
-0.0458643
-0.0459979
-0.0461327
-0.0462685
-0.0464053
-0.0465431
-0.0466819
-0.0468217
-0.0469623
-0.0471039
-0.0472463
-0.0473895
-0.0475336
-0.0476783
-0.0478238
-0.0479699
-0.0481166
-0.0482638
-0.0484115
-0.0485596
-0.0487081
-0.0488568
-0.0490057
-0.0491546
-0.0493034
-0.0494521
-0.0496004
-0.0497483
-0.0498955
-0.0500418
-0.0501871
-0.0503311
-0.0504735
-0.0506141
-0.0507525
-0.0508885
-0.0510216
-0.0511514
-0.0512775
-0.0513994
-0.0515167
-0.0516289
-0.0517353
-0.0518354
-0.0519288
-0.0520148
-0.0520928
-0.0521625
-0.0522234
-0.052275
-0.0523172
-0.0523498
-0.0523726
-0.0523858
-0.0404819
-0.0406593
-0.0408286
-0.0409595
-0.0410808
-0.0412037
-0.0413242
-0.0414399
-0.0415517
-0.0416607
-0.0417673
-0.0418718
-0.0419746
-0.0420762
-0.0421769
-0.042277
-0.0423769
-0.0424768
-0.042577
-0.0426776
-0.0427788
-0.0428808
-0.0429837
-0.0430875
-0.0431925
-0.0432986
-0.0434059
-0.0435144
-0.0436242
-0.0437352
-0.0438476
-0.0439613
-0.0440762
-0.0441925
-0.04431
-0.0444289
-0.044549
-0.0446703
-0.0447929
-0.0449167
-0.0450417
-0.0451679
-0.0452953
-0.0454238
-0.0455534
-0.0456841
-0.0458159
-0.0459487
-0.0460825
-0.0462174
-0.0463532
-0.04649
-0.0466277
-0.0467663
-0.0469058
-0.0470461
-0.0471872
-0.047329
-0.0474716
-0.0476148
-0.0477587
-0.0479031
-0.048048
-0.0481935
-0.0483393
-0.0484854
-0.0486317
-0.0487782
-0.0489248
-0.0490713
-0.0492177
-0.0493637
-0.0495093
-0.0496543
-0.0497985
-0.0499418
-0.0500838
-0.0502245
-0.0503635
-0.0505005
-0.0506353
-0.0507675
-0.0508968
-0.0510227
-0.051145
-0.0512631
-0.0513766
-0.051485
-0.0515878
-0.0516846
-0.0517749
-0.0518581
-0.0519338
-0.0520016
-0.0520612
-0.0521121
-0.0521543
-0.0521874
-0.0522117
-0.052227
-0.0403846
-0.0405625
-0.0407328
-0.0408649
-0.0409878
-0.0411125
-0.0412352
-0.0413534
-0.0414678
-0.0415794
-0.0416887
-0.041796
-0.0419015
-0.0420058
-0.042109
-0.0422116
-0.0423138
-0.0424158
-0.042518
-0.0426204
-0.0427233
-0.0428268
-0.042931
-0.0430361
-0.0431421
-0.0432491
-0.0433572
-0.0434664
-0.0435767
-0.0436882
-0.0438008
-0.0439147
-0.0440298
-0.0441461
-0.0442636
-0.0443823
-0.0445022
-0.0446233
-0.0447455
-0.0448689
-0.0449935
-0.0451191
-0.0452459
-0.0453738
-0.0455027
-0.0456326
-0.0457636
-0.0458956
-0.0460286
-0.0461625
-0.0462973
-0.046433
-0.0465696
-0.046707
-0.0468453
-0.0469842
-0.047124
-0.0472644
-0.0474055
-0.0475471
-0.0476894
-0.0478321
-0.0479753
-0.0481188
-0.0482627
-0.0484068
-0.048551
-0.0486953
-0.0488396
-0.0489837
-0.0491275
-0.0492709
-0.0494138
-0.049556
-0.0496972
-0.0498374
-0.0499764
-0.0501138
-0.0502494
-0.050383
-0.0505143
-0.0506429
-0.0507686
-0.0508909
-0.0510095
-0.051124
-0.051234
-0.051339
-0.0514386
-0.0515323
-0.0516198
-0.0517006
-0.0517743
-0.0518405
-0.0518989
-0.0519494
-0.0519916
-0.0520255
-0.0520511
-0.0520685
-0.0402873
-0.0404654
-0.0406367
-0.04077
-0.0408941
-0.0410205
-0.0411452
-0.0412656
-0.0413823
-0.0414963
-0.0416081
-0.0417179
-0.041826
-0.0419326
-0.0420383
-0.0421431
-0.0422475
-0.0423516
-0.0424556
-0.0425598
-0.0426643
-0.0427693
-0.0428748
-0.042981
-0.0430881
-0.043196
-0.0433048
-0.0434146
-0.0435255
-0.0436374
-0.0437504
-0.0438645
-0.0439797
-0.044096
-0.0442135
-0.044332
-0.0444517
-0.0445726
-0.0446945
-0.0448175
-0.0449415
-0.0450667
-0.0451929
-0.0453201
-0.0454483
-0.0455775
-0.0457077
-0.0458388
-0.0459708
-0.0461037
-0.0462375
-0.0463721
-0.0465076
-0.0466438
-0.0467808
-0.0469184
-0.0470568
-0.0471958
-0.0473353
-0.0474754
-0.047616
-0.047757
-0.0478983
-0.04804
-0.0481819
-0.0483239
-0.048466
-0.0486081
-0.0487501
-0.0488918
-0.0490331