/*--------------------------------*- C++ -*----------------------------------*\
| =========                 |                                                 |
| \\      /  F ield         | OpenFOAM: The Open Source CFD Toolbox           |
|  \\    /   O peration     | Version:  2406                                  |
|   \\  /    A nd           | Website:  www.openfoam.com                      |
|    \\/     M anipulation  |                                                 |
\*---------------------------------------------------------------------------*/
FoamFile
{
    version     2.0;
    format      ascii;
    arch        "LSB;label=32;scalar=64";
    class       volScalarField;
    location    "73";
    object      p;
}
// * * * * * * * * * * * * * * * * * * * * * * * * * * * * * * * * * * * * * //

dimensions      [0 2 -2 0 0 0 0];

internalField   nonuniform List<scalar> 
2000
(
0.40632
0.403534
0.400109
0.396495
0.392719
0.388819
0.384852
0.380848
0.37682
0.372775
0.408034
0.40408
0.400145
0.396469
0.392691
0.388783
0.384815
0.380816
0.376794
0.372753
0.40896
0.404376
0.400108
0.396421
0.392666
0.388749
0.384776
0.380782
0.376766
0.37273
0.409472
0.404633
0.400128
0.396399
0.392653
0.388725
0.384741
0.380748
0.376738
0.372705
0.409849
0.404892
0.400204
0.396404
0.392649
0.388708
0.384709
0.380713
0.376705
0.372675
0.410138
0.405118
0.400299
0.39643
0.392659
0.388702
0.384685
0.380682
0.376673
0.372645
0.410354
0.405299
0.400392
0.396468
0.392678
0.388705
0.384671
0.380658
0.376647
0.372619
0.410509
0.405435
0.400471
0.396507
0.3927
0.388712
0.384665
0.380643
0.376628
0.372598
0.410609
0.405525
0.400526
0.396537
0.392718
0.38872
0.384663
0.380634
0.376616
0.372584
0.410659
0.405569
0.400555
0.396554
0.392728
0.388725
0.384662
0.38063
0.37661
0.372577
0.410659
0.405569
0.400555
0.396554
0.392728
0.388725
0.384662
0.38063
0.37661
0.372577
0.410609
0.405525
0.400526
0.396537
0.392718
0.388721
0.384663
0.380634
0.376616
0.372584
0.410509
0.405435
0.400471
0.396507
0.3927
0.388712
0.384665
0.380643
0.376628
0.372598
0.410354
0.405299
0.400392
0.396468
0.392678
0.388705
0.384671
0.380658
0.376647
0.372619
0.410138
0.405118
0.400299
0.39643
0.392659
0.388702
0.384685
0.380681
0.376673
0.372645
0.409849
0.404892
0.400204
0.396403
0.392649
0.388708
0.384709
0.380713
0.376705
0.372675
0.409472
0.404633
0.400128
0.396399
0.392653
0.388725
0.384741
0.380748
0.376738
0.372705
0.40896
0.404376
0.400108
0.396421
0.392666
0.388749
0.384776
0.380782
0.376766
0.37273
0.408034
0.40408
0.400145
0.396469
0.392691
0.388783
0.384815
0.380816
0.376794
0.372753
0.40632
0.403534
0.400109
0.396495
0.392719
0.388819
0.384852
0.380848
0.37682
0.372775
0.368716
0.364648
0.360573
0.356492
0.352406
0.348316
0.344223
0.340126
0.336028
0.331927
0.327824
0.323719
0.319612
0.315504
0.311395
0.307285
0.303173
0.29906
0.294947
0.290832
0.286717
0.282601
0.278484
0.274366
0.270248
0.266129
0.26201
0.25789
0.25377
0.249649
0.245528
0.241406
0.237284
0.233162
0.229039
0.368698
0.364633
0.36056
0.356481
0.352396
0.348308
0.344215
0.34012
0.336022
0.331921
0.327819
0.323714
0.319608
0.315501
0.311392
0.307282
0.30317
0.299058
0.294944
0.29083
0.286715
0.282599
0.278482
0.274365
0.270247
0.266128
0.262009
0.257889
0.253769
0.249648
0.245527
0.241405
0.237283
0.233161
0.229038
0.368678
0.364616
0.360546
0.356469
0.352386
0.348299
0.344207
0.340113
0.336016
0.331916
0.327814
0.32371
0.319605
0.315497
0.311389
0.307279
0.303168
0.299055
0.294942
0.290828
0.286713
0.282597
0.278481
0.274363
0.270245
0.266127
0.262008
0.257888
0.253768
0.249647
0.245526
0.241404
0.237282
0.23316
0.229037
0.368656
0.364598
0.36053
0.356455
0.352375
0.348289
0.344199
0.340106
0.336009
0.331911
0.327809
0.323706
0.319601
0.315494
0.311386
0.307276
0.303165
0.299053
0.29494
0.290826
0.286711
0.282596
0.278479
0.274362
0.270244
0.266126
0.262006
0.257887
0.253767
0.249646
0.245525
0.241403
0.237282
0.233159
0.229037
0.36863
0.364574
0.36051
0.356439
0.35236
0.348276
0.344188
0.340096
0.336001
0.331904
0.327803
0.323701
0.319596
0.31549
0.311382
0.307273
0.303162
0.299051
0.294938
0.290824
0.28671
0.282594
0.278478
0.274361
0.270243
0.266124
0.262005
0.257886
0.253766
0.249645
0.245524
0.241403
0.237281
0.233159
0.229036
0.368601
0.364548
0.360488
0.356419
0.352343
0.348261
0.344175
0.340085
0.335992
0.331896
0.327797
0.323695
0.319591
0.315485
0.311378
0.307269
0.303159
0.299048
0.294935
0.290822
0.286707
0.282592
0.278476
0.274359
0.270241
0.266123
0.262004
0.257884
0.253764
0.249644
0.245523
0.241402
0.23728
0.233158
0.229035
0.368575
0.364524
0.360466
0.3564
0.352327
0.348246
0.344162
0.340073
0.335982
0.331887
0.327789
0.323688
0.319585
0.31548
0.311373
0.307265
0.303155
0.299044
0.294932
0.290819
0.286705
0.28259
0.278474
0.274357
0.270239
0.266121
0.262002
0.257883
0.253763
0.249643
0.245522
0.241401
0.237279
0.233157
0.229034
0.368554
0.364504
0.360448
0.356384
0.352312
0.348233
0.34415
0.340063
0.335973
0.331879
0.327782
0.323683
0.31958
0.315475
0.311369
0.307261
0.303152
0.299041
0.29493
0.290817
0.286703
0.282588
0.278472
0.274355
0.270238
0.26612
0.262001
0.257882
0.253762
0.249642
0.245521
0.2414
0.237278
0.233156
0.229033
0.368539
0.364489
0.360435
0.356372
0.352302
0.348224
0.344141
0.340055
0.335966
0.331873
0.327777
0.323678
0.319576
0.315472
0.311366
0.307258
0.303149
0.299039
0.294928
0.290815
0.286701
0.282586
0.27847
0.274354
0.270236
0.266118
0.262
0.257881
0.253761
0.249641
0.24552
0.241399
0.237277
0.233155
0.229033
0.368532
0.364482
0.360428
0.356366
0.352296
0.348219
0.344136
0.340051
0.335962
0.33187
0.327775
0.323676
0.319574
0.31547
0.311364
0.307256
0.303148
0.299038
0.294926
0.290814
0.2867
0.282585
0.27847
0.274353
0.270236
0.266118
0.261999
0.25788
0.25376
0.24964
0.24552
0.241398
0.237277
0.233155
0.229032
0.368532
0.364482
0.360428
0.356366
0.352296
0.348219
0.344136
0.340051
0.335962
0.33187
0.327775
0.323676
0.319574
0.31547
0.311364
0.307256
0.303148
0.299038
0.294926
0.290814
0.2867
0.282585
0.27847
0.274353
0.270236
0.266118
0.261999
0.25788
0.25376
0.24964
0.24552
0.241398
0.237277
0.233155
0.229032
0.368539
0.364489
0.360434
0.356372
0.352302
0.348224
0.344141
0.340055
0.335966
0.331873
0.327777
0.323678
0.319576
0.315472
0.311366
0.307258
0.303149
0.299039
0.294927
0.290815
0.286701
0.282586
0.27847
0.274354
0.270236
0.266118
0.262
0.257881
0.253761
0.249641
0.24552
0.241399
0.237277
0.233155
0.229033
0.368554
0.364504
0.360448
0.356384
0.352312
0.348233
0.34415
0.340063
0.335973
0.331879
0.327782
0.323683
0.31958
0.315475
0.311369
0.307261
0.303152
0.299041
0.29493
0.290817
0.286703
0.282588
0.278472
0.274355
0.270238
0.26612
0.262001
0.257882
0.253762
0.249641
0.245521
0.241399
0.237278
0.233156
0.229033
0.368575
0.364524
0.360466
0.3564
0.352327
0.348246
0.344162
0.340073
0.335982
0.331887
0.327789
0.323688
0.319585
0.31548
0.311373
0.307265
0.303155
0.299044
0.294932
0.290819
0.286705
0.28259
0.278474
0.274357
0.270239
0.266121
0.262002
0.257883
0.253763
0.249643
0.245522
0.2414
0.237279
0.233156
0.229034
0.368601
0.364548
0.360488
0.356419
0.352343
0.348261
0.344175
0.340085
0.335992
0.331895
0.327796
0.323695
0.319591
0.315485
0.311378
0.307269
0.303159
0.299048
0.294935
0.290822
0.286707
0.282592
0.278476
0.274359
0.270241
0.266123
0.262004
0.257884
0.253764
0.249644
0.245523
0.241401
0.237279
0.233157
0.229035
0.36863
0.364574
0.36051
0.356439
0.35236
0.348276
0.344188
0.340096
0.336001
0.331904
0.327803
0.323701
0.319596
0.31549
0.311382
0.307273
0.303162
0.299051
0.294938
0.290824
0.286709
0.282594
0.278477
0.27436
0.270242
0.266124
0.262005
0.257885
0.253765
0.249645
0.245524
0.241402
0.23728
0.233158
0.229035
0.368656
0.364597
0.36053
0.356455
0.352375
0.348289
0.344199
0.340106
0.336009
0.33191
0.327809
0.323706
0.319601
0.315494
0.311386
0.307276
0.303165
0.299053
0.29494
0.290826
0.286711
0.282595
0.278479
0.274362
0.270244
0.266125
0.262006
0.257886
0.253766
0.249646
0.245525
0.241403
0.237281
0.233159
0.229036
0.368678
0.364616
0.360546
0.356469
0.352386
0.348298
0.344207
0.340113
0.336016
0.331916
0.327814
0.32371
0.319604
0.315497
0.311389
0.307279
0.303168
0.299055
0.294942
0.290828
0.286713
0.282597
0.27848
0.274363
0.270245
0.266126
0.262007
0.257887
0.253767
0.249646
0.245525
0.241404
0.237282
0.233159
0.229037
0.368698
0.364633
0.36056
0.356481
0.352396
0.348307
0.344215
0.34012
0.336022
0.331921
0.327819
0.323714
0.319608
0.315501
0.311392
0.307282
0.30317
0.299058
0.294944
0.29083
0.286715
0.282599
0.278482
0.274365
0.270246
0.266128
0.262008
0.257889
0.253768
0.249648
0.245526
0.241405
0.237283
0.23316
0.229037
0.368716
0.364648
0.360573
0.356492
0.352406
0.348316
0.344223
0.340126
0.336028
0.331926
0.327823
0.323719
0.319612
0.315504
0.311395
0.307285
0.303173
0.29906
0.294947
0.290832
0.286717
0.282601
0.278484
0.274366
0.270248
0.266129
0.26201
0.25789
0.25377
0.249649
0.245527
0.241406
0.237284
0.233161
0.229038
0.224916
0.220792
0.216669
0.212545
0.20842
0.204296
0.200171
0.196046
0.191921
0.187796
0.224915
0.220792
0.216668
0.212544
0.20842
0.204295
0.200171
0.196046
0.191921
0.187796
0.224914
0.220791
0.216667
0.212543
0.208419
0.204295
0.20017
0.196045
0.19192
0.187795
0.224914
0.22079
0.216667
0.212543
0.208419
0.204295
0.20017
0.196045
0.19192
0.187795
0.224913
0.22079
0.216666
0.212542
0.208418
0.204294
0.200169
0.196045
0.19192
0.187795
0.224912
0.220789
0.216666
0.212542
0.208418
0.204293
0.200169
0.196044
0.191919
0.187794
0.224911
0.220788
0.216665
0.212541
0.208417
0.204293
0.200168
0.196044
0.191919
0.187794
0.224911
0.220788
0.216664
0.21254
0.208416
0.204292
0.200168
0.196043
0.191918
0.187793
0.22491
0.220787
0.216664
0.21254
0.208416
0.204292
0.200167
0.196043
0.191918
0.187793
0.22491
0.220787
0.216663
0.212539
0.208416
0.204291
0.200167
0.196042
0.191917
0.187792
0.22491
0.220786
0.216663
0.212539
0.208415
0.204291
0.200167
0.196042
0.191917
0.187792
0.22491
0.220787
0.216663
0.21254
0.208416
0.204291
0.200167
0.196042
0.191917
0.187792
0.22491
0.220787
0.216664
0.21254
0.208416
0.204292
0.200167
0.196043
0.191918
0.187793
0.224911
0.220788
0.216664
0.212541
0.208417
0.204292
0.200168
0.196043
0.191918
0.187793
0.224912
0.220789
0.216665
0.212541
0.208417
0.204293
0.200168
0.196043
0.191918
0.187793
0.224912
0.220789
0.216666
0.212542
0.208418
0.204293
0.200169
0.196044
0.191919
0.187794
0.224913
0.22079
0.216666
0.212542
0.208418
0.204294
0.200169
0.196044
0.191919
0.187794
0.224914
0.22079
0.216667
0.212543
0.208419
0.204294
0.20017
0.196045
0.19192
0.187794
0.224914
0.220791
0.216667
0.212543
0.208419
0.204295
0.20017
0.196045
0.19192
0.187795
0.224915
0.220792
0.216668
0.212544
0.20842
0.204295
0.200171
0.196046
0.191921
0.187795
0.183671
0.179545
0.175419
0.171293
0.167167
0.163041
0.158915
0.154788
0.150662
0.146535
0.142408
0.138281
0.134155
0.130027
0.1259
0.121773
0.117646
0.113519
0.109391
0.105264
0.101136
0.0970088
0.0928812
0.0887535
0.0846258
0.0804981
0.0763703
0.0722425
0.0681146
0.0639867
0.0598588
0.0557308
0.0516028
0.0474747
0.0433466
0.18367
0.179545
0.175419
0.171293
0.167167
0.163041
0.158914
0.154788
0.150661
0.146535
0.142408
0.138281
0.134154
0.130027
0.1259
0.121773
0.117646
0.113519
0.109391
0.105264
0.101136
0.0970087
0.0928811
0.0887535
0.0846258
0.0804981
0.0763703
0.0722425
0.0681146
0.0639867
0.0598588
0.0557308
0.0516028
0.0474748
0.0433467
0.18367
0.179544
0.175419
0.171293
0.167167
0.16304
0.158914
0.154788
0.150661
0.146535
0.142408
0.138281
0.134154
0.130027
0.1259
0.121773
0.117646
0.113518
0.109391
0.105264
0.101136
0.0970086
0.0928811
0.0887534
0.0846258
0.080498
0.0763703
0.0722425
0.0681146
0.0639867
0.0598588
0.0557308
0.0516028
0.0474748
0.0433467
0.18367
0.179544
0.175418
0.171292
0.167166
0.16304
0.158914
0.154788
0.150661
0.146534
0.142408
0.138281
0.134154
0.130027
0.1259
0.121773
0.117646
0.113518
0.109391
0.105264
0.101136
0.0970086
0.092881
0.0887534
0.0846257
0.080498
0.0763702
0.0722424
0.0681146
0.0639867
0.0598588
0.0557308
0.0516028
0.0474748
0.0433467
0.183669
0.179544
0.175418
0.171292
0.167166
0.16304
0.158914
0.154787
0.150661
0.146534
0.142408
0.138281
0.134154
0.130027
0.1259
0.121773
0.117645
0.113518
0.109391
0.105263
0.101136
0.0970084
0.0928809
0.0887532
0.0846256
0.0804979
0.0763701
0.0722423
0.0681145
0.0639866
0.0598587
0.0557307
0.0516028
0.0474747
0.0433467
0.183669
0.179543
0.175418
0.171292
0.167166
0.16304
0.158913
0.154787
0.150661
0.146534
0.142407
0.13828
0.134154
0.130027
0.1259
0.121772
0.117645
0.113518
0.109391
0.105263
0.101136
0.0970082
0.0928807
0.0887531
0.0846254
0.0804977
0.0763699
0.0722421
0.0681143
0.0639864
0.0598585
0.0557306
0.0516026
0.0474746
0.0433465
0.183668
0.179543
0.175417
0.171291
0.167165
0.163039
0.158913
0.154787
0.15066
0.146534
0.142407
0.13828
0.134153
0.130026
0.125899
0.121772
0.117645
0.113518
0.10939
0.105263
0.101135
0.097008
0.0928804
0.0887528
0.0846251
0.0804974
0.0763697
0.0722419
0.0681141
0.0639862
0.0598583
0.0557303
0.0516024
0.0474744
0.0433463
0.183668
0.179542
0.175417
0.171291
0.167165
0.163039
0.158913
0.154786
0.15066
0.146533
0.142407
0.13828
0.134153
0.130026
0.125899
0.121772
0.117645
0.113517
0.10939
0.105263
0.101135
0.0970076
0.0928801
0.0887524
0.0846248
0.0804971
0.0763693
0.0722416
0.0681137
0.0639859
0.059858
0.05573
0.0516021
0.0474741
0.043346
0.183667
0.179542
0.175416
0.17129
0.167165
0.163038
0.158912
0.154786
0.150659
0.146533
0.142406
0.138279
0.134153
0.130026
0.125899
0.121771
0.117644
0.113517
0.10939
0.105262
0.101135
0.0970073
0.0928797
0.0887521
0.0846244
0.0804967
0.076369
0.0722412
0.0681134
0.0639855
0.0598576
0.0557297
0.0516017
0.0474737
0.0433457
0.183667
0.179542
0.175416
0.17129
0.167164
0.163038
0.158912
0.154786
0.150659
0.146533
0.142406
0.138279
0.134152
0.130025
0.125898
0.121771
0.117644
0.113517
0.109389
0.105262
0.101134
0.0970069
0.0928793
0.0887517
0.0846241
0.0804964
0.0763686
0.0722408
0.068113
0.0639851
0.0598572
0.0557293
0.0516013
0.0474733
0.0433453
0.183667
0.179541
0.175416
0.17129
0.167164
0.163038
0.158912
0.154785
0.150659
0.146532
0.142406
0.138279
0.134152
0.130025
0.125898
0.121771
0.117644
0.113516
0.109389
0.105262
0.101134
0.0970066
0.092879
0.0887514
0.0846237
0.080496
0.0763683
0.0722405
0.0681126
0.0639848
0.0598569
0.0557289
0.051601
0.047473
0.043345
0.183667
0.179542
0.175416
0.17129
0.167164
0.163038
0.158912
0.154785
0.150659
0.146532
0.142406
0.138279
0.134152
0.130025
0.125898
0.121771
0.117643
0.113516
0.109389
0.105261
0.101134
0.0970064
0.0928788
0.0887512
0.0846235
0.0804958
0.076368
0.0722402
0.0681123
0.0639845
0.0598566
0.0557286
0.0516007
0.0474727
0.0433447
0.183667
0.179542
0.175416
0.17129
0.167164
0.163038
0.158912
0.154785
0.150659
0.146532
0.142406
0.138279
0.134152
0.130025
0.125898
0.121771
0.117643
0.113516
0.109389
0.105261
0.101134
0.0970062
0.0928786
0.088751
0.0846233
0.0804956
0.0763678
0.07224
0.0681121
0.0639842
0.0598563
0.0557284
0.0516004
0.0474724
0.0433444
0.183668
0.179542
0.175416
0.17129
0.167164
0.163038
0.158912
0.154786
0.150659
0.146532
0.142406
0.138279
0.134152
0.130025
0.125898
0.121771
0.117643
0.113516
0.109389
0.105261
0.101134
0.0970061
0.0928785
0.0887509
0.0846232
0.0804954
0.0763676
0.0722398
0.068112
0.0639841
0.0598562
0.0557282
0.0516003
0.0474723
0.0433443
0.183668
0.179542
0.175417
0.171291
0.167165
0.163039
0.158912
0.154786
0.150659
0.146533
0.142406
0.138279
0.134152
0.130025
0.125898
0.121771
0.117643
0.113516
0.109389
0.105261
0.101134
0.0970061
0.0928785
0.0887508
0.0846231
0.0804954
0.0763676
0.0722398
0.0681119
0.063984
0.0598561
0.0557281
0.0516002
0.0474722
0.0433442
0.183668
0.179543
0.175417
0.171291
0.167165
0.163039
0.158912
0.154786
0.150659
0.146533
0.142406
0.138279
0.134152
0.130025
0.125898
0.121771
0.117643
0.113516
0.109389
0.105261
0.101134
0.0970062
0.0928785
0.0887509
0.0846231
0.0804954
0.0763676
0.0722398
0.0681119
0.063984
0.0598561
0.0557281
0.0516002
0.0474722
0.0433442
0.183669
0.179543
0.175417
0.171291
0.167165
0.163039
0.158913
0.154786
0.15066
0.146533
0.142406
0.138279
0.134152
0.130025
0.125898
0.121771
0.117644
0.113516
0.109389
0.105261
0.101134
0.0970062
0.0928786
0.0887509
0.0846232
0.0804954
0.0763676
0.0722398
0.0681119
0.063984
0.0598561
0.0557282
0.0516002
0.0474722
0.0433442
0.183669
0.179543
0.175417
0.171292
0.167165
0.163039
0.158913
0.154786
0.15066
0.146533
0.142406
0.138279
0.134152
0.130025
0.125898
0.121771
0.117644
0.113516
0.109389
0.105261
0.101134
0.0970063
0.0928787
0.088751
0.0846233
0.0804955
0.0763677
0.0722399
0.068112
0.0639841
0.0598562
0.0557283
0.0516003
0.0474723
0.0433443
0.183669
0.179544
0.175418
0.171292
0.167166
0.16304
0.158913
0.154787
0.15066
0.146533
0.142407
0.13828
0.134153
0.130026
0.125898
0.121771
0.117644
0.113517
0.109389
0.105262
0.101134
0.0970065
0.0928789
0.0887512
0.0846235
0.0804957
0.0763679
0.0722401
0.0681122
0.0639843
0.0598564
0.0557284
0.0516005
0.0474725
0.0433445
0.18367
0.179544
0.175418
0.171292
0.167166
0.16304
0.158914
0.154787
0.15066
0.146534
0.142407
0.13828
0.134153
0.130026
0.125899
0.121771
0.117644
0.113517
0.109389
0.105262
0.101134
0.0970067
0.0928791
0.0887514
0.0846236
0.0804959
0.0763681
0.0722402
0.0681123
0.0639844
0.0598565
0.0557286
0.0516006
0.0474726
0.0433446
0.0392185
0.0350904
0.0309622
0.026834
0.0227057
0.0185774
0.0144491
0.0103208
0.00619227
0.00206388
0.0392186
0.0350904
0.0309622
0.026834
0.0227058
0.0185775
0.0144491
0.010321
0.00619224
0.00206361
0.0392186
0.0350905
0.0309623
0.0268341
0.0227059
0.0185776
0.0144492
0.0103211
0.0061922
0.00206357
0.0392186
0.0350905
0.0309623
0.0268341
0.0227059
0.0185776
0.0144492
0.0103211
0.00619211
0.00206348
0.0392186
0.0350904
0.0309623
0.0268341
0.0227059
0.0185776
0.0144492
0.0103211
0.00619202
0.00206339
0.0392184
0.0350903
0.0309622
0.026834
0.0227058
0.0185775
0.0144492
0.010321
0.00619192
0.00206333
0.0392182
0.0350901
0.030962
0.0268338
0.0227056
0.0185774
0.014449
0.0103209
0.00619182
0.0020633
0.0392179
0.0350898
0.0309617
0.0268336
0.0227054
0.0185772
0.0144489
0.0103208
0.00619173
0.0020633
0.0392176
0.0350895
0.0309614
0.0268333
0.0227051
0.0185769
0.0144487
0.0103206
0.00619164
0.00206337
0.0392173
0.0350892
0.0309611
0.026833
0.0227049
0.0185767
0.0144485
0.0103205
0.00619158
0.00206348
0.0392169
0.0350889
0.0309608
0.0268327
0.0227046
0.0185765
0.0144484
0.0103204
0.00619156
0.00206364
0.0392166
0.0350886
0.0309605
0.0268324
0.0227044
0.0185763
0.0144482
0.0103204
0.00619156
0.00206383
0.0392164
0.0350884
0.0309603
0.0268323
0.0227042
0.0185762
0.0144481
0.0103203
0.00619161
0.00206401
0.0392162
0.0350882
0.0309602
0.0268321
0.0227041
0.0185761
0.0144481
0.0103203
0.00619169
0.00206416
0.0392162
0.0350882
0.0309601
0.0268321
0.0227041
0.0185761
0.0144481
0.0103203
0.00619181
0.00206425
0.0392162
0.0350882
0.0309601
0.0268321
0.0227041
0.0185761
0.0144481
0.0103204
0.00619192
0.00206427
0.0392162
0.0350882
0.0309602
0.0268322
0.0227042
0.0185762
0.0144482
0.0103204
0.00619205
0.00206425
0.0392163
0.0350883
0.0309603
0.0268323
0.0227043
0.0185763
0.0144482
0.0103205
0.0061922
0.00206418
0.0392165
0.0350885
0.0309605
0.0268324
0.0227045
0.0185764
0.0144484
0.0103206
0.00619233
0.0020641
0.0392166
0.0350886
0.0309606
0.0268326
0.0227046
0.0185766
0.0144486
0.0103206
0.00619248
0.00206429
)
;

boundaryField
{
    inlet
    {
        type            zeroGradient;
    }
    outlet
    {
        type            fixedValue;
        value           uniform 0;
    }
    upperWall
    {
        type            zeroGradient;
    }
    lowerWall
    {
        type            zeroGradient;
    }
    frontAndBack
    {
        type            empty;
    }
}


// ************************************************************************* //
