/*--------------------------------*- C++ -*----------------------------------*\
| =========                 |                                                 |
| \\      /  F ield         | OpenFOAM: The Open Source CFD Toolbox           |
|  \\    /   O peration     | Version:  2406                                  |
|   \\  /    A nd           | Website:  www.openfoam.com                      |
|    \\/     M anipulation  |                                                 |
\*---------------------------------------------------------------------------*/
FoamFile
{
    version     2.0;
    format      ascii;
    arch        "LSB;label=32;scalar=64";
    class       surfaceScalarField;
    location    "73";
    object      phi;
}
// * * * * * * * * * * * * * * * * * * * * * * * * * * * * * * * * * * * * * //

dimensions      [0 3 -1 0 0 0 0];

oriented        oriented;

internalField   nonuniform List<scalar> 
3880
(
0.00988701
-0.000137012
0.0100154
-0.000128389
0.0100953
-7.99147e-05
0.0101475
-5.21881e-05
0.0101843
-3.67445e-05
0.0102103
-2.60395e-05
0.0102289
-1.86003e-05
0.0102427
-1.37699e-05
0.0102533
-1.06118e-05
-8.41373e-06
0.0102617
0.0277069
-9.39252e-05
0.0277292
-0.00015067
0.0277777
-0.00012837
0.0278262
-0.000100749
0.0278699
-8.0429e-05
0.0279075
-6.35966e-05
0.0279386
-4.97561e-05
0.0279642
-3.93114e-05
0.0279852
-3.16571e-05
-2.59062e-05
0.0280027
0.0437119
-5.58088e-05
0.043679
-0.000117731
0.0436741
-0.000123559
0.0436856
-0.000112225
0.043705
-9.98229e-05
0.043728
-8.65822e-05
0.0437514
-7.31806e-05
0.0437735
-6.13388e-05
0.0437934
-5.16092e-05
-4.36735e-05
0.0438112
0.0577281
-3.38584e-05
0.0576925
-8.21981e-05
0.0576677
-9.87675e-05
0.0576549
-9.9416e-05
0.0576509
-9.57861e-05
0.0576535
-8.92293e-05
0.0576607
-8.03226e-05
0.0576703
-7.09075e-05
0.0576808
-6.21989e-05
-5.44569e-05
0.0576916
0.0697376
-2.14178e-05
0.0697116
-5.62841e-05
0.0696865
-7.36e-05
0.0696663
-7.92516e-05
0.069651
-8.05133e-05
0.0696406
-7.87741e-05
0.0696345
-7.42549e-05
0.0696319
-6.82554e-05
0.0696317
-6.19742e-05
-5.58995e-05
0.0696331
0.0797426
-1.40008e-05
0.0797248
-3.84621e-05
0.0797041
-5.29605e-05
0.0796845
-5.95752e-05
0.0796666
-6.26203e-05
0.079651
-6.32185e-05
0.0796382
-6.14371e-05
0.079628
-5.80764e-05
0.0796201
-5.40664e-05
-4.98802e-05
0.0796141
0.0877451
-9.14053e-06
0.0877324
-2.56943e-05
0.0877159
-3.65081e-05
0.0876986
-4.22579e-05
0.0876814
-4.54055e-05
0.0876649
-4.67383e-05
0.0876498
-4.62924e-05
0.0876362
-4.45478e-05
0.0876243
-4.21511e-05
-3.94768e-05
0.0876139
0.0937464
-5.57109e-06
0.0937366
-1.58461e-05
0.093723
-2.29365e-05
0.0937078
-2.70306e-05
0.0936918
-2.9454e-05
0.0936758
-3.06807e-05
0.0936602
-3.07339e-05
0.0936456
-2.98902e-05
0.093632
-2.85566e-05
-2.69878e-05
0.0936195
0.0977471
-2.64909e-06
0.0977388
-7.57611e-06
0.097727
-1.10739e-05
0.0977131
-1.31819e-05
0.0976981
-1.44777e-05
0.0976826
-1.51787e-05
0.0976672
-1.52971e-05
0.0976523
-1.49609e-05
0.0976381
-1.43661e-05
-1.36405e-05
0.0976247
0.0997473
4.01265e-10
0.0997398
1.06704e-09
0.0997287
1.13179e-09
0.0997155
1.95772e-09
0.099701
3.04323e-09
0.0996859
2.69124e-09
0.0996706
1.62477e-09
0.0996556
1.73178e-09
0.0996412
2.95537e-09
3.56742e-09
0.0996276
0.0997474
2.6492e-06
0.0997398
7.57677e-06
0.0997287
1.10775e-05
0.0997155
1.31872e-05
0.099701
1.44822e-05
0.0996859
1.51826e-05
0.0996706
1.53013e-05
0.0996556
1.49659e-05
0.0996412
1.43717e-05
1.36461e-05
0.0996276
0.0977471
5.57195e-06
0.0977388
1.58483e-05
0.097727
2.29389e-05
0.0977131
2.70345e-05
0.0976981
2.94595e-05
0.0976826
3.06857e-05
0.0976672
3.07374e-05
0.0976523
2.98938e-05
0.0976381
2.85618e-05
2.69937e-05
0.0976247
0.0937464
9.14092e-06
0.0937366
2.56955e-05
0.093723
3.65114e-05
0.0937078
4.22619e-05
0.0936918
4.54094e-05
0.0936758
4.67423e-05
0.0936602
4.62969e-05
0.0936456
4.45523e-05
0.093632
4.21554e-05
3.94808e-05
0.0936195
0.0877451
1.40017e-05
0.0877324
3.84637e-05
0.0877159
5.29626e-05
0.0876986
5.95782e-05
0.0876814
6.26242e-05
0.0876649
6.3223e-05
0.0876498
6.14413e-05
0.0876363
5.80804e-05
0.0876243
5.40701e-05
4.98837e-05
0.0876139
0.0797426
2.14184e-05
0.0797248
5.62856e-05
0.0797041
7.36019e-05
0.0796845
7.92538e-05
0.0796666
8.05168e-05
0.079651
7.87787e-05
0.0796382
7.42595e-05
0.079628
6.82589e-05
0.0796201
6.19767e-05
5.59022e-05
0.0796141
0.0697376
3.38588e-05
0.0697117
8.2199e-05
0.0696865
9.87693e-05
0.0696663
9.94183e-05
0.0696511
9.57889e-05
0.0696406
8.92333e-05
0.0696345
8.03274e-05
0.0696319
7.09112e-05
0.0696317
6.22009e-05
5.44586e-05
0.0696331
0.0577281
5.58096e-05
0.0576925
0.000117732
0.0576677
0.00012356
0.0576549
0.000112226
0.0576509
9.9826e-05
0.0576535
8.65866e-05
0.0576607
7.31845e-05
0.0576703
6.13412e-05
0.0576808
5.16106e-05
4.36754e-05
0.0576916
0.0437119
9.39256e-05
0.043679
0.000150671
0.0436741
0.000128373
0.0436856
0.000100751
0.043705
8.04304e-05
0.043728
6.35992e-05
0.0437514
4.97601e-05
0.0437735
3.93142e-05
0.0437934
3.16576e-05
2.59063e-05
0.0438112
0.0277069
0.000137012
0.0277292
0.000128391
0.0277777
7.99147e-05
0.0278262
5.21881e-05
0.0278699
3.6746e-05
0.0279075
2.6042e-05
0.0279386
1.8602e-05
0.0279642
1.37704e-05
0.0279852
1.0612e-05
8.41436e-06
0.0280027
0.00988701
0.0100154
0.0100953
0.0101475
0.0101843
0.0102103
0.0102289
0.0102427
0.0102533
0.0102617
0.0102685
-6.80553e-06
0.0102741
-5.60242e-06
0.0102788
-4.68957e-06
0.0102828
-3.98376e-06
0.0102862
-3.4249e-06
0.0102892
-2.97243e-06
0.0102918
-2.60067e-06
0.0102941
-2.29327e-06
0.0102961
-2.03836e-06
0.0102979
-1.82591e-06
0.0102996
-1.64703e-06
0.0103011
-1.49419e-06
0.0103024
-1.36161e-06
0.0103037
-1.24517e-06
0.0103048
-1.14214e-06
0.0103059
-1.05067e-06
0.0103068
-9.6936e-07
0.0103077
-8.97002e-07
0.0103086
-8.32421e-07
0.0103093
-7.74476e-07
0.0103101
-7.22094e-07
0.0103107
-6.7434e-07
0.0103114
-6.30462e-07
0.0103119
-5.89898e-07
0.0103125
-5.52259e-07
0.010313
-5.17282e-07
0.0103135
-4.84784e-07
0.010314
-4.54614e-07
0.0103144
-4.26627e-07
0.0103148
-4.00664e-07
0.0103152
-3.76551e-07
0.0103155
-3.54112e-07
0.0103158
-3.33168e-07
0.0103162
-3.13558e-07
-2.95144e-07
0.0103165
0.0280174
-2.14615e-05
0.0280297
-1.79848e-05
0.0280403
-1.52504e-05
0.0280494
-1.30791e-05
0.0280573
-1.13275e-05
0.0280642
-9.89007e-06
0.0280703
-8.69544e-06
0.0280757
-7.69639e-06
0.0280805
-6.85888e-06
0.0280848
-6.15446e-06
0.0280888
-5.5576e-06
0.0280923
-5.04603e-06
0.0280955
-4.60178e-06
0.0280985
-4.21148e-06
0.0281012
-3.86581e-06
0.0281037
-3.55829e-06
0.0281061
-3.28417e-06
0.0281082
-3.03946e-06
0.0281102
-2.82047e-06
0.028112
-2.62365e-06
0.0281138
-2.44567e-06
0.0281154
-2.28355e-06
0.0281169
-2.13484e-06
0.0281183
-1.99762e-06
0.0281196
-1.87048e-06
0.0281208
-1.75241e-06
0.028122
-1.64269e-06
0.0281231
-1.54074e-06
0.0281241
-1.44602e-06
0.028125
-1.35802e-06
0.0281259
-1.27617e-06
0.0281268
-1.19993e-06
0.0281276
-1.12874e-06
0.0281283
-1.0621e-06
-9.99561e-07
0.028129
0.0438269
-3.71452e-05
0.0438407
-3.17769e-05
0.0438528
-2.73828e-05
0.0438635
-2.37837e-05
0.043873
-2.0811e-05
0.0438814
-1.83254e-05
0.0438889
-1.62264e-05
0.0438957
-1.44455e-05
0.0439018
-1.29333e-05
0.0439072
-1.16476e-05
0.0439122
-1.05491e-05
0.0439168
-9.60158e-06
0.043921
-8.77484e-06
0.0439248
-8.04561e-06
0.0439283
-7.39732e-06
0.0439316
-6.81842e-06
0.0439346
-6.30042e-06
0.0439374
-5.83631e-06
0.04394
-5.41964e-06
0.0439424
-5.04416e-06
0.0439447
-4.70397e-06
0.0439468
-4.39376e-06
0.0439488
-4.10907e-06
0.0439506
-3.84633e-06
0.0439523
-3.60287e-06
0.043954
-3.37673e-06
0.0439555
-3.16646e-06
0.0439569
-2.97088e-06
0.0439583
-2.78895e-06
0.0439595
-2.61966e-06
0.0439607
-2.46202e-06
0.0439618
-2.31499e-06
0.0439629
-2.17761e-06
0.0439638
-2.04895e-06
-1.9282e-06
0.0439648
0.0577021
-4.76339e-05
0.057712
-4.16982e-05
0.0577213
-3.6617e-05
0.0577298
-3.23064e-05
0.0577376
-2.86438e-05
0.0577448
-2.55069e-05
0.0577514
-2.28011e-05
0.0577574
-2.04622e-05
0.0577629
-1.8444e-05
0.057768
-1.67051e-05
0.0577726
-1.52029e-05
0.0577769
-1.38953e-05
0.0577809
-1.27453e-05
0.0577845
-1.17235e-05
0.057788
-1.08089e-05
0.0577911
-9.98708e-06
0.0577941
-9.24751e-06
0.0577968
-8.58151e-06
0.0577994
-7.98091e-06
0.0578018
-7.43759e-06
0.057804
-6.94369e-06
0.0578061
-6.49206e-06
0.0578081
-6.07658e-06
0.0578099
-5.6924e-06
0.0578117
-5.33582e-06
0.0578133
-5.00413e-06
0.0578148
-4.69527e-06
0.0578162
-4.40758e-06
0.0578176
-4.13957e-06
0.0578189
-3.8898e-06
0.0578201
-3.65684e-06
0.0578212
-3.43926e-06
0.0578222
-3.23568e-06
0.0578232
-3.04483e-06
-2.86555e-06
0.0578242
0.0696356
-5.01755e-05
0.0696389
-4.4912e-05
0.0696424
-4.02e-05
0.0696462
-3.60575e-05
0.06965
-3.24328e-05
0.0696537
-2.92476e-05
0.0696573
-2.64352e-05
0.0696608
-2.39522e-05
0.0696642
-2.17699e-05
0.0696673
-1.98601e-05
0.0696703
-1.81888e-05
0.0696731
-1.67177e-05
0.0696758
-1.54105e-05
0.0696783
-1.42376e-05
0.0696807
-1.31778e-05
0.0696829
-1.22172e-05
0.069685
-1.1346e-05
0.069687
-1.05562e-05
0.0696888
-9.83964e-06
0.0696906
-9.18809e-06
0.0696922
-8.59304e-06
0.0696938
-8.04658e-06
0.0696952
-7.54188e-06
0.0696966
-7.07353e-06
0.0696979
-6.63744e-06
0.0696992
-6.23066e-06
0.0697003
-5.85095e-06
0.0697014
-5.49651e-06
0.0697024
-5.16565e-06
0.0697034
-4.85673e-06
0.0697043
-4.56806e-06
0.0697052
-4.29797e-06
0.069706
-4.04481e-06
0.0697067
-3.80708e-06
-3.58344e-06
0.0697074
0.0796096
-4.56984e-05
0.0796064
-4.16635e-05
0.0796041
-3.7911e-05
0.0796025
-3.45125e-05
0.0796016
-3.14642e-05
0.079601
-2.87233e-05
0.0796008
-2.62488e-05
0.0796009
-2.40183e-05
0.0796012
-2.20217e-05
0.0796015
-2.02473e-05
0.079602
-1.8674e-05
0.0796026
-1.72728e-05
0.0796032
-1.60136e-05
0.0796038
-1.48709e-05
0.0796045
-1.38271e-05
0.0796051
-1.28711e-05
0.0796058
-1.1996e-05
0.0796064
-1.11962e-05
0.079607
-1.04654e-05
0.0796076
-9.79682e-06
0.0796082
-9.1827e-06
0.0796088
-8.61569e-06
0.0796093
-8.08935e-06
0.0796099
-7.59858e-06
0.0796104
-7.13963e-06
0.0796109
-6.70984e-06
0.0796113
-6.3073e-06
0.0796117
-5.93044e-06
0.0796122
-5.57775e-06
0.0796125
-5.24768e-06
0.0796129
-4.93859e-06
0.0796133
-4.64876e-06
0.0796136
-4.37655e-06
0.0796139
-4.12041e-06
-3.87896e-06
0.0796142
0.0876049
-3.66813e-05
0.0875971
-3.38862e-05
0.0875904
-3.12143e-05
0.0875847
-2.87439e-05
0.0875797
-2.64898e-05
0.0875754
-2.44293e-05
0.0875717
-2.2537e-05
0.0875685
-2.08023e-05
0.0875657
-1.92255e-05
0.0875632
-1.78055e-05
0.0875611
-1.6532e-05
0.0875592
-1.53858e-05
0.0875575
-1.43447e-05
0.087556
-1.33897e-05
0.0875547
-1.25075e-05
0.0875535
-1.1691e-05
0.0875525
-1.09363e-05
0.0875515
-1.02405e-05
0.0875507
-9.60022e-06
0.0875499
-9.0104e-06
0.0875492
-8.46533e-06
0.0875485
-7.95915e-06
0.0875479
-7.48666e-06
0.0875473
-7.04377e-06
0.0875468
-6.62755e-06
0.0875464
-6.23603e-06
0.0875459
-5.86789e-06
0.0875455
-5.52204e-06
0.0875451
-5.19741e-06
0.0875448
-4.8928e-06
0.0875444
-4.60684e-06
0.0875441
-4.33809e-06
0.0875438
-4.08508e-06
0.0875436
-3.84645e-06
-3.621e-06
0.0875433
0.0936081
-2.52944e-05
0.0935978
-2.35601e-05
0.0935884
-2.18734e-05
0.09358
-2.02957e-05
0.0935723
-1.88437e-05
0.0935654
-1.75044e-05
0.0935591
-1.62614e-05
0.0935534
-1.51087e-05
0.0935483
-1.40496e-05
0.0935435
-1.30868e-05
0.0935392
-1.22162e-05
0.0935353
-1.14266e-05
0.0935316
-1.07034e-05
0.0935283
-1.00338e-05
0.0935252
-9.40948e-06
0.0935223
-8.82622e-06
0.0935196
-8.28251e-06
0.0935172
-7.77749e-06
0.0935149
-7.30954e-06
0.0935128
-6.87586e-06
0.0935108
-6.47279e-06
0.0935089
-6.09643e-06
0.0935072
-5.74327e-06
0.0935055
-5.41056e-06
0.093504
-5.09641e-06
0.0935026
-4.79964e-06
0.0935012
-4.51949e-06
0.0934999
-4.25538e-06
0.0934988
-4.00671e-06
0.0934976
-3.77272e-06
0.0934966
-3.55247e-06
0.0934956
-3.34493e-06
0.0934946
-3.14905e-06
0.0934938
-2.96381e-06
-2.78833e-06
0.0934929
0.0976123
-1.28419e-05
0.0976007
-1.20133e-05
0.0975901
-1.12001e-05
0.0975802
-1.04354e-05
0.0975711
-9.72888e-06
0.0975626
-9.07475e-06
0.0975548
-8.46465e-06
0.0975476
-7.89567e-06
0.0975409
-7.36983e-06
0.0975347
-6.88925e-06
0.097529
-6.45255e-06
0.0975236
-6.05443e-06
0.0975186
-5.68774e-06
0.0975139
-5.34618e-06
0.0975095
-5.02562e-06
0.0975054
-4.72427e-06
0.0975016
-4.44171e-06
0.097498
-4.17783e-06
0.0974946
-3.93208e-06
0.0974914
-3.70324e-06
0.0974884
-3.48953e-06
0.0974856
-3.28904e-06
0.097483
-3.10006e-06
0.0974805
-2.92126e-06
0.0974782
-2.75175e-06
0.097476
-2.59101e-06
0.0974739
-2.43872e-06
0.0974719
-2.29467e-06
0.0974701
-2.15856e-06
0.0974683
-2.03003e-06
0.0974667
-1.90861e-06
0.0974651
-1.79376e-06
0.0974637
-1.68492e-06
0.0974623
-1.58156e-06
-1.4832e-06
0.097461
0.0996147
2.74537e-09
0.0996027
1.53073e-09
0.0995915
1.40422e-09
0.0995811
2.64492e-09
0.0995714
4.3694e-09
0.0995623
5.69992e-09
0.0995538
6.41706e-09
0.0995459
6.83709e-09
0.0995385
7.40701e-09
0.0995316
8.35824e-09
0.0995252
9.71701e-09
0.0995191
1.13947e-08
0.0995134
1.3249e-08
0.099508
1.51655e-08
0.099503
1.70533e-08
0.0994982
1.88706e-08
0.0994938
2.06438e-08
0.0994896
2.2437e-08
0.0994856
2.43503e-08
0.0994819
2.64653e-08
0.0994784
2.88329e-08
0.0994751
3.14653e-08
0.0994719
3.43382e-08
0.099469
3.74143e-08
0.0994662
4.06583e-08
0.0994635
4.40537e-08
0.099461
4.76123e-08
0.0994587
5.13651e-08
0.0994565
5.53603e-08
0.0994544
5.96452e-08
0.0994524
6.42638e-08
0.0994506
6.92467e-08
0.0994488
7.46129e-08
0.0994471
8.03687e-08
8.65135e-08
0.0994456
0.0996147
1.28466e-05
0.0996027
1.20169e-05
0.0995915
1.1204e-05
0.0995811
1.0441e-05
0.0995714
9.73706e-06
0.0995623
9.08524e-06
0.0995538
8.47682e-06
0.0995459
7.90914e-06
0.0995385
7.3847e-06
0.0995316
6.90603e-06
0.0995252
6.47187e-06
0.0995191
6.07683e-06
0.0995134
5.71366e-06
0.099508
5.37578e-06
0.099503
5.05894e-06
0.0994982
4.76122e-06
0.0994938
4.48221e-06
0.0994896
4.22191e-06
0.0994856
3.97995e-06
0.0994819
3.75525e-06
0.0994784
3.54615e-06
0.0994751
3.35077e-06
0.0994719
3.16736e-06
0.099469
2.99454e-06
0.0994662
2.83135e-06
0.0994635
2.67724e-06
0.0994611
2.53194e-06
0.0994587
2.39525e-06
0.0994565
2.26699e-06
0.0994544
2.14687e-06
0.0994524
2.03451e-06
0.0994506
1.9294e-06
0.0994488
1.83105e-06
0.0994472
1.73891e-06
1.65254e-06
0.0994456
0.0976123
2.52992e-05
0.0976007
2.35635e-05
0.0975901
2.18769e-05
0.0975802
2.03012e-05
0.0975711
1.88516e-05
0.0975626
1.75143e-05
0.0975548
1.62725e-05
0.0975476
1.51212e-05
0.097541
1.40636e-05
0.0975348
1.31029e-05
0.097529
1.22349e-05
0.0975236
1.14481e-05
0.0975186
1.07279e-05
0.0975139
1.00616e-05
0.0975095
9.44064e-06
0.0975054
8.86079e-06
0.0975016
8.32054e-06
0.097498
7.81905e-06
0.0974946
7.35481e-06
0.0974915
6.92509e-06
0.0974885
6.52633e-06
0.0974857
6.15466e-06
0.097483
5.80657e-06
0.0974806
5.47932e-06
0.0974782
5.17099e-06
0.097476
4.8804e-06
0.0974739
4.6068e-06
0.097472
4.34966e-06
0.0974701
4.10841e-06
0.0974684
3.88235e-06
0.0974668
3.67061e-06
0.0974652
3.47218e-06
0.0974638
3.28605e-06
0.0974624
3.11123e-06
2.94685e-06
0.0974611
0.0936081
3.66853e-05
0.0935978
3.38903e-05
0.0935884
3.12189e-05
0.09358
2.87494e-05
0.0935723
2.64965e-05
0.0935654
2.44373e-05
0.0935591
2.25465e-05
0.0935534
2.08136e-05
0.0935483
1.92388e-05
0.0935435
1.78208e-05
0.0935392
1.65495e-05
0.0935353
1.54055e-05
0.0935316
1.43669e-05
0.0935283
1.34145e-05
0.0935252
1.25352e-05
0.0935223
1.17218e-05
0.0935197
1.09704e-05
0.0935172
1.02781e-05
0.0935149
9.64124e-06
0.0935128
9.05504e-06
0.0935108
8.51376e-06
0.093509
8.01163e-06
0.0935072
7.54348e-06
0.0935056
7.1053e-06
0.0935041
6.69416e-06
0.0935026
6.30813e-06
0.0935013
5.94587e-06
0.0935
5.60632e-06
0.0934989
5.28839e-06
0.0934978
4.99093e-06
0.0934967
4.71256e-06
0.0934957
4.45189e-06
0.0934948
4.20747e-06
0.0934939
3.97799e-06
3.76227e-06
0.0934931
0.0876049
4.5702e-05
0.0875971
4.16678e-05
0.0875904
3.7916e-05
0.0875847
3.45178e-05
0.0875797
3.14697e-05
0.0875754
2.87295e-05
0.0875717
2.62563e-05
0.0875685
2.40279e-05
0.0875657
2.20334e-05
0.0875632
2.0261e-05
0.0875611
1.86894e-05
0.0875592
1.72899e-05
0.0875575
1.60324e-05
0.0875561
1.48918e-05
0.0875548
1.38505e-05
0.0875536
1.28972e-05
0.0875525
1.20251e-05
0.0875516
1.12283e-05
0.0875507
1.05007e-05
0.0875499
9.83516e-06
0.0875492
9.22417e-06
0.0875486
8.66045e-06
0.087548
8.13761e-06
0.0875474
7.65068e-06
0.0875469
7.19593e-06
0.0875465
6.77077e-06
0.087546
6.37321e-06
0.0875456
6.00173e-06
0.0875453
5.65474e-06
0.0875449
5.33073e-06
0.0875446
5.02799e-06
0.0875443
4.74491e-06
0.0875441
4.4798e-06
0.0875438
4.23121e-06
3.99779e-06
0.0875436
0.0796096
5.01793e-05
0.0796064
4.49169e-05
0.0796041
4.0205e-05
0.0796025
3.60618e-05
0.0796016
3.24367e-05
0.079601
2.92519e-05
0.0796008
2.6441e-05
0.0796009
2.396e-05
0.0796012
2.17795e-05
0.0796016
1.98713e-05
0.079602
1.82013e-05
0.0796026
1.67313e-05
0.0796032
1.54253e-05
0.0796038
1.42539e-05
0.0796045
1.31961e-05
0.0796052
1.22378e-05
0.0796058
1.13691e-05
0.0796065
1.05818e-05
0.0796071
9.86785e-06
0.0796077
9.21877e-06
0.0796083
8.62617e-06
0.0796089
8.08218e-06
0.0796094
7.58016e-06
0.07961
7.11471e-06
0.0796105
6.6819e-06
0.079611
6.27871e-06
0.0796115
5.90296e-06
0.0796119
5.55274e-06
0.0796123
5.2264e-06
0.0796127
4.92219e-06
0.0796131
4.63849e-06
0.0796135
4.37356e-06
0.0796139
4.12588e-06
0.0796142
3.89392e-06
3.67646e-06
0.0796145
0.0696356
4.76372e-05
0.0696389
4.17032e-05
0.0696424
3.66219e-05
0.0696462
3.23098e-05
0.06965
2.86459e-05
0.0696537
2.55092e-05
0.0696574
2.28048e-05
0.0696608
2.04678e-05
0.0696642
1.84512e-05
0.0696673
1.67133e-05
0.0696703
1.52119e-05
0.0696731
1.3905e-05
0.0696758
1.27558e-05
0.0696783
1.17351e-05
0.0696807
1.0822e-05
0.0696829
1.00018e-05
0.069685
9.26414e-06
0.069687
8.60006e-06
0.0696889
8.00139e-06
0.0696907
7.45986e-06
0.0696923
6.96774e-06
0.0696939
6.51783e-06
0.0696954
6.10424e-06
0.0696967
5.72206e-06
0.0696981
5.36781e-06
0.0696993
5.03863e-06
0.0697005
4.73261e-06
0.0697016
4.44789e-06
0.0697026
4.18311e-06
0.0697036
3.93663e-06
0.0697045
3.70718e-06
0.0697054
3.49318e-06
0.0697062
3.29345e-06
0.069707
3.10658e-06
2.93164e-06
0.0697078
0.0577021
3.71483e-05
0.057712
3.17806e-05
0.0577213
2.73857e-05
0.0577298
2.37853e-05
0.0577376
2.08117e-05
0.0577448
1.83264e-05
0.0577514
1.62282e-05
0.0577574
1.44486e-05
0.0577629
1.29373e-05
0.057768
1.16524e-05
0.0577726
1.05544e-05
0.0577769
9.6074e-06
0.0577809
8.78115e-06
0.0577846
8.05266e-06
0.057788
7.40519e-06
0.0577912
6.82742e-06
0.0577941
6.3106e-06
0.0577969
5.84786e-06
0.0577994
5.43241e-06
0.0578019
5.0582e-06
0.0578041
4.71907e-06
0.0578062
4.41001e-06
0.0578082
4.12636e-06
0.05781
3.86489e-06
0.0578118
3.62273e-06
0.0578134
3.3982e-06
0.057815
3.18956e-06
0.0578164
2.9959e-06
0.0578178
2.81585e-06
0.0578191
2.64868e-06
0.0578203
2.49307e-06
0.0578214
2.34832e-06
0.0578225
2.21316e-06
0.0578235
2.08701e-06
1.96877e-06
0.0578245
0.0438269
2.1463e-05
0.0438407
1.79872e-05
0.0438528
1.52521e-05
0.0438635
1.30791e-05
0.043873
1.13266e-05
0.0438814
9.8893e-06
0.0438889
8.69548e-06
0.0438957
7.69725e-06
0.0439018
6.86036e-06
0.0439073
6.15632e-06
0.0439123
5.55976e-06
0.0439168
5.04843e-06
0.043921
4.60445e-06
0.0439248
4.21447e-06
0.0439284
3.86925e-06
0.0439316
3.56231e-06
0.0439346
3.2889e-06
0.0439374
3.04494e-06
0.0439401
2.82669e-06
0.0439425
2.63051e-06
0.0439447
2.45309e-06
0.0439469
2.29145e-06
0.0439488
2.14323e-06
0.0439507
2.00652e-06
0.0439524
1.87999e-06
0.0439541
1.76263e-06
0.0439556
1.65374e-06
0.0439571
1.55268e-06
0.0439584
1.45893e-06
0.0439597
1.3719e-06
0.0439609
1.29108e-06
0.043962
1.21586e-06
0.0439631
1.14576e-06
0.0439641
1.08024e-06
1.01892e-06
0.043965
0.0280174
6.8064e-06
0.0280297
5.60293e-06
0.0280403
4.68944e-06
0.0280494
3.98311e-06
0.0280573
3.42409e-06
0.0280642
2.9717e-06
0.0280703
2.60017e-06
0.0280757
2.29298e-06
0.0280805
2.03832e-06
0.0280849
1.82608e-06
0.0280888
1.64739e-06
0.0280923
1.49462e-06
0.0280956
1.36209e-06
0.0280985
1.24568e-06
0.0281013
1.14279e-06
0.0281038
1.0515e-06
0.0281061
9.70506e-07
0.0281082
8.98435e-07
0.0281102
8.34165e-07
0.0281121
7.76408e-07
0.0281138
7.24193e-07
0.0281154
6.76497e-07
0.0281169
6.32715e-07
0.0281183
5.92209e-07
0.0281197
5.54728e-07
0.0281209
5.19906e-07
0.0281221
4.87668e-07
0.0281232
4.57735e-07
0.0281242
4.30059e-07
0.0281252
4.04351e-07
0.0281261
3.80548e-07
0.0281269
3.58352e-07
0.0281277
3.37711e-07
0.0281285
3.18354e-07
3.00269e-07
0.0281292
0.0102685
0.0102741
0.0102788
0.0102828
0.0102862
0.0102892
0.0102918
0.0102941
0.0102961
0.0102979
0.0102996
0.0103011
0.0103024
0.0103037
0.0103048
0.0103059
0.0103068
0.0103077
0.0103086
0.0103093
0.0103101
0.0103107
0.0103114
0.010312
0.0103125
0.010313
0.0103135
0.010314
0.0103144
0.0103148
0.0103152
0.0103156
0.0103159
0.0103162
0.0103165
0.0103167
-2.77808e-07
0.010317
-2.61461e-07
0.0103172
-2.46031e-07
0.0103175
-2.31466e-07
0.0103177
-2.1772e-07
0.0103179
-2.04757e-07
0.0103181
-1.92536e-07
0.0103183
-1.81024e-07
0.0103184
-1.70175e-07
-1.59953e-07
0.0103186
0.0281297
-9.40739e-07
0.0281303
-8.85322e-07
0.0281309
-8.33056e-07
0.0281315
-7.83737e-07
0.028132
-7.37192e-07
0.0281325
-6.93274e-07
0.0281329
-6.51841e-07
0.0281334
-6.12761e-07
0.0281338
-5.75897e-07
-5.41113e-07
0.0281341
0.0439657
-1.81464e-06
0.0439665
-1.70768e-06
0.0439672
-1.60681e-06
0.043968
-1.51162e-06
0.0439687
-1.42177e-06
0.0439693
-1.33696e-06
0.0439699
-1.25689e-06
0.0439705
-1.18132e-06
0.043971
-1.10997e-06
-1.0426e-06
0.0439715
0.0578251
-2.69684e-06
0.0578259
-2.53786e-06
0.0578267
-2.38789e-06
0.0578274
-2.24633e-06
0.0578281
-2.11265e-06
0.0578287
-1.98641e-06
0.0578294
-1.86717e-06
0.0578299
-1.75455e-06
0.0578305
-1.64814e-06
-1.54757e-06
0.057831
0.0697081
-3.37272e-06
0.0697088
-3.17393e-06
0.0697094
-2.98624e-06
0.0697099
-2.80894e-06
0.0697104
-2.64142e-06
0.0697109
-2.48312e-06
0.0697114
-2.3335e-06
0.0697118
-2.19207e-06
0.0697123
-2.05834e-06
-1.9318e-06
0.0697126
0.0796145
-3.65105e-06
0.0796147
-3.43569e-06
0.079615
-3.23206e-06
0.0796152
-3.03948e-06
0.0796154
-2.85732e-06
0.0796156
-2.68503e-06
0.0796158
-2.52204e-06
0.079616
-2.36782e-06
0.0796162
-2.22181e-06
-2.08349e-06
0.0796163
0.0875431
-3.40771e-06
0.0875428
-3.20574e-06
0.0875426
-3.0144e-06
0.0875424
-2.83313e-06
0.0875422
-2.66141e-06
0.087542
-2.49875e-06
0.0875418
-2.34465e-06
0.0875417
-2.19862e-06
0.0875415
-2.06015e-06
-1.92873e-06
0.0875414
0.0934921
-2.62186e-06
0.0934914
-2.46381e-06
0.0934907
-2.3137e-06
0.09349
-2.17112e-06
0.0934894
-2.03573e-06
0.0934888
-1.90717e-06
0.0934883
-1.78508e-06
0.0934877
-1.66907e-06
0.0934872
-1.55875e-06
-1.45371e-06
0.0934868
0.0974597
-1.38946e-06
0.0974586
-1.30004e-06
0.0974575
-1.2147e-06
0.0974564
-1.13322e-06
0.0974555
-1.05542e-06
0.0974545
-9.81118e-07
0.0974537
-9.10106e-07
0.0974528
-8.42168e-07
0.097452
-7.77072e-07
-7.14585e-07
0.0974513
0.0994441
9.3043e-08
0.0994427
9.99555e-08
0.0994414
1.07254e-07
0.0994401
1.1495e-07
0.0994389
1.23062e-07
0.0994378
1.31615e-07
0.0994368
1.40637e-07
0.0994358
1.50158e-07
0.0994348
1.60205e-07
1.70804e-07
0.0994339
0.0994441
1.57154e-06
0.0994427
1.49561e-06
0.0994414
1.42452e-06
0.0994402
1.35808e-06
0.099439
1.29614e-06
0.0994379
1.23857e-06
0.0994368
1.18521e-06
0.0994359
1.1359e-06
0.0994349
1.09045e-06
1.04868e-06
0.099434
0.0974599
2.79219e-06
0.0974587
2.64665e-06
0.0974576
2.50979e-06
0.0974566
2.38123e-06
0.0974556
2.26065e-06
0.0974547
2.14772e-06
0.0974539
2.04212e-06
0.0974531
1.94351e-06
0.0974523
1.85153e-06
1.76581e-06
0.0974516
0.0934924
3.55934e-06
0.0934916
3.36839e-06
0.093491
3.18876e-06
0.0934903
3.01989e-06
0.0934897
2.86131e-06
0.0934892
2.71253e-06
0.0934886
2.5731e-06
0.0934881
2.44251e-06
0.0934877
2.3203e-06
2.20598e-06
0.0934872
0.0875433
3.77845e-06
0.0875431
3.57222e-06
0.0875429
3.37835e-06
0.0875428
3.19611e-06
0.0875426
3.02496e-06
0.0875425
2.86428e-06
0.0875423
2.71357e-06
0.0875422
2.57223e-06
0.0875421
2.43982e-06
2.31573e-06
0.087542
0.0796148
3.4723e-06
0.0796151
3.28059e-06
0.0796154
3.10041e-06
0.0796156
2.93118e-06
0.0796159
2.77217e-06
0.0796161
2.62292e-06
0.0796164
2.4828e-06
0.0796166
2.35141e-06
0.0796168
2.22815e-06
2.11265e-06
0.079617
0.0697085
2.76749e-06
0.0697091
2.61348e-06
0.0697098
2.46876e-06
0.0697104
2.33288e-06
0.0697109
2.20516e-06
0.0697115
2.08531e-06
0.069712
1.97272e-06
0.0697125
1.86716e-06
0.0697129
1.76808e-06
1.67527e-06
0.0697134
0.0578254
1.85807e-06
0.0578263
1.754e-06
0.0578271
1.65641e-06
0.0578278
1.56456e-06
0.0578286
1.47844e-06
0.0578293
1.39739e-06
0.0578299
1.32148e-06
0.0578305
1.25008e-06
0.0578311
1.1833e-06
1.12051e-06
0.0578317
0.0439659
9.61377e-07
0.0439668
9.07368e-07
0.0439676
8.56596e-07
0.0439683
8.08906e-07
0.0439691
7.64076e-07
0.0439697
7.22002e-07
0.0439704
6.82488e-07
0.043971
6.45449e-07
0.0439715
6.10693e-07
5.78138e-07
0.0439721
0.0281299
2.83231e-07
0.0281305
2.67275e-07
0.0281311
2.52212e-07
0.0281317
2.3811e-07
0.0281323
2.24802e-07
0.0281328
2.12366e-07
0.0281332
2.0064e-07
0.0281337
1.89705e-07
0.0281341
1.79397e-07
1.69795e-07
0.0281345
0.0103168
0.0103171
0.0103173
0.0103176
0.0103178
0.010318
0.0103182
0.0103184
0.0103186
0.0103187
0.0103187
-1.50309e-07
0.0103189
-1.41205e-07
0.010319
-1.32595e-07
0.0103191
-1.24445e-07
0.0103193
-1.16715e-07
0.0103194
-1.09382e-07
0.0103195
-1.0241e-07
0.0103196
-9.5787e-08
0.0103197
-8.94849e-08
0.0103197
-8.34954e-08
0.0103198
-7.77954e-08
0.0103199
-7.23787e-08
0.01032
-6.72233e-08
0.01032
-6.23234e-08
0.0103201
-5.76568e-08
0.0103201
-5.32176e-08
0.0103202
-4.89836e-08
0.0103202
-4.49503e-08
0.0103203
-4.10963e-08
0.0103203
-3.74193e-08
0.0103203
-3.39001e-08
0.0103204
-3.05393e-08
0.0103204
-2.73208e-08
0.0103204
-2.42483e-08
0.0103204
-2.13068e-08
0.0103205
-1.85042e-08
0.0103205
-1.5825e-08
0.0103205
-1.32775e-08
0.0103205
-1.08449e-08
0.0103205
-8.53472e-09
0.0103205
-6.32745e-09
0.0103205
-4.22991e-09
0.0103205
-2.2199e-09
0.0103205
-3.08448e-10
1.51968e-09
0.0103205
0.0281345
-5.08271e-07
0.0281348
-4.77237e-07
0.0281351
-4.47878e-07
0.0281354
-4.20071e-07
0.0281357
-3.93703e-07
0.028136
-3.68671e-07
0.0281362
-3.44884e-07
0.0281364
-3.22265e-07
0.0281367
-3.0074e-07
0.0281369
-2.80251e-07
0.028137
-2.60739e-07
0.0281372
-2.42155e-07
0.0281374
-2.24447e-07
0.0281375
-2.0757e-07
0.0281376
-1.91473e-07
0.0281378
-1.76113e-07
0.0281379
-1.61444e-07
0.028138
-1.47422e-07
0.0281381
-1.34005e-07
0.0281382
-1.21158e-07
0.0281382
-1.08846e-07
0.0281383
-9.70388e-08
0.0281384
-8.57109e-08
0.0281384
-7.48418e-08
0.0281384
-6.44118e-08
0.0281385
-5.44083e-08
0.0281385
-4.48152e-08
0.0281385
-3.56232e-08
0.0281386
-2.68179e-08
0.0281386
-1.83903e-08
0.0281386
-1.03257e-08
0.0281386
-2.61664e-09
0.0281386
4.74802e-09
0.0281386
1.17705e-08
1.84529e-08
0.0281385
0.043972
-9.78935e-07
0.0439724
-9.18734e-07
0.0439728
-8.61749e-07
0.0439732
-8.07748e-07
0.0439736
-7.56516e-07
0.0439739
-7.07858e-07
0.0439742
-6.61599e-07
0.0439745
-6.17581e-07
0.0439748
-5.75669e-07
0.0439751
-5.35739e-07
0.0439753
-4.97678e-07
0.0439755
-4.61383e-07
0.0439757
-4.26756e-07
0.0439759
-3.93701e-07
0.0439761
-3.62127e-07
0.0439762
-3.31943e-07
0.0439764
-3.03062e-07
0.0439765
-2.754e-07
0.0439766
-2.48881e-07
0.0439767
-2.2343e-07
0.0439768
-1.98984e-07
0.0439769
-1.75484e-07
0.043977
-1.52882e-07
0.043977
-1.31133e-07
0.0439771
-1.10202e-07
0.0439771
-9.006e-08
0.0439771
-7.06809e-08
0.0439771
-5.20421e-08
0.0439771
-3.41256e-08
0.0439771
-1.69126e-08
0.0439771
-3.8879e-10
0.0439771
1.5459e-08
0.0439771
3.06376e-08
0.0439771
4.51495e-08
5.89917e-08
0.043977
0.0578314
-1.45245e-06
0.0578319
-1.36242e-06
0.0578323
-1.27712e-06
0.0578327
-1.19622e-06
0.0578331
-1.11941e-06
0.0578334
-1.0464e-06
0.0578337
-9.76933e-07
0.057834
-9.10787e-07
0.0578343
-8.47752e-07
0.0578345
-7.87644e-07
0.0578348
-7.30289e-07
0.057835
-6.75529e-07
0.0578352
-6.23212e-07
0.0578353
-5.73194e-07
0.0578355
-5.2533e-07
0.0578357
-4.79488e-07
0.0578358
-4.35535e-07
0.0578359
-3.93348e-07
0.057836
-3.52811e-07
0.0578361
-3.13819e-07
0.0578362
-2.76274e-07
0.0578362
-2.40093e-07
0.0578363
-2.052e-07
0.0578363
-1.71534e-07
0.0578364
-1.39039e-07
0.0578364
-1.07671e-07
0.0578364
-7.73922e-08
0.0578364
-4.81727e-08
0.0578364
-1.99857e-08
0.0578364
7.18754e-09
0.0578363
3.33639e-08
0.0578363
5.85517e-08
0.0578362
8.27533e-08
0.0578362
1.0596e-07
1.28159e-07
0.0578361
0.069713
-1.81199e-06
0.0697133
-1.69845e-06
0.0697137
-1.59075e-06
0.0697139
-1.48847e-06
0.0697142
-1.39123e-06
0.0697145
-1.29871e-06
0.0697147
-1.21058e-06
0.0697149
-1.12657e-06
0.0697151
-1.04642e-06
0.0697153
-9.69892e-07
0.0697155
-8.96772e-07
0.0697156
-8.26852e-07
0.0697158
-7.59935e-07
0.0697159
-6.95833e-07
0.069716
-6.34364e-07
0.0697161
-5.75353e-07
0.0697162
-5.18635e-07
0.0697162
-4.64055e-07
0.0697163
-4.11469e-07
0.0697163
-3.60745e-07
0.0697164
-3.11766e-07
0.0697164
-2.64427e-07
0.0697164
-2.18635e-07
0.0697164
-1.74314e-07
0.0697164
-1.31396e-07
0.0697164
-8.98266e-08
0.0697164
-4.95611e-08
0.0697163
-1.05635e-08
0.0697163
2.71929e-08
0.0697162
6.37267e-08
0.0697162
9.9047e-08
0.0697161
1.33154e-07
0.069716
1.66035e-07
0.0697159
1.97665e-07
2.28005e-07
0.0697158
0.0796165
-1.95234e-06
0.0796166
-1.82785e-06
0.0796167
-1.70956e-06
0.0796168
-1.59702e-06
0.0796169
-1.48986e-06
0.079617
-1.38771e-06
0.0796171
-1.29024e-06
0.0796171
-1.19716e-06
0.0796172
-1.1082e-06
0.0796173
-1.02311e-06
0.0796173
-9.41637e-07
0.0796173
-8.63559e-07
0.0796174
-7.88652e-07
0.0796174
-7.16705e-07
0.0796174
-6.47512e-07
0.0796174
-5.80882e-07
0.0796174
-5.16631e-07
0.0796174
-4.54592e-07
0.0796174
-3.94607e-07
0.0796174
-3.36537e-07
0.0796173
-2.80256e-07
0.0796173
-2.25654e-07
0.0796172
-1.72634e-07
0.0796172
-1.21116e-07
0.0796171
-7.10293e-08
0.0796171
-2.23198e-08
0.079617
2.50576e-08
0.0796169
7.11338e-08
0.0796168
1.15931e-07
0.0796167
1.59457e-07
0.0796166
2.01708e-07
0.0796165
2.42666e-07
0.0796164
2.82298e-07
0.0796163
3.2055e-07
3.5735e-07
0.0796162
0.0875412
-1.80386e-06
0.0875411
-1.68507e-06
0.0875409
-1.57191e-06
0.0875408
-1.46399e-06
0.0875407
-1.36095e-06
0.0875405
-1.26246e-06
0.0875404
-1.16822e-06
0.0875403
-1.07797e-06
0.0875402
-9.91468e-07
0.0875401
-9.0846e-07
0.08754
-8.28724e-07
0.0875398
-7.52037e-07
0.0875397
-6.78185e-07
0.0875396
-6.06959e-07
0.0875395
-5.38164e-07
0.0875394
-4.71611e-07
0.0875393
-4.07128e-07
0.0875392
-3.44554e-07
0.0875391
-2.83745e-07
0.087539
-2.24572e-07
0.0875388
-1.66921e-07
0.0875387