/*--------------------------------*- C++ -*----------------------------------*\
| =========                 |                                                 |
| \\      /  F ield         | OpenFOAM: The Open Source CFD Toolbox           |
|  \\    /   O peration     | Version:  2406                                  |
|   \\  /    A nd           | Website:  www.openfoam.com                      |
|    \\/     M anipulation  |                                                 |
\*---------------------------------------------------------------------------*/
FoamFile
{
    version     2.0;
    format      ascii;
    arch        "LSB;label=32;scalar=64";
    class       surfaceScalarField;
    location    "53";
    object      phi;
}
// * * * * * * * * * * * * * * * * * * * * * * * * * * * * * * * * * * * * * //

dimensions      [0 3 -1 0 0 0 0];

oriented        oriented;

internalField   nonuniform List<scalar> 
3470
(
0.0194454
-0.000445437
0.0201019
-0.000656514
0.0207894
-0.000687454
0.0214962
-0.000706783
0.0222443
-0.000748089
0.0230612
-0.000816907
0.0239876
-0.000926487
0.0250925
-0.00110485
0.0264702
-0.0013778
-0.00231285
0.0287831
0.0508557
-0.000301172
0.0509031
-0.000703874
0.0511594
-0.000943788
0.0515923
-0.00113965
0.0521905
-0.00134628
0.0529559
-0.0015824
0.0539012
-0.00187171
0.0550521
-0.00225583
0.0564623
-0.00278801
-0.00360328
0.0577527
0.0749505
-0.000251696
0.0749295
-0.000682876
0.075013
-0.00102726
0.0752137
-0.00134039
0.075536
-0.00166855
0.0759866
-0.00203307
0.0765691
-0.00245419
0.0772744
-0.0029612
0.0780699
-0.00358348
-0.00435535
0.0788219
0.090976
-0.000227685
0.090934
-0.000640875
0.0909287
-0.00102198
0.0909831
-0.00139487
0.091102
-0.00178746
0.0912862
-0.0022172
0.0915313
-0.00269933
0.0918218
-0.00325173
0.092128
-0.00388969
-0.00462145
0.0923941
0.0989686
-0.000196295
0.0988891
-0.000561365
0.0987972
-0.000930164
0.0987155
-0.00131311
0.0986475
-0.00171952
0.0985897
-0.0021594
0.098534
-0.00264366
0.0984648
-0.00318249
0.0983573
-0.00378225
-0.00444202
0.0981779
0.0989489
-0.000145235
0.0988139
-0.000426388
0.0986297
-0.000745901
0.0984155
-0.00109895
0.0981719
-0.00147591
0.0978922
-0.00187975
0.0975664
-0.0023179
0.0971789
-0.00279497
0.0967082
-0.00331159
-0.00386368
0.0961299
0.0909173
-6.25015e-05
0.0907119
-0.000221057
0.0904339
-0.000467914
0.090097
-0.000762058
0.0896958
-0.00107472
0.0892217
-0.00140567
0.0886633
-0.00175948
0.0880045
-0.0021362
0.087226
-0.00253316
-0.00294568
0.086308
0.0748546
8.2888e-05
0.0745725
6.10711e-05
0.0742185
-0.000113945
0.0737911
-0.000334723
0.0732792
-0.000562865
0.0726733
-0.000799702
0.0719601
-0.00104631
0.071123
-0.00129913
0.0701443
-0.00155446
-0.00180881
0.0690074
0.0507362
0.00034669
0.0504524
0.000344841
0.0501533
0.000185097
0.0497961
2.24837e-05
0.0493556
-0.00012241
0.0488125
-0.000256532
0.048148
-0.000381891
0.0473463
-0.00049749
0.046395
-0.000603178
-0.000699239
0.0452854
0.0193467
0.0196915
0.0198766
0.0198991
0.0197767
0.0195201
0.0191382
0.0186407
0.0180376
0.0173383
-4.61956e-05
4.62058e-05
-0.000197595
0.000151418
-0.000414124
0.000216541
-0.000658934
0.000244816
-0.000916391
0.00025746
-0.0011832
0.000266804
-0.00146126
0.00027806
-0.00175446
0.000293174
-0.00206756
0.000313072
-0.00240611
0.000338508
-0.00277632
0.000370159
-0.00318492
0.000408541
-0.00363864
0.000453659
-0.00414332
0.000504611
-0.00470237
0.000558968
-0.00531455
0.000612098
-0.00597128
0.000656651
-0.0066535
0.000682137
-0.00732854
0.000674959
-0.00794817
0.000619555
-0.00844851
0.000500271
-0.00875191
0.000303328
-0.00877122
1.92424e-05
-0.00842299
-0.000348285
-0.00763856
-0.000784475
-0.00636521
-0.0012734
-0.00457074
-0.0017945
-0.0022481
-0.00232269
0.000589
-0.00283713
0.00389605
-0.00330709
0.00759079
-0.00369477
0.0115648
-0.00397403
0.0156857
-0.00412099
0.0197982
-0.00411251
-0.00393348
0.0237317
-0.000196234
0.000242461
-0.000604131
0.000559352
-0.00112639
0.00073882
-0.00169893
0.00081737
-0.00229254
0.000851066
-0.00289895
0.000873201
-0.0035196
0.00089868
-0.00415982
0.000933335
-0.00482631
0.00097947
-0.00552597
0.00103807
-0.006265
0.00110906
-0.00704741
0.00119083
-0.00787315
0.00127926
-0.00873536
0.00136665
-0.00961725
0.00144069
-0.0104891
0.00148375
-0.0113056
0.00147301
-0.0120051
0.00138144
-0.0125102
0.00117994
-0.0127325
0.000841688
-0.01258
0.0003476
-0.0119685
-0.000308295
-0.0108349
-0.00111447
-0.00912975
-0.00205351
-0.00681769
-0.00309661
-0.00388441
-0.00420674
-0.000333066
-0.00534592
0.00381587
-0.00647169
0.00850801
-0.00752936
0.0136689
-0.00846805
0.0192103
-0.00923628
0.0250197
-0.00978341
0.0309614
-0.0100628
0.0368786
-0.0100298
-0.00965249
0.0425976
-0.000351338
0.000593813
-0.00099644
0.00120447
-0.00176526
0.00150766
-0.00257338
0.00162548
-0.00338572
0.00166341
-0.00419124
0.0016787
-0.0049889
0.00169632
-0.00578093
0.00172532
-0.00656952
0.001768
-0.00735485
0.00182332
-0.00813334
0.00188748
-0.00889575
0.00195315
-0.00962496
0.00200836
-0.0102938
0.00203541
-0.0108636
0.00201031
-0.0112835
0.00190345
-0.0114919
0.00168127
-0.0114197
0.00130904
-0.0109943
0.000754434
-0.0101478
-4.92046e-06
-0.00882955
-0.000970794
-0.00700804
-0.00212988
-0.00465606
-0.00346651
-0.00175532
-0.0049543
0.00170203
-0.00655401
0.00571029
-0.00821505
0.0102422
-0.00987792
0.015254
-0.0114836
0.0206927
-0.0129681
0.0264904
-0.0142659
0.0325654
-0.0153114
0.0388189
-0.016037
0.0451326
-0.0163765
0.0513638
-0.0162611
-0.0156369
0.0573482
-0.000485607
0.00107943
-0.00131163
0.0020305
-0.00223506
0.00243108
-0.00315442
0.00254483
-0.00403324
0.00254223
-0.00486005
0.00250552
-0.00563153
0.00246779
-0.00634536
0.00243913
-0.00699694
0.00241955
-0.00757745
0.00240379
-0.00807236
0.00238234
-0.00846032
0.00234104
-0.00871238
0.00226034
-0.00879172
0.00211462
-0.00865424
0.00187269
-0.00825095
0.0015
-0.00753086
0.000961022
-0.00644587
0.000223898
-0.0049579
-0.000733669
-0.0030433
-0.00191961
-0.000682246
-0.0033319
0.00214612
-0.00495827
0.00545195
-0.00677236
0.00923117
-0.00873355
0.0134677
-0.0107906
0.018135
-0.0128823
0.0231972
-0.0149402
0.0286074
-0.0168938
0.0343108
-0.0186716
0.0402471
-0.0202023
0.046349
-0.0214135
0.0525391
-0.0222272
0.0587243
-0.0225618
0.0647769
-0.0223138
-0.0213976
0.0705375
-0.000592363
0.00167178
-0.00151386
0.00295198
-0.00246011
0.00337729
-0.00332748
0.00341219
-0.00408785
0.00330257
-0.00473463
0.0031523
-0.00526541
0.00299856
-0.00567587
0.00284957
-0.00595728
0.00270094
-0.00609554
0.00254201
-0.00607075
0.00235752
-0.00585765
0.00212786
-0.00542621
0.00182882
-0.00474274
0.00143102
-0.00377142
0.000901235
-0.00247814
0.000206569
-0.000833335
-0.00068391
0.00118548
-0.00179503
0.00359546
-0.00314371
0.00641017
-0.00473435
0.0096361
-0.00655783
0.0132696
-0.00859172
0.017296
-0.0107988
0.0216902
-0.0131277
0.0264149
-0.0155153
0.0314233
-0.0178908
0.0366629
-0.0201798
0.0420784
-0.0223095
0.0476173
-0.0242105
0.0532337
-0.0258187
0.0588886
-0.0270685
0.0645494
-0.027888
0.0701749
-0.0281875
0.0756686
-0.0278075
-0.0266182
0.080889
-0.000673685
0.00234546
-0.00157682
0.00385507
-0.00236613
0.00416655
-0.0029738
0.00401982
-0.00340108
0.00372984
-0.0036552
0.00340639
-0.00373912
0.00308247
-0.00365019
0.00276061
-0.00337947
0.00243018
-0.00291222
0.00207473
-0.00222885
0.0016741
-0.00130576
0.00120471
-0.000117235
0.0006402
0.0013623
-4.86117e-05
0.00315798
-0.000894552
0.00529368
-0.00192921
0.007787
-0.00317729
0.0106483
-0.00465641
0.0138792
-0.00637454
0.0174716
-0.0083268
0.0214068
-0.010493
0.0256527
-0.0128376
0.0301643
-0.0153104
0.0348854
-0.0178488
0.0397518
-0.0203818
0.0446964
-0.0228355
0.049655
-0.0251385
0.0545727
-0.0272272
0.0594101
-0.029048
0.0641501
-0.0305588
0.0687989
-0.0317173
0.0733949
-0.0324841
0.0779829
-0.0327756
0.0825635
-0.0323881
-0.0312045
0.0871497
-0.000727319
0.00307276
-0.00143706
0.00456475
-0.00180223
0.00453167
-0.00187227
0.0040898
-0.00171048
0.00356801
-0.00134325
0.00303913
-0.00077855
0.00251775
-1.52197e-05
0.00199725
0.000955188
0.00145974
0.00214719
0.0008827
0.00357926
0.000241989
0.00527341
-0.000489486
0.00725471
-0.00134117
0.00954735
-0.00234131
0.0121685
-0.00351575
0.0151263
-0.00488707
0.01842
-0.00647102
0.0220378
-0.00827422
0.0259549
-0.0102916
0.0301325
-0.0125044
0.034518
-0.0148785
0.0390465
-0.0173661
0.0436433
-0.0199072
0.048228
-0.0224335
0.0527201
-0.0248739
0.0570449
-0.0271603
0.0611401
-0.0292338
0.0649638
-0.0310509
0.0685027
-0.0325869
0.0717815
-0.0338377
0.0748705
-0.0348063
0.0778984
-0.035512
0.0810181
-0.0358955
0.0844405
-0.0358107
-0.0355327
0.0887686
-0.000700472
0.0037732
-0.00080958
0.00467379
-0.000283625
0.00400564
0.00057999
0.00322613
0.00164489
0.00250306
0.00288609
0.0017979
0.00430458
0.00109922
0.00590745
0.000394351
0.00770972
-0.000342557
0.00973399
-0.0011416
0.0120052
-0.00202923
0.014544
-0.00302834
0.0173638
-0.00416104
0.0204706
-0.00544812
0.0238615
-0.0069067
0.0275225
-0.00854812
0.031427
-0.0103755
0.0355344
-0.0123817
0.0397907
-0.0145479
0.0441287
-0.0168424
0.048471
-0.0192208
0.0527326
-0.0216278
0.0568255
-0.0240002
0.0606635
-0.0262715
0.0641666
-0.0283771
0.067267
-0.0302608
0.069915
-0.0318818
0.072086
-0.033222
0.0737928
-0.0342937
0.0751017
-0.0351466
0.076164
-0.0358687
0.0772405
-0.0365886
0.0787107
-0.0373658
0.0811182
-0.0382184
-0.0402334
0.0858188
-6.20561e-05
0.00383522
0.00158365
0.003028
0.00374769
0.00184153
0.00598063
0.000993133
0.00824185
0.000241801
0.0105641
-0.000524405
0.0129844
-0.0013211
0.0155364
-0.00215765
0.0182482
-0.00305444
0.0211396
-0.00403304
0.0242228
-0.00511247
0.0275037
-0.00630927
0.0309804
-0.00763769
0.0346408
-0.00910861
0.0384619
-0.0107279
0.0424083
-0.0124945
0.046432
-0.0143991
0.0504731
-0.0164228
0.0544612
-0.0185361
0.0583178
-0.020699
0.0619591
-0.0228621
0.0652999
-0.0249686
0.0682574
-0.0269578
0.0707551
-0.0287691
0.0727261
-0.0303481
0.0741172
-0.0316519
0.0748928
-0.0326573
0.0750395
-0.0333688
0.0745766
-0.0338308
0.0735738
-0.0341438
0.0722056
-0.0345006
0.0708351
-0.0352182
0.0703109
-0.0368418
0.0720143
-0.0399219
-0.045033
0.0768138
0.00584491
-0.00200974
0.0104582
-0.00158537
0.0142577
-0.00195804
0.0177357
-0.00248485
0.0210377
-0.00306021
0.0242427
-0.00372951
0.027419
-0.00449741
0.0306178
-0.00535645
0.0338717
-0.00630842
0.0371992
-0.00736057
0.0406071
-0.00852037
0.0440916
-0.00979377
0.0476383
-0.0111844
0.051222
-0.0126924
0.0548068
-0.0143126
0.0583459
-0.0160336
0.061783
-0.0178363
0.0650534
-0.0196932
0.0680861
-0.0215688
0.0708062
-0.0234191
0.0731382
-0.0251941
0.0750089
-0.0268392
0.0763502
-0.0282991
0.0771028
-0.0295217
0.077218
-0.0304633
0.0766604
-0.0310943
0.0754089
-0.0314058
0.0734574
-0.0314174
0.0708149
-0.0311884
0.0675048
-0.0308338
0.0635742
-0.03057
0.0591287
-0.0307727
0.054654
-0.0323672
0.0519602
-0.0372282
-0.0493899
0.056317
0.0304871
-0.00371379
0.0332378
-0.00433611
0.0360495
-0.00476976
0.0388726
-0.00530796
0.0417306
-0.00591832
0.0446038
-0.00660271
0.0474856
-0.00737924
0.0503813
-0.00825216
0.0532928
-0.00921995
0.0562147
-0.0102825
0.0591346
-0.0114403
0.0620331
-0.0126922
0.0648827
-0.0140341
0.0676482
-0.0154579
0.0702861
-0.0169505
0.0727456
-0.0184932
0.0749699
-0.0200606
0.0768973
-0.0216207
0.0784635
-0.0231349
0.0796034
-0.0245591
0.0802547
-0.0258454
0.0803597
-0.0269443
0.079869
-0.0278084
0.0787436
-0.0283964
0.0769575
-0.0286773
0.0744988
-0.0286356
0.0713688
-0.0282759
0.0675787
-0.0276274
0.0631399
-0.0267496
0.0580437
-0.0257376
0.0522114
-0.0247377
0.045387
-0.0239485
0.0367629
-0.0237431
0.0241857
-0.0246511
-0.0252042
0.0586751
-0.00463619
0.0598481
-0.00550912
0.061276
-0.00619775
0.0628601
-0.00689197
0.0645753
-0.00763361
0.0663908
-0.00841821
0.0682684
-0.0092568
0.0701771
-0.0101609
0.0720911
-0.011134
0.073984
-0.0121754
0.0758266
-0.0132829
0.0775858
-0.0144514
0.0792242
-0.0156725
0.0806995
-0.0169333
0.0819648
-0.0182158
0.0829689
-0.0194973
0.0836577
-0.0207494
0.0839753
-0.0219383
0.0838665
-0.023026
0.0832786
-0.0239713
0.0821649
-0.0247317
0.0804872
-0.0252666
0.0782192
-0.0255404
0.075349
-0.0255263
0.0718815
-0.0252098
0.0678381
-0.0245922
0.0632547
-0.0236925
0.0581751
-0.0225477
0.0526377
-0.0212122
0.0466525
-0.0197524
0.0401559
-0.0182412
0.032944
-0.0167367
0.0245013
-0.0153004
0.013775
-0.0139248
-0.0114292
0.0794405
-0.00525481
0.080066
-0.00613463
0.0807897
-0.00692145
0.0815826
-0.00768486
0.0824207
-0.00847175
0.0832892
-0.00928668
0.0841653
-0.0101329
0.085022
-0.0110177
0.0858319
-0.0119439
0.0865658
-0.0129093
0.0871914
-0.0139086
0.0876734
-0.0149334
0.0879725
-0.0159717
0.0880469
-0.0170076
0.0878516
-0.0180205
0.08734
-0.0189858
0.0864654
-0.0198747
0.0851823
-0.0206553
0.0834495
-0.0212932
0.0812325
-0.0217543
0.078507
-0.0220062
0.075262
-0.0220216
0.071503
-0.0217814
0.0672537
-0.021277
0.0625573
-0.0205133
0.0574743
-0.0195092
0.0520785
-0.0182967
0.0464482
-0.0169175
0.0406524
-0.0154164
0.0347285
-0.0138285
0.028648
-0.0121607
0.0222785
-0.0103672
0.0153503
-0.00837222
0.00759411
-0.00616867
-0.00383509
0.0925684
-0.00542916
0.0926813
-0.00624748
0.0927871
-0.00702729
0.0928858
-0.00778353
0.0929582
-0.00854419
0.092989
-0.00931748
0.0929599
-0.0101038
0.0928472
-0.010905
0.0926241
-0.0117208
0.0922622
-0.0125474
0.0917307
-0.013377
0.0909962
-0.0141989
0.0900234
-0.014999
0.0887756
-0.0157598
0.0872156
-0.0164606
0.0853074
-0.0170776
0.083018
-0.0175854
0.08032
-0.0179573
0.0771944
-0.0181677
0.0736337
-0.0181935
0.0696445
-0.0180171
0.0652509
-0.017628
0.060495
-0.0170255
0.0554377
-0.0162198
0.0501569
-0.0152326
0.0447429
-0.0140952
0.0392921
-0.0128459
0.033897
-0.0115225
0.0286329
-0.0101523
0.0235375
-0.0087331
0.0185879
-0.00721116
0.0136942
-0.00547353
0.00874956
-0.00342757
0.00385138
-0.00127049
1.62892e-05
0.0978961
-0.00514741
0.0975144
-0.00586575
0.0970539
-0.00656682
0.0965174
-0.00724703
0.0958911
-0.00791785
0.0951588
-0.0085852
0.0943032
-0.00924832
0.0933035
-0.00990531
0.092136
-0.0105533
0.0907754
-0.0111868
0.0891953
-0.0117969
0.0873684
-0.0123721
0.0852677
-0.0128983
0.0828672
-0.0133593
0.0801439
-0.0137372
0.0770795
-0.0140132
0.0736629
-0.0141688
0.0698927
-0.0141871
0.0657795
-0.0140545
0.0613483
-0.0137623
0.0566397
-0.0133085
0.0517104
-0.0126987
0.046632
-0.0119471
0.0414884
-0.0110761
0.0363707
-0.0101149
0.0313722
-0.00909675
0.0265807
-0.0080544
0.0220703
-0.00701219
0.0178898
-0.0059718
0.0140478
-0.00489113
0.0105054
-0.00366883
0.00720274
-0.00217086
0.00414865
-0.000373509
0.0015693
0.00130885
0.00158559
0.0954226
-0.0044402
0.094579
-0.00502214
0.0936025
-0.00559026
0.092492
-0.00613654
0.0912372
-0.00666315
0.0898243
-0.0071723
0.0882384
-0.0076624
0.0864631
-0.00813002
0.0844806
-0.00857093
0.082273
-0.00897917
0.0798227
-0.00934668
0.0771141
-0.00966356
0.0741345
-0.00991873
0.0708756
-0.0101005
0.0673355
-0.0101971
0.0635202
-0.010198
0.0594458
-0.0100944
0.0551396
-0.00988086
0.050641
-0.00955597
0.046002
-0.00912336
0.0412857
-0.00859215
0.0365639
-0.00797691
0.0319137
-0.00729701
0.0274129
-0.00657537
0.0231347
-0.00583672
0.0191432
-0.0051053
0.0154896
-0.0044008
0.0122073
-0.00372996
0.00930623
-0.00307075
0.00676781
-0.00235275
0.00455644
-0.0014575
0.00266452
-0.000278996
0.00117712
0.00111385
0.000270144
0.00221581
0.00185573
0.0852334
-0.00336559
0.0839921
-0.00378089
0.0825809
-0.00417904
0.0809969
-0.00455251
0.0792334
-0.00489974
0.0772819
-0.00522079
0.0751337
-0.00551416
0.0727806
-0.00577697
0.0702154
-0.00600575
0.0674325
-0.00619634
0.0644295
-0.00634365
0.0612078
-0.00644196
0.0577746
-0.00648549
0.0541431
-0.00646901
0.0503343
-0.00638838
0.0463775
-0.0062412
0.0423104
-0.00602735
0.038179
-0.0057495
0.0340363
-0.00541332
0.0299404
-0.00502743
0.0259513
-0.00460305
0.0221276
-0.00415327
0.0185227
-0.00369217
0.0151813
-0.00323394
0.0121368
-0.00279231
0.00941124
-0.00237977
0.00701488
-0.00200448
0.00494668
-0.00166181
0.00319557
-0.00131969
0.00174639
-0.000903628
0.000600445
-0.00031162
-0.000192297
0.000513684
-0.000533906
0.00145541
-0.000374014
0.00205588
0.00148171
0.067699
-0.00205722
0.066211
-0.00229286
0.0645406
-0.00250867
0.0626881
-0.00270005
0.0606542
-0.00286585
0.0584399
-0.00300654
0.0560478
-0.00312215
0.0534828
-0.003212
0.0507522
-0.00327509
0.0478661
-0.00331029
0.0448387
-0.00331631
0.0416886
-0.00329186
0.0384391
-0.003236
0.0351185
-0.00314845
0.03176
-0.00302992
0.0284009
-0.00288217
0.0250817
-0.00270819
0.0218443
-0.00251215
0.0187301
-0.00229914
0.0157776
-0.00207497
0.0130203
-0.00184575
0.0104845
-0.00161752
0.00818813
-0.00139586
0.00614014
-0.00118601
0.00434103
-0.000993245
0.00278456
-0.000823355
0.00145934
-0.000679321
0.000351965
-0.000554488
-0.000545467
-0.000422312
-0.00122076
-0.000228398
-0.00162542
9.29749e-05
-0.00167816
0.000566361
-0.00131055
0.00108773
-0.000600888
0.00134618
0.000880816
0.0440133
-0.000785124
0.0425797
-0.000859279
0.040991
-0.000919971
0.0392574
-0.000966514
0.0373913
-0.000999702
0.0354057
-0.00102103
0.0333152
-0.00103169
0.0311355
-0.00103238
0.028884
-0.00102358
0.0265794
-0.00100572
0.0242423
-0.000979197
0.0218947
-0.000944382
0.0195605
-0.000901774
0.017264
-0.000852055
0.0150302
-0.000796115
0.012883
-0.000735043
0.0108449
-0.0006701
0.00893541
-0.000602681
0.00717047
-0.000534236
0.0055616
-0.00046614
0.00411579
-0.000399994
0.00283549
-0.000337274
0.00171835
-0.000278764
0.000757731
-0.000225448
-5.66276e-05
-0.000178941
-0.000739306
-0.000140729
-0.00130647
-0.000112208
-0.00176977
-9.12409e-05
-0.00212558
-6.65438e-05
-0.00233884
-1.51929e-05
-0.00233656
9.0642e-05
-0.00203129
0.000261026
-0.00139265
0.000449042
-0.000567915
0.000521399
0.000312896
0.0165532
0.0156939
0.0147739
0.0138074
0.0128077
0.0117866
0.0107549
0.00972256
0.00869897
0.00769324
0.00671403
0.00576964
0.00486786
0.00401579
0.00321967
0.00248462
0.00181451
0.00121182
0.000677582
0.000211435
-0.000188567
-0.00052585
-0.000804622
-0.00103008
-0.00120903
-0.00134976
-0.00146198
-0.00155322
-0.00161978
-0.00163498
-0.00154434
-0.00128332
-0.000834289
-0.000312896
0.0273138
-0.00358218
0.0303903
-0.00307648
0.0328498
-0.00245944
0.0346395
-0.0017897
0.0357594
-0.0011198
0.036244
-0.000484554
0.0361482
9.57635e-05
0.0355573
0.000590997
0.0345827
0.000974616
0.00124656
0.0333362
0.0479382
-0.00892274
0.052735
-0.00787324
0.0568704
-0.00659481
0.0602897
-0.00520898
0.0629882
-0.00381825
0.064995
-0.00249131
0.066367
-0.00127617
0.0671591
-0.000201071
0.067416
0.000717776
0.00147045
0.0671921
0.062902
-0.0144766
0.067853
-0.0128242
0.0721033
-0.0108451
0.0756407
-0.00874638
0.0784993
-0.00667689
0.0807315
-0.00472352
0.0824
-0.00294468
0.0835783
-0.00137937
0.0843372
-4.10933e-05
0.00107721
0.0847305
0.0757999
-0.019739
0.0803656
-0.01739
0.0841666
-0.0146462
0.0872486
-0.0118284
0.0896837
-0.00911204
0.0915457
-0.00658556
0.0929156
-0.0043146
0.0938754
-0.00233913
0.0945006
-0.000666366
0.000719807
0.094858
0.0855745
-0.0244246
0.0894845
-0.0213
0.092606
-0.0177678
0.0950341
-0.0142566
0.0968457
-0.0109237
0.0981206
-0.00786058
0.09896
-0.0051541
0.0994663
-0.00284544
0.0997273
-0.000927396
0.000632413
0.0998147
0.0912724
-0.0285475
0.0944959
-0.0245237
0.0968331
-0.0201051
0.0983752
-0.0157988
0.0992128
-0.0117614
0.0995098
-0.0081576
0.0994578
-0.00510219
0.0992134
-0.00260108
0.0988863
-0.000600342
0.000972219
0.0985464
0.0926846
-0.0324636
0.0949499
-0.026789
0.0956858
-0.0208412
0.0951953
-0.0153085
0.0939094
-0.0104756
0.0923149
-0.00656318
0.0907625
-0.00354987
0.0894306
-0.00126942
0.088378
0.00045223
0.00174736
0.0876027
0.0885658
-0.0352107
0.0871968
-0.02542
0.0833484
-0.0169928
0.0785523
-0.0105125
0.0739425
-0.00586586
0.0701417
-0.00276265
0.0673034
-0.00071185
0.0653562
0.000677555
0.0641728
0.00163519
0.00232231
0.0635976
0.0717606
-0.0301575
0.061074
-0.0147335
0.0503433
-0.00626221
0.042064
-0.00223334
0.0365122
-0.000314283
0.0331835
0.000565745
0.0315165
0.000954809
0.0310624
0.00113125
0.0314427
0.0012545
0.00151953
0.032245
0.0261595
0.0114259
0.00516365
0.00293025
0.00261589
0.00318155
0.00413624
0.00526738
0.00652176
0.0080411
0.0319156
0.00142069
0.0304011
0.0015145
0.0288549
0.00154633
0.0273211
0.0015339
0.0258285
0.00149272
0.0243935
0.00143508
0.0230236
0.00137002
0.0217199
0.00130385
0.0204794
0.00124067
0.0192967
0.00118291
0.0181653
0.00113167
0.0170784
0.00108715
0.0160297
0.00104899
0.0150136
0.00101646
0.0140254
0.000988635
0.0130613
0.000964518
0.0121187
0.000943044
0.0111959
0.000923188
0.0102924
0.000903938
0.00940846
0.000884369
0.00854521
0.000863625
0.00770457
0.000840986
0.00688899
0.000815859
0.00610141
0.00078782
0.00534498
0.000756602
0.00462297
0.000722122
0.00393855
0.000684464
0.00329466
0.000643878
0.00269382
0.000600773
0.00213802
0.000555681
0.00162861
0.000509246
0.00116625
0.00046216
0.000750866
0.00041517
0.000381672
0.00036898
0.000324186
5.72977e-05
0.0665529
0.00206007
0.0655656
0.00250185
0.0642951
0.00281699
0.0628
0.00302919
0.0611314
0.00316149
0.0593326
0.00323405
0.0574392
0.00326365
0.0554794
0.00326389
0.0534748
0.0032455
0.0514414
0.00321658
0.0493904
0.00318298
0.0473292
0.00314872
0.0452623
0.00311636
0.0431919
0.00308734
0.0411189
0.00306221
0.0390432
0.00304075
0.0369647
0.00302218
0.0348833
0.00300521
0.0327997
0.00298817
0.0307156
0.00296908
0.028634
0.0029458
0.0265593
0.00291607
0.0244979
0.00287774
0.0224572
0.00282879
0.0204466
0.00276752
0.0184762
0.00269265
0.0165573
0.00260343
0.0147014
0.00249968
0.0129202
0.00238188
0.0112245
0.00225118
0.00962413
0.0021093
0.00812742
0.00195851
0.00674074
0.00180147
0.00546828
0.00164107
0.00148024
0.00431189
0.0848006
0.00199003
0.0845841
0.00271842
0.0841118
0.00328934
0.0834095
0.00373162
0.0824994
0.00407173
0.0814016
0.00433185
0.080135
0.00453038
0.0787163
0.00468267
0.0771605
0.00480141
0.0754805
0.00489674
0.0736872
0.00497654
0.0717893
0.00504683
0.0697939
0.00511204
0.0677063
0.0051753
0.0655303
0.00523853
0.0632689
0.00530261
0.060924
0.00536746
0.0584976
0.00543209
0.0559916
0.00549464
0.0534086
0.00555249
0.0507525
0.00560238
0.0480285
0.00564049
0.0452439
0.00566267
0.0424084
0.00566462
0.039534
0.00564214
0.0366356
0.00559133
0.0337302
0.00550892
0.0308375
0.00539248
0.0279787
0.00524068
0.0251763
0.00505349
0.0224532
0.0048323
0.0198315
0.00457995
0.0173321
0.00430066
0.014973
0.00399985
0.00368381
0.0127691
0.0950001
0.00184798
0.0949661
0.00275242
0.0947822
0.00347331
0.0944631
0.00405075
0.0940167
0.00451817
0.0934473
0.00490121
0.0927576
0.00522008
0.091949
0.00549133
0.0910221
0.00572838
0.0899771
0.00594187
0.0888135
0.00614019
0.0875306
0.00632991
0.0861268
0.00651611
0.0845998
0.0067025
0.082947
0.00689163
0.081165
0.00708491
0.0792501
0.00728265
0.0771985
0.00748404
0.0750064
0.00768713
0.0726705
0.00788883
0.0701883
0.00808494
0.0675589
0.00827025
0.0647833
0.00843865
0.0618649
0.00858331
0.0588103
0.00869695
0.0556298
0.00877214
0.0523372
0.00880164
0.048951
0.00877882
0.0454936
0.00869813
0.0419916
0.00855547
0.0384751
0.00834868
0.0349771
0.00807784
0.0315321
0.00774555
0.0281747
0.00735699
0.00691978
0.0249386
0.0997845
0.00187812
0.0996754
0.00286154
0.0995076
0.00364107
0.0992877
0.00427057
0.0990164
0.00478948
0.0986919
0.00522562
0.0983112
0.00560066
0.0978704
0.00593215
0.0973648
0.00623394
0.0967897
0.00651694
0.0961399
0.00678997
0.0954096
0.00706024
0.0945923
0.00733351
0.0936806
0.00761433
0.0926664
0.00790602
0.0915406
0.00821085
0.0902936
0.00852991
0.0889148
0.0088631
0.0873932
0.00920903
0.0857174
0.00956491
0.0838762
0.00992654
0.0818585
0.0102882
0.0796546
0.0106429
0.0772563
0.010982
0.0746575
0.011296
0.0718556
0.0115743
0.0688517
0.0118057
0.0656518
0.0119789
0.0622672
0.0120829
0.0587152
0.0121077
0.0550194
0.0120446
0.0512097
0.0118877
0.0473218
0.0116335
0.0433964
0.0112824
0.0108385
0.0394777
0.0982386
0.00218589
0.097988
0.00311217
0.0977934
0.00383562
0.0976389
0.00442493
0.0975085
0.00491981
0.0973886
0.00534539
0.0972674
0.00572173
0.0971347
0.00606477
0.0969819
0.0063866
0.0968019
0.00669683
0.0965882
0.00700364
0.0963342
0.00731413
0.0960333
0.00763442
0.095678
0.00796964
0.0952601
0.00832407
0.09477
0.00870107
0.0941971
0.00910301
0.0935293
0.0095311
0.0927532
0.00998531
0.0918542
0.0104642
0.0908163
0.0109647
0.0896226
0.0114822
0.0882556
0.0120102
0.0866976
0.0125402
0.0849316
0.0130623
0.0829417
0.0135646
0.080714
0.0140336
0.0782383
0.014455
0.0755082
0.0148133
0.0725231
0.0150929
0.0692892
0.0152788
0.0658199
0.0153572
0.0621372
0.0153165
0.0582713
0.0151485
0.0148491
0.0542608
0.0871066
0.00268178
0.0868734
0.00334526
0.0868494
0.00385948
0.0869764
0.0042978
0.0872092
0.00468678
0.0875133
0.00504115
0.0878614
0.00537339
0.0882333
0.00569269
0.088614
0.00600569
0.0889924
0.00631824
0.0893597
0.00663607
0.089709
0.00696474
0.0900337
0.00730953
0.0903278
0.00767539
0.0905849
0.00806692
0.0907978
0.00848825
0.090958
0.00894287
0.0910557
0.00943341
0.0910797
0.0099615
0.0910166
0.0105275
0.0908512
0.0111303
0.0905666
0.0117671
0.0901438
0.0124332
0.0895623
0.013122
0.0888002
0.0138247
0.0878348
0.0145302
0.0866432
0.0152256
0.085203
0.0158955
0.0834937
0.0165229
0.081498
0.017089
0.0792028
0.0175743
0.0766014
0.0179589
0.0736945
0.0182237
0.0704918
0.0183515
0.0183284
0.0670128
0.0635787
0.00270032
0.0640289
0.0028948
0.0647903
0.0030978
0.0657524
0.00333548
0.0668408
0.00359805
0.0680026
0.00387909
0.0692013
0.00417436
0.0704134
0.00448016
0.0716241
0.00479467
0.0728235
0.00511848
0.0740054
0.00545392
0.0751654
0.00580441
0.0763006
0.00617402
0.0774085
0.00656726
0.0784864
0.00698884
0.0795311
0.00744349
0.0805382
0.00793574
0.0815019
0.00846967
0.0824147
0.00904871
0.0832671
0.00967523
0.0840471
0.0103504
0.0847407
0.0110736
0.0853313
0.0118428
0.0857997
0.0126538
0.0861245
0.0135
0.0862821
0.0143729
0.0862466
0.0152613
0.085991
0.0161514
0.0854875
0.0170267
0.0847085
0.0178684
0.0836282
0.018655
0.0822237
0.0193637
0.0804774
0.0199705
0.0783778
0.0204515
0.0207845
0.0759221
0.0335709
0.00137406
0.0353838
0.00108143
0.0373978
0.00108342
0.0394943
0.00123862
0.0416042
0.00148768
0.0436919
0.00179105
0.0457436
0.00212217
0.0477565
0.00246684
0.0497311
0.0028196
0.0516697
0.00317939
0.0535758
0.00354744
0.055453
0.00392675
0.0573051
0.00432154
0.0591353
0.00473679
0.060946
0.00517789
0.0627387
0.00565055
0.0645137
0.00616057
0.0662696
0.00671371
0.0680029
0.00731534
0.069708
0.00797013
0.0713767
0.00868162
0.0729983
0.00945202
0.0745593
0.0102819
0.0760431
0.01117
0.0774303
0.0121129
0.0786981
0.0131052
0.0798208
0.0141387
0.0807702
0.0152023
0.0815154
0.0162818
0.082024
0.01736
0.0822633
0.0184161
0.0822006
0.0194267
0.0818057
0.0203658
0.0810518
0.0212058
0.0219189
0.0799177
0.0105883
-0.00117362
0.0133041
-0.0016349
0.0159342
-0.00154727
0.0184214
-0.00124918
0.0207839
-0.000875367
0.0230506
-0.00047621
0.0252503
-7.81466e-05
0.0274047
0.000311792
0.0295278
0.000695872
0.03163
0.00107656
0.0337204
0.00145644
0.0358071
0.00183952
0.0378971
0.00223094
0.0399969
0.00263653
0.0421118
0.00306261
0.0442462
0.00351586
0.0464032
0.00400326
0.0485847
0.00453198
0.0507907
0.00510914
0.0530192
0.00574141
0.055266
0.00643467
0.0575241
0.00719371
0.0597838
0.00802204
0.062032
0.00892166
0.0642519
0.00989289
0.0664232
0.010934
0.0685212
0.0120407
0.0705177
0.0132059
0.0723806
0.0144191
0.0740749
0.0156659
0.0755633
0.016928
0.0768073
0.0181831
0.0777681
0.0194054
0.0784086
0.0205658
0.0216337
0.0786943
0.00153538
-0.00270926
0.0033826
-0.00348278
0.00514141
-0.00330675
0.00684635
-0.00295479
0.00851226
-0.00254199
0.0101525
-0.00211716
0.0117825
-0.00170898
0.0134169
-0.0013235
0.0150687
-0.000956739
0.0167476
-0.000603216
0.0184618
-0.000258624
0.0202189
8.16843e-05
0.0220251
0.000424048
0.0238856
0.000775312
0.0258058
0.00114188
0.0277905
0.00153061
0.0298445
0.00194886
0.0319717
0.00240436
0.0341752
0.00290525
0.0364568
0.00345941
0.0388169
0.00407417
0.041254
0.00475625
0.0437641
0.00551157
0.0463402
0.0063452
0.0489716
0.0072612
0.0516431
0.00826223
0.0543346
0.00934895
0.0570211
0.0105193
0.0596723
0.0117678
0.0622535
0.0130848
0.0647256
0.0144561
0.0670466
0.0158624
0.0691727
0.0172796
0.0710592
0.0186796
0.0200307
0.0726626
-0.000213575
-0.00249598
9.21815e-05
-0.0037892
0.000697235
-0.0039125
0.00142451
-0.00368282
0.00222501
-0.0033433
0.00308613
-0.00297918
0.00400269
-0.0026265
0.0049736
-0.00229545
0.0060004
-0.00198461
0.00708608
-0.00168999
0.00823401
-0.00140762
0.00944808
-0.00113341
0.0107339
-0.00086271
0.0120983
-0.000589942
0.0135479
-0.000308521
0.0150895
-1.1667e-05
0.0167291
0.000308616
0.018472
0.000660948
0.0203232
0.00105342
0.0222882
0.00149384
0.0243723
0.00198951
0.0265801
0.00254791
0.0289149
0.00317607
0.0313785
0.00388102
0.0339693
0.00466982
0.0366816
0.00554943
0.0395046
0.00652555
0.0424217
0.00760194
0.04541
0.00877927
0.0484406
0.0100542
0.0514785
0.0114183
0.0544836
0.0128575
0.0574118
0.0143516
0.0602165
0.0158752
0.0173982
0.0628492
-0.000472538
-0.00202372
-0.000866854
-0.0033956
-0.00103387
-0.00374621
-0.00103554
-0.00368192
-0.000915863
-0.00346382
-0.000695959
-0.00320003
-0.000388582
-0.00293494
-1.61149e-06
-0.00268358
0.000460959
-0.00244841
0.000998068
-0.00222836
0.00161061
-0.00202144
0.00230083
-0.00182489
0.00307214
-0.00163523
0.00392886
-0.00144779
0.00487591
-0.00125658
0.00591801
-0.00105466
0.00706052
-0.000834613
0.00831031
-0.000589499
0.00967518
-0.000311935
0.0111633
5.16829e-06
0.0127833
0.000369138
0.0145436
0.00078703
0.0164538
0.00126541
0.0185232
0.00181104
0.0207596
0.00243283
0.0231677
0.00314068
0.025748
0.00394476
0.0284954
0.00485402
0.0313991
0.00587528
0.0344414
0.0070118
0.0375976
0.00826208
0.0408367
0.00961838
0.0441222
0.0110662
0.0474127
0.0125849
0.0141483
0.0506628
-0.000490825
-0.00153324
-0.00113607
-0.00275112
-0.00169723
-0.00318582
-0.00213973
-0.00324021
-0.00247087
-0.00313352
-0.00270188
-0.00296993
-0.00284278
-0.00279503
-0.00290121
-0.00262621
-0.00288202
-0.00246874
-0.00278796
-0.00232361
-0.00262019
-0.00219045
-0.00237831
-0.00206803
-0.00206054
-0.00195424
-0.00166369
-0.00184581
-0.00118315
-0.00173814
-0.000613047
-0.00162559
5.34883e-05
-0.00150177
0.00082341
-0.00135979
0.00170304
-0.00119182
0.00269925
-0.000991089
0.00382043
-0.000752173
0.00507763
-0.000470221
0.00648284