/*--------------------------------*- C++ -*----------------------------------*\
| =========                 |                                                 |
| \\      /  F ield         | OpenFOAM: The Open Source CFD Toolbox           |
|  \\    /   O peration     | Version:  2406                                  |
|   \\  /    A nd           | Website:  www.openfoam.com                      |
|    \\/     M anipulation  |                                                 |
\*---------------------------------------------------------------------------*/
FoamFile
{
    version     2.0;
    format      ascii;
    arch        "LSB;label=32;scalar=64";
    class       surfaceScalarField;
    location    "127";
    object      phi;
}
// * * * * * * * * * * * * * * * * * * * * * * * * * * * * * * * * * * * * * //

dimensions      [0 3 -1 0 0 0 0];

oriented        oriented;

internalField   nonuniform List<scalar> 
3680
(
0.019431
-0.00043096
0.020036
-0.000605057
0.020645
-0.00060903
0.0212299
-0.000584856
0.0217904
-0.000560585
0.0223306
-0.000540163
0.0228602
-0.000529575
0.0234001
-0.000539971
0.0239522
-0.000552058
-0.00087488
0.024827
0.0508018
-0.00023281
0.0506932
-0.00049645
0.0506929
-0.000608747
0.0507775
-0.000669408
0.0509369
-0.00072007
0.0511652
-0.000768473
0.0514587
-0.000823014
0.0518187
-0.000899999
0.0522838
-0.00101722
-0.00123363
0.0526426
0.0749118
-0.000144621
0.0747881
-0.000372728
0.0746941
-0.000514777
0.0746391
-0.000614446
0.074625
-0.000705993
0.0746559
-0.000799299
0.0747331
-0.000900218
0.0748523
-0.00101921
0.0750002
-0.00116515
-0.00134862
0.0751152
0.0909521
-9.66729e-05
0.0908447
-0.000265357
0.0907289
-0.000399025
0.0906265
-0.000512012
0.0905428
-0.000622368
0.090481
-0.000737475
0.0904417
-0.000860946
0.0904203
-0.00099775
0.0904067
-0.0011516
-0.00132347
0.0903815
0.0989594
-5.61215e-05
0.098854
-0.000159879
0.0987194
-0.000264499
0.0985797
-0.000372315
0.0984427
-0.000485293
0.0983106
-0.000605412
0.0981843
-0.000734679
0.0980612
-0.000874645
0.097935
-0.00102536
-0.00118445
0.0977959
0.0989541
-1.0243e-05
0.0988335
-3.92853e-05
0.098674
-0.000104933
0.0984987
-0.000197041
0.0983148
-0.000301453
0.0981244
-0.000414975
0.0979281
-0.000538433
0.0977243
-0.000670805
0.0975084
-0.000809475
-0.000950987
0.0972749
0.0909361
5.36984e-05
0.090784
0.000112727
0.0905942
8.49087e-05
0.0903862
1.09339e-05
0.0901635
-7.87242e-05
0.0899273
-0.000178836
0.089678
-0.000289108
0.0894132
-0.000405968
0.0891289
-0.000525204
-0.000643494
0.0888214
0.0748852
0.000168537
0.0746894
0.000308453
0.0744756
0.00029873
0.0742496
0.000236959
0.0740097
0.000161141
0.0737564
7.44744e-05
0.0734876
-2.03543e-05
0.0731993
-0.000117606
0.0728872
-0.000213089
-0.000304593
0.0725483
0.050767
0.000401518
0.0505648
0.000510715
0.0504079
0.000455587
0.0502699
0.000374921
0.0501374
0.000293621
0.0499995
0.000212397
0.0498453
0.000133834
0.0496667
6.10418e-05
0.0494589
-5.25878e-06
-6.48871e-05
0.0492192
0.0194015
0.0199122
0.0203678
0.0207427
0.0210364
0.0212488
0.0213826
0.0214436
0.0214384
0.0213735
-3.33175e-05
3.33055e-05
-0.000128331
9.49858e-05
-0.00025988
0.000131521
-0.000405192
0.000145285
-0.000553603
0.000148386
-0.000701375
0.000147746
-0.000847543
0.000146143
-0.00099195
0.000144382
-0.00113455
0.000142577
-0.00127528
0.000140705
-0.00141406
0.000138756
-0.00155084
0.000136752
-0.0016856
0.000134729
-0.00181835
0.000132721
-0.00194913
0.000130761
-0.00207803
0.000128873
-0.00220514
0.000127076
-0.00233055
0.000125384
-0.00245438
0.000123803
-0.00257675
0.000122337
-0.00269777
0.000120991
-0.00281757
0.000119768
-0.00293627
0.000118677
-0.00305404
0.00011773
-0.00317101
0.000116944
-0.00328738
0.000116333
-0.00340332
0.000115916
-0.00351906
0.00011571
-0.00363483
0.000115734
-0.00375087
0.000116007
-0.00386745
0.000116549
-0.00398485
0.000117372
-0.00410337
0.000118488
-0.00422331
0.000119908
0.000121645
-0.00434498
-0.00012743
0.000160708
-0.000371337
0.000338828
-0.000674469
0.000434592
-0.000998427
0.000469184
-0.00132451
0.000474417
-0.0016455
0.000468672
-0.00195913
0.000459722
-0.00226494
0.000450135
-0.00256295
0.000440538
-0.00285335
0.000431046
-0.00313635
0.000421705
-0.00341223
0.000412574
-0.00368127
0.000403719
-0.0039438
0.000395197
-0.00420015
0.000387052
-0.00445065
0.000379317
-0.00469564
0.00037201
-0.00493545
0.000365137
-0.0051704
0.000358694
-0.00540079
0.000352673
-0.00562693
0.000347065
-0.00584909
0.000341871
-0.00606758
0.000337105
-0.00628269
0.000332787
-0.00649476
0.000328947
-0.0067041
0.000325613
-0.00691105
0.000322812
-0.00711598
0.000320573
-0.00731923
0.000318925
-0.00752117
0.000317895
-0.00772219
0.000317503
-0.00792263
0.000317761
-0.00812287
0.000318666
-0.00832323
0.000320217
0.000322415
-0.00852405
-0.000234303
0.000394983
-0.000631635
0.000736099
-0.00109118
0.000894081
-0.00156298
0.000940927
-0.00202613
0.000937514
-0.00247329
0.000915778
-0.00290264
0.000889029
-0.0033144
0.000861841
-0.0037094
0.000835493
-0.00408868
0.00081027
-0.00445325
0.000786224
-0.00480408
0.000763364
-0.0051421
0.000741682
-0.00546811
0.000721162
-0.00578289
0.000701777
-0.00608712
0.000683496
-0.00638143
0.000666278
-0.00666642
0.000650069
-0.00694258
0.000634807
-0.00721039
0.00062043
-0.00747027
0.000606885
-0.00772259
0.000594138
-0.00796771
0.000582177
-0.00820599
0.000571011
-0.00843776
0.000560655
-0.00866332
0.000551118
-0.00888297
0.000542408
-0.00909697
0.000534524
-0.00930557
0.000527467
-0.00950896
0.000521231
-0.0097073
0.000515796
-0.00990071
0.000511116
-0.0100892
0.000507119
-0.0102728
0.000503723
0.000500846
-0.0104512
-0.000342469
0.000737427
-0.000879879
0.00127345
-0.00146458
0.00147873
-0.00203826
0.00151455
-0.00258231
0.00148152
-0.00309282
0.00142623
-0.00357081
0.00136697
-0.0040188
0.00130978
-0.00443953
0.00125618
-0.00483558
0.00120628
-0.00520923
0.00115982
-0.00556241
0.0011165
-0.00589682
0.00107604
-0.00621386
0.00103816
-0.00651477
0.00100263
-0.00680057
0.000969251
-0.00707218
0.000937839
-0.00733037
0.000908209
-0.00757579
0.000880179
-0.00780899
0.000853578
-0.00803041
0.000828258
-0.00824044
0.000804105
-0.00843936
0.000781044
-0.00862743
0.000759034
-0.00880487
0.000738041
-0.00897182
0.000718011
-0.00912835
0.000698882
-0.00927446
0.000680579
-0.00941007
0.000663026
-0.00953503
0.000646135
-0.00964909
0.000629802
-0.00975189
0.000613871
-0.00984296
0.000598135
-0.00992165
0.000582365
0.000566323
-0.00998718
-0.000448188
0.00118559
-0.00109392
0.00191913
-0.00174688
0.00213163
-0.00235062
0.00211825
-0.00289599
0.00202684
-0.00338657
0.00191677
-0.00382873
0.00180909
-0.00422883
0.00170984
-0.00459238
0.00161969
-0.00492392
0.00153777
-0.00522712
0.00146297
-0.0055049
0.00139425
-0.00575965
0.00133074
-0.00599326
0.00127172
-0.00620728
0.0012166
-0.00640298
0.0011649
-0.00658142
0.00111623
-0.00674345
0.00107019
-0.00688976
0.00102644
-0.00702086
0.00098463
-0.00713714
0.000944479
-0.00723884
0.000905748
-0.00732611
0.000868257
-0.00739901
0.000831885
-0.00745755
0.000796521
-0.00750161
0.000762018
-0.00753098
0.000728192
-0.00754532
0.000694854
-0.00754416
0.000661811
-0.00752695
0.000628863
-0.007493
0.000595795
-0.0074415
0.000562319
-0.00737149
0.000528058
-0.00728178
0.000492594
0.000455502
-0.00717101
-0.000550832
0.0017364
-0.00124982
0.00261807
-0.00187699
0.00275875
-0.00240266
0.00264388
-0.00283982
0.00246396
-0.00320407
0.00228097
-0.00350865
0.00211363
-0.00376429
0.00196544
-0.00397926
0.00183461
-0.00415971
0.00171818
-0.00431026
0.00161347
-0.00443439
0.00151832
-0.00453474
0.00143104
-0.00461334
0.00135027
-0.00467175
0.00127496
-0.00471122
0.00120432
-0.00473272
0.00113768
-0.00473702
0.00107444
-0.00472467
0.00101403
-0.00469604
0.000955932
-0.00465131
0.000899688
-0.00459053
0.000844908
-0.00451362
0.000791277
-0.00442038
0.000738578
-0.00431057
0.000686635
-0.00418379
0.000635171
-0.00403952
0.000583857
-0.0038771
0.000532362
-0.00369572
0.000480363
-0.00349446
0.000427525
-0.00327224
0.00037351
-0.00302789
0.000317895
-0.00276003
0.000260126
-0.00246712
0.000199607
0.00013575
-0.00214744
-0.000648247
0.00238462
-0.00129763
0.00326741
-0.00173743
0.0031985
-0.00201972
0.00292613
-0.00219869
0.00264288
-0.00230299
0.00238523
-0.00235044
0.00216103
-0.00235412
0.00196907
-0.00232328
0.00180371
-0.00226406
0.00165891
-0.00218062
0.00152998
-0.00207588
0.00141354
-0.00195197
0.00130708
-0.00181039
0.00120863
-0.00165221
0.00111672
-0.00147818
0.00103023
-0.0012889
0.000948328
-0.00108473
0.000870197
-0.000865838
0.000795072
-0.000632249
0.000722272
-0.000383837
0.0006512
-0.000120343
0.000581336
0.000158615
0.00051224
0.000453491
0.000443622
0.000764846
0.0003752
0.00109342
0.000306515
0.00144011
0.000237091
0.00180591
0.000166484
0.00219193
9.42758e-05
0.0025993
2.00786e-05
0.00302938
-5.66425e-05
0.00348379
-0.000136592
0.00396429
-0.00022044
0.00447267
-0.000308843
-0.000402497
0.00501085
-0.00071158
0.00309618
-0.00104641
0.00360219
-0.000991775
0.00314381
-0.000773902
0.00270821
-0.000493645
0.00236257
-0.000175911
0.00206744
0.000168187
0.00181688
0.000529467
0.00160774
0.000902677
0.00143045
0.00128554
0.001276
0.00167699
0.00113848
0.00207644
0.00101404
0.00248362
0.000899845
0.0028985
0.0007937
0.00332124
0.000693926
0.00375209
0.000599322
0.00419138
0.000508994
0.00463954
0.000421983
0.00509712
0.000337435
0.00556472
0.000254619
0.00604296
0.0001729
0.00653251
9.17331e-05
0.00703397
1.07263e-05
0.00754818
-7.06405e-05
0.00807637
-0.000153047
0.00861986
-0.000237025
0.00917995
-0.000323048
0.00975799
-0.000411607
0.0103554
-0.000503222
0.0109739
-0.000598458
0.0116151
-0.000697919
0.0122808
-0.000802274
0.0129725
-0.000912256
0.0136923
-0.00102864
-0.00115223
0.014442
-0.000368581
0.00346473
0.000415871
0.0028177
0.00149933
0.00206031
0.00252558
0.00168191
0.00347257
0.00141554
0.00436129
0.00117869
0.0052045
0.000973629
0.00601133
0.000800868
0.00678963
0.000652121
0.00754581
0.000519772
0.00828488
0.00039938
0.00901063
0.000288247
0.0097261
0.000184342
0.0104337
8.60563e-05
0.0111354
-7.79686e-06
0.011833
-9.83366e-05
0.0125286
-0.000186606
0.0132239
-0.000273348
0.0139205
-0.000359188
0.0146198
-0.000444719
0.0153231
-0.000530506
0.0160319
-0.000617088
0.0167476
-0.000705003
0.0174717
-0.00079475
0.0182054
-0.000886848
0.0189502
-0.000981853
0.0197075
-0.00108034
0.0204787
-0.00118288
0.0212655
-0.00129009
0.0220696
-0.00140259
0.0228928
-0.00152108
0.0237367
-0.00164627
0.0246034
-0.00177894
0.0254946
-0.00191987
-0.00206992
0.0264122
0.00409899
-0.00063428
0.00698136
-6.47022e-05
0.00909002
-4.83837e-05
0.0108704
-9.84886e-05
0.0124269
-0.000141015
0.0138098
-0.000204255
0.0150673
-0.000283862
0.0162351
-0.000366954
0.0173361
-0.000448873
0.0183853
-0.000529454
0.0193935
-0.000608824
0.0203686
-0.000686901
0.0213167
-0.000763798
0.0222426
-0.000839848
0.0231502
-0.000915476
0.0240429
-0.000991049
0.0249233
-0.00106697
0.0257936
-0.00114368
0.026656
-0.00122164
0.0275125
-0.00130128
0.0283651
-0.00138309
0.0292155
-0.0014675
0.0300655
-0.00155501
0.0309168
-0.00164609
0.0317712
-0.00174125
0.0326303
-0.00184102
0.0334959
-0.00194594
0.0343696
-0.0020566
0.0352531
-0.00217361
0.036148
-0.00229759
0.0370562
-0.00242922
0.0379791
-0.00256921
0.0389184
-0.00271829
0.0398757
-0.00287723
-0.00304681
0.0408526
0.0254817
-0.00128898
0.0267428
-0.00132577
0.0279928
-0.00129848
0.0292046
-0.00131023
0.0303899
-0.0013264
0.0315322
-0.00134651
0.0326263
-0.00137804
0.0336781
-0.00141872
0.0346934
-0.00146421
0.0356766
-0.00151269
0.0366314
-0.00156363
0.0375612
-0.0016167
0.038469
-0.00167164
0.0393576
-0.00172841
0.0402292
-0.00178713
0.0410861
-0.00184796
0.0419303
-0.00191115
0.0427636
-0.00197698
0.0435877
-0.00204578
0.0444043
-0.0021179
0.0452149
-0.00219373
0.0460211
-0.00227368
0.0468242
-0.00235816
0.0476257
-0.00244764
0.0484271
-0.00254259
0.0492295
-0.0026435
0.0500344
-0.00275088
0.0508431
-0.00286529
0.0516568
-0.0029873
0.0524767
-0.00311748
0.0533039
-0.00325646
0.0541395
-0.00340487
0.0549846
-0.00356335
0.0558399
-0.00373257
-0.00391317
0.0567063
0.0528408
-0.00148724
0.0531528
-0.00163776
0.0535542
-0.00169989
0.0540025
-0.00175851
0.0544966
-0.00182048
0.0550271
-0.0018771
0.0555801
-0.00193097
0.0561465
-0.00198515
0.0567217
-0.00203949
0.0573025
-0.00209346
0.0578861
-0.00214727
0.0584708
-0.00220135
0.0590552
-0.00225605
0.0596385
-0.00231172
0.0602201
-0.00236876
0.0607997
-0.00242759
0.0613772
-0.00248864
0.0619525
-0.00255235
0.0625259
-0.00261916
0.0630975
-0.00268952
0.0636677
-0.0027639
0.0642368
-0.00284276
0.0648052
-0.00292658
0.0653733
-0.00301583
0.0659417
-0.003111
0.0665108
-0.00321258
0.067081
-0.0033211
0.0676528
-0.00343705
0.0682264
-0.00356098
0.0688024
-0.00369341
0.0693808
-0.00383488
0.0699618
-0.00398593
0.0705455
-0.00414707
0.0711318
-0.00431884
-0.00450172
0.0717204
0.0751812
-0.00155331
0.0752649
-0.00172146
0.0753978
-0.00183275
0.075561
-0.00192178
0.075746
-0.00200544
0.0759507
-0.00208184
0.0761708
-0.00215109
0.0764019
-0.00221623
0.0766413
-0.00227894
0.0768875
-0.00233962
0.0771389
-0.00239868
0.0773943
-0.00245673
0.0776526
-0.00251436
0.077913
-0.00257213
0.0781748
-0.00263057
0.0784374
-0.00269021
0.0787004
-0.00275159
0.0789632
-0.00281523
0.0792257
-0.00288165
0.0794875
-0.00295134
0.0797485
-0.00302483
0.0800083
-0.00310259
0.0802668
-0.00318512
0.0805239
-0.00327289
0.0807793
-0.0033664
0.0810328
-0.00346611
0.0812842
-0.00357249
0.0815332
-0.00368601
0.0817793
-0.00380712
0.0820222
-0.00393628
0.0822612
-0.00407391
0.0824957
-0.00422042
0.0827249
-0.0043762
0.0829476
-0.00454161
-0.00471693
0.0831629
0.0903319
-0.00150367
0.0902762
-0.00166571
0.0902371
-0.00179374
0.0902135
-0.00189811
0.0901994
-0.00199133
0.0901935
-0.00207602
0.0901948
-0.00215237
0.0902008
-0.00222225
0.0902095
-0.00228762
0.0902194
-0.00234955
0.0902295
-0.00240875
0.0902387
-0.00246596
0.0902463
-0.00252196
0.0902516
-0.00257743
0.0902541
-0.00263301
0.0902531
-0.00268929
0.0902484
-0.00274688
0.0902395
-0.00280631
0.090226
-0.00286813
0.0902075
-0.00293284
0.0901836
-0.00300093
0.0901539
-0.00307288
0.0901179
-0.00314915
0.0900752
-0.00323016
0.0900252
-0.00331636
0.0899672
-0.00340814
0.0899006
-0.00350591
0.0898247
-0.00361003
0.0897384
-0.00372086
0.0896409
-0.00383874
0.089531
-0.00396395
0.0894073
-0.00409677
0.0892686
-0.00423741
0.089113
-0.00438605
-0.00454278
0.0889389
0.0976371
-0.00134479
0.0974648
-0.00149344
0.0972916
-0.00162052
0.0971211
-0.00172759
0.096951
-0.00182132
0.0967802
-0.00190515
0.0966078
-0.00198
0.0964328
-0.00204723
0.0962538
-0.00210862
0.0960698
-0.00216557
0.0958801
-0.00221905
0.0956841
-0.00226993
0.0954812
-0.00231904
0.0952709
-0.00236713
0.0950528
-0.0024149
0.0948264
-0.00246295
0.0945914
-0.00251186
0.0943473
-0.00256218
0.0940935
-0.0026144
0.0938297
-0.00266899
0.0935552
-0.0027264
0.0932694
-0.00278705
0.0929716
-0.00285132
0.092661
-0.00291958
0.0923368
-0.00299218
0.0919981
-0.00306943
0.0916439
-0.00315163
0.0912729
-0.00323903
0.0908839
-0.00333188
0.0904756
-0.00343038
0.0900464
-0.00353469
0.0895946
-0.00364491
0.0891183
-0.00376113
0.0886156
-0.00388333
-0.00401144
0.0880843
0.0970204
-0.00109025
0.0967471
-0.00122011
0.096461
-0.00133444
0.0961658
-0.00143234
0.0958614
-0.00151697
0.0955475
-0.00159121
0.095224
-0.00165652
0.0948909
-0.00171412
0.0945478
-0.00176553
0.0941944
-0.00181215
0.0938304
-0.00185504
0.0934555
-0.0018951
0.0930696
-0.00193313
0.0926724
-0.00196988
0.0922635
-0.00200599
0.0918426
-0.00204205
0.0914093
-0.00207857
0.0909632
-0.00211604
0.0905037
-0.00215489
0.0900302
-0.00219551
0.0895421
-0.00223828
0.0890386
-0.00228353
0.0885189
-0.00233155
0.0879819
-0.00238262
0.0874267
-0.00243698
0.0868522
-0.00249485
0.086257
-0.00255642
0.0856398
-0.00262183
0.0849992
-0.0026912
0.0843334
-0.00276462
0.0836409
-0.00284211
0.0829197
-0.00292368
0.0821679
-0.00300926
0.0813833
-0.00309872
-0.00319187
0.0805638
0.0884886
-0.000757384
0.0881311
-0.000862635
0.0877522
-0.000955569
0.087355
-0.00103515
0.086941
-0.00110295
0.0865109
-0.00116112
0.0860656
-0.00121117
0.0856057
-0.00125426
0.0851318
-0.00129165
0.0846442
-0.00132455
0.0841432
-0.00135397
0.0836288
-0.00138074
0.0831013
-0.00140557
0.0825605
-0.0014291
0.0820064
-0.0014519
0.0814388
-0.00147444
0.0808574
-0.00149717
0.0802618
-0.00152045
0.0796516
-0.00154462
0.0790261
-0.00156999
0.0783846
-0.00159681
0.0777264
-0.00162531
0.0770506
-0.0016557
0.0763561
-0.00168814
0.075642
-0.00172279
0.0749069
-0.00175974
0.0741496
-0.00179911
0.0733688
-0.00184092
0.0725628
-0.00188522
0.0717302
-0.00193199
0.0708694
-0.00198118
0.0699784
-0.0020327
0.0690556
-0.00208642
0.0680991
-0.00214214
-0.00219963
0.0671069
0.0721811
-0.000390231
0.0717861
-0.000467646
0.0713655
-0.00053491
0.0709219
-0.000591523
0.0704574
-0.000638495
0.0699737
-0.000677418
0.0694722
-0.000709639
0.0689542
-0.00073623
0.0684208
-0.000758217
0.0678728
-0.000776595
0.0673111
-0.000792212
0.0667361
-0.000805752
0.0661483
-0.000817787
0.065548
-0.000828811
0.0649354
-0.000839247
0.0643104
-0.000849451
0.063673
-0.000859719
0.0630229
-0.000870308
0.0623597
-0.00088143
0.061683
-0.000893267
0.0609922
-0.00090597
0.0602866
-0.000919663
0.0595654
-0.000934443
0.0588277
-0.000950391
0.0580725
-0.000967556
0.0572988
-0.000985975
0.0565054
-0.00100565
0.0556911
-0.00102659
0.0548546
-0.00104873
0.0539947
-0.00107204
0.0531101
-0.00109642
0.0521992
-0.00112176
0.0512608
-0.00114792
0.0502934
-0.00117473
-0.001202
0.0492959
0.0489457
-0.000116802
0.0486385
-0.000160396
0.0482992
-0.000195614
0.0479307
-0.000223035
0.0475361
-0.00024384
0.0471181
-0.00025942
0.0466794
-0.000270952
0.0462225
-0.000279338
0.0457496
-0.000285339
0.0452627
-0.000289621
0.0447632
-0.00029272
0.0442525
-0.00029504
0.0437316
-0.000296886
0.0432013
-0.0002985
0.0426622
-0.000300072
0.0421145
-0.000301747
0.0415584
-0.000303632
0.0409939
-0.000305811
0.0404209
-0.000308343
0.0398389
-0.000311274
0.0392476
-0.000314633
0.0386464
-0.000318439
0.0380347
-0.0003227
0.0374118
-0.000327416
0.0367769
-0.000332576
0.0361291
-0.000338165
0.0354677
-0.000344155
0.0347917
-0.000350516
0.0341002
-0.000357203
0.0333924
-0.00036417
0.0326674
-0.000371356
0.0319245
-0.000378696
0.0311627
-0.00038611
0.0303816
-0.000393514
-0.000400812
0.0295805
0.0212567
0.0210963
0.0209007
0.0206776
0.0204338
0.0201744
0.0199034
0.0196241
0.0193388
0.0190492
0.0187564
0.0184614
0.0181645
0.017866
0.017566
0.0172642
0.0169606
0.0166548
0.0163465
0.0160352
0.0157206
0.0154022
0.0150795
0.0147521
0.0144195
0.0140814
0.0137373
0.0133868
0.0130296
0.0126655
0.0122941
0.0119155
0.0115294
0.0111359
0.0107351
-0.00446873
0.000123717
-0.0045949
0.000126152
-0.00472391
0.000128979
-0.00485617
0.000132237
-0.00499215
0.000135963
-0.00513236
0.000140194
-0.00527733
0.00014495
-0.00542759
0.000150247
-0.00558367
0.000156067
0.000162374
-0.00574604
-0.00872565
0.00032527
-0.00892835
0.000328799
-0.00913243
0.000333023
-0.00933819
0.000337955
-0.00954586
0.000343592
-0.00975559
0.000349896
-0.00996744
0.000356777
-0.0101813
0.000364082
-0.0103968
0.000371575
0.000378922
-0.0106134
-0.0106244
0.00049841
-0.010792
0.000496334
-0.0109535
0.000494525
-0.0111085
0.000492852
-0.0112561
0.00049114
-0.0113953
0.000489132
-0.011525
0.000486467
-0.0116436
0.00048266
-0.0117491
0.000477093
0.000468977
-0.0118392
-0.0100386
0.000549767
-0.0100747
0.000532441
-0.0100943
0.000514056
-0.0100958
0.000494261
-0.0100773
0.000472638
-0.0100368
0.000448653
-0.009972
0.000421614
-0.00988004
0.000390693
-0.00975785
0.000354904
0.000313069
-0.00960193
-0.00703765
0.000416346
-0.00687994
0.000374668
-0.0066959
0.000329966
-0.00648335
0.000281658
-0.00623984
0.000229078
-0.0059627
0.00017147
-0.00564899
0.000107861
-0.00529544
3.71171e-05
-0.00489858
-4.19711e-05
-0.000130712
-0.00445481
-0.00179913
6.79624e-05
-0.00142016
-4.3804e-06
-0.00100824
-8.20192e-05
-0.000560902
-0.000165748
-7.55052e-05
-0.000256383
0.000450779
-0.000354876
0.00102094
-0.000462354
0.00163805
-0.000580041
0.00230528
-0.000709242
-0.000851415
0.00302595
0.00558089
-0.000502141
0.00618502
-0.000608572
0.00682558
-0.00072263
0.00750502
-0.000845237
0.00822596
-0.00097737
0.00899114
-0.0011201
0.00980336
-0.00127462
0.0106655
-0.00144219
0.0115804
-0.00162415
-0.00182191
0.0125508
0.0152237
-0.00128389
0.0160396
-0.0014245
0.0168919
-0.00157501
0.017783
-0.00173641
0.0187154
-0.00190973
0.0196913
-0.00209606
0.0207132
-0.00229657
0.0217834
-0.00251245
0.0229042
-0.0027449
-0.00299516
0.0240774
0.0273583
-0.00222997
0.0283346
-0.0024009
0.0293432
-0.00258365
0.030386
-0.00277918
0.0314647
-0.00298846
0.0325811
-0.00321247
0.0337367
-0.0034522
0.0349328
-0.00370863
0.0361706
-0.0039827
-0.00427527
0.0374507
0.0418504
-0.00322782
0.0428706
-0.00342109
0.0439143
-0.0036274
0.0449827
-0.00384757
0.0460766
-0.00408236
0.0471966
-0.00433253
0.0483432
-0.00459877
0.0495162
-0.0048817
0.0507154
-0.00518187
-0.00549966
0.0519398
0.0575842
-0.00410581
0.0584742
-0.00431111
0.0593765
-0.00452967
0.060291
-0.00476205
0.0612174
-0.00500874
0.062155
-0.00527016
0.0631029
-0.00554663
0.0640595
-0.00583837
0.0650231
-0.00614541
-0.00646764
0.0659911
0.0723107
-0.00469617
0.0729022
-0.00490259
0.0734939
-0.00512134
0.0740845
-0.00535268
0.0746726
-0.00559679
0.0752562
-0.00585375
0.0758331
-0.00612348
0.0764005
-0.00640576
0.0769553
-0.00670017
-0.0070061
0.0774938
0.0833691
-0.00490242
0.0835648
-0.00509825
0.083748
-0.00530451
0.0839165
-0.00552117
0.0840679
-0.00574812
0.0841992
-0.00598508
0.0843074
-0.00623162
0.0843888
-0.00648714
0.0844395
-0.00675083
-0.00702167
0.0844552
0.0887442
-0.00470765
0.0885266
-0.0048806
0.0882836
-0.00506146
0.0880124
-0.00524997
0.0877101
-0.00544574
0.0873732
-0.0056482
0.0869983
-0.00585666
0.0865815
-0.00607023
0.0861185
-0.00628781
-0.00650813
0.085605
0.0875221
-0.00414533
0.0869262
-0.00428473
0.0862942
-0.00442933
0.0856229
-0.00457864
0.0849093
-0.0047321
0.0841501
-0.00488897
0.083342
-0.0050484
0.0824812
-0.00520936
0.081564
-0.00537064
-0.00553089
0.0805869
0.079707
-0.00328844
0.0788104
-0.00338808
0.0778715
-0.00349036
0.0768876
-0.00359472
0.0758561
-0.00370052
0.0747743
-0.00380702
0.0736393
-0.00391334
0.0724485
-0.00401848
0.0711992
-0.00412134
-0.0042207
0.0698891
0.0660771
-0.00225858
0.0650078
-0.00231865
0.0638969
-0.00237939
0.0627425
-0.00244031
0.061543
-0.00250085
0.0602964
-0.00256037
0.0590013
-0.00261815
0.0576563
-0.00267342
0.0562604
-0.00272534
-0.00277302
0.0548128
0.0482669
-0.00122947
0.0472052
-0.00125689
0.0461098
-0.00128394
0.0449799
-0.0013103
0.0438147
-0.00133558
0.0426139
-0.00135939
0.0413771
-0.00138131
0.0401047
-0.00140088
0.0387971
-0.00141766
-0.00143117
0.0374554
0.0287591
-0.0004079
0.0279169
-0.000414664
0.0270541
-0.000420985
0.0261706
-0.000426737
0.0252669
-0.00043179
0.0243437
-0.000436011
0.0234017
-0.000439269
0.0224424
-0.000441435
0.0214672
-0.000442388
-0.000442017
0.0204782
0.0103273
0.00991263
0.00949168
0.00906498
0.00863322
0.00819725
0.00775802
0.00731661
0.00687426
0.00643227
-0.00591512
0.000169081
-0.00609118
0.000176065
-0.00627429
0.000183122
-0.00646425
0.000189995
-0.00666055
0.000196324
-0.00686218
0.000201688
-0.00706767
0.000205545
-0.00727481
0.000207219
-0.00748059
0.000205868
-0.00768099
0.000200506
-0.00787096
0.000190093
-0.00804447
0.000173644
-0.00819457
0.000150243
-0.00831324
0.000118827
-0.00839129
7.82404e-05
-0.00841897
2.78895e-05
-0.00838721
-3.15188e-05
-0.00828841
-9.85501e-05
-0.00811569
-0.000172439
-0.00786278
-0.000252632
-0.00752465
-0.000337836
-0.00709809
-0.000426276
-0.00658199
-0.0005158
-0.00597724
-0.000604453
-0.00528639
-0.00069053
-0.00451374
-0.000772325
-0.00366514
-0.000848239
-0.00274801
-0.000916776
-0.00177053
-0.00097712
-0.000741519
-0.00102866
0.000330372
-0.00107154
0.00143616
-0.00110545
0.00256628
-0.0011298
0.00371201
-0.00114542
-0.00115338
0.00486568
-0.0108299
0.000385665
-0.011045
0.000391202
-0.0112566
0.000394763
-0.011462
0.000395409
-0.0116576
0.000392014
-0.0118391
0.000383292
-0.0120012
0.000367772
-0.0121376
0.000343806
-0.0122412
0.000309588
-0.0123037
0.000263244
-0.0123163
0.000202848
-0.0122691
0.000126709
-0.0121522
3.36773e-05
-0.0119567
-7.637e-05
-0.0116753
-0.000202876
-0.0113018
-0.000345161
-0.0108303
-0.000502572
-0.0102543
-0.00067402
-0.00956892
-0.000857369
-0.00877128
-0.00104974
-0.00786072
-0.00124785
-0.00683841
-0.001448
-0.00570829
-0.00164533
-0.00447615
-0.00183598
-0.00314882
-0.00201724
-0.00173406
-0.00218642
-0.000240243
-0.00234136
0.00132374
-0.00248007
0.00294757
-0.00260031
0.00462061
-0.0027011
0.00633176
-0.00278213
0.00807019
-0.00284334
0.00982597
-0.00288509
0.0115898
-0.00290881
-0.00291668
0.0133535
-0.0119108
0.000457344
-0.0119606
0.000441002
-0.0119843
0.000418569
-0.0119773
0.000388459
-0.0119342
0.000348938
-0.0118488
0.000298074
-0.0117148
0.000233821
-0.0115247
0.000153928
-0.0112711
5.61693e-05
-0.0109466
-6.11067e-05
-0.0105446
-0.000198943
-0.0100593
-0.00035832
-0.0094856
-0.00053975
-0.00881846
-0.000743193
-0.00805292
-0.000968056
-0.00718562
-0.00121206
-0.00621478
-0.001473
-0.00513948
-0.00174888
-0.00396019
-0.00203621
-0.00267891
-0.00233054
-0.00129948
-0.00262676
0.000172416
-0.00291936
0.00173139
-0.00320378
0.00337162
-0.00347572
0.00508568
-0.00373085
0.00686479
-0.00396512
0.00869907
-0.00417526
0.0105781
-0.00435869
0.0124914
-0.00451325
0.0144284
-0.00463779
0.0163788
-0.00473224
0.018333
-0.00479723
0.0202825
-0.00483424
0.0222197
-0.00484569
-0.00483485
0.0241381
-0.00940836
0.000263799
-0.0091728
0.000205481
-0.00889045
0.000136275
-0.00855613
5.4216e-05
-0.00816453
-4.25811e-05
-0.0077105
-0.000155839
-0.00718911
-0.000287447
-0.00659576
-0.00043927
-0.00592639
-0.000613042
-0.00517704
-0.000810258
-0.00434368
-0.00103208
-0.00342271
-0.00127905
-0.00241134
-0.00155084
-0.00130792
-0.00184631
-0.000112567
-0.00216308
0.0011745
-0.00249882
0.0025528
-0.00285102
0.00402009
-0.00321591
0.00557288
-0.00358876
0.00720672
-0.00396413
0.0089163
-0.0043361
0.0106957
-0.00469849
0.0125376
-0.00504549
0.0144338
-0.0053716
0.0163749
-0.0056717
0.0183512
-0.00594125
0.0203527
-0.00617655
0.0223691
-0.00637479
0.0243901
-0.00653409
0.0264062
-0.0066537
0.0284083
-0.00673406
0.0303879
-0.00677667
0.032338
-0.00678411
0.0342524
-0.00675995
-0.00670875
0.0361265
-0.00396036
-0.000230652
-0.00341131
-0.00034355
-0.00280375
-0.000471253
-0.00213392
-0.000615574
-0.00139815
-0.000778275
-0.000592816
-0.00096109
0.000285525
-0.00116568
0.00124005
-0.00139367
0.00227353
-0.0016464
0.00338811
-0.0019247
0.00458519
-0.00222902
0.00586548
-0.00255918
0.00722897
-0.00291418
0.00867491
-0.00329211
0.0102021
-0.00369013
0.0118082
-0.00410479
0.0134895
-0.00453216
0.0152411
-0.00496738
0.0170571
-0.00540471
0.018931
-0.00583784
0.020855
-0.00626002
0.0228211
-0.00666444
0.0248202
-0.00704448
0.0268428
-0.007394
0.0288787
-0.00770744
0.0309176
-0.00798008
0.0329494
-0.00820821
0.0349641
-0.0083893
0.0369522
-0.00852201
0.038905
-0.00860637
0.0408147
-0.0086437
0.0426748
-0.00863664
0.0444799
-0.008589
0.0462257
-0.00850569
-0.00839258
0.0479096
0.00380342
-0.00100814
0.00464094
-0.00118109
0.00554165
-0.00137196
0.0065085
-0.00158242
0.00754428
-0.00181404
0.00865151
-0.0020683
0.00983233
-0.00234646
0.0110883
-0.0026496
0.0124204
-0.00297845
0.013829
-0.00333319
0.0153135
-0.00371344
0.0168725
-0.00411812
0.0185037
-0.00454533
0.0202039
-0.00499226
0.0219691
-0.00545523
0.0237942
-0.00592976
0.0256727
-0.00641065
0.0275974
-0.00689197
0.0295598
-0.00736707
0.0315509
-0.00782884
0.0335609
-0.00826995
0.0355797
-0.00868309
0.0375966
-0.00906136
0.0396012
-0.00939844
0.0415827
-0.00968889
0.0435311
-0.00992834
0.0454366
-0.0101136
0.0472904
-0.010243
0.0490847
-0.0103162
0.0508128
-0.0103344
0.0524692
-0.0103001
0.0540499
-0.0102173
0.0555522
-0.0100912
0.0569746
-0.00992807
-0.00973504
0.0583172
0.0135796
-0.00203694
0.0146692
-0.00227071
0.0158219
-0.00252469
0.0170397
-0.00280022
0.0183242
-0.0030985
0.0196764
-0.00342051
0.0210969
-0.00376697
0.0225856
-0.00413822
0.0241413
-0.00453415
0.0257622
-0.00495407
0.0274454
-0.00539661
0.029187
-0.00585963
0.0309819
-0.00634018
0.0328242
-0.00683442
0.0347066
-0.00733762
0.0366212
-0.0078443
0.0385589
-0.00834824
0.0405096
-0.00884266
0.0424629
-0.00932026
0.0444076
-0.00977351
0.0463326
-0.0101948
0.0482266
-0.010577
0.0500788
-0.0109134
0.0518786
-0.0111982
0.0536164
-0.0114266
0.0552835
-0.0115953
0.0568722
-0.0117023
0.0583763
-0.0117471
0.0597909
-0.0117308
0.0611126
-0.011656
0.0623394
-0.0115269
0.0634708
-0.0113487
0.0645076
-0.011128
0.0654517
-0.0108722
-0.0105895
0.0663062
0.0253049
-0.00326443
0.026588
-0.00355384
0.0279277
-0.00386441
0.0293245
-0.004197
0.0307782
-0.00455221
0.032288
-0.00493032
0.0338523
-0.00533125
0.0354685
-0.00575446
0.0371333
-0.00619886
0.0388419
-0.0066627
0.0405889
-0.00714354
0.0423675
-0.00763817
0.04417
-0.00814257
0.0459875
-0.00865189
0.0478105
-0.00916053
0.0496285
-0.00966223
0.0514304
-0.0101502
0.0532049
-0.0106171
0.0549403
-0.0110556
0.0566252
-0.0114583
0.0582483
-0.0118179
0.0597993
-0.012128
0.0612686
-0.0123827
0.062648
-0.0125775
0.0639302
-0.0127088
0.0651098
-0.0127749
0.0661827
-0.0127752
0.0671465
-0.012711
0.0680006
-0.0125849
0.0687458
-0.0124012
0.0693842
-0.0121653
0.0699195
-0.011884
0.0703564
-0.0115648
0.0707001
-0.011216
-0.0108463
0.0709569
0.0387734
-0.00458713
0.0401385
-0.0049189
0.0415451
-0.00527101
0.0429917
-0.00564363
0.0444761
-0.0060366
0.0459952
-0.0064494
0.047545
-0.00688102
0.0491205
-0.00732997
0.0507159
-0.00779415
0.052324
-0.00827082
0.0539371
-0.00875653
0.0555461
-0.00924715
0.0571414
-0.00973781
0.0587126
-0.010223
0.0602487
-0.0106966
0.0617384
-0.0111519
0.0631705
-0.0115821
0.0645336
-0.0119802
0.0658171
-0.012339
0.0670109
-0.012652
0.0681059
-0.0129129
0.0690944
-0.0131164
0.06997
-0.0132583
0.070728
-0.0133355
0.0713656
-0.0133464
0.0718814
-0.0132907
0.0722761
-0.0131699
0.0725521
-0.012987
0.0727133
-0.0127461
0.072765
-0.012453
0.072714
-0.0121143
0.0725676
-0.0117377
0.072334
-0.0113313
0.0720218
-0.0109038
-0.010464
0.0716394
0.0531879
-0.00583529
0.0544578
-0.00618879
0.0557467
-0.00655989
0.0570511
-0.00694803