/*--------------------------------*- C++ -*----------------------------------*\
| =========                 |                                                 |
| \\      /  F ield         | OpenFOAM: The Open Source CFD Toolbox           |
|  \\    /   O peration     | Version:  2406                                  |
|   \\  /    A nd           | Website:  www.openfoam.com                      |
|    \\/     M anipulation  |                                                 |
\*---------------------------------------------------------------------------*/
FoamFile
{
    version     2.0;
    format      ascii;
    arch        "LSB;label=32;scalar=64";
    class       volVectorField;
    location    "127";
    object      U;
}
// * * * * * * * * * * * * * * * * * * * * * * * * * * * * * * * * * * * * * //

dimensions      [0 1 -1 0 0 0 0];

internalField   nonuniform List<vector> 
1900
(
(0.193404 -0.00286038 0)
(0.197917 -0.0050817 0)
(0.203149 -0.00502739 0)
(0.20921 -0.00439109 0)
(0.215145 -0.00380965 0)
(0.220664 -0.00335597 0)
(0.225956 -0.00303396 0)
(0.231213 -0.00292703 0)
(0.236643 -0.00258776 0)
(0.240919 -0.00795549 0)
(0.508706 -0.00264573 0)
(0.507308 -0.00574444 0)
(0.506777 -0.00687536 0)
(0.507145 -0.00723314 0)
(0.508376 -0.00741635 0)
(0.510342 -0.00756066 0)
(0.512956 -0.00774694 0)
(0.516204 -0.00812664 0)
(0.520148 -0.00882208 0)
(0.524477 -0.0103611 0)
(0.74906 -0.00173333 0)
(0.748279 -0.00417489 0)
(0.747502 -0.00553389 0)
(0.746673 -0.00640289 0)
(0.746203 -0.00717058 0)
(0.746261 -0.00794477 0)
(0.746814 -0.00878929 0)
(0.747799 -0.00983031 0)
(0.749138 -0.0112064 0)
(0.750575 -0.0132487 0)
(0.909249 -0.00114154 0)
(0.908747 -0.0030707 0)
(0.90802 -0.00451338 0)
(0.906881 -0.0056702 0)
(0.905796 -0.00675151 0)
(0.905024 -0.00785055 0)
(0.90454 -0.00902413 0)
(0.904257 -0.0103501 0)
(0.904099 -0.0118993 0)
(0.90395 -0.0137083 0)
(0.989309 -0.000728408 0)
(0.988839 -0.00209407 0)
(0.988042 -0.0033224 0)
(0.986651 -0.00447054 0)
(0.985113 -0.00562024 0)
(0.983714 -0.00682297 0)
(0.982443 -0.00811354 0)
(0.981219 -0.00952505 0)
(0.979985 -0.0110736 0)
(0.978679 -0.0127403 0)
(0.989296 -0.000319121 0)
(0.988732 -0.00102817 0)
(0.98774 -0.00188998 0)
(0.986046 -0.00289315 0)
(0.984097 -0.00399777 0)
(0.982174 -0.00519341 0)
(0.980263 -0.00648677 0)
(0.978285 -0.00787773 0)
(0.976195 -0.00935138 0)
(0.973957 -0.0108751 0)
(0.909211 0.000195756 0)
(0.908428 0.000245931 0)
(0.907124 -0.000203924 0)
(0.905089 -0.000988774 0)
(0.902784 -0.00193761 0)
(0.90045 -0.00300153 0)
(0.89805 -0.0041743 0)
(0.8955 -0.00543248 0)
(0.892761 -0.00673974 0)
(0.889807 -0.00805769 0)
(0.748998 0.000985482 0)
(0.747756 0.00193385 0)
(0.746044 0.00179402 0)
(0.743765 0.0011386 0)
(0.741316 0.000322352 0)
(0.738836 -0.000592319 0)
(0.736255 -0.00159874 0)
(0.733487 -0.0026572 0)
(0.730491 -0.00372305 0)
(0.727241 -0.00476394 0)
(0.508629 0.00216143 0)
(0.506626 0.00430329 0)
(0.504869 0.00449957 0)
(0.503347 0.00393392 0)
(0.502012 0.00317544 0)
(0.5007 0.0023197 0)
(0.499265 0.00139864 0)
(0.497619 0.00047118 0)
(0.495694 -0.000418747 0)
(0.493465 -0.00125059 0)
(0.193336 0.00261677 0)
(0.197259 0.00444821 0)
(0.201279 0.00409094 0)
(0.205521 0.0032018 0)
(0.20907 0.00238225 0)
(0.211627 0.00167646 0)
(0.213319 0.00106535 0)
(0.214273 0.000553301 0)
(0.214553 0.000133244 0)
(0.214186 -0.000209406 0)
(-7.23442e-05 5.36765e-05 0)
(-0.000718882 0.000246581 0)
(-0.00188471 0.000369714 0)
(-0.00330561 0.00041521 0)
(-0.00479244 0.000427197 0)
(-0.00627934 0.000428345 0)
(-0.00775045 0.000427182 0)
(-0.00920349 0.000425858 0)
(-0.0106385 0.000424346 0)
(-0.0120551 0.000422314 0)
(-0.0134526 0.000419635 0)
(-0.0148303 0.000416371 0)
(-0.0161878 0.000412668 0)
(-0.0175252 0.00040869 0)
(-0.0188426 0.000404587 0)
(-0.0201408 0.000400489 0)
(-0.0214205 0.000396502 0)
(-0.0226828 0.000392706 0)
(-0.0239287 0.000389159 0)
(-0.0251594 0.0003859 0)
(-0.026376 0.000382957 0)
(-0.0275798 0.000380354 0)
(-0.028772 0.000378125 0)
(-0.029954 0.000376312 0)
(-0.0311272 0.000374971 0)
(-0.0322935 0.000374159 0)
(-0.0334546 0.000373943 0)
(-0.0346126 0.000374386 0)
(-0.0357696 0.000375567 0)
(-0.036928 0.000377569 0)
(-0.0380905 0.000380494 0)
(-0.0392598 0.000384432 0)
(-0.0404388 0.000389475 0)
(-0.0416305 0.000395697 0)
(-0.0428378 0.00040319 0)
(-0.000402106 0.000783826 0)
(-0.00231388 0.00185146 0)
(-0.0051301 0.00248258 0)
(-0.0083407 0.00272878 0)
(-0.0116237 0.00278421 0)
(-0.0148692 0.00276856 0)
(-0.0180445 0.00273256 0)
(-0.0211416 0.00269218 0)
(-0.02416 0.00265064 0)
(-0.0271012 0.00260819 0)
(-0.0299673 0.00256495 0)
(-0.0327608 0.00252142 0)
(-0.0354845 0.00247819 0)
(-0.0381415 0.00243587 0)
(-0.040735 0.00239492 0)
(-0.0432683 0.00235575 0)
(-0.0457449 0.00231863 0)
(-0.0481681 0.00228373 0)
(-0.0505411 0.00225113 0)
(-0.052867 0.00222087 0)
(-0.0551489 0.00219299 0)
(-0.0573897 0.00216755 0)
(-0.0595922 0.0021447 0)
(-0.0617595 0.00212465 0)
(-0.0638946 0.00210764 0)
(-0.0660008 0.00209393 0)
(-0.0680815 0.0020838 0)
(-0.07014 0.00207752 0)
(-0.07218 0.00207538 0)
(-0.0742051 0.00207769 0)
(-0.0762191 0.00208471 0)
(-0.0782256 0.00209668 0)
(-0.0802282 0.00211376 0)
(-0.0822304 0.00213613 0)
(-0.0842357 0.00216401 0)
(-0.000799213 0.00256893 0)
(-0.00411005 0.00504718 0)
(-0.00851814 0.00631413 0)
(-0.0132728 0.0067531 0)
(-0.0179837 0.00679696 0)
(-0.022544 0.00669112 0)
(-0.0269267 0.00654068 0)
(-0.0311299 0.00638168 0)
(-0.0351608 0.00622399 0)
(-0.0390292 0.00606992 0)
(-0.0427456 0.00592034 0)
(-0.0463202 0.00577596 0)
(-0.0497621 0.00563739 0)
(-0.0530802 0.00550512 0)
(-0.0562823 0.00537946 0)
(-0.0593756 0.00526062 0)
(-0.0623668 0.00514864 0)
(-0.065262 0.00504341 0)
(-0.0680665 0.00494474 0)
(-0.0707853 0.00485237 0)
(-0.0734227 0.00476613 0)
(-0.0759828 0.00468591 0)
(-0.0784691 0.00461181 0)
(-0.0808853 0.00454404 0)
(-0.0832348 0.00448289 0)
(-0.0855206 0.00442864 0)
(-0.087746 0.00438158 0)
(-0.0899137 0.00434196 0)
(-0.0920262 0.00431007 0)
(-0.0940857 0.00428613 0)
(-0.0960941 0.00427031 0)
(-0.0980527 0.00426259 0)
(-0.0999624 0.00426278 0)
(-0.101823 0.00427067 0)
(-0.103634 0.00428605 0)
(-0.00122113 0.00546166 0)
(-0.00589928 0.00977699 0)
(-0.0116758 0.0116379 0)
(-0.017574 0.0121149 0)
(-0.02319 0.0119874 0)
(-0.0284629 0.0116462 0)
(-0.0333989 0.0112515 0)
(-0.0380211 0.0108584 0)
(-0.0423574 0.0104825 0)
(-0.0464349 0.0101268 0)
(-0.0502779 0.00979138 0)
(-0.0539074 0.00947536 0)
(-0.0573414 0.00917784 0)
(-0.0605954 0.00889782 0)
(-0.0636822 0.00863432 0)
(-0.0666133 0.00838643 0)
(-0.0693982 0.00815321 0)
(-0.0720455 0.00793365 0)
(-0.074562 0.00772667 0)
(-0.0769539 0.00753123 0)
(-0.079226 0.00734646 0)
(-0.0813825 0.00717171 0)
(-0.0834265 0.00700662 0)
(-0.0853609 0.00685111 0)
(-0.0871881 0.00670516 0)
(-0.0889098 0.00656872 0)
(-0.0905272 0.00644161 0)
(-0.0920405 0.00632363 0)
(-0.0934494 0.00621452 0)
(-0.0947528 0.00611393 0)
(-0.0959486 0.00602133 0)
(-0.0970341 0.0059358 0)
(-0.0980049 0.00585608 0)
(-0.0988556 0.00578072 0)
(-0.099579 0.00570818 0)
(-0.00167142 0.00942763 0)
(-0.00757636 0.0157843 0)
(-0.0142607 0.0179822 0)
(-0.0206332 0.0181904 0)
(-0.0263822 0.0176359 0)
(-0.0315455 0.0168568 0)
(-0.0361913 0.0160564 0)
(-0.0403868 0.0152993 0)
(-0.0441921 0.0145993 0)
(-0.0476571 0.0139547 0)
(-0.0508225 0.01336 0)
(-0.0537208 0.0128094 0)
(-0.0563781 0.0122979 0)
(-0.0588156 0.0118208 0)
(-0.0610502 0.0113743 0)
(-0.0630958 0.0109555 0)
(-0.0649641 0.0105614 0)
(-0.0666645 0.0101893 0)
(-0.0682048 0.00983667 0)
(-0.0695907 0.00950109 0)
(-0.0708269 0.0091804 0)
(-0.0719163 0.00887293 0)
(-0.0728609 0.00857747 0)
(-0.0736617 0.0082933 0)
(-0.0743192 0.0080198 0)
(-0.0748327 0.00775604 0)
(-0.0752006 0.0075009 0)
(-0.0754201 0.00725316 0)
(-0.0754873 0.00701151 0)
(-0.0753969 0.00677456 0)
(-0.075143 0.00654068 0)
(-0.0747182 0.00630763 0)
(-0.0741134 0.00607242 0)
(-0.0733181 0.00583174 0)
(-0.0723196 0.00558222 0)
(-0.00217494 0.0144475 0)
(-0.00906817 0.0226583 0)
(-0.0158573 0.0246273 0)
(-0.0216449 0.0241075 0)
(-0.0264194 0.0228129 0)
(-0.0303872 0.0213815 0)
(-0.0337 0.0200251 0)
(-0.0364768 0.0187974 0)
(-0.0388118 0.0176967 0)
(-0.0407755 0.0167063 0)
(-0.0424205 0.0158086 0)
(-0.0437863 0.0149883 0)
(-0.0449029 0.0142331 0)
(-0.0457932 0.0135329 0)
(-0.0464747 0.0128797 0)
(-0.0469613 0.0122672 0)
(-0.0472639 0.0116902 0)
(-0.0473913 0.0111436 0)
(-0.04735 0.0106229 0)
(-0.0471444 0.0101238 0)
(-0.0467774 0.00964252 0)
(-0.04625 0.00917611 0)
(-0.0455619 0.00872248 0)
(-0.0447117 0.00828028 0)
(-0.0436973 0.00784778 0)
(-0.0425156 0.00742258 0)
(-0.041162 0.00700208 0)
(-0.0396304 0.00658367 0)
(-0.0379136 0.00616475 0)
(-0.0360028 0.00574267 0)
(-0.0338883 0.00531472 0)
(-0.031559 0.0048773 0)
(-0.0290019 0.00442569 0)
(-0.0262025 0.00395477 0)
(-0.0231444 0.00345943 0)
(-0.0027799 0.0206766 0)
(-0.0101931 0.0297221 0)
(-0.015623 0.0303782 0)
(-0.0191095 0.0285525 0)
(-0.0213178 0.0262459 0)
(-0.0226755 0.0240264 0)
(-0.0233938 0.0220503 0)
(-0.0236211 0.0203321 0)
(-0.0234665 0.0188338 0)
(-0.0230036 0.0175111 0)
(-0.0222814 0.0163278 0)
(-0.0213343 0.0152563 0)
(-0.0201866 0.0142753 0)
(-0.0188559 0.0133681 0)
(-0.0173546 0.0125221 0)
(-0.0156917 0.0117276 0)
(-0.013874 0.0109771 0)
(-0.0119061 0.0102634 0)
(-0.00979064 0.00957964 0)
(-0.00752854 0.00891975 0)
(-0.00511918 0.00827836 0)
(-0.00256033 0.00765081 0)
(0.000151737 0.00703325 0)
(0.00302008 0.00642341 0)
(0.00604961 0.00581913 0)
(0.00924718 0.00521681 0)
(0.0126211 0.00461233 0)
(0.016181 0.00400174 0)
(0.0199373 0.00338128 0)
(0.0239019 0.0027474 0)
(0.0280851 0.00209573 0)
(0.032503 0.00142044 0)
(0.0371731 0.000715276 0)
(0.0421127 -2.60507e-05 0)
(0.0473405 -0.000809986 0)
(-0.00350146 0.0285145 0)
(-0.0098602 0.0355538 0)
(-0.0108368 0.0330875 0)
(-0.00910732 0.0295624 0)
(-0.00647877 0.026298 0)
(-0.00343974 0.0234047 0)
(-9.95119e-05 0.0209403 0)
(0.00344737 0.0188682 0)
(0.00713017 0.0170973 0)
(0.0109157 0.0155503 0)
(0.01479 0.0141747 0)
(0.0187461 0.0129332 0)
(0.0227799 0.0117975 0)
(0.0268903 0.0107458 0)
(0.0310785 0.00976148 0)
(0.0353459 0.00883302 0)
(0.0396956 0.00795147 0)
(0.0441317 0.00710782 0)
(0.048659 0.00629364 0)
(0.0532834 0.0055015 0)
(0.0580109 0.00472501 0)
(0.0628481 0.00395867 0)
(0.0678027 0.00319801 0)
(0.0728777 0.0024383 0)
(0.0780861 0.00167462 0)
(0.0834413 0.000902164 0)
(0.0889559 0.000116276 0)
(0.0946431 -0.000687706 0)
(0.100517 -0.00151451 0)
(0.106592 -0.00236897 0)
(0.112886 -0.00325682 0)
(0.119417 -0.00418483 0)
(0.126199 -0.00516011 0)
(0.133252 -0.00618994 0)
(0.140594 -0.00728199 0)
(-0.00132177 0.0342244 0)
(-0.000867234 0.0354724 0)
(0.00892326 0.0287773 0)
(0.0200879 0.0242619 0)
(0.0301369 0.0208766 0)
(0.0392813 0.0179077 0)
(0.0479096 0.0153777 0)
(0.0561496 0.0132897 0)
(0.0640641 0.0115325 0)
(0.0717235 0.0100008 0)
(0.0791891 0.00863199 0)
(0.0865054 0.00738875 0)
(0.0937052 0.00624339 0)
(0.100815 0.00517423 0)
(0.107859 0.00416516 0)
(0.114849 0.00320246 0)
(0.121811 0.00227557 0)
(0.128761 0.00137555 0)
(0.135717 0.000494706 0)
(0.142693 -0.000373794 0)
(0.149703 -0.00123616 0)
(0.15676 -0.00209802 0)
(0.163878 -0.00296429 0)
(0.171074 -0.00384002 0)
(0.17836 -0.00473115 0)
(0.185749 -0.00564357 0)
(0.193256 -0.0065828 0)
(0.200894 -0.0075544 0)
(0.20868 -0.00856409 0)
(0.21663 -0.00961803 0)
(0.224762 -0.0107229 0)
(0.233093 -0.0118858 0)
(0.241641 -0.0131141 0)
(0.250426 -0.014416 0)
(0.259465 -0.0157998 0)
(0.0394138 0.0183752 0)
(0.0577904 0.0183329 0)
(0.0792282 0.0133453 0)
(0.10002 0.00997318 0)
(0.117108 0.0078836 0)
(0.131571 0.00613403 0)
(0.144607 0.00451009 0)
(0.156684 0.00305664 0)
(0.168001 0.00176922 0)
(0.178722 0.000603066 0)
(0.188984 -0.000476682 0)
(0.198883 -0.00148959 0)
(0.208487 -0.00244953 0)
(0.217847 -0.00336863 0)
(0.227005 -0.00425695 0)
(0.236 -0.00512267 0)
(0.244859 -0.00597416 0)
(0.253607 -0.00681866 0)
(0.262265 -0.0076624 0)
(0.270855 -0.0085111 0)
(0.279396 -0.00937023 0)
(0.287906 -0.0102451 0)
(0.296404 -0.011141 0)
(0.304906 -0.0120633 0)
(0.31343 -0.0130174 0)
(0.321993 -0.0140086 0)
(0.330613 -0.0150426 0)
(0.339305 -0.0161254 0)
(0.348087 -0.0172633 0)
(0.356975 -0.0184627 0)
(0.365986 -0.0197307 0)
(0.375137 -0.0210745 0)
(0.384444 -0.022502 0)
(0.393923 -0.024021 0)
(0.403591 -0.02564 0)
(0.253124 -0.0157442 0)
(0.261777 -0.0148864 0)
(0.272856 -0.0128031 0)
(0.28574 -0.0114164 0)
(0.29818 -0.0106231 0)
(0.309788 -0.0102661 0)
(0.320883 -0.0102543 0)
(0.331601 -0.0104722 0)
(0.341942 -0.0108251 0)
(0.351928 -0.0112624 0)
(0.361607 -0.0117586 0)
(0.371021 -0.0122974 0)
(0.380202 -0.0128675 0)
(0.389178 -0.013463 0)
(0.397973 -0.0140813 0)
(0.406611 -0.0147221 0)
(0.415111 -0.0153857 0)
(0.423494 -0.0160737 0)
(0.431777 -0.0167882 0)
(0.439977 -0.0175324 0)
(0.448109 -0.0183096 0)
(0.456189 -0.0191235 0)
(0.464232 -0.0199784 0)
(0.472252 -0.0208786 0)
(0.480263 -0.0218287 0)
(0.488278 -0.0228336 0)
(0.496312 -0.0238987 0)
(0.504377 -0.0250295 0)
(0.512485 -0.0262318 0)
(0.52065 -0.0275119 0)
(0.528883 -0.0288761 0)
(0.537194 -0.0303312 0)
(0.545596 -0.0318842 0)
(0.554095 -0.0335423 0)
(0.562702 -0.0353129 0)
(0.527989 -0.0129718 0)
(0.53026 -0.0142904 0)
(0.533216 -0.0148948 0)
(0.537469 -0.0155369 0)
(0.542391 -0.0162156 0)
(0.547579 -0.0168237 0)
(0.552986 -0.0173804 0)
(0.558591 -0.017922 0)
(0.56432 -0.0184554 0)
(0.570112 -0.0189805 0)
(0.575939 -0.0195018 0)
(0.581783 -0.0200254 0)
(0.587631 -0.0205563 0)
(0.593472 -0.0210987 0)
(0.599298 -0.0216567 0)
(0.605104 -0.0222345 0)
(0.61089 -0.0228362 0)
(0.616654 -0.023466 0)
(0.622397 -0.0241278 0)
(0.628121 -0.0248261 0)
(0.633829 -0.0255651 0)
(0.639524 -0.0263492 0)
(0.645211 -0.0271831 0)
(0.650892 -0.0280712 0)
(0.656574 -0.0290184 0)
(0.66226 -0.0300297 0)
(0.667955 -0.0311102 0)
(0.673664 -0.0322653 0)
(0.679391 -0.0335003 0)
(0.685138 -0.034821 0)
(0.690909 -0.0362332 0)
(0.696706 -0.0377427 0)
(0.70253 -0.0393554 0)
(0.70838 -0.0410773 0)
(0.714255 -0.0429141 0)
(0.751656 -0.0156404 0)
(0.752349 -0.0173817 0)
(0.753223 -0.0184388 0)
(0.754642 -0.0192416 0)
(0.756456 -0.0199637 0)
(0.758454 -0.0206089 0)
(0.76058 -0.0211981 0)
(0.762834 -0.0217668 0)
(0.765194 -0.0223299 0)
(0.767629 -0.0228886 0)
(0.770121 -0.0234439 0)
(0.772657 -0.0239994 0)
(0.775228 -0.0245589 0)
(0.777823 -0.0251263 0)
(0.780436 -0.0257055 0)
(0.78306 -0.0263008 0)
(0.785688 -0.0269168 0)
(0.788318 -0.027558 0)
(0.790946 -0.0282292 0)
(0.793568 -0.0289353 0)
(0.796182 -0.029681 0)
(0.798787 -0.0304711 0)
(0.801379 -0.0313106 0)
(0.803957 -0.0322043 0)
(0.80652 -0.0331573 0)
(0.809065 -0.0341743 0)
(0.811591 -0.0352605 0)
(0.814093 -0.0364208 0)
(0.81657 -0.0376602 0)
(0.819016 -0.0389838 0)
(0.821427 -0.0403964 0)
(0.823797 -0.041903 0)
(0.826117 -0.0435081 0)
(0.828379 -0.0452161 0)
(0.830573 -0.0470311 0)
(0.903636 -0.0155852 0)
(0.903108 -0.0171729 0)
(0.902558 -0.0183728 0)
(0.902195 -0.0193562 0)
(0.902022 -0.0202532 0)
(0.901948 -0.0210832 0)
(0.901932 -0.021846 0)
(0.901967 -0.0225568 0)
(0.902044 -0.0232305 0)
(0.902142 -0.0238744 0)
(0.902245 -0.0244939 0)
(0.902344 -0.0250954 0)
(0.90243 -0.0256861 0)
(0.902496 -0.0262726 0)
(0.902536 -0.0268611 0)
(0.902545 -0.0274577 0)
(0.902518 -0.0280683 0)
(0.90245 -0.0286986 0)
(0.902339 -0.0293541 0)
(0.90218 -0.0300402 0)
(0.901969 -0.0307621 0)
(0.901702 -0.0315248 0)
(0.901375 -0.032333 0)
(0.900983 -0.0331918 0)
(0.900521 -0.0341055 0)
(0.899982 -0.0350789 0)
(0.899361 -0.0361164 0)
(0.898651 -0.0372221 0)
(0.897842 -0.0384003 0)
(0.896926 -0.039655 0)
(0.895892 -0.0409897 0)
(0.894727 -0.042408 0)
(0.893419 -0.043913 0)
(0.891952 -0.0455072 0)
(0.890308 -0.0471926 0)
(0.977216 -0.0144338 0)
(0.975562 -0.0159911 0)
(0.973803 -0.0173101 0)
(0.972053 -0.0184261 0)
(0.970349 -0.0194094 0)
(0.968657 -0.0202898 0)
(0.966947 -0.0210766 0)
(0.965211 -0.0217856 0)
(0.963442 -0.0224365 0)
(0.96163 -0.0230436 0)
(0.959765 -0.0236174 0)
(0.957837 -0.0241669 0)
(0.955844 -0.0247007 0)
(0.953779 -0.0252264 0)
(0.951638 -0.0257511 0)
(0.949417 -0.0262808 0)
(0.947111 -0.0268216 0)
(0.944717 -0.027379 0)
(0.942229 -0.0279582 0)
(0.939642 -0.0285643 0)
(0.936952 -0.0292019 0)
(0.934152 -0.0298755 0)
(0.931235 -0.0305893 0)
(0.928195 -0.0313475 0)
(0.925024 -0.0321539 0)
(0.921712 -0.0330122 0)
(0.91825 -0.0339259 0)
(0.914627 -0.0348981 0)
(0.91083 -0.0359319 0)
(0.906848 -0.0370298 0)
(0.902664 -0.0381942 0)
(0.898263 -0.0394269 0)
(0.893628 -0.0407294 0)
(0.888738 -0.0421024 0)
(0.883574 -0.0435461 0)
(0.971529 -0.0123867 0)
(0.968891 -0.0137923 0)
(0.96608 -0.0150201 0)
(0.963156 -0.0160695 0)
(0.960154 -0.0169809 0)
(0.957066 -0.0177854 0)
(0.953882 -0.0184989 0)
(0.950599 -0.0191355 0)
(0.947218 -0.0197116 0)
(0.943736 -0.0202409 0)
(0.94015 -0.0207341 0)
(0.936457 -0.0211998 0)
(0.932654 -0.021646 0)
(0.928739 -0.0220802 0)
(0.924709 -0.022509 0)
(0.920561 -0.0229384 0)
(0.916291 -0.0233739 0)
(0.911895 -0.0238208 0)
(0.907368 -0.0242838 0)
(0.902705 -0.0247673 0)
(0.897899 -0.0252755 0)
(0.892943 -0.0258121 0)
(0.887829 -0.0263808 0)
(0.882548 -0.0269847 0)
(0.87709 -0.0276269 0)
(0.871444 -0.02831 0)
(0.865599 -0.0290366 0)
(0.859541 -0.0298086 0)
(0.853255 -0.0306278 0)
(0.846728 -0.0314957 0)
(0.839941 -0.0324131 0)
(0.832877 -0.0333806 0)
(0.825517 -0.034398 0)
(0.817841 -0.0354646 0)
(0.809826 -0.036579 0)
(0.886611 -0.00934051 0)
(0.88316 -0.0105323 0)
(0.879471 -0.0115884 0)
(0.875581 -0.0125 0)
(0.871519 -0.0132866 0)
(0.867297 -0.0139704 0)
(0.86292 -0.014566 0)
(0.858392 -0.0150856 0)
(0.853722 -0.0155426 0)
(0.848914 -0.01595 0)
(0.84397 -0.0163186 0)
(0.838893 -0.0166575 0)
(0.833684 -0.0169747 0)
(0.828342 -0.0172774 0)
(0.822868 -0.0175721 0)
(0.81726 -0.0178646 0)
(0.811516 -0.0181596 0)
(0.805632 -0.0184618 0)
(0.799604 -0.0187752 0)
(0.793427 -0.0191032 0)
(0.787094 -0.0194492 0)
(0.780598 -0.0198159 0)
(0.77393 -0.0202059 0)
(0.767081 -0.0206214 0)
(0.760041 -0.0210644 0)
(0.752798 -0.0215365 0)
(0.74534 -0.022039 0)
(0.737652 -0.0225729 0)
(0.729722 -0.0231388 0)
(0.721534 -0.0237369 0)
(0.713071 -0.0243672 0)
(0.704316 -0.0250289 0)
(0.695252 -0.025721 0)
(0.68586 -0.0264417 0)
(0.676122 -0.0271887 0)
(0.723714 -0.00575179 0)
(0.719903 -0.00665604 0)
(0.71582 -0.00745178 0)
(0.711491 -0.00813216 0)
(0.706945 -0.0087079 0)
(0.702201 -0.00919531 0)
(0.697272 -0.00960793 0)
(0.692172 -0.00995704 0)
(0.686912 -0.0102539 0)
(0.681503 -0.0105096 0)
(0.675953 -0.0107331 0)
(0.670268 -0.0109323 0)
(0.664454 -0.0111136 0)
(0.658513 -0.0112826 0)
(0.652448 -0.0114444 0)
(0.64626 -0.0116031 0)
(0.639948 -0.0117623 0)
(0.633511 -0.0119253 0)
(0.626946 -0.0120948 0)
(0.620248 -0.0122732 0)
(0.613412 -0.0124626 0)
(0.606432 -0.012665 0)
(0.5993 -0.0128816 0)
(0.592007 -0.0131139 0)
(0.584546 -0.0133627 0)
(0.576904 -0.0136288 0)
(0.569071 -0.0139127 0)
(0.561036 -0.0142143 0)
(0.552785 -0.0145338 0)
(0.544307 -0.0148705 0)
(0.535588 -0.0152238 0)
(0.526613 -0.0155924 0)
(0.51737 -0.0159748 0)
(0.507845 -0.0163691 0)
(0.498024 -0.0167728 0)
(0.490904 -0.00200746 0)
(0.488001 -0.0026727 0)
(0.484763 -0.00323555 0)
(0.481218 -0.00369646 0)
(0.477395 -0.00406642 0)
(0.473325 -0.00436055 0)
(0.469036 -0.00459252 0)
(0.464552 -0.0047737 0)
(0.459899 -0.00491438 0)
(0.455095 -0.00502391 0)
(0.450159 -0.0051102 0)
(0.445106 -0.00517957 0)
(0.439945 -0.00523718 0)
(0.434688 -0.00528732 0)
(0.429339 -0.00533351 0)
(0.423905 -0.00537858 0)
(0.418386 -0.00542484 0)
(0.412783 -0.00547413 0)
(0.407096 -0.00552796 0)
(0.401322 -0.0055875 0)
(0.395457 -0.00565367 0)
(0.389496 -0.00572713 0)
(0.383433 -0.00580832 0)
(0.377261 -0.00589753 0)
(0.370974 -0.00599485 0)
(0.364563 -0.00610021 0)
(0.358019 -0.00621341 0)
(0.351334 -0.00633407 0)
(0.344499 -0.00646165 0)
(0.337505 -0.00659545 0)
(0.330343 -0.0067346 0)
(0.323005 -0.00687805 0)
(0.315484 -0.00702454 0)
(0.307771 -0.00717267 0)
(0.299861 -0.00732081 0)
(0.213257 -0.000481444 0)
(0.211854 -0.000685811 0)
(0.210057 -0.000828225 0)
(0.207948 -0.000918758 0)
(0.2056 -0.000970031 0)
(0.203073 -0.00099397 0)
(0.200414 -0.000999611 0)
(0.197656 -0.000993316 0)
(0.194828 -0.000979891 0)
(0.19195 -0.000963093 0)
(0.189036 -0.000945577 0)
(0.186095 -0.000929043 0)
(0.183135 -0.00091452 0)
(0.180158 -0.000902645 0)
(0.177165 -0.00089375 0)
(0.174156 -0.000887971 0)
(0.17113 -0.000885292 0)
(0.168083 -0.00088564 0)
(0.165013 -0.000888859 0)
(0.161916 -0.00089477 0)
(0.158788 -0.000903133 0)
(0.155624 -0.000913727 0)
(0.152419 -0.0009263 0)
(0.14917 -0.00094064 0)
(0.145871 -0.000956506 0)
(0.142519 -0.000973685 0)
(0.139108 -0.00099192 0)
(0.135636 -0.00101097 0)
(0.132098 -0.00103054 0)
(0.128492 -0.00105035 0)
(0.124816 -0.00107009 0)
(0.121066 -0.00108945 0)
(0.117243 -0.00110808 0)
(0.113345 -0.00112565 0)
(0.109373 -0.00114178 0)
(-0.0440642 0.000412051 0)
(-0.0453131 0.000422433 0)
(-0.0465882 0.000434499 0)
(-0.0478936 0.000448472 0)
(-0.0492339 0.000464572 0)
(-0.0506139 0.000483077 0)
(-0.0520388 0.000504242 0)
(-0.0535141 0.000528391 0)
(-0.0550449 0.000555816 0)
(-0.0566366 0.000586883 0)
(-0.0862471 0.00219771 0)
(-0.088268 0.00223766 0)
(-0.0903014 0.00228434 0)
(-0.0923501 0.00233825 0)
(-0.094417 0.00239989 0)
(-0.0965039 0.00246964 0)
(-0.0986122 0.00254765 0)
(-0.100742 0.00263375 0)
(-0.10289 0.00272732 0)
(-0.105053 0.00282717 0)
(-0.105393 0.00430878 0)
(-0.107098 0.00433874 0)
(-0.108745 0.0043758 0)
(-0.110329 0.00441964 0)
(-0.111844 0.00446968 0)
(-0.113281 0.00452476 0)
(-0.114629 0.00458295 0)
(-0.115876 0.00464133 0)
(-0.117002 0.00469581 0)
(-0.117987 0.00474083 0)
(-0.100166 0.00563695 0)
(-0.100607 0.00556544 0)
(-0.10089 0.00549185 0)
(-0.100999 0.00541387 0)
(-0.100919 0.00532849 0)
(-0.10063 0.00523176 0)
(-0.100111 0.00511832 0)
(-0.0993344 0.00498127 0)
(-0.0982724 0.00481207 0)
(-0.0968916 0.00460017 0)
(-0.0711034 0.00532044 0)
(-0.0696529 0.00504281 0)
(-0.0679497 0.00474539 0)
(-0.0659729 0.00442336 0)
(-0.0636993 0.00407126 0)
(-0.0611034 0.00368297 0)
(-0.0581575 0.00325007 0)
(-0.0548303 0.00276187 0)
(-0.0510878 0.00220699 0)
(-0.0468947 0.00157252 0)
(-0.0198098 0.00293449 0)
(-0.0161791 0.00237449 0)
(-0.0122315 0.00177322 0)
(-0.00794228 0.00112354 0)
(-0.00328477 0.000417872 0)
(0.00176804 -0.000352305 0)
(0.00724382 -0.00119759 0)
(0.0131728 -0.00212988 0)
(0.0195864 -0.00316182 0)
(0.026517 -0.00430719 0)
(0.0528761 -0.00164323 0)
(0.058741 -0.00253292 0)
(0.0649585 -0.00348705 0)
(0.0715521 -0.00451416 0)
(0.0785472 -0.00562327 0)
(0.0859707 -0.00682529 0)
(0.0938505 -0.00813242 0)
(0.102215 -0.00955683 0)
(0.111092 -0.0111117 0)
(0.120512 -0.0128117 0)
(0.148245 -0.00844432 0)
(0.156228 -0.00968555 0)
(0.164563 -0.0110149 0)
(0.173274 -0.012442 0)
(0.182385 -0.0139773 0)
(0.19192 -0.0156317 0)
(0.201904 -0.0174171 0)
(0.212359 -0.0193463 0)
(0.223308 -0.0214322 0)
(0.234773 -0.0236884 0)
(0.268779 -0.0172743 0)
(0.278386 -0.0188489 0)
(0.288306 -0.0205331 0)
(0.298558 -0.0223369 0)
(0.309161 -0.0242707 0)
(0.320132 -0.0263452 0)
(0.331488 -0.0285715 0)
(0.343244 -0.0309607 0)
(0.355411 -0.0335241 0)
(0.367999 -0.0362724 0)
(0.41346 -0.0273677 0)
(0.423547 -0.0292126 0)
(0.433864 -0.0311839 0)
(0.444422 -0.0332905 0)
(0.455231 -0.0355414 0)
(0.466299 -0.0379456 0)
(0.477632 -0.0405117 0)
(0.48923 -0.0432482 0)
(0.501093 -0.0461625 0)
(0.513213 -0.0492613 0)
(0.571422 -0.0372031 0)
(0.580261 -0.0392205 0)
(0.589222 -0.0413721 0)
(0.598307 -0.0436648 0)
(0.607512 -0.0461052 0)
(0.616834 -0.0486992 0)
(0.626264 -0.0514521 0)
(0.635791 -0.0543681 0)
(0.645398 -0.0574502 0)
(0.655062 -0.0606998 0)
(0.720151 -0.0448715 0)
(0.726063 -0.0469547 0)
(0.731981 -0.0491685 0)
(0.737896 -0.0515171 0)
(0.743794 -0.0540038 0)
(0.749657 -0.0566312 0)
(0.755466 -0.0594005 0)
(0.761195 -0.0623116 0)
(0.766814 -0.0653626 0)
(0.772291 -0.0685495 0)
(0.832684 -0.0489567 0)
(0.834698 -0.0509956 0)
(0.836597 -0.0531503 0)
(0.838362 -0.0554218 0)
(0.839968 -0.0578105 0)
(0.841389 -0.0603153 0)
(0.842595 -0.0629335 0)
(0.843553 -0.065661 0)
(0.844224 -0.0684913 0)
(0.844567 -0.0714161 0)
(0.888469 -0.0489708 0)
(0.886414 -0.0508421 0)
(0.884117 -0.0528062 0)
(0.881554 -0.0548615 0)
(0.878694 -0.0570054 0)
(0.875507 -0.0592334 0)
(0.871958 -0.0615399 0)
(0.868009 -0.0639169 0)
(0.863621 -0.0663549 0)
(0.85875 -0.0688417 0)
(0.878112 -0.0450596 0)
(0.872329 -0.0466415 0)
(0.866196 -0.0482891 0)
(0.859687 -0.0499985 0)
(0.852771 -0.0517646 0)
(0.845416 -0.0535807 0)
(0.837588 -0.0554387 0)
(0.829252 -0.0573287 0)
(0.820372 -0.0592387 0)
(0.81091 -0.0611551 0)
(0.80145 -0.0377389 0)
(0.79269 -0.0389411 0)
(0.783519 -0.0401816 0)
(0.773912 -0.041455 0)
(0.763842 -0.0427548 0)
(0.753282 -0.0440735 0)
(0.742204 -0.0454019 0)
(0.730582 -0.0467294 0)
(0.718388 -0.0480442 0)
(0.705598 -0.0493327 0)
(0.666017 -0.0279588 0)
(0.655526 -0.0287484 0)
(0.64463 -0.0295527 0)
(0.633308 -0.0303663 0)
(0.621543 -0.0311828 0)
(0.609317 -0.0319949 0)
(0.596612 -0.0327943 0)
(0.583415 -0.0335718 0)
(0.569713 -0.0343172 0)
(0.555497 -0.0350196 0)
(0.487894 -0.0171831 0)
(0.477444 -0.0175966 0)
(0.466661 -0.0180093 0)
(0.455537 -0.0184169 0)
(0.444063 -0.0188145 0)
(0.432234 -0.0191965 0)
(0.420046 -0.0195573 0)
(0.407499 -0.0198903 0)
(0.394597 -0.0201892 0)
(0.381348 -0.0204469 0)
(0.291749 -0.00746716 0)
(0.283432 -0.00760969 0)
(0.274907 -0.00774625 0)
(0.266175 -0.00787449 0)
(0.257239 -0.00799192 0)
(0.248102 -0.00809596 0)
(0.238774 -0.00818397 0)
(0.229264 -0.00825328 0)
(0.219588 -0.0083013 0)
(0.209762 -0.00832553 0)
(0.10533 -0.00115613 0)
(0.101217 -0.00116831 0)
(0.0970378 -0.00117796 0)
(0.0927983 -0.0011847 0)
(0.0885045 -0.00118821 0)
(0.0841641 -0.00118817 0)
(0.0797859 -0.0011843 0)
(0.0753804 -0.00117638 0)
(0.0709589 -0.00116425 0)
(0.0665343 -0.00114781 0)
(-0.0582937 0.000621865 0)
(-0.0600195 0.00066103 0)
(-0.0618161 0.000704388 0)
(-0.063683 0.000751788 0)
(-0.0656168 0.000802672 0)
(-0.0676101 0.000856276 0)
(-0.0696508 0.000911312 0)
(-0.0717208 0.00096588 0)
(-0.0737943 0.0010171 0)
(-0.0758361 0.00106107 0)
(-0.0778011 0.00109307 0)
(-0.079634 0.00110746 0)
(-0.0812693 0.00109694 0)
(-0.0826311 0.0010521 0)
(-0.0836355 0.000964656 0)
(-0.0841888 0.000832189 0)
(-0.0841851 0.000659485 0)
(-0.0835422 0.000450529 0)
(-0.0821965 0.000204072 0)
(-0.0800768 -8.0645e-05 0)
(-0.0771254 -0.000399337 0)
(-0.0733005 -0.000743231 0)
(-0.0685807 -0.0011011 0)
(-0.0629655 -0.00146269 0)
(-0.0564722 -0.00181847 0)
(-0.0491355 -0.00216002 0)
(-0.0410073 -0.00248305 0)
(-0.0321532 -0.00279224 0)
(-0.0226526 -0.0030847 0)
(-0.0126005 -0.00334581 0)
(-0.00210194 -0.00356151 0)
(0.00876692 -0.00371064 0)
(0.0199452 -0.0038008 0)
(0.0313393 -0.00385392 0)
(0.0428518 -0.00387685 0)
(-0.107222 0.00293128 0)
(-0.109385 0.00303665 0)
(-0.111525 0.00313907 0)
(-0.113618 0.00323304 0)
(-0.115633 0.0033115 0)
(-0.117531 0.00336594 0)
(-0.119264 0.00338596 0)
(-0.120775 0.00335892 0)
(-0.121994 0.00326957 0)
(-0.122846 0.00310082 0)
(-0.123245 0.00283513 0)
(-0.123096 0.00245672 0)
(-0.122302 0.00195298 0)
(-0.120758 0.00131519 0)
(-0.118386 0.000536999 0)
(-0.115122 -0.000382321 0)
(-0.11091 -0.0014358 0)
(-0.105686 -0.00261002 0)
(-0.0993827 -0.00388959 0)
(-0.0919657 -0.005256 0)
(-0.0834164 -0.00668362 0)
(-0.0737368 -0.00814289 0)
(-0.0629534 -0.00960161 0)
(-0.0511161 -0.0110316 0)
(-0.0382875 -0.0124074 0)
(-0.024542 -0.0137074 0)
(-0.00997771 -0.0149119 0)
(0.00530533 -0.0159988 0)
(0.0212398 -0.016952 0)
(0.0377396 -0.0177679 0)
(0.0546807 -0.018442 0)
(0.0719485 -0.0189562 0)
(0.0894389 -0.0193106 0)
(0.107055 -0.0195296 0)
(0.12471 -0.0196309 0)
(-0.118804 0.0047691 0)
(-0.119421 0.00477135 0)
(-0.1198 0.00473614 0)
(-0.119897 0.00464975 0)
(-0.119661 0.00449621 0)
(-0.119036 0.00425755 0)
(-0.117957 0.0039141 0)
(-0.116356 0.00344456 0)
(-0.114159 0.0028273 0)
(-0.111286 0.002043 0)
(-0.107669 0.00107478 0)
(-0.103247 -9.19775e-05 0)
(-0.0979623 -0.00146508 0)
(-0.0917707 -0.00304232 0)
(-0.0846156 -0.00481439 0)
(-0.0764543 -0.00676428 0)
(-0.0672636 -0.00887857 0)
(-0.0570289 -0.0111442 0)
(-0.0457465 -0.0135324 0)
(-0.0334285 -0.0160058 0)
(-0.0201008 -0.0185224 0)
(-0.00580738 -0.0210363 0)
(0.0093694 -0.0234972 0)
(0.0253721 -0.0258641 0)
(0.0421575 -0.0281051 0)
(0.0596395 -0.0301861 0)
(0.0777241 -0.0320795 0)
(0.0963102 -0.0337551 0)
(0.115292 -0.035187 0)
(0.134564 -0.0363692 0)
(0.154021 -0.037301 0)
(0.173563 -0.037986 0)
(0.193098 -0.0384343 0)
(0.212545 -0.0386642 0)
(0.231835 -0.0387012 0)
(-0.0951552 0.00433286 0)
(-0.0930219 0.00399504 0)
(-0.0904461 0.00356939 0)
(-0.0873778 0.00303711 0)
(-0.0837626 0.00237908 0)
(-0.079548 0.00157623 0)
(-0.0746854 0.000608828 0)
(-0.0691251 -0.000542336 0)
(-0.0628217 -0.00189679 0)
(-0.0557395 -0.00347067 0)
(-0.0478391 -0.00527379 0)
(-0.0390768 -0.00731333 0)
(-0.0294224 -0.0095906 0)
(-0.0188519 -0.0121001 0)
(-0.00733914 -0.0148279 0)
(0.00510009 -0.0177494 0)
(0.0184409 -0.0208414 0)
(0.0326784 -0.0240768 0)
(0.0477897 -0.0274153 0)
(0.0637361 -0.030808 0)
(0.0804681 -0.0341996 0)
(0.0979285 -0.037532 0)
(0.116053 -0.040752 0)
(0.134764 -0.0438092 0)
(0.153971 -0.0466558 0)
(0.17358 -0.0492481 0)
(0.193491 -0.0515497 0)
(0.213602 -0.0535322 0)
(0.23381 -0.0551754 0)
(0.254016 -0.0564695 0)
(0.274125 -0.0574148 0)
(0.29405 -0.0580214 0)
(0.313712 -0.0583086 0)
(0.333046 -0.058306 0)
(0.351996 -0.058052 0)
(-0.0422148 0.000843328 0)
(-0.0370091 2.16401e-06 0)
(-0.0312383 -0.000969664 0)
(-0.0248628 -0.00209111 0)
(-0.0178467 -0.00338003 0)
(-0.0101528 -0.00485333 0)
(-0.00173751 -0.00652856 0)
(0.00742763 -0.00842277 0)
(0.0173661 -0.0105517 0)
(0.028103 -0.0129277 0)
(0.0396593 -0.0155599 0)
(0.052047 -0.0184503 0)
(0.065269 -0.0215927 0)
(0.0793216 -0.0249727 0)
(0.0941944 -0.028565 0)
(0.10987 -0.0323449 0)
(0.12632 -0.0362826 0)
(0.1435 -0.0403318 0)
(0.161356 -0.044439 0)
(0.179825 -0.0485448 0)
(0.198835 -0.0525855 0)
(0.218308 -0.0564955 0)
(0.238157 -0.0602118 0)
(0.25829 -0.0636746 0)
(0.278606 -0.0668294 0)
(0.299004 -0.0696287 0)
(0.319381 -0.0720341 0)
(0.339636 -0.0740179 0)
(0.359669 -0.075563 0)
(0.379392 -0.0766645 0)
(0.39872 -0.0773302 0)
(0.417582 -0.07758 0)
(0.435917 -0.0774453 0)