/*--------------------------------*- C++ -*----------------------------------*\
| =========                 |                                                 |
| \\      /  F ield         | OpenFOAM: The Open Source CFD Toolbox           |
|  \\    /   O peration     | Version:  2406                                  |
|   \\  /    A nd           | Website:  www.openfoam.com                      |
|    \\/     M anipulation  |                                                 |
\*---------------------------------------------------------------------------*/
FoamFile
{
    version     2.0;
    format      ascii;
    arch        "LSB;label=32;scalar=64";
    class       volScalarField;
    location    "50";
    object      p;
}
// * * * * * * * * * * * * * * * * * * * * * * * * * * * * * * * * * * * * * //

dimensions      [0 2 -2 0 0 0 0];

internalField   nonuniform List<scalar> 
1800
(
0.140528
0.138656
0.13544
0.131327
0.126426
0.120692
0.114068
0.106419
0.0975851
0.0870606
0.143923
0.140113
0.135846
0.131546
0.126671
0.120993
0.114534
0.107287
0.0992445
0.0907215
0.147495
0.142186
0.137
0.13269
0.128122
0.12283
0.116965
0.110771
0.10458
0.0991101
0.151505
0.145593
0.139892
0.135594
0.131383
0.126629
0.12155
0.116516
0.111871
0.108073
0.155793
0.149671
0.143779
0.139587
0.135761
0.131588
0.127289
0.123252
0.119745
0.117014
0.159724
0.153598
0.147828
0.143893
0.140449
0.136789
0.133137
0.129853
0.127125
0.125068
0.162589
0.156672
0.151302
0.147714
0.144574
0.141289
0.138096
0.135299
0.133027
0.131333
0.163807
0.158504
0.153771
0.150458
0.147456
0.144378
0.141453
0.138907
0.136832
0.135265
0.162961
0.159108
0.155257
0.15201
0.148902
0.145827
0.142957
0.140446
0.13837
0.136772
0.160302
0.158293
0.155387
0.152262
0.149115
0.146032
0.143147
0.140587
0.138437
0.136757
0.0967136
0.0965428
0.0964165
0.0964076
0.0965117
0.0967238
0.0970498
0.0975028
0.0981022
0.0988726
0.0998437
0.101052
0.10254
0.104359
0.106567
0.109227
0.112405
0.116161
0.120546
0.125586
0.131273
0.137551
0.144305
0.151338
0.158372
0.165039
0.170886
0.175428
0.178138
0.178446
0.175855
0.169974
0.160582
0.147689
0.131596
0.096907
0.0967322
0.0966278
0.0966439
0.0967603
0.0969744
0.097297
0.0977443
0.0983361
0.0990962
0.100052
0.101238
0.102692
0.104461
0.106598
0.109163
0.112219
0.115828
0.120042
0.1249
0.130406
0.136512
0.143105
0.149994
0.156896
0.163448
0.169216
0.173682
0.176279
0.176455
0.173701
0.16761
0.157948
0.144717
0.128229
0.0970075
0.0968064
0.0967042
0.0967333
0.0968508
0.0970544
0.0973594
0.0977834
0.098346
0.099069
0.099977
0.101099
0.102471
0.104136
0.106144
0.108555
0.111436
0.114856
0.11888
0.123555
0.128885
0.134825
0.141264
0.148007
0.154768
0.161163
0.166728
0.170937
0.173214
0.172984
0.169708
0.16295
0.152447
0.138191
0.120528
0.09682
0.0965981
0.0964929
0.0965238
0.0966324
0.0968179
0.0970981
0.0974908
0.0980139
0.0986861
0.0995291
0.100569
0.101839
0.103381
0.105248
0.107507
0.110233
0.113505
0.117389
0.121933
0.127137
0.132945
0.139239
0.145812
0.152361
0.158485
0.163695
0.167434
0.169097
0.168067
0.163754
0.155657
0.143456
0.127122
0.107116
0.096209
0.0960117
0.0959396
0.0959937
0.0961117
0.0962975
0.0965707
0.0969487
0.0974472
0.0980828
0.0988755
0.0998508
0.101044
0.102499
0.104276
0.10645
0.109095
0.11228
0.116076
0.120531
0.125644
0.131353
0.137519
0.14391
0.150194
0.155942
0.160638
0.16369
0.164455
0.162252
0.156402
0.146265
0.131361
0.111513
0.0873622
0.0950618
0.0949908
0.095051
0.0952016
0.0953859
0.0956191
0.0959262
0.0963258
0.096834
0.0974692
0.0982522
0.0992095
0.100375
0.101799
0.103545
0.10569
0.108317
0.111506
0.115322
0.119801
0.124925
0.130612
0.136696
0.142919
0.148923
0.154254
0.158368
0.160643
0.160385
0.156834
0.149177
0.136574
0.118243
0.0935103
0.0628831
0.0932617
0.0935306
0.0939285
0.0943175
0.0946616
0.095006
0.0953932
0.0958496
0.096395
0.0970542
0.0978526
0.0988229
0.10001
0.101472
0.103281
0.105516
0.108262
0.111595
0.115569
0.120204
0.125461
0.131231
0.137321
0.143447
0.149232
0.15421
0.157825
0.159437
0.158297
0.153537
0.144123
0.128924
0.106745
0.0763836
0.0380199
0.0903927
0.0916405
0.0928183
0.0936258
0.0942027
0.0946911
0.0951689
0.0956873
0.0962825
0.0969866
0.0978383
0.098885
0.100183
0.101799
0.103809
0.106292
0.109327
0.112979
0.117286
0.122239
0.127773
0.133748
0.139947
0.146071
0.151745
0.15652
0.15987
0.161176
0.159674
0.15437
0.143848
0.126264
0.0989358
0.060011
0.00894317
0.0844877
0.0891473
0.0921097
0.0934169
0.0941975
0.0948343
0.0953912
0.0959546
0.0966153
0.0974286
0.0984344
0.0996852
0.101248
0.103196
0.105604
0.108541
0.112071
0.116234
0.121039
0.126444
0.132351
0.138595
0.144946
0.151114
0.156757
0.161486
0.164864
0.16638
0.165379
0.160921
0.151387
0.134063
0.102955
0.0512019
-0.0385138
0.0743132
0.0862053
0.0919915
0.0935799
0.0944385
0.0953067
0.09607
0.0968025
0.0976699
0.0987582
0.100106
0.101768
0.103814
0.106316
0.109337
0.112925
0.117111
0.121902
0.127267
0.133134
0.139377
0.145819
0.152238
0.158377
0.163957
0.168688
0.172271
0.174384
0.174633
0.172454
0.166804
0.155701
0.133443
0.0879516
-0.0427045
0.0798889
0.0874791
0.0930334
0.0945615
0.095399
0.0965308
0.0976803
0.0988144
0.100116
0.101701
0.103615
0.105903
0.108628
0.111848
0.115601
0.119903
0.124748
0.130106
0.135913
0.142071
0.148443
0.154856
0.161117
0.167021
0.172368
0.176978
0.180695
0.183392
0.184952
0.185249
0.184071
0.181099
0.1753
0.164637
0.133905
0.0865707
0.090419
0.0949032
0.096962
0.0981898
0.0996401
0.101259
0.10296
0.104856
0.107064
0.10964
0.112625
0.11606
0.119976
0.12438
0.129254
0.134559
0.140234
0.146195
0.152331
0.158508
0.164576
0.170381
0.175777
0.180641
0.184885
0.188465
0.191381
0.193682
0.195459
0.196834
0.197959
0.19878
0.19889
0.194772
0.0963073
0.097426
0.100099
0.102103
0.103619
0.105334
0.107354
0.109584
0.112046
0.114826
0.117986
0.121555
0.125546
0.129956
0.13476
0.139913
0.145352
0.151
0.156761
0.162528
0.168185
0.173613
0.178702
0.183363
0.187534
0.191191
0.19435
0.19707
0.199449
0.201628
0.203782
0.206096
0.208624
0.211233
0.212032
0.105904
0.105975
0.107534
0.109322
0.111047
0.113002
0.115304
0.117896
0.120763
0.123954
0.127511
0.131444
0.135735
0.140351
0.145241
0.150344
0.155584
0.16088
0.166141
0.171276
0.176194
0.180813
0.185066
0.188909
0.192324
0.195321
0.197938
0.20024
0.202319
0.204297
0.206314
0.208508
0.210918
0.21342
0.214903
0.115402
0.115185
0.11611
0.117584
0.119316
0.121359
0.12377
0.126522
0.12959
0.132982
0.136709
0.14075
0.145065
0.149601
0.154294
0.159076
0.163873
0.16861
0.173213
0.177613
0.18175
0.185576
0.189058
0.192184
0.194958
0.197401
0.19955
0.201455
0.203183
0.204822
0.206478
0.208256
0.210183
0.212134
0.213438
0.123828
0.123527
0.124093
0.12528
0.126894
0.128894
0.131281
0.134032
0.137115
0.140509
0.144189
0.148117
0.152238
0.156492
0.160813
0.165138
0.169403
0.173547
0.177517
0.181267
0.184761
0.187978
0.190905
0.193543
0.195903
0.198004
0.199871
0.201534
0.203037
0.204441
0.205825
0.207267
0.208774
0.210202
0.211135
0.13028
0.129932
0.130276
0.131217
0.132644
0.1345
0.136758
0.139385
0.142342
0.145589
0.149082
0.152771
0.1566
0.160508
0.164438
0.168334
0.172146
0.175827
0.179341
0.182658
0.185756
0.188623
0.191256
0.193658
0.195835
0.1978
0.199565
0.201149
0.202578
0.203894
0.205155
0.206406
0.207621
0.208637
0.2092
0.13425
0.133825
0.133996
0.134724
0.135949
0.137623
0.139707
0.142161
0.144939
0.147994
0.151276
0.15473
0.158303
0.161941
0.165593
0.169213
0.172758
0.176191
0.179482
0.182606
0.185547
0.188293
0.19084
0.193186
0.195336
0.197296
0.199073
0.200681
0.202138
0.203473
0.20472
0.205893
0.206934
0.207667
0.20795
0.135693
0.135163
0.135188
0.135749
0.136811
0.138334
0.140276
0.142593
0.145238
0.148162
0.151312
0.154637
0.158085
0.161608
0.165156
0.168687
0.172159
0.175539
0.178794
0.181902
0.184843
0.187605
0.19018
0.192566
0.194762
0.196773
0.198608
0.20028
0.201807
0.203212
0.204513
0.205696
0.206672
0.207257
0.207384
0.13559
0.134961
0.13488
0.135337
0.136305
0.137748
0.139623
0.141883
0.14448
0.147362
0.15048
0.153781
0.157215
0.160732
0.164286
0.167831
0.171328
0.174739
0.178034
0.181187
0.184178
0.186993
0.189623
0.192063
0.194314
0.196381
0.198272
0.200004
0.201598
0.203077
0.204452
0.205693
0.206687
0.207249
0.207335
0.112905
0.0924795
0.0713321
0.050439
0.0305785
0.0122526
-0.00427866
-0.0188743
-0.0314703
-0.0421063
0.109129
0.0883707
0.0670744
0.0462629
0.02666
0.00871219
-0.00728757
-0.0212242
-0.0331479
-0.0431697
0.100215
0.0784482
0.0566644
0.0359932
0.0170122
-2.23579e-05
-0.0149732
-0.0278026
-0.0385976
-0.0475463
0.0844265
0.0607767
0.0382275
0.0179522
0.000103172
-0.0153874
-0.0285265
-0.0394409
-0.0483921
-0.0556514
0.0603957
0.0337583
0.0106728
-0.00828041
-0.0240585
-0.0371221
-0.0475402
-0.0556379
-0.0619313
-0.0668169
0.0279953
-0.00386169
-0.0267895
-0.0426956
-0.0549342
-0.0643026
-0.0708368
-0.0751665
-0.0780788
-0.0800332
-0.0100708
-0.0508836
-0.0728489
-0.0839794
-0.0911271
-0.0950775
-0.0961634
-0.0956817
-0.0946589
-0.093422
-0.0605327
-0.108215
-0.123149
-0.126296
-0.126254
-0.122959
-0.117597
-0.112173
-0.107658
-0.103893
-0.157316
-0.183278
-0.169786
-0.157528
-0.147365
-0.1368
-0.127059
-0.11921
-0.113349
-0.109085
-0.276061
-0.240038
-0.193126
-0.171713
-0.155839
-0.141058
-0.128945
-0.119947
-0.113544
-0.109277
-0.0509044
-0.0580314
-0.0636739
-0.0680233
-0.0712638
-0.0735631
-0.0750683
-0.0759047
-0.0761775
-0.0759737
-0.0753645
-0.0744081
-0.0731522
-0.0716364
-0.0698943
-0.0679545
-0.0658424
-0.0635807
-0.0611904
-0.0586911
-0.0561014
-0.0534394
-0.0507224
-0.0479673
-0.0451905
-0.0424077
-0.0396338
-0.0368829
-0.0341681
-0.0315012
-0.0288927
-0.0263521
-0.023887
-0.0215038
-0.0192076
-0.0514403
-0.0581349
-0.0634409
-0.0675453
-0.0706214
-0.0728213
-0.0742748
-0.0750921
-0.0753666
-0.0751762
-0.0745857
-0.0736491
-0.072412
-0.0709131
-0.0691856
-0.0672584
-0.0651573
-0.0629054
-0.0605239
-0.0580328
-0.0554513
-0.0527977
-0.0500898
-0.0473448
-0.0445795
-0.0418097
-0.0390505
-0.0363161
-0.0336196
-0.0309727
-0.028386
-0.0258685
-0.0234278
-0.0210699
-0.0187994
-0.0548493
-0.0607031
-0.0653055
-0.0688485
-0.0714978
-0.0733843
-0.0746126
-0.0752715
-0.0754371
-0.0751728
-0.0745312
-0.0735574
-0.0722912
-0.0707673
-0.0690166
-0.0670664
-0.0649417
-0.0626651
-0.0602579
-0.0577401
-0.0551311
-0.0524499
-0.0497148
-0.0469439
-0.0441545
-0.0413632
-0.0385857
-0.0358367
-0.0331297
-0.0304767
-0.0278884
-0.0253737
-0.0229401
-0.0205933
-0.0183373
-0.061452
-0.0659975
-0.0694959
-0.07215
-0.0741145
-0.075487
-0.0763367
-0.0767256
-0.0767062
-0.0763194
-0.075598
-0.0745718
-0.0732693
-0.0717173
-0.0699405
-0.0679618
-0.0658031
-0.0634851
-0.0610281
-0.0584518
-0.0557758
-0.0530201
-0.0502044
-0.0473483
-0.044471
-0.0415909
-0.0387258
-0.0358921
-0.033105
-0.0303782
-0.0277238
-0.0251517
-0.0226701
-0.020285
-0.0180004
-0.0705383
-0.0732908
-0.0753079
-0.0768112
-0.077916
-0.0786511
-0.0790359
-0.0791022
-0.0788739
-0.0783607
-0.0775688
-0.0765094
-0.075198
-0.0736514
-0.0718861
-0.0699183
-0.0677638
-0.0654383
-0.062958
-0.0603398
-0.0576021
-0.0547648
-0.0518486
-0.048875
-0.0458657
-0.0428418
-0.0398243
-0.036833
-0.0338868
-0.0310031
-0.0281976
-0.0254836
-0.0228722
-0.0203715
-0.0179872
-0.0812057
-0.0817515
-0.0819925
-0.0822003
-0.0823856
-0.0824436
-0.0823322
-0.0820626
-0.0816312
-0.0810111
-0.0801773
-0.0791192
-0.0778377
-0.0763395
-0.0746337
-0.0727297
-0.0706367
-0.0683633
-0.0659184
-0.0633132
-0.0605617
-0.0576812
-0.0546915
-0.0516144
-0.0484727
-0.04529
-0.0420901
-0.0388966
-0.0357331
-0.0326224
-0.0295859
-0.0266429
-0.0238102
-0.0211016
-0.0185271
-0.0918309
-0.0899428
-0.0883179
-0.0873087
-0.0867042
-0.0861917
-0.085663
-0.0851156
-0.0845237
-0.0838331
-0.0829959
-0.0819817
-0.080775
-0.0793712
-0.0777725
-0.0759838
-0.0740089
-0.0718494
-0.0695066
-0.066984
-0.0642891
-0.0614342
-0.0584353
-0.055312
-0.0520859
-0.0487805
-0.0454204
-0.0420319
-0.0386419
-0.0352784
-0.031969
-0.0287408
-0.0256185
-0.0226241
-0.0197756
-0.0999253
-0.0957576
-0.0926489
-0.0908937
-0.0898585
-0.0890468
-0.0883284
-0.0876734
-0.087026
-0.0863266
-0.08553
-0.0845998
-0.083508
-0.0822388
-0.0807883
-0.0791577
-0.0773466
-0.0753514
-0.0731669
-0.0707899
-0.0682211
-0.0654664
-0.0625368
-0.0594467
-0.0562143
-0.0528598
-0.0494062
-0.045879
-0.0423065
-0.0387196
-0.0351508
-0.0316338
-0.0282017
-0.024886
-0.0217147
-0.104071
-0.0980445
-0.0941907
-0.0924004
-0.0913635
-0.090544
-0.0898845
-0.0893143
-0.0887365
-0.0881016
-0.0873877
-0.0865674
-0.08561
-0.0844949
-0.0832139
-0.0817646
-0.0801428
-0.0783409
-0.0763493
-0.07416
-0.0717685
-0.069175
-0.0663842
-0.0634049
-0.0602491
-0.0569319
-0.0534718
-0.0498912
-0.0462163
-0.0424779
-0.0387107
-0.0349526
-0.0312433
-0.0276229
-0.0241294
-0.104664
-0.0980035
-0.0942542
-0.0928124
-0.0919497
-0.091234
-0.0906914
-0.0902306
-0.0897391
-0.0891791
-0.0885441
-0.0878165
-0.0869702
-0.0859862
-0.0848548
-0.0835701
-0.0821241
-0.0805062
-0.0787045
-0.0767084
-0.0745101
-0.0721051
-0.0694926
-0.0666747
-0.0636571
-0.0604484
-0.0570609
-0.0535114
-0.049822
-0.0460204
-0.0421403
-0.0382204
-0.0343041
-0.0304373
-0.0266666
-0.103661
-0.0974763
-0.0941966
-0.0929682
-0.0922369
-0.0916451
-0.0911803
-0.0907613
-0.0903074
-0.0897896
-0.0891999
-0.088524
-0.0877428
-0.0868412
-0.0858098
-0.0846398
-0.0833211
-0.0818413
-0.0801885
-0.0783512
-0.0763202
-0.0740879
-0.0716491
-0.0690004
-0.0661414
-0.0630742
-0.0598046
-0.0563433
-0.0527063
-0.0489163
-0.045003
-0.0410035
-0.036961
-0.0329245
-0.0289462
-0.0979186
-0.0955076
-0.0938259
-0.0929333
-0.0923441
-0.0918685
-0.0914503
-0.0910368
-0.0905876
-0.0900832
-0.0895111
-0.088857
-0.0881067
-0.0872476
-0.0862698
-0.0851637
-0.0839182
-0.0825218
-0.0809634
-0.0792321
-0.0773182
-0.0752129
-0.0729084
-0.070398
-0.0676768
-0.0647419
-0.0615937
-0.0582367
-0.0546812
-0.0509439
-0.0470494
-0.0430304
-0.038928
-0.034791
-0.0306741
-0.0943449
-0.0937035
-0.0930378
-0.0925212
-0.0921163
-0.0917587
-0.0914053
-0.0910263
-0.0906008
-0.0901143
-0.0895544
-0.0889103
-0.0881727
-0.0873324
-0.0863791
-0.0853027
-0.0840921
-0.0827375
-0.0812288
-0.0795562
-0.07771
-0.0756812
-0.0734611
-0.0710416
-0.0684158
-0.0655778
-0.0625242
-0.0592551
-0.0557757
-0.0520974
-0.0482393
-0.0442294
-0.0401052
-0.0359135
-0.0317095
-0.0924204
-0.0923278
-0.0921165
-0.0918678
-0.0916242
-0.0913723
-0.0910885
-0.0907571
-0.090366
-0.0899044
-0.0893633
-0.0887345
-0.0880103
-0.0871815
-0.0862388
-0.0851732
-0.0839754
-0.0826362
-0.081147
-0.0794985
-0.0776824
-0.0756893
-0.0735107
-0.071138
-0.0685638
-0.0657812
-0.0627847
-0.0595718
-0.056144
-0.0525086
-0.0486801
-0.0446823
-0.040549
-0.0363241
-0.0320618
-0.0911973
-0.0913008
-0.0912905
-0.0911855
-0.0910404
-0.0908594
-0.0906289
-0.090338
-0.089978
-0.0895408
-0.089019
-0.0884049
-0.0876908
-0.0868687
-0.0859302
-0.0848667
-0.0836698
-0.0823316
-0.0808434
-0.0791965
-0.0773843
-0.0753986
-0.0732305
-0.0708714
-0.0683141
-0.0655514
-0.0625769
-0.0593871
-0.0559814
-0.0523642
-0.048547
-0.0445504
-0.0404048
-0.0361518
-0.0318437
-0.090438
-0.0906123
-0.0906821
-0.0906382
-0.090538
-0.0903898
-0.0901839
-0.0899118
-0.0895659
-0.0891388
-0.0886235
-0.0880132
-0.0873008
-0.0864788
-0.0855391
-0.0844731
-0.083272
-0.0819278
-0.0804319
-0.0787759
-0.0769526
-0.0749543
-0.0727716
-0.070397
-0.0678266
-0.0650533
-0.0620713
-0.0588772
-0.055469
-0.0518483
-0.0480248
-0.0440166
-0.0398517
-0.0355694
-0.0312206
-0.0900539
-0.0902365
-0.090327
-0.090304
-0.0902175
-0.0900765
-0.0898743
-0.0896033
-0.0892562
-0.0888256
-0.0883047
-0.0876868
-0.0869647
-0.0861311
-0.0851784
-0.0840983
-0.0828824
-0.0815222
-0.0800087
-0.0783337
-0.0764892
-0.0744681
-0.0722623
-0.0698642
-0.0672672
-0.0644655
-0.0614551
-0.058233
-0.0547964
-0.0511474
-0.0472963
-0.0432605
-0.0390685
-0.034757
-0.0303737
-0.0899591
-0.0901205
-0.090209
-0.0901941
-0.0901106
-0.0899669
-0.0897585
-0.0894785
-0.0891206
-0.0886781
-0.088144
-0.0875114
-0.0867734
-0.0859225
-0.0849512
-0.0838516
-0.0826154
-0.081234
-0.0796986
-0.0780001
-0.0761301
-0.0740801
-0.0718424
-0.0694094
-0.0667746
-0.0639324
-0.0608793
-0.0576133
-0.0541346
-0.0504475
-0.0465618
-0.0424946
-0.0382705
-0.0339243
-0.0295027
-0.090055
-0.0901938
-0.0902835
-0.0902822
-0.0902052
-0.0900592
-0.0898432
-0.0895532
-0.0891834
-0.0887277
-0.0881797
-0.0875325
-0.0867789
-0.0859116
-0.0849227
-0.0838044
-0.0825484
-0.0811462
-0.0795888
-0.0778673
-0.0759723
-0.0738952
-0.0716272
-0.0691605
-0.0664877
-0.0636031
-0.0605031
-0.0571862
-0.0536537
-0.0499113
-0.0459711
-0.0418517
-0.0375798
-0.0331907
-0.0287309
-0.0902035
-0.0903381
-0.0904446
-0.0904632
-0.0903962
-0.0902512
-0.090031
-0.0897343
-0.0893569
-0.0888931
-0.0883365
-0.08768
-0.0869166
-0.0860386
-0.0850382
-0.0839075
-0.0826379
-0.081221
-0.0796478
-0.0779093
-0.0759963
-0.0738996
-0.0716103
-0.0691197
-0.0664201
-0.0635049
-0.0603694
-0.057012
-0.0534342
-0.049643
-0.045651
-0.0414783
-0.0371535
-0.0327145
-0.0282092
-0.0170019
-0.0148891
-0.0128704
-0.0109464
-0.00911707
-0.00738164
-0.0057388
-0.00419745
-0.00276481
-0.00118407
-0.0166196
-0.0145324
-0.0125386
-0.0106383
-0.00883043
-0.00711329
-0.00548881
-0.00397141
-0.00257846
-0.00112533
-0.0161749
-0.0141075
-0.012135
-0.010257
-0.00847193
-0.00677909
-0.00518033
-0.00369976
-0.00238452
-0.00115544
-0.0158185
-0.0137402
-0.0117649
-0.00989163
-0.00811945
-0.00644883
-0.0048845
-0.00345607
-0.00221658
-0.00127632
-0.0157224
-0.0135782
-0.011554
-0.00964906
-0.00786255
-0.00619786
-0.00465822
-0.00328312
-0.00206868
-0.00150023
-0.0160936
-0.0138045
-0.0116613
-0.00966399
-0.00781248
-0.00611129
-0.00455849
-0.00321188
-0.00194669
-0.00183793
-0.0170868
-0.0145674
-0.012223
-0.0100569
-0.00806971
-0.00626752
-0.00463603
-0.00326308
-0.00184799
-0.00224591
-0.0187116
-0.0158953
-0.0132792
-0.0108724
-0.00867749
-0.00670352
-0.0049181
-0.00344922
-0.00179287
-0.00262832
-0.0207977
-0.0176574
-0.0147321
-0.0120392
-0.00958594
-0.00738464
-0.00539042
-0.0037602
-0.00182486
-0.00285917
-0.0230371
-0.0195898
-0.0163595
-0.0133741
-0.010648
-0.00820043
-0.00597743
-0.00415097
-0.00197988
-0.00282265
-0.025079
-0.0213744
-0.0178785
-0.0146305
-0.0116555
-0.0089783
-0.00655453
-0.0045325
-0.00224554
-0.00246002
-0.0266361
-0.0227362
-0.0190312
-0.0155718
-0.0123954
-0.00953554
-0.00696687
-0.0047879
-0.00254527
-0.00179409
-0.0275547
-0.0235146
-0.0196548
-0.0160372
-0.0127129
-0.00972449
-0.00707769
-0.00480287
-0.00275037
-0.000921855
-0.027825
-0.0236833
-0.0197095
-0.0159754
-0.0125465
-0.00947586
-0.00680455
-0.00449933
-0.00272918
2.14677e-05
-0.0275439
-0.0233237
-0.0192621
-0.0154388
-0.0119328
-0.0088094
-0.00614208
-0.00386337
-0.00239032
0.000906548
-0.0268676
-0.0225836
-0.0184505
-0.0145551
-0.010986
-0.00782262
-0.00516361
-0.00294601
-0.0017173
0.00164188
-0.0259782
-0.0216442
-0.017454
-0.0135
-0.00987555
-0.00667537
-0.00401009
-0.00186328
-0.000773889
0.00217864
-0.0250677
-0.0206914
-0.0164589
-0.0124596
-0.00879181
-0.00555505
-0.00286931
-0.000776622
0.000299368
0.00248263
-0.0242584
-0.0198437
-0.015569
-0.0115258
-0.00781183
-0.00453399
-0.00181037
0.000270789
0.00145837
0.00262051
-0.0236962
-0.0192451
-0.0149355
-0.0108572
-0.00710989
-0.00379943
-0.00104078
0.00105872
0.00240733
0.00268428
)
;

boundaryField
{
    inlet
    {
        type            zeroGradient;
    }
    outlet
    {
        type            fixedValue;
        value           uniform 0;
    }
    upperWall
    {
        type            zeroGradient;
    }
    lowerWall
    {
        type            zeroGradient;
    }
    frontAndBack
    {
        type            empty;
    }
}


// ************************************************************************* //
