/*--------------------------------*- C++ -*----------------------------------*\
| =========                 |                                                 |
| \\      /  F ield         | OpenFOAM: The Open Source CFD Toolbox           |
|  \\    /   O peration     | Version:  2406                                  |
|   \\  /    A nd           | Website:  www.openfoam.com                      |
|    \\/     M anipulation  |                                                 |
\*---------------------------------------------------------------------------*/
FoamFile
{
    version     2.0;
    format      ascii;
    arch        "LSB;label=32;scalar=64";
    class       volScalarField;
    location    "82";
    object      p;
}
// * * * * * * * * * * * * * * * * * * * * * * * * * * * * * * * * * * * * * //

dimensions      [0 2 -2 0 0 0 0];

internalField   nonuniform List<scalar> 
2000
(
0.807883
0.802688
0.796123
0.789179
0.781899
0.774326
0.766573
0.75872
0.750802
0.742835
0.811381
0.803843
0.796154
0.789086
0.781836
0.774247
0.766485
0.758643
0.75074
0.742784
0.813404
0.804441
0.795948
0.788883
0.781743
0.774156
0.766378
0.758547
0.750664
0.742722
0.814665
0.805108
0.796
0.788782
0.781674
0.774076
0.766268
0.758436
0.750569
0.742641
0.815639
0.805817
0.796241
0.788788
0.781644
0.774021
0.766173
0.758323
0.750462
0.742545
0.816397
0.806432
0.796535
0.788869
0.78166
0.774002
0.76611
0.758233
0.750366
0.742453
0.816969
0.806925
0.79682
0.788989
0.78171
0.774012
0.766078
0.758169
0.75029
0.742375
0.817382
0.807293
0.797058
0.789111
0.78177
0.774033
0.766064
0.758129
0.750236
0.742315
0.817651
0.807537
0.797226
0.789206
0.781821
0.774056
0.766061
0.758106
0.750202
0.742276
0.817783
0.807659
0.797312
0.789257
0.78185
0.77407
0.766062
0.758096
0.750186
0.742257
0.817783
0.807659
0.797312
0.789257
0.78185
0.77407
0.766062
0.758096
0.750186
0.742257
0.81765
0.807537
0.797226
0.789205
0.781821
0.774056
0.766061
0.758106
0.750202
0.742276
0.817382
0.807293
0.797058
0.789111
0.78177
0.774034
0.766064
0.758129
0.750236
0.742316
0.816969
0.806925
0.79682
0.788989
0.78171
0.774012
0.766078
0.758169
0.75029
0.742375
0.816397
0.806432
0.796535
0.788869
0.78166
0.774002
0.76611
0.758233
0.750366
0.742453
0.815639
0.805817
0.796241
0.788788
0.781644
0.774021
0.766173
0.758323
0.750462
0.742546
0.814665
0.805108
0.796
0.788781
0.781674
0.774076
0.766268
0.758436
0.750569
0.742642
0.813404
0.80444
0.795948
0.788883
0.781743
0.774156
0.766378
0.758547
0.750664
0.742722
0.811381
0.803843
0.796154
0.789086
0.781836
0.774247
0.766485
0.758643
0.75074
0.742784
0.807883
0.802688
0.796123
0.789179
0.781899
0.774326
0.766573
0.75872
0.750802
0.742835
0.73483
0.726797
0.718742
0.710668
0.702579
0.694477
0.686364
0.678241
0.67011
0.661971
0.653826
0.645674
0.637517
0.629355
0.621188
0.613017
0.604842
0.596664
0.588482
0.580296
0.572108
0.563917
0.555723
0.547527
0.539328
0.531127
0.522924
0.514719
0.506512
0.498303
0.490093
0.481881
0.473667
0.465452
0.457235
0.734787
0.72676
0.71871
0.71064
0.702555
0.694456
0.686345
0.678224
0.670094
0.661957
0.653813
0.645663
0.637507
0.629345
0.621179
0.613009
0.604834
0.596656
0.588475
0.58029
0.572102
0.563911
0.555718
0.547522
0.539323
0.531123
0.52292
0.514715
0.506508
0.498299
0.490089
0.481877
0.473664
0.465448
0.457232
0.734734
0.726715
0.718671
0.710608
0.702526
0.694431
0.686323
0.678205
0.670077
0.661942
0.653799
0.64565
0.637495
0.629335
0.62117
0.613
0.604826
0.596649
0.588468
0.580283
0.572096
0.563906
0.555712
0.547517
0.539319
0.531118
0.522915
0.514711
0.506504
0.498296
0.490086
0.481874
0.47366
0.465445
0.457229
0.734664
0.726655
0.718621
0.710565
0.702489
0.694398
0.686295
0.67818
0.670056
0.661924
0.653784
0.645636
0.637483
0.629324
0.62116
0.612991
0.604818
0.596641
0.588461
0.580277
0.57209
0.5639
0.555707
0.547512
0.539314
0.531114
0.522911
0.514707
0.506501
0.498292
0.490082
0.481871
0.473658
0.465443
0.457226
0.734577
0.726577
0.718554
0.710507
0.70244
0.694354
0.686256
0.678146
0.670027
0.661899
0.653762
0.645617
0.637466
0.629308
0.621145
0.612978
0.604806
0.596631
0.588452
0.580269
0.572083
0.563893
0.555701
0.547506
0.539308
0.531109
0.522906
0.514702
0.506496
0.498288
0.490079
0.481867
0.473654
0.46544
0.457223
0.73449
0.726496
0.718482
0.710444
0.702384
0.694305
0.686211
0.678107
0.669993
0.66187
0.653737
0.645595
0.637446
0.62929
0.621128
0.612963
0.604793
0.596619
0.588441
0.580259
0.572074
0.563885
0.555693
0.547499
0.539302
0.531102
0.5229
0.514697
0.506491
0.498283
0.490074
0.481863
0.47365
0.465436
0.45722
0.734413
0.726423
0.718415
0.710385
0.702331
0.694256
0.686167
0.678067
0.669958
0.66184
0.653711
0.645573
0.637425
0.629271
0.621111
0.612947
0.604778
0.596606
0.588429
0.580249
0.572065
0.563877
0.555685
0.547491
0.539294
0.531095
0.522894
0.514691
0.506486
0.498278
0.490069
0.481859
0.473646
0.465432
0.457216
0.734352
0.726364
0.71836
0.710335
0.702286
0.694215
0.686129
0.678033
0.669928
0.661814
0.653689
0.645553
0.637407
0.629254
0.621095
0.612932
0.604765
0.596594
0.588419
0.58024
0.572056
0.563869
0.555678
0.547484
0.539288
0.531089
0.522888
0.514685
0.50648
0.498274
0.490065
0.481855
0.473642
0.465428
0.457213
0.73431
0.726322
0.718321
0.7103
0.702254
0.694186
0.686102
0.678008
0.669906
0.661795
0.653673
0.645539
0.637394
0.629242
0.621084
0.612921
0.604755
0.596585
0.588412
0.580233
0.57205
0.563864
0.555673
0.547479
0.539283
0.531084
0.522884
0.514681
0.506477
0.49827
0.490062
0.481852
0.473639
0.465425
0.45721
0.734289
0.726301
0.718301
0.710282
0.702238
0.694171
0.686087
0.677995
0.669894
0.661785
0.653664
0.645531
0.637388
0.629236
0.621078
0.612916
0.60475
0.596581
0.588407
0.58023
0.572047
0.563861
0.55567
0.547476
0.53928
0.531082
0.522881
0.514679
0.506474
0.498268
0.49006
0.48185
0.473638
0.465424
0.457208
0.734289
0.726301
0.718301
0.710282
0.702238
0.69417
0.686087
0.677995
0.669894
0.661785
0.653664
0.645531
0.637387
0.629236
0.621078
0.612916
0.60475
0.596581
0.588407
0.58023
0.572047
0.563861
0.55567
0.547476
0.53928
0.531082
0.522881
0.514679
0.506474
0.498268
0.49006
0.48185
0.473638
0.465424
0.457208
0.734311
0.726322
0.718321
0.7103
0.702254
0.694186
0.686102
0.678008
0.669906
0.661795
0.653672
0.645538
0.637394
0.629242
0.621084
0.612921
0.604755
0.596585
0.588412
0.580233
0.57205
0.563863
0.555673
0.547479
0.539283
0.531084
0.522883
0.514681
0.506476
0.49827
0.490062
0.481851
0.473639
0.465425
0.45721
0.734352
0.726364
0.71836
0.710335
0.702286
0.694215
0.686129
0.678033
0.669928
0.661814
0.653689
0.645553
0.637407
0.629254
0.621095
0.612932
0.604765
0.596594
0.588419
0.58024
0.572056
0.563869
0.555678
0.547484
0.539288
0.531089
0.522888
0.514685
0.50648
0.498274
0.490065
0.481854
0.473642
0.465428
0.457212
0.734413
0.726423
0.718415
0.710384
0.70233
0.694256
0.686167
0.678067
0.669958
0.66184
0.653711
0.645572
0.637425
0.629271
0.621111
0.612947
0.604778
0.596606
0.588429
0.580249
0.572064
0.563876
0.555685
0.547491
0.539294
0.531095
0.522894
0.514691
0.506485
0.498278
0.490069
0.481858
0.473646
0.465432
0.457216
0.73449
0.726497
0.718482
0.710444
0.702384
0.694305
0.686211
0.678107
0.669993
0.661869
0.653736
0.645595
0.637445
0.62929
0.621128
0.612963
0.604793
0.596619
0.588441
0.580259
0.572074
0.563885
0.555693
0.547499
0.539301
0.531102
0.5229
0.514697
0.506491
0.498283
0.490074
0.481863
0.47365
0.465435
0.457219
0.734578
0.726577
0.718554
0.710507
0.702439
0.694355
0.686256
0.678146
0.670027
0.661899
0.653762
0.645617
0.637466
0.629308
0.621145
0.612978
0.604806
0.596631
0.588451
0.580269
0.572082
0.563893
0.555701
0.547506
0.539308
0.531108
0.522906
0.514702
0.506496
0.498288
0.490078
0.481867
0.473654
0.465439
0.457223
0.734664
0.726655
0.71862
0.710564
0.702489
0.694399
0.686295
0.67818
0.670056
0.661924
0.653783
0.645636
0.637483
0.629324
0.621159
0.612991
0.604818
0.596641
0.588461
0.580277
0.57209
0.5639
0.555707
0.547512
0.539314
0.531114
0.522911
0.514707
0.5065
0.498292
0.490082
0.48187
0.473657
0.465442
0.457226
0.734734
0.726715
0.718671
0.710608
0.702526
0.694431
0.686323
0.678205
0.670077
0.661942
0.653799
0.64565
0.637495
0.629335
0.62117
0.613
0.604826
0.596649
0.588468
0.580283
0.572096
0.563905
0.555712
0.547517
0.539318
0.531118
0.522915
0.51471
0.506504
0.498295
0.490085
0.481873
0.47366
0.465445
0.457228
0.734787
0.72676
0.71871
0.71064
0.702555
0.694456
0.686345
0.678224
0.670094
0.661957
0.653813
0.645663
0.637506
0.629345
0.621179
0.613009
0.604834
0.596656
0.588475
0.58029
0.572102
0.563911
0.555718
0.547522
0.539323
0.531122
0.522919
0.514715
0.506508
0.498299
0.490089
0.481877
0.473663
0.465448
0.457231
0.73483
0.726797
0.718742
0.710668
0.702579
0.694477
0.686364
0.678241
0.67011
0.661971
0.653826
0.645674
0.637517
0.629355
0.621188
0.613017
0.604842
0.596664
0.588482
0.580296
0.572108
0.563917
0.555723
0.547527
0.539328
0.531127
0.522924
0.514719
0.506512
0.498303
0.490093
0.48188
0.473667
0.465451
0.457235
0.449017
0.440798
0.432577
0.424355
0.416132
0.407908
0.399683
0.391456
0.383229
0.375001
0.449014
0.440795
0.432574
0.424352
0.416129
0.407905
0.39968
0.391454
0.383227
0.374999
0.449011
0.440792
0.432571
0.42435
0.416127
0.407903
0.399678
0.391452
0.383225
0.374997
0.449009
0.44079
0.432569
0.424348
0.416125
0.407901
0.399676
0.39145
0.383223
0.374995
0.449006
0.440787
0.432567
0.424345
0.416122
0.407899
0.399674
0.391448
0.383221
0.374993
0.449002
0.440784
0.432564
0.424342
0.41612
0.407896
0.399671
0.391445
0.383219
0.374991
0.448999
0.44078
0.43256
0.424339
0.416117
0.407893
0.399668
0.391443
0.383216
0.374989
0.448995
0.440777
0.432557
0.424336
0.416114
0.40789
0.399666
0.39144
0.383214
0.374986
0.448993
0.440774
0.432554
0.424333
0.416111
0.407888
0.399664
0.391438
0.383212
0.374985
0.448991
0.440773
0.432553
0.424332
0.41611
0.407887
0.399663
0.391437
0.383211
0.374983
0.448991
0.440773
0.432553
0.424332
0.41611
0.407887
0.399662
0.391437
0.383211
0.374983
0.448993
0.440774
0.432554
0.424333
0.416111
0.407888
0.399664
0.391438
0.383212
0.374984
0.448995
0.440777
0.432557
0.424336
0.416113
0.40789
0.399665
0.39144
0.383213
0.374986
0.448998
0.44078
0.43256
0.424339
0.416116
0.407893
0.399668
0.391442
0.383216
0.374988
0.449002
0.440783
0.432563
0.424342
0.416119
0.407895
0.399671
0.391445
0.383218
0.37499
0.449005
0.440786
0.432566
0.424345
0.416122
0.407898
0.399673
0.391447
0.38322
0.374992
0.449008
0.440789
0.432569
0.424347
0.416124
0.4079
0.399675
0.391449
0.383222
0.374994
0.449011
0.440791
0.432571
0.424349
0.416126
0.407902
0.399677
0.391451
0.383224
0.374996
0.449013
0.440794
0.432574
0.424352
0.416129
0.407905
0.39968
0.391453
0.383226
0.374998
0.449017
0.440797
0.432576
0.424354
0.416131
0.407907
0.399682
0.391456
0.383228
0.375
0.366772
0.358542
0.350311
0.342079
0.333847
0.325614
0.31738
0.309145
0.30091
0.292674
0.284437
0.2762
0.267962
0.259724
0.251485
0.243246
0.235006
0.226765
0.218524
0.210283
0.202041
0.193798
0.185555
0.177312
0.169069
0.160825
0.15258
0.144335
0.13609
0.127845
0.119599
0.111353
0.103106
0.0948595
0.0866124
0.36677
0.35854
0.350309
0.342078
0.333845
0.325612
0.317378
0.309144
0.300908
0.292673
0.284436
0.276199
0.267961
0.259723
0.251484
0.243244
0.235004
0.226764
0.218523
0.210281
0.20204
0.193797
0.185554
0.177311
0.169068
0.160824
0.152579
0.144335
0.136089
0.127844
0.119598
0.111352
0.103106
0.0948588
0.0866117
0.366768
0.358538
0.350307
0.342076
0.333844
0.32561
0.317377
0.309142
0.300907
0.292671
0.284435
0.276197
0.26796
0.259721
0.251483
0.243243
0.235003
0.226763
0.218522
0.21028
0.202039
0.193796
0.185554
0.17731
0.169067
0.160823
0.152578
0.144334
0.136089
0.127843
0.119597
0.111351
0.103105
0.0948582
0.0866111
0.366766
0.358536
0.350306
0.342074
0.333842
0.325609
0.317375
0.309141
0.300906
0.29267
0.284433
0.276196
0.267959
0.25972
0.251482
0.243242
0.235002
0.226762
0.218521
0.21028
0.202038
0.193796
0.185553
0.17731
0.169066
0.160822
0.152578
0.144333
0.136088
0.127843
0.119597
0.111351
0.103104
0.0948577
0.0866106
0.366764
0.358535
0.350304
0.342073
0.333841
0.325608
0.317374
0.30914
0.300904
0.292669
0.284432
0.276195
0.267958
0.259719
0.25148
0.243241
0.235001
0.226761
0.21852
0.210279
0.202037
0.193795
0.185552
0.177309
0.169065
0.160821
0.152577
0.144332
0.136087
0.127842
0.119596
0.11135
0.103104
0.0948571
0.0866101
0.366762
0.358533
0.350302
0.342071
0.333839
0.325606
0.317372
0.309138
0.300903
0.292667
0.284431
0.276194
0.267956
0.259718
0.251479
0.24324
0.235
0.22676
0.218519
0.210278
0.202036
0.193794
0.185551
0.177308
0.169064
0.16082
0.152576
0.144332
0.136087
0.127841
0.119595
0.111349
0.103103
0.0948564
0.0866094
0.36676
0.35853
0.3503
0.342069
0.333837
0.325604
0.31737
0.309136
0.300901
0.292665
0.284429
0.276192
0.267955
0.259716
0.251478
0.243239
0.234999
0.226758
0.218518
0.210276
0.202035
0.193792
0.18555
0.177307
0.169063
0.160819
0.152575
0.144331
0.136086
0.12784
0.119595
0.111349
0.103102
0.0948556
0.0866086
0.366758
0.358528
0.350298
0.342067
0.333835
0.325602
0.317369
0.309134
0.300899
0.292664
0.284428
0.276191
0.267953
0.259715
0.251476
0.243237
0.234997
0.226757
0.218516
0.210275
0.202034
0.193791
0.185549
0.177306
0.169062
0.160818
0.152574
0.14433
0.136085
0.127839
0.119594
0.111348
0.103101
0.0948547
0.0866078
0.366756
0.358527
0.350297
0.342065
0.333833
0.325601
0.317367
0.309133
0.300898
0.292662
0.284426
0.276189
0.267952
0.259714
0.251475
0.243236
0.234996
0.226756
0.218515
0.210274
0.202033
0.19379
0.185548
0.177305
0.169061
0.160818
0.152573
0.144329
0.136084
0.127839
0.119593
0.111347
0.103101
0.094854
0.0866071
0.366755
0.358526
0.350296
0.342064
0.333833
0.3256
0.317366
0.309132
0.300897
0.292662
0.284425
0.276189
0.267951
0.259713
0.251475
0.243235
0.234996
0.226756
0.218515
0.210274
0.202032
0.19379
0.185547
0.177304
0.169061
0.160817
0.152573
0.144328
0.136083
0.127838
0.119592
0.111346
0.1031
0.0948535
0.0866066
0.366755
0.358526
0.350295
0.342064
0.333832
0.3256
0.317366
0.309132
0.300897
0.292662
0.284425
0.276189
0.267951
0.259713
0.251474
0.243235
0.234996
0.226755
0.218515
0.210273
0.202032
0.19379
0.185547
0.177304
0.169061
0.160817
0.152573
0.144328
0.136083
0.127838
0.119592
0.111346
0.1031
0.0948533
0.0866064
0.366756
0.358526
0.350296
0.342065
0.333833
0.3256
0.317367
0.309133
0.300898
0.292662
0.284426
0.276189
0.267952
0.259714
0.251475
0.243236
0.234996
0.226756
0.218515
0.210274
0.202032
0.19379
0.185547
0.177304
0.169061
0.160817
0.152573
0.144328
0.136083
0.127838
0.119592
0.111346
0.1031
0.0948533
0.0866064
0.366757
0.358528
0.350298
0.342066
0.333834
0.325602
0.317368
0.309134
0.300899
0.292663
0.284427
0.27619
0.267953
0.259714
0.251476
0.243237
0.234997
0.226756
0.218516
0.210274
0.202033
0.19379
0.185548
0.177305
0.169061
0.160817
0.152573
0.144329
0.136084
0.127838
0.119593
0.111347
0.1031
0.0948537
0.0866067
0.366759
0.35853
0.3503
0.342068
0.333836
0.325603
0.31737
0.309135
0.3009
0.292665
0.284428
0.276191
0.267954
0.259716
0.251477
0.243238
0.234998
0.226757
0.218517
0.210275
0.202034
0.193791
0.185549
0.177306
0.169062
0.160818
0.152574
0.144329
0.136084
0.127839
0.119593
0.111347
0.103101
0.0948542
0.0866072
0.366762
0.358532
0.350302
0.34207
0.333838
0.325605
0.317371
0.309137
0.300902
0.292666
0.28443
0.276193
0.267955
0.259717
0.251478
0.243239
0.234999
0.226759
0.218518
0.210276
0.202035
0.193792
0.18555
0.177306
0.169063
0.160819
0.152575
0.14433
0.136085
0.12784
0.119594
0.111348
0.103101
0.0948548
0.0866078
0.366764
0.358534
0.350303
0.342072
0.33384
0.325607
0.317373
0.309139
0.300903
0.292668
0.284431
0.276194
0.267956
0.259718
0.251479
0.24324
0.235
0.22676
0.218519
0.210277
0.202035
0.193793
0.18555
0.177307
0.169064
0.16082
0.152575
0.144331
0.136086
0.12784
0.119595
0.111348
0.103102
0.0948553
0.0866084
0.366765
0.358536
0.350305
0.342074
0.333841
0.325608
0.317374
0.30914
0.300905
0.292669
0.284432
0.276195
0.267958
0.259719
0.25148
0.243241
0.235001
0.226761
0.21852
0.210278
0.202036
0.193794
0.185551
0.177308
0.169064
0.160821
0.152576
0.144331
0.136086
0.127841
0.119595
0.111349
0.103103
0.0948559
0.0866089
0.366767
0.358537
0.350307
0.342075
0.333843
0.32561
0.317376
0.309141
0.300906
0.29267
0.284433
0.276196
0.267959
0.25972
0.251481
0.243242
0.235002
0.226761
0.21852
0.210279
0.202037
0.193795
0.185552
0.177309
0.169065
0.160821
0.152577
0.144332
0.136087
0.127841
0.119596
0.11135
0.103103
0.0948564
0.0866094
0.366769
0.358539
0.350308
0.342077
0.333844
0.325611
0.317377
0.309143
0.300907
0.292671
0.284435
0.276198
0.26796
0.259721
0.251483
0.243243
0.235003
0.226763
0.218522
0.21028
0.202038
0.193796
0.185553
0.17731
0.169066
0.160822
0.152578
0.144333
0.136088
0.127842
0.119596
0.11135
0.103104
0.0948571
0.0866101
0.366771
0.358541
0.35031
0.342079
0.333846
0.325613
0.317379
0.309144
0.300909
0.292673
0.284436
0.276199
0.267961
0.259723
0.251484
0.243244
0.235004
0.226764
0.218523
0.210281
0.202039
0.193797
0.185554
0.177311
0.169067
0.160823
0.152579
0.144334
0.136089
0.127843
0.119597
0.111351
0.103105
0.0948579
0.0866108
0.078365
0.0701173
0.0618693
0.0536211
0.0453726
0.0371238
0.0288747
0.0206254
0.0123758
0.00412582
0.0783643
0.0701167
0.0618687
0.0536205
0.045372
0.0371232
0.0288742
0.0206251
0.0123752
0.00412556
0.0783638
0.0701161
0.0618682
0.05362
0.0453715
0.0371228
0.0288737
0.0206248
0.0123746
0.00412565
0.0783633
0.0701157
0.0618678
0.0536196
0.0453712
0.0371225
0.0288735
0.0206245
0.0123742
0.00412561
0.0783628
0.0701152
0.0618673
0.0536192
0.0453708
0.0371221
0.0288731
0.0206242
0.0123739
0.0041252
0.0783621
0.0701146
0.0618667
0.0536186
0.0453703
0.0371217
0.0288728
0.0206239
0.0123737
0.00412442
0.0783614
0.0701138
0.0618661
0.053618
0.0453697
0.0371212
0.0288723
0.0206235
0.0123736
0.00412333
0.0783606
0.0701131
0.0618654
0.0536174
0.0453691
0.0371206
0.0288719
0.0206231
0.0123735
0.00412216
0.0783599
0.0701125
0.0618647
0.0536168
0.0453686
0.0371202
0.0288715
0.0206228
0.0123734
0.00412121
0.0783594
0.070112
0.0618643
0.0536163
0.0453682
0.0371198
0.0288712
0.0206225
0.0123734
0.00412072
0.0783592
0.0701117
0.0618641
0.0536161
0.045368
0.0371196
0.0288711
0.0206225
0.0123733
0.00412086
0.0783592
0.0701118
0.0618641
0.0536162
0.045368
0.0371197
0.0288711
0.0206225
0.0123732
0.00412159
0.0783595
0.0701121
0.0618644
0.0536164
0.0453682
0.0371199
0.0288713
0.0206227
0.0123731
0.00412274
0.07836
0.0701125
0.0618648
0.0536168
0.0453686
0.0371202
0.0288715
0.0206229
0.0123731
0.00412402
0.0783605
0.070113
0.0618652
0.0536172
0.045369
0.0371206
0.0288718
0.0206232
0.0123732
0.00412513
0.0783611
0.0701135
0.0618657
0.0536177
0.0453694
0.0371209
0.0288722
0.0206236
0.0123735
0.00412583
0.0783616
0.070114
0.0618662
0.0536181
0.0453698
0.0371213
0.0288725
0.0206238
0.0123738
0.00412611
0.0783621
0.0701145
0.0618667
0.0536186
0.0453702
0.0371217
0.0288728
0.0206242
0.0123742
0.00412597
0.0783628
0.0701152
0.0618673
0.0536192
0.0453708
0.0371222
0.0288733
0.0206245
0.0123749
0.0041257
0.0783635
0.0701159
0.061868
0.0536199
0.0453715
0.0371229
0.028874
0.0206249
0.0123755
0.00412586
)
;

boundaryField
{
    inlet
    {
        type            zeroGradient;
    }
    outlet
    {
        type            fixedValue;
        value           uniform 0;
    }
    upperWall
    {
        type            zeroGradient;
    }
    lowerWall
    {
        type            zeroGradient;
    }
    frontAndBack
    {
        type            empty;
    }
}


// ************************************************************************* //
