/*--------------------------------*- C++ -*----------------------------------*\
| =========                 |                                                 |
| \\      /  F ield         | OpenFOAM: The Open Source CFD Toolbox           |
|  \\    /   O peration     | Version:  2406                                  |
|   \\  /    A nd           | Website:  www.openfoam.com                      |
|    \\/     M anipulation  |                                                 |
\*---------------------------------------------------------------------------*/
FoamFile
{
    version     2.0;
    format      ascii;
    arch        "LSB;label=32;scalar=64";
    class       volVectorField;
    location    "82";
    object      U;
}
// * * * * * * * * * * * * * * * * * * * * * * * * * * * * * * * * * * * * * //

dimensions      [0 1 -1 0 0 0 0];

internalField   nonuniform List<vector> 
2000
(
(0.195111 -0.00118845 0)
(0.198341 -0.00113349 0)
(0.200529 -0.000599518 0)
(0.201745 -0.000331073 0)
(0.202574 -0.000219318 0)
(0.203213 -0.000145052 0)
(0.203689 -9.26151e-05 0)
(0.20404 -6.26917e-05 0)
(0.204308 -4.66983e-05 0)
(0.204522 -3.67014e-05 0)
(0.552615 -0.001879 0)
(0.553396 -0.00291417 0)
(0.554538 -0.00236709 0)
(0.555188 -0.00171384 0)
(0.555834 -0.00128679 0)
(0.556548 -0.000982296 0)
(0.557204 -0.000744593 0)
(0.557755 -0.000570959 0)
(0.558218 -0.000451112 0)
(0.558615 -0.000366514 0)
(0.873132 -0.00102321 0)
(0.873421 -0.00203672 0)
(0.873717 -0.00211404 0)
(0.873473 -0.00190013 0)
(0.87339 -0.00168605 0)
(0.873602 -0.00147348 0)
(0.873925 -0.00125433 0)
(0.874253 -0.00105473 0)
(0.874573 -0.00089026 0)
(0.874881 -0.000757857 0)
(1.1535 -0.00054342 0)
(1.15385 -0.00131573 0)
(1.15411 -0.00160107 0)
(1.15366 -0.00161898 0)
(1.15322 -0.00156767 0)
(1.15306 -0.00148144 0)
(1.15304 -0.00135814 0)
(1.15307 -0.00121914 0)
(1.15313 -0.00108635 0)
(1.15321 -0.000967072 0)
(1.39371 -0.000334589 0)
(1.39411 -0.000890927 0)
(1.39447 -0.00118255 0)
(1.39409 -0.00127465 0)
(1.39361 -0.00129115 0)
(1.39332 -0.00127155 0)
(1.39316 -0.0012155 0)
(1.39302 -0.00113467 0)
(1.3929 -0.00104672 0)
(1.39282 -0.000960982 0)
(1.59385 -0.000219999 0)
(1.59425 -0.00061088 0)
(1.59468 -0.000855308 0)
(1.5944 -0.000965166 0)
(1.59395 -0.00100954 0)
(1.59365 -0.00102013 0)
(1.59345 -0.000999467 0)
(1.59326 -0.000954534 0)
(1.59307 -0.000898343 0)
(1.59292 -0.000839571 0)
(1.75394 -0.000146514 0)
(1.75434 -0.000416078 0)
(1.7548 -0.000603458 0)
(1.75458 -0.000704319 0)
(1.75418 -0.000754586 0)
(1.75389 -0.000775864 0)
(1.75369 -0.000771949 0)
(1.75348 -0.000747659 0)
(1.75328 -0.000712091 0)
(1.75309 -0.000672257 0)
(1.87399 -9.4236e-05 0)
(1.87438 -0.000271009 0)
(1.87486 -0.000401709 0)
(1.87469 -0.00047955 0)
(1.87432 -0.000522566 0)
(1.87405 -0.00054386 0)
(1.87385 -0.000546746 0)
(1.87364 -0.000534507 0)
(1.87343 -0.000513068 0)
(1.87323 -0.000487408 0)
(1.95403 -5.30089e-05 0)
(1.95441 -0.000153439 0)
(1.95489 -0.00023026 0)
(1.95475 -0.000278655 0)
(1.9544 -0.000306984 0)
(1.95414 -0.000322069 0)
(1.95394 -0.000325952 0)
(1.95374 -0.000320544 0)
(1.95353 -0.000309192 0)
(1.95332 -0.00029485 0)
(1.99404 -1.71324e-05 0)
(1.99442 -4.97276e-05 0)
(1.99491 -7.50368e-05 0)
(1.99478 -9.13937e-05 0)
(1.99444 -0.000101232 0)
(1.99418 -0.000106637 0)
(1.99399 -0.000108277 0)
(1.99379 -0.000106781 0)
(1.99357 -0.000103238 0)
(1.99337 -9.86299e-05 0)
(1.99404 1.71375e-05 0)
(1.99442 4.97388e-05 0)
(1.99491 7.50616e-05 0)
(1.99478 9.14342e-05 0)
(1.99444 0.000101276 0)
(1.99418 0.000106674 0)
(1.99399 0.000108307 0)
(1.99379 0.000106816 0)
(1.99357 0.00010329 0)
(1.99337 9.86863e-05 0)
(1.95403 5.30142e-05 0)
(1.95441 0.000153451 0)
(1.95489 0.000230283 0)
(1.95475 0.000278693 0)
(1.9544 0.000307028 0)
(1.95414 0.000322105 0)
(1.95394 0.000325978 0)
(1.95374 0.000320575 0)
(1.95353 0.000309239 0)
(1.95332 0.000294902 0)
(1.87399 9.4243e-05 0)
(1.87438 0.000271023 0)
(1.87486 0.000401737 0)
(1.87469 0.000479587 0)
(1.87432 0.000522603 0)
(1.87405 0.000543896 0)
(1.87385 0.000546781 0)
(1.87364 0.000534543 0)
(1.87343 0.000513108 0)
(1.87323 0.000487447 0)
(1.75394 0.00014652 0)
(1.75434 0.00041609 0)
(1.7548 0.000603477 0)
(1.75458 0.000704346 0)
(1.75418 0.000754622 0)
(1.75389 0.000775905 0)
(1.75369 0.00077199 0)
(1.75348 0.000747697 0)
(1.75328 0.000712126 0)
(1.75309 0.000672286 0)
(1.59385 0.000220007 0)
(1.59425 0.000610893 0)
(1.59468 0.000855332 0)
(1.5944 0.00096519 0)
(1.59395 0.00100957 0)
(1.59365 0.00102018 0)
(1.59345 0.000999513 0)
(1.59326 0.00095457 0)
(1.59307 0.000898364 0)
(1.59292 0.000839584 0)
(1.39371 0.000334594 0)
(1.39411 0.000890939 0)
(1.39447 0.00118256 0)
(1.39409 0.00127468 0)
(1.39361 0.00129119 0)
(1.39332 0.0012716 0)
(1.39316 0.00121555 0)
(1.39302 0.0011347 0)
(1.3929 0.00104674 0)
(1.39282 0.000960995 0)
(1.1535 0.000543427 0)
(1.15385 0.00131574 0)
(1.15411 0.00160108 0)
(1.15366 0.001619 0)
(1.15322 0.0015677 0)
(1.15306 0.00148148 0)
(1.15304 0.00135818 0)
(1.15307 0.00121917 0)
(1.15313 0.00108637 0)
(1.15321 0.000967086 0)
(0.873132 0.00102322 0)
(0.873421 0.00203673 0)
(0.873717 0.00211406 0)
(0.873473 0.00190016 0)
(0.87339 0.00168608 0)
(0.873602 0.00147352 0)
(0.873925 0.00125438 0)
(0.874253 0.00105477 0)
(0.874573 0.000890276 0)
(0.874881 0.000757871 0)
(0.552615 0.00187901 0)
(0.553396 0.00291418 0)
(0.554538 0.0023671 0)
(0.555188 0.00171386 0)
(0.555834 0.00128681 0)
(0.556548 0.000982334 0)
(0.557203 0.000744639 0)
(0.557755 0.000570996 0)
(0.558218 0.000451129 0)
(0.558615 0.000366529 0)
(0.195111 0.00118846 0)
(0.198341 0.0011335 0)
(0.200529 0.000599522 0)
(0.201745 0.000331076 0)
(0.202574 0.000219332 0)
(0.203213 0.000145078 0)
(0.203689 9.2632e-05 0)
(0.20404 6.2691e-05 0)
(0.204308 4.66978e-05 0)
(0.204522 3.67157e-05 0)
(0.204697 -2.95247e-05 0)
(0.204844 -2.42842e-05 0)
(0.204967 -2.04523e-05 0)
(0.205073 -1.75618e-05 0)
(0.205165 -1.52968e-05 0)
(0.205246 -1.34655e-05 0)
(0.205318 -1.19467e-05 0)
(0.205382 -1.06708e-05 0)
(0.205439 -9.6031e-06 0)
(0.205491 -8.72016e-06 0)
(0.205538 -7.99111e-06 0)
(0.205582 -7.37466e-06 0)
(0.205622 -6.83256e-06 0)
(0.205659 -6.33861e-06 0)
(0.205693 -5.88261e-06 0)
(0.205725 -5.46616e-06 0)
(0.205755 -5.09406e-06 0)
(0.205782 -4.76882e-06 0)
(0.205808 -4.4874e-06 0)
(0.205833 -4.2417e-06 0)
(0.205856 -4.02202e-06 0)
(0.205878 -3.81896e-06 0)
(0.205899 -3.62642e-06 0)
(0.205918 -3.44141e-06 0)
(0.205937 -3.26402e-06 0)
(0.205955 -3.09585e-06 0)
(0.205972 -2.939e-06 0)
(0.205988 -2.79481e-06 0)
(0.206003 -2.66368e-06 0)
(0.206018 -2.54465e-06 0)
(0.206032 -2.43617e-06 0)
(0.206045 -2.336e-06 0)
(0.206058 -2.24224e-06 0)
(0.20607 -2.15309e-06 0)
(0.206082 -2.06756e-06 0)
(0.558956 -0.000303574 0)
(0.55925 -0.000255327 0)
(0.559505 -0.000217926 0)
(0.559729 -0.000188553 0)
(0.559926 -0.000165009 0)
(0.560101 -0.000145718 0)
(0.560258 -0.000129648 0)
(0.5604 -0.000116142 0)
(0.560528 -0.000104759 0)
(0.560644 -9.51426e-05 0)
(0.56075 -8.69696e-05 0)
(0.560848 -7.99448e-05 0)
(0.560938 -7.38175e-05 0)
(0.561022 -6.83982e-05 0)
(0.5611 -6.35574e-05 0)
(0.561173 -5.9212e-05 0)
(0.561241 -5.53102e-05 0)
(0.561305 -5.18118e-05 0)
(0.561365 -4.86785e-05 0)
(0.561421 -4.58683e-05 0)
(0.561474 -4.33349e-05 0)
(0.561525 -4.10327e-05 0)
(0.561573 -3.89198e-05 0)
(0.561618 -3.69623e-05 0)
(0.561661 -3.51358e-05 0)
(0.561703 -3.34247e-05 0)
(0.561742 -3.18208e-05 0)
(0.561779 -3.03196e-05 0)
(0.561815 -2.89188e-05 0)
(0.561849 -2.7615e-05 0)
(0.561882 -2.64032e-05 0)
(0.561913 -2.52762e-05 0)
(0.561943 -2.42254e-05 0)
(0.561972 -2.32414e-05 0)
(0.561999 -2.23152e-05 0)
(0.875171 -0.000649839 0)
(0.875439 -0.000561084 0)
(0.875683 -0.000488375 0)
(0.875905 -0.000428823 0)
(0.876108 -0.000379621 0)
(0.876294 -0.000338393 0)
(0.876463 -0.000303421 0)
(0.876619 -0.000273565 0)
(0.876763 -0.000248045 0)
(0.876895 -0.000226221 0)
(0.877017 -0.000207483 0)
(0.877131 -0.000191253 0)
(0.877237 -0.000177027 0)
(0.877336 -0.000164406 0)
(0.877429 -0.000153109 0)
(0.877516 -0.000142947 0)
(0.877598 -0.000133794 0)
(0.877675 -0.000125552 0)
(0.877748 -0.000118131 0)
(0.877817 -0.00011144 0)
(0.877883 -0.000105383 0)
(0.877945 -9.98643e-05 0)
(0.878005 -9.47984e-05 0)
(0.878061 -9.01116e-05 0)
(0.878115 -8.57478e-05 0)
(0.878166 -8.16675e-05 0)
(0.878216 -7.78451e-05 0)
(0.878263 -7.42644e-05 0)
(0.878308 -7.09141e-05 0)
(0.878351 -6.77839e-05 0)
(0.878392 -6.48618e-05 0)
(0.878432 -6.21328e-05 0)
(0.87847 -5.95799e-05 0)
(0.878507 -5.71846e-05 0)
(0.878542 -5.49287e-05 0)
(1.15332 -0.00086082 0)
(1.15344 -0.000766796 0)
(1.15356 -0.000684862 0)
(1.15369 -0.000614333 0)
(1.15381 -0.000553689 0)
(1.15392 -0.000501145 0)
(1.15403 -0.000455242 0)
(1.15414 -0.000415028 0)
(1.15424 -0.000379894 0)
(1.15434 -0.000349309 0)
(1.15443 -0.000322675 0)
(1.15452 -0.000299328 0)
(1.1546 -0.000278637 0)
(1.15468 -0.000260089 0)
(1.15475 -0.000243324 0)
(1.15483 -0.000228114 0)
(1.15489 -0.000214312 0)
(1.15496 -0.000201805 0)
(1.15502 -0.000190479 0)
(1.15508 -0.00018021 0)
(1.15514 -0.000170862 0)
(1.1552 -0.0001623 0)
(1.15525 -0.000154401 0)
(1.1553 -0.000147065 0)
(1.15535 -0.000140214 0)
(1.15539 -0.000133793 0)
(1.15544 -0.000127768 0)
(1.15548 -0.000122113 0)
(1.15552 -0.000116809 0)
(1.15556 -0.000111839 0)
(1.1556 -0.000107182 0)
(1.15564 -0.000102814 0)
(1.15568 -9.87115e-05 0)
(1.15571 -9.48477e-05 0)
(1.15574 -9.11976e-05 0)
(1.39277 -0.000879623 0)
(1.39275 -0.000803528 0)
(1.39273 -0.000733992 0)
(1.39273 -0.000671774 0)
(1.39274 -0.000616529 0)
(1.39276 -0.00056724 0)
(1.39278 -0.000522935 0)
(1.39281 -0.000483054 0)
(1.39284 -0.000447373 0)
(1.39287 -0.000415708 0)
(1.3929 -0.000387708 0)
(1.39293 -0.000362839 0)
(1.39297 -0.000340509 0)
(1.393 -0.000320212 0)
(1.39304 -0.0003016 0)
(1.39307 -0.000284479 0)
(1.3931 -0.000268757 0)
(1.39314 -0.00025437 0)
(1.39317 -0.000241239 0)
(1.3932 -0.000229253 0)
(1.39323 -0.000218271 0)
(1.39327 -0.000208143 0)
(1.3933 -0.00019873 0)
(1.39333 -0.00018992 0)
(1.39336 -0.000181632 0)
(1.39338 -0.000173814 0)
(1.39341 -0.000166437 0)
(1.39344 -0.000159482 0)
(1.39347 -0.000152935 0)
(1.39349 -0.000146777 0)
(1.39352 -0.000140985 0)
(1.39354 -0.000135531 0)
(1.39357 -0.000130385 0)
(1.39359 -0.000125514 0)
(1.39361 -0.000120891 0)
(1.59278 -0.00078124 0)
(1.59267 -0.0007247 0)
(1.59257 -0.000671527 0)
(1.59249 -0.000622942 0)
(1.59242 -0.000579131 0)
(1.59235 -0.000539474 0)
(1.5923 -0.000503233 0)
(1.59226 -0.000470023 0)
(1.59222 -0.000439814 0)
(1.59219 -0.000412657 0)
(1.59216 -0.000388422 0)
(1.59214 -0.000366735 0)
(1.59212 -0.000347093 0)
(1.5921 -0.000329032 0)
(1.59209 -0.000312236 0)
(1.59208 -0.00029656 0)
(1.59207 -0.00028197 0)
(1.59206 -0.000268472 0)
(1.59206 -0.00025605 0)
(1.59206 -0.000244635 0)
(1.59205 -0.000234111 0)
(1.59205 -0.000224337 0)
(1.59205 -0.000215179 0)
(1.59206 -0.000206526 0)
(1.59206 -0.000198305 0)
(1.59206 -0.000190477 0)
(1.59206 -0.000183026 0)
(1.59207 -0.000175953 0)
(1.59207 -0.000169254 0)
(1.59208 -0.000162922 0)
(1.59208 -0.00015694 0)
(1.59208 -0.000151282 0)
(1.59209 -0.000145918 0)
(1.59209 -0.000140813 0)
(1.5921 -0.000135938 0)
(1.75292 -0.000631175 0)
(1.75277 -0.000590295 0)
(1.75263 -0.000551128 0)
(1.75251 -0.000514951 0)
(1.75239 -0.000482179 0)
(1.75228 -0.000452431 0)
(1.75219 -0.000425112 0)
(1.7521 -0.000399889 0)
(1.75202 -0.000376776 0)
(1.75194 -0.000355909 0)
(1.75187 -0.000337277 0)
(1.75181 -0.000320627 0)
(1.75175 -0.000305544 0)
(1.75169 -0.000291612 0)
(1.75164 -0.000278542 0)
(1.7516 -0.000266205 0)
(1.75155 -0.000254601 0)
(1.75151 -0.000243773 0)
(1.75147 -0.000233749 0)
(1.75144 -0.000224498 0)
(1.75141 -0.000215937 0)
(1.75138 -0.000207947 0)
(1.75135 -0.000200407 0)
(1.75132 -0.000193219 0)
(1.7513 -0.000186321 0)
(1.75127 -0.000179683 0)
(1.75125 -0.000173305 0)
(1.75123 -0.000167198 0)
(1.75121 -0.000161374 0)
(1.75119 -0.000155837 0)
(1.75117 -0.000150579 0)
(1.75116 -0.000145583 0)
(1.75114 -0.000140822 0)
(1.75113 -0.000136267 0)
(1.75111 -0.000131891 0)
(1.87305 -0.000459982 0)
(1.87288 -0.000432066 0)
(1.87272 -0.000404913 0)
(1.87258 -0.000379629 0)
(1.87244 -0.000356672 0)
(1.87231 -0.000335847 0)
(1.8722 -0.00031672 0)
(1.87208 -0.000299026 0)
(1.87198 -0.000282776 0)
(1.87188 -0.00026811 0)
(1.87179 -0.000255069 0)
(1.8717 -0.000243495 0)
(1.87162 -0.000233077 0)
(1.87154 -0.000223479 0)
(1.87147 -0.000214454 0)
(1.8714 -0.000205888 0)
(1.87133 -0.000197782 0)
(1.87126 -0.000190185 0)
(1.8712 -0.000183135 0)
(1.87115 -0.000176626 0)
(1.87109 -0.0001706 0)
(1.87104 -0.000164968 0)
(1.87099 -0.000159632 0)
(1.87094 -0.000154512 0)
(1.87089 -0.000149557 0)
(1.87085 -0.000144746 0)
(1.87081 -0.000140084 0)
(1.87077 -0.000135584 0)
(1.87073 -0.000131265 0)
(1.87069 -0.000127135 0)
(1.87065 -0.000123195 0)
(1.87062 -0.000119434 0)
(1.87059 -0.000115833 0)
(1.87055 -0.000112371 0)
(1.87052 -0.000109027 0)
(1.95313 -0.000279096 0)
(1.95296 -0.000262787 0)
(1.95279 -0.000246741 0)
(1.95264 -0.000231694 0)
(1.95249 -0.000217995 0)
(1.95235 -0.000205571 0)
(1.95222 -0.00019417 0)
(1.9521 -0.000183618 0)
(1.95199 -0.00017392 0)
(1.95188 -0.000165171 0)
(1.95177 -0.00015742 0)
(1.95168 -0.000150585 0)
(1.95158 -0.000144478 0)
(1.95149 -0.000138884 0)
(1.95141 -0.000133634 0)
(1.95132 -0.000128647 0)
(1.95124 -0.000123918 0)
(1.95117 -0.000119478 0)
(1.95109 -0.000115359 0)
(1.95102 -0.000111563 0)
(1.95095 -0.000108055 0)
(1.95089 -0.00010478 0)
(1.95083 -0.000101673 0)
(1.95076 -9.86818e-05 0)
(1.95071 -9.57721e-05 0)
(1.95065 -9.29305e-05 0)
(1.95059 -9.01595e-05 0)
(1.95054 -8.74704e-05 0)
(1.95049 -8.48756e-05 0)
(1.95044 -8.2384e-05 0)
(1.95039 -7.99972e-05 0)
(1.95034 -7.77102e-05 0)
(1.9503 -7.55125e-05 0)
(1.95025 -7.33907e-05 0)
(1.95021 -7.13314e-05 0)
(1.99317 -9.35013e-05 0)
(1.99299 -8.81485e-05 0)
(1.99283 -8.2843e-05 0)
(1.99267 -7.78344e-05 0)
(1.99252 -7.32572e-05 0)
(1.99237 -6.91071e-05 0)
(1.99224 -6.53097e-05 0)
(1.99211 -6.18044e-05 0)
(1.992 -5.85828e-05 0)
(1.99188 -5.56705e-05 0)
(1.99177 -5.30852e-05 0)
(1.99167 -5.08067e-05 0)
(1.99157 -4.87785e-05 0)
(1.99148 -4.69306e-05 0)
(1.99139 -4.52052e-05 0)
(1.9913 -4.35709e-05 0)
(1.99122 -4.20219e-05 0)
(1.99113 -4.05668e-05 0)
(1.99106 -3.9215e-05 0)
(1.99098 -3.79675e-05 0)
(1.99091 -3.68141e-05 0)
(1.99083 -3.57364e-05 0)
(1.99077 -3.47136e-05 0)
(1.9907 -3.37279e-05 0)
(1.99063 -3.27677e-05 0)
(1.99057 -3.1828e-05 0)
(1.99051 -3.09095e-05 0)
(1.99045 -3.00153e-05 0)
(1.99039 -2.91494e-05 0)
(1.99033 -2.83144e-05 0)
(1.99028 -2.7511e-05 0)
(1.99023 -2.67373e-05 0)
(1.99017 -2.599e-05 0)
(1.99012 -2.5265e-05 0)
(1.99007 -2.45577e-05 0)
(1.99317 9.35321e-05 0)
(1.99299 8.8137e-05 0)
(1.99283 8.28115e-05 0)
(1.99267 7.78283e-05 0)
(1.99252 7.33032e-05 0)
(1.99237 6.91905e-05 0)
(1.99224 6.53901e-05 0)
(1.99211 6.18504e-05 0)
(1.992 5.85937e-05 0)
(1.99188 5.56722e-05 0)
(1.99177 5.31092e-05 0)
(1.99167 5.08721e-05 0)
(1.99157 4.88851e-05 0)
(1.99148 4.70642e-05 0)
(1.99139 4.53478e-05 0)
(1.9913 4.37096e-05 0)
(1.99122 4.21531e-05 0)
(1.99113 4.06954e-05 0)
(1.99106 3.93507e-05 0)
(1.99098 3.8121e-05 0)
(1.99091 3.69934e-05 0)
(1.99083 3.59463e-05 0)
(1.99077 3.4955e-05 0)
(1.9907 3.39993e-05 0)
(1.99063 3.30662e-05 0)
(1.99057 3.21512e-05 0)
(1.99051 3.12559e-05 0)
(1.99045 3.03855e-05 0)
(1.99039 2.95458e-05 0)
(1.99033 2.87411e-05 0)
(1.99028 2.79732e-05 0)
(1.99023 2.72408e-05 0)
(1.99017 2.65405e-05 0)
(1.99012 2.58675e-05 0)
(1.99007 2.52166e-05 0)
(1.95313 0.000279127 0)
(1.95296 0.000262784 0)
(1.95279 0.000246723 0)
(1.95264 0.000231697 0)
(1.95249 0.000218039 0)
(1.95235 0.000205642 0)
(1.95222 0.000194234 0)
(1.9521 0.000183654 0)
(1.95199 0.000173932 0)
(1.95188 0.000165183 0)
(1.95177 0.000157456 0)
(1.95168 0.000150656 0)
(1.95158 0.000144582 0)
(1.95149 0.000139007 0)
(1.95141 0.000133763 0)
(1.95132 0.000128775 0)
(1.95124 0.000124044 0)
(1.95117 0.000119608 0)
(1.95109 0.000115501 0)
(1.95102 0.000111722 0)
(1.95095 0.000108237 0)
(1.95089 0.000104987 0)
(1.95083 0.000101906 0)
(1.95076 9.894e-05 0)
(1.95071 9.60548e-05 0)
(1.95065 9.32372e-05 0)
(1.95059 9.04905e-05 0)
(1.95054 8.78269e-05 0)
(1.95049 8.52604e-05 0)
(1.95044 8.28001e-05 0)
(1.95039 8.04488e-05 0)
(1.95034 7.82014e-05 0)
(1.9503 7.60478e-05 0)
(1.95025 7.39741e-05 0)
(1.95021 7.19667e-05 0)
(1.87305 0.000460007 0)
(1.87288 0.00043207 0)
(1.87272 0.000404912 0)
(1.87258 0.000379643 0)
(1.87244 0.000356709 0)
(1.87231 0.000335895 0)
(1.8722 0.00031676 0)
(1.87208 0.000299052 0)
(1.87198 0.000282799 0)
(1.87188 0.000268144 0)
(1.87179 0.000255125 0)
(1.8717 0.000243573 0)
(1.87162 0.000233169 0)
(1.87154 0.00022358 0)
(1.87147 0.000214559 0)
(1.8714 0.000206 0)
(1.87133 0.000197903 0)
(1.87127 0.000190319 0)
(1.8712 0.000183284 0)
(1.87115 0.000176792 0)
(1.87109 0.000170783 0)
(1.87104 0.000165167 0)
(1.87099 0.000159848 0)
(1.87094 0.000154746 0)
(1.87089 0.000149811 0)
(1.87085 0.000145024 0)
(1.87081 0.000140387 0)
(1.87077 0.000135916 0)
(1.87073 0.000131626 0)
(1.87069 0.000127529 0)
(1.87065 0.000123623 0)
(1.87062 0.000119898 0)
(1.87059 0.000116336 0)
(1.87055 0.000112915 0)
(1.87052 0.000109615 0)
(1.75292 0.000631196 0)
(1.75277 0.000590309 0)
(1.75263 0.000551145 0)
(1.75251 0.000514977 0)
(1.75239 0.000482206 0)
(1.75228 0.000452451 0)
(1.75219 0.000425126 0)
(1.7521 0.000399909 0)
(1.75202 0.000376816 0)
(1.75194 0.00035597 0)
(1.75187 0.000337351 0)
(1.75181 0.000320703 0)
(1.75175 0.000305615 0)
(1.75169 0.000291681 0)
(1.75164 0.000278617 0)
(1.7516 0.000266297 0)
(1.75155 0.000254715 0)
(1.75151 0.000243911 0)
(1.75147 0.000233905 0)
(1.75144 0.000224668 0)
(1.75141 0.000216114 0)
(1.75138 0.00020813 0)
(1.75135 0.000200597 0)
(1.75132 0.000193421 0)
(1.7513 0.000186539 0)
(1.75127 0.000179924 0)
(1.75125 0.000173572 0)
(1.75123 0.000167495 0)
(1.75121 0.000161701 0)
(1.75119 0.000156195 0)
(1.75117 0.000150969 0)
(1.75116 0.000146003 0)
(1.75114 0.000141273 0)
(1.75113 0.000136751 0)
(1.75111 0.00013241 0)
(1.59278 0.000781257 0)
(1.59267 0.00072473 0)
(1.59257 0.000671567 0)
(1.59249 0.000622976 0)
(1.59242 0.000579142 0)
(1.59235 0.000539465 0)
(1.5923 0.000503229 0)
(1.59226 0.000470047 0)
(1.59222 0.000439873 0)
(1.59219 0.000412737 0)
(1.59216 0.000388501 0)
(1.59214 0.000366796 0)
(1.59212 0.000347137 0)
(1.5921 0.000329073 0)
(1.59209 0.00031229 0)
(1.59208 0.000296639 0)
(1.59207 0.000282079 0)
(1.59206 0.000268607 0)
(1.59206 0.000256202 0)
(1.59206 0.000244793 0)
(1.59205 0.00023427 0)
(1.59205 0.000224495 0)
(1.59205 0.000215338 0)
(1.59206 0.000206692 0)
(1.59206 0.000198486 0)
(1.59206 0.000190678 0)
(1.59206 0.000183253 0)
(1.59207 0.000176206 0)
(1.59207 0.000169535 0)
(1.59208 0.00016323 0)
(1.59208 0.000157273 0)
(1.59209 0.00015164 0)
(1.59209 0.000146298 0)
(1.5921 0.000141218 0)
(1.5921 0.000136369 0)
(1.39277 0.000879651 0)
(1.39275 0.000803578 0)
(1.39273 0.000734047 0)
(1.39273 0.000671802 0)
(1.39274 0.000616516 0)
(1.39276 0.000567209 0)
(1.39278 0.000522924 0)
(1.39281 0.000483089 0)
(1.39284 0.000447445 0)
(1.39287 0.000415789 0)
(1.3929 0.000387771 0)
(1.39293 0.000362874 0)
(1.39297 0.000340528 0)
(1.393 0.000320233 0)
(1.39304 0.000301642 0)
(1.39307 0.000284551 0)
(1.3931 0.000268857 0)
(1.39314 0.000254488 0)
(1.39317 0.000241367 0)
(1.3932 0.000229382 0)
(1.39324 0.000218397 0)
(1.39327 0.000208266 0)
(1.3933 0.000198855 0)
(1.39333 0.000190051 0)
(1.39336 0.000181776 0)
(1.39339 0.000173975 0)
(1.39341 0.000166618 0)
(1.39344 0.000159684 0)
(1.39347 0.000153158 0)
(1.39349 0.000147019 0)
(1.39352 0.000141246 0)
(1.39354 0.000135809 0)
(1.39357 0.00013068 0)
(1.39359 0.000125825 0)
(1.39361 0.000121219 0)
(1.15332 0.000860861 0)
(1.15344 0.000766864 0)
(1.15356 0.000684921 0)
(1.15369 0.000614346 0)
(1.15381 0.000553656 0)
(1.15392 0.000501107 0)
(1.15403 0.000455241 0)
(1.15414 0.000415074 0)
(1.15424 0.000379963 0)
(1.15434 0.000349371 0)
(1.15443 0.000322709 0)
(1.15452 0.000299338 0)
(1.1546 0.000278639 0)
(1.15468 0.000260103 0)
(1.15475 0.000243361 0)
(1.15483 0.000228175 0)
(1.15489 0.000214389 0)
(1.15496 0.000201891 0)
(1.15502 0.000190568 0)
(1.15508 0.000180299 0)
(1.15514 0.000170949 0)
(1.1552 0.000162388 0)
(1.15525 0.000154493 0)
(1.1553 0.000147163 0)
(1.15535 0.00014032 0)
(1.15539 0.000133911 0)
(1.15544 0.000127897 0)
(1.15548 0.000122255 0)
(1.15552 0.000116964 0)
(1.15556 0.000112007 0)
(1.1556 0.000107361 0)
(1.15564 0.000103005 0)
(1.15568 9.89125e-05 0)
(1.15571 9.50597e-05 0)
(1.15575 9.14199e-05 0)
(0.875171 0.000649881 0)
(0.875439 0.000561149 0)
(0.875683 0.000488422 0)
(0.875905 0.000428822 0)
(0.876108 0.000379584 0)
(0.876294 0.000338363 0)
(0.876463 0.000303426 0)
(0.876619 0.000273602 0)
(0.876763 0.000248088 0)
(0.876895 0.000226248 0)
(0.877017 0.00020749 0)
(0.877131 0.000191251 0)
(0.877237 0.000177028 0)
(0.877336 0.000164419 0)
(0.877429 0.000153136 0)
(0.877516 0.000142984 0)
(0.877598 0.000133837 0)
(0.877675 0.000125598 0)
(0.877749 0.000118179 0)
(0.877818 0.000111491 0)
(0.877883 0.000105436 0)
(0.877946 9.99219e-05 0)
(0.878005 9.48583e-05 0)
(0.878061 9.01743e-05 0)
(0.878115 8.58124e-05 0)
(0.878167 8.17356e-05 0)
(0.878216 7.7917e-05 0)
(0.878263 7.43424e-05 0)
(0.878308 7.09986e-05 0)
(0.878352 6.78763e-05 0)
(0.878393 6.49612e-05 0)
(0.878433 6.22398e-05 0)
(0.878471 5.96928e-05 0)
(0.878508 5.73037e-05 0)
(0.878543 5.50526e-05 0)
(0.558956 0.000303609 0)
(0.55925 0.000255372 0)
(0.559505 0.000217951 0)
(0.559729 0.000188543 0)
(0.559926 0.000164981 0)
(0.560101 0.000145699 0)
(0.560258 0.000129649 0)
(0.5604 0.000116157 0)
(0.560528 0.000104773 0)
(0.560644 9.51476e-05 0)
(0.56075 8.69683e-05 0)
(0.560848 7.99421e-05 0)
(0.560938 7.38185e-05 0)
(0.561022 6.8403e-05 0)
(0.5611 6.35653e-05 0)
(0.561173 5.92219e-05 0)
(0.561241 5.53228e-05 0)
(0.561305 5.18278e-05 0)
(0.561365 4.86997e-05 0)
(0.561421 4.58934e-05 0)
(0.561475 4.33634e-05 0)
(0.561525 4.10613e-05 0)
(0.561573 3.89474e-05 0)
(0.561618 3.69869e-05 0)
(0.561662 3.51586e-05 0)
(0.561703 3.34462e-05 0)
(0.561742 3.18438e-05 0)
(0.56178 3.03452e-05 0)
(0.561815 2.89491e-05 0)
(0.56185 2.76495e-05 0)
(0.561882 2.64424e-05 0)
(0.561914 2.53183e-05 0)
(0.561944 2.42702e-05 0)
(0.561972 2.32869e-05 0)
(0.562 2.23618e-05 0)
(0.204697 2.95437e-05 0)
(0.204844 2.4291e-05 0)
(0.204967 2.04459e-05 0)
(0.205073 1.75536e-05 0)
(0.205165 1.52941e-05 0)
(0.205246 1.34666e-05 0)
(0.205318 1.1947e-05 0)
(0.205382 1.06684e-05 0)
(0.205439 9.60006e-06 0)
(0.205491 8.7194e-06 0)
(0.205538 7.99287e-06 0)
(0.205582 7.37792e-06 0)
(0.205622 6.83487e-06 0)
(0.205659 6.33879e-06 0)
(0.205693 5.88076e-06 0)
(0.205725 5.46363e-06 0)
(0.205755 5.09248e-06 0)
(0.205782 4.76966e-06 0)
(0.205809 4.49073e-06 0)
(0.205833 4.24728e-06 0)
(0.205856 4.02825e-06 0)
(0.205878 3.8248e-06 0)
(0.205899 3.63048e-06 0)
(0.205919 3.44351e-06 0)
(0.205937 3.26404e-06 0)
(0.205955 3.09479e-06 0)
(0.205972 2.93749e-06 0)
(0.205988 2.79406e-06 0)
(0.206003 2.66397e-06 0)
(0.206018 2.54657e-06 0)
(0.206032 2.43918e-06 0)
(0.206046 2.34006e-06 0)
(0.206058 2.24639e-06 0)
(0.206071 2.15719e-06 0)
(0.206082 2.07083e-06 0)
(0.206093 -1.98497e-06 0)
(0.206104 -1.90536e-06 0)
(0.206115 -1.82879e-06 0)
(0.206125 -1.75575e-06 0)
(0.206135 -1.68636e-06 0)
(0.206144 -1.62098e-06 0)
(0.206153 -1.55941e-06 0)
(0.206161 -1.50166e-06 0)
(0.20617 -1.44725e-06 0)
(0.206178 -1.39596e-06 0)
(0.562026 -2.14389e-05 0)
(0.562051 -2.06062e-05 0)
(0.562076 -1.98123e-05 0)
(0.562099 -1.90544e-05 0)
(0.562122 -1.83304e-05 0)
(0.562144 -1.76394e-05 0)
(0.562165 -1.69805e-05 0)
(0.562185 -1.63533e-05 0)
(0.562205 -1.57566e-05 0)
(0.562224 -1.51894e-05 0)
(0.878576 -5.27955e-05 0)
(0.878608 -5.07709e-05 0)
(0.87864 -4.88436e-05 0)
(0.87867 -4.70055e-05 0)
(0.878699 -4.52505e-05 0)
(0.878727 -4.35748e-05 0)
(0.878755 -4.19751e-05 0)
(0.878781 -4.0449e-05 0)
(0.878806 -3.8994e-05 0)
(0.87883 -3.76073e-05 0)
(1.15578 -8.77388e-05 0)
(1.15581 -8.44516e-05 0)
(1.15584 -8.13203e-05 0)
(1.15587 -7.83321e-05 0)
(1.15589 -7.54777e-05 0)
(1.15592 -7.27495e-05 0)
(1.15595 -7.01419e-05 0)
(1.15597 -6.76497e-05 0)
(1.156 -6.52685e-05 0)
(1.15602 -6.29935e-05 0)
(1.39363 -0.000116489 0)
(1.39366 -0.000112289 0)
(1.39368 -0.000108275 0)
(1.3937 -0.000104433 0)
(1.39372 -0.000100756 0)
(1.39374 -9.72343e-05 0)
(1.39375 -9.38624e-05 0)
(1.39377 -9.0634e-05 0)
(1.39379 -8.75428e-05 0)
(1.39381 -8.45826e-05 0)
(1.59211 -0.00013127 0)
(1.59211 -0.000126788 0)
(1.59212 -0.000122481 0)
(1.59212 -0.000118339 0)
(1.59213 -0.000114357 0)
(1.59213 -0.000110531 0)
(1.59214 -0.000106857 0)
(1.59215 -0.000103331 0)
(1.59215 -9.99465e-05 0)
(1.59216 -9.6697e-05 0)
(1.7511 -0.000127671 0)
(1.75109 -0.000123593 0)
(1.75108 -0.000119646 0)
(1.75106 -0.000115827 0)
(1.75105 -0.000112134 0)
(1.75104 -0.00010857 0)
(1.75103 -0.000105133 0)
(1.75103 -0.000101823 0)
(1.75102 -9.86367e-05 0)
(1.75101 -9.5569e-05 0)
(1.87049 -0.000105782 0)
(1.87047 -0.000102624 0)
(1.87044 -9.95467e-05 0)
(1.87041 -9.65494e-05 0)
(1.87039 -9.36339e-05 0)
(1.87036 -9.0804e-05 0)
(1.87034 -8.80632e-05 0)
(1.87031 -8.54133e-05 0)
(1.87029 -8.2854e-05 0)
(1.87027 -8.03826e-05 0)
(1.95017 -6.93231e-05 0)
(1.95013 -6.7358e-05 0)
(1.95009 -6.54323e-05 0)
(1.95005 -6.35457e-05 0)
(1.95001 -6.17008e-05 0)
(1.94998 -5.99012e-05 0)
(1.94994 -5.81507e-05 0)
(1.94991 -5.6452e-05 0)
(1.94988 -5.48061e-05 0)
(1.94984 -5.32119e-05 0)
(1.99003 -2.38647e-05 0)
(1.98998 -2.31835e-05 0)
(1.98994 -2.25129e-05 0)
(1.98989 -2.18531e-05 0)
(1.98985 -2.1205e-05 0)
(1.98981 -2.05701e-05 0)
(1.98977 -1.99498e-05 0)
(1.98973 -1.93451e-05 0)
(1.98969 -1.87565e-05 0)
(1.98965 -1.81836e-05 0)
(1.99003 2.45835e-05 0)
(1.98998 2.39647e-05 0)
(1.98994 2.33587e-05 0)
(1.98989 2.27652e-05 0)
(1.98985 2.21852e-05 0)
(1.98981 2.16203e-05 0)
(1.98977 2.10723e-05 0)
(1.98973 2.05427e-05 0)
(1.98969 2.00324e-05 0)
(1.98965 1.95415e-05 0)
(1.95017 7.00137e-05 0)
(1.95013 6.81069e-05 0)
(1.95009 6.62419e-05 0)
(1.95005 6.44185e-05 0)
(1.95001 6.26388e-05 0)
(1.94998 6.09069e-05 0)
(1.94994 5.92263e-05 0)
(1.94991 5.76005e-05 0)
(1.94988 5.60303e-05 0)
(1.94985 5.45154e-05 0)
(1.87049 0.000106417 0)
(1.87047 0.00010331 0)
(1.87044 0.000100287 0)
(1.87041 9.73467e-05 0)
(1.87039 9.4491e-05 0)
(1.87036 9.17238e-05 0)
(1.87034 8.90481e-05 0)
(1.87031 8.64663e-05 0)
(1.87029 8.39778e-05 0)
(1.87027 8.15801e-05 0)
(1.7511 0.000128228 0)
(1.75109 0.00012419 0)
(1.75108 0.000120289 0)
(1.75107 0.000116518 0)
(1.75106 0.000112878 0)
(1.75105 0.000109368 0)
(1.75104 0.000105989 0)
(1.75103 0.00010274 0)
(1.75102 9.9617e-05 0)
(1.75101 9.66141e-05 0)
(1.59211 0.000131728 0)
(1.59211 0.000127277 0)
(1.59212 0.000123005 0)
(1.59212 0.000118901 0)
(1.59213 0.000114962 0)
(1.59214 0.000111182 0)
(1.59214 0.000107556 0)
(1.59215 0.000104081 0)
(1.59215 0.000100749 0)
(1.59216 9.75533e-05 0)
(1.39363 0.000116836 0)
(1.39366 0.000112658 0)
(1.39368 0.000108668 0)
(1.3937 0.000104855 0)
(1.39372 0.000101209 0)
(1.39374 9.77223e-05 0)
(1.39376 9.43865e-05 0)
(1.39377 9.11974e-05 0)
(1.39379 8.81452e-05 0)
(1.39381 8.52261e-05 0)
(1.15578 8.79734e-05 0)
(1.15581 8.46991e-05 0)
(1.15584 8.15838e-05 0)
(1.15587 7.8613e-05 0)
(1.1559 7.57794e-05 0)
(1.15592 7.30732e-05 0)
(1.15595 7.04902e-05 0)
(1.15598 6.8023e-05 0)
(1.156 6.56685e-05 0)
(1.15602 6.34195e-05 0)
(0.878577 5.29254e-05 0)
(0.87861 5.09064e-05 0)
(0.878641 4.8987e-05 0)
(0.878671 4.7157e-05 0)
(0.878701 4.54128e-05 0)
(0.878729 4.37481e-05 0)
(0.878756 4.21619e-05 0)
(0.878783 4.06489e-05 0)
(0.878808 3.92088e-05 0)
(0.878833 3.78361e-05 0)
(0.562027 2.14854e-05 0)
(0.562052 2.0654e-05 0)
(0.562077 1.98612e-05 0)
(0.5621 1.91064e-05 0)
(0.562123 1.83855e-05 0)
(0.562145 1.76997e-05 0)
(0.562166 1.70456e-05 0)
(0.562187 1.64247e-05 0)
(0.562206 1.58334e-05 0)
(0.562225 1.52727e-05 0)
(0.206094 1.98764e-06 0)
(0.206105 1.90705e-06 0)
(0.206115 1.83015e-06 0)
(0.206125 1.75667e-06 0)
(0.206135 1.68764e-06 0)
(0.206144 1.62247e-06 0)
(0.206153 1.56181e-06 0)
(0.206162 1.50461e-06 0)
(0.20617 1.45124e-06 0)
(0.206178 1.40045e-06 0)
(0.206185 -1.34721e-06 0)
(0.206193 -1.3008e-06 0)
(0.2062 -1.25625e-06 0)
(0.206207 -1.21348e-06 0)
(0.206214 -1.17216e-06 0)
(0.20622 -1.13239e-06 0)
(0.206226 -1.09392e-06 0)
(0.206232 -1.05693e-06 0)
(0.206238 -1.02123e-06 0)
(0.206244 -9.86994e-07 0)
(0.206249 -9.54025e-07 0)
(0.206255 -9.22481e-07 0)
(0.20626 -8.92131e-07 0)
(0.206265 -8.63106e-07 0)
(0.20627 -8.3516e-07 0)
(0.206274 -8.08409e-07 0)
(0.206279 -7.82603e-07 0)
(0.206283 -7.57861e-07 0)
(0.206287 -7.33939e-07 0)
(0.206291 -7.10969e-07 0)
(0.206295 -6.88717e-07 0)
(0.206299 -6.67332e-07 0)
(0.206303 -6.46596e-07 0)
(0.206306 -6.26676e-07 0)
(0.20631 -6.07352e-07 0)
(0.206313 -5.88827e-07 0)
(0.206316 -5.7087e-07 0)
(0.20632 -5.53681e-07 0)
(0.206323 -5.37027e-07 0)
(0.206326 -5.21111e-07 0)
(0.206328 -5.05674e-07 0)
(0.206331 -4.9092e-07 0)
(0.206334 -4.76581e-07 0)
(0.206337 -4.629e-07 0)
(0.206339 -4.49657e-07 0)
(0.562242 -1.46502e-05 0)
(0.562259 -1.41373e-05 0)
(0.562276 -1.36485e-05 0)
(0.562293 -1.3182e-05 0)
(0.562308 -1.27358e-05 0)
(0.562324 -1.23081e-05 0)
(0.562339 -1.18972e-05 0)
(0.562353 -1.15017e-05 0)
(0.562367 -1.11206e-05 0)
(0.56238 -1.0753e-05 0)
(0.562393 -1.03982e-05 0)
(0.562405 -1.00559e-05 0)
(0.562418 -9.72567e-06 0)
(0.562429 -9.40742e-06 0)
(0.562441 -9.10081e-06 0)
(0.562452 -8.80566e-06 0)
(0.562462 -8.52158e-06 0)
(0.562472 -8.24826e-06 0)
(0.562482 -7.98515e-06 0)
(0.562492 -7.7318e-06 0)
(0.562501 -7.48758e-06 0)
(0.56251 -7.25202e-06 0)
(0.562519 -7.02447e-06 0)
(0.562527 -6.80458e-06 0)
(0.562536 -6.5918e-06 0)
(0.562544 -6.38593e-06 0)
(0.562551 -6.18657e-06 0)
(0.562559 -5.99366e-06 0)
(0.562566 -5.8069e-06 0)
(0.562573 -5.62631e-06 0)
(0.56258 -5.45166e-06 0)
(0.562586 -5.28303e-06 0)
(0.562593 -5.12023e-06 0)
(0.562599 -4.96343e-06 0)
(0.562605 -4.81265e-06 0)
(0.878854 -3.62856e-05 0)
(0.878877 -3.50253e-05 0)
(0.878899 -3.38225e-05 0)
(0.87892 -3.26731e-05 0)
(0.87894 -3.15729e-05 0)
(0.87896 -3.0518e-05 0)
(0.87898 -2.95047e-05 0)
(0.878998 -2.85299e-05 0)
(0.879016 -2.75908e-05 0)
(0.879034 -2.66853e-05 0)
(0.87905 -2.58115e-05 0)
(0.879067 -2.49683e-05 0)