/*--------------------------------*- C++ -*----------------------------------*\
| =========                 |                                                 |
| \\      /  F ield         | OpenFOAM: The Open Source CFD Toolbox           |
|  \\    /   O peration     | Version:  2406                                  |
|   \\  /    A nd           | Website:  www.openfoam.com                      |
|    \\/     M anipulation  |                                                 |
\*---------------------------------------------------------------------------*/
FoamFile
{
    version     2.0;
    format      ascii;
    arch        "LSB;label=32;scalar=64";
    class       volVectorField;
    location    "94";
    object      U;
}
// * * * * * * * * * * * * * * * * * * * * * * * * * * * * * * * * * * * * * //

dimensions      [0 1 -1 0 0 0 0];

internalField   nonuniform List<vector> 
2000
(
(0.977191 -0.00309651 0)
(0.982941 -0.00551459 0)
(0.989336 -0.00535433 0)
(0.995562 -0.00453286 0)
(1.00124 -0.00377223 0)
(1.00635 -0.0031108 0)
(1.01092 -0.00251816 0)
(1.01496 -0.00201217 0)
(1.01849 -0.00160381 0)
(1.02159 -0.00128051 0)
(2.77277 -0.00265989 0)
(2.77105 -0.00572461 0)
(2.77017 -0.00667436 0)
(2.76956 -0.00674292 0)
(2.76941 -0.00657238 0)
(2.76977 -0.00626515 0)
(2.77049 -0.00583896 0)
(2.77143 -0.00535573 0)
(2.7725 -0.00487245 0)
(2.77366 -0.0044158 0)
(4.37352 -0.0015791 0)
(4.37275 -0.00368233 0)
(4.37207 -0.00459358 0)
(4.37092 -0.0048902 0)
(4.3698 -0.00497152 0)
(4.369 -0.00492281 0)
(4.36847 -0.00475561 0)
(4.36808 -0.00451266 0)
(4.36781 -0.00424094 0)
(4.36764 -0.00396768 0)
(5.77391 -0.000971191 0)
(5.77359 -0.00253799 0)
(5.77325 -0.00350951 0)
(5.7723 -0.00402949 0)
(5.77122 -0.00430114 0)
(5.77035 -0.00441152 0)
(5.76968 -0.00438892 0)
(5.7691 -0.00426831 0)
(5.7686 -0.00408986 0)
(5.76816 -0.00388337 0)
(6.97411 -0.000656162 0)
(6.97398 -0.00182126 0)
(6.97385 -0.00266393 0)
(6.97312 -0.00317905 0)
(6.97217 -0.00346775 0)
(6.97134 -0.00360725 0)
(6.97066 -0.0036324 0)
(6.97003 -0.00356998 0)
(6.96944 -0.00344977 0)
(6.96891 -0.00329709 0)
(7.97423 -0.000461543 0)
(7.97418 -0.00131321 0)
(7.97418 -0.00198478 0)
(7.97361 -0.0024421 0)
(7.97277 -0.00272778 0)
(7.97199 -0.00289158 0)
(7.9713 -0.00296111 0)
(7.97066 -0.00295519 0)
(7.97003 -0.00289437 0)
(7.96944 -0.00279801 0)
(8.7743 -0.000323519 0)
(8.7743 -0.000931981 0)
(8.77437 -0.00143821 0)
(8.7739 -0.00180922 0)
(8.77315 -0.00205711 0)
(8.77241 -0.0022088 0)
(8.77175 -0.00228419 0)
(8.7711 -0.0022979 0)
(8.77046 -0.00226495 0)
(8.76983 -0.0022 0)
(9.37435 -0.000215563 0)
(9.37437 -0.000625251 0)
(9.37447 -0.000976726 0)
(9.37407 -0.00124591 0)
(9.37339 -0.00143356 0)
(9.37269 -0.00155332 0)
(9.37204 -0.0016183 0)
(9.3714 -0.00163896 0)
(9.37075 -0.00162552 0)
(9.37011 -0.00158784 0)
(9.77438 -0.000123922 0)
(9.77441 -0.000360735 0)
(9.77453 -0.000567302 0)
(9.77417 -0.000729581 0)
(9.77352 -0.000845867 0)
(9.77286 -0.000922274 0)
(9.77222 -0.000965795 0)
(9.77158 -0.000982452 0)
(9.77093 -0.000978107 0)
(9.77028 -0.000958392 0)
(9.97439 -4.04784e-05 0)
(9.97443 -0.000118008 0)
(9.97456 -0.000186142 0)
(9.97421 -0.000240312 0)
(9.97359 -0.000279645 0)
(9.97293 -0.000305843 0)
(9.9723 -0.000321066 0)
(9.97167 -0.000327261 0)
(9.97101 -0.000326353 0)
(9.97036 -0.000320218 0)
(9.97439 4.04607e-05 0)
(9.97443 0.000117966 0)
(9.97456 0.000186075 0)
(9.97421 0.000240214 0)
(9.97359 0.000279532 0)
(9.97293 0.000305716 0)
(9.9723 0.000320903 0)
(9.97167 0.000327057 0)
(9.97101 0.000326121 0)
(9.97036 0.000319978 0)
(9.77438 0.000123905 0)
(9.77441 0.000360693 0)
(9.77453 0.000567229 0)
(9.77417 0.000729481 0)
(9.77352 0.000845751 0)
(9.77286 0.000922139 0)
(9.77222 0.000965634 0)
(9.77158 0.000982256 0)
(9.77093 0.000977864 0)
(9.77028 0.000958143 0)
(9.37435 0.000215545 0)
(9.37437 0.000625211 0)
(9.37447 0.000976661 0)
(9.37407 0.00124581 0)
(9.37339 0.00143344 0)
(9.37269 0.00155319 0)
(9.37204 0.00161815 0)
(9.3714 0.00163877 0)
(9.37075 0.00162526 0)
(9.37011 0.00158754 0)
(8.7743 0.0003235 0)
(8.7743 0.000931935 0)
(8.77437 0.00143813 0)
(8.7739 0.00180912 0)
(8.77315 0.00205699 0)
(8.77241 0.00220866 0)
(8.77175 0.00228405 0)
(8.7711 0.00229773 0)
(8.77046 0.00226474 0)
(8.76983 0.00219981 0)
(7.97423 0.000461524 0)
(7.97418 0.00131318 0)
(7.97418 0.00198472 0)
(7.97361 0.00244199 0)
(7.97277 0.00272763 0)
(7.97199 0.00289145 0)
(7.9713 0.00296099 0)
(7.97066 0.00295501 0)
(7.97003 0.00289412 0)
(7.96944 0.00279782 0)
(6.97411 0.000656144 0)
(6.97398 0.00182122 0)
(6.97385 0.00266386 0)
(6.97312 0.00317894 0)
(6.97217 0.0034676 0)
(6.97134 0.00360716 0)
(6.97066 0.00363236 0)
(6.97003 0.00356986 0)
(6.96944 0.00344951 0)
(6.96891 0.00329682 0)
(5.77391 0.000971173 0)
(5.77359 0.00253795 0)
(5.77325 0.00350943 0)
(5.7723 0.0040294 0)
(5.77122 0.00430101 0)
(5.77035 0.0044114 0)
(5.76968 0.00438884 0)
(5.7691 0.00426824 0)
(5.76859 0.00408976 0)
(5.76816 0.0038832 0)
(4.37352 0.00157908 0)
(4.37275 0.0036823 0)
(4.37207 0.00459354 0)
(4.37092 0.00489014 0)
(4.3698 0.00497143 0)
(4.369 0.00492263 0)
(4.36847 0.00475536 0)
(4.36808 0.00451255 0)
(4.36781 0.00424108 0)
(4.36764 0.00396775 0)
(2.77277 0.00265988 0)
(2.77105 0.00572459 0)
(2.77017 0.00667434 0)
(2.76956 0.00674291 0)
(2.76941 0.00657238 0)
(2.76977 0.00626496 0)
(2.77049 0.0058386 0)
(2.77143 0.00535564 0)
(2.7725 0.00487276 0)
(2.77366 0.00441601 0)
(0.977191 0.0030965 0)
(0.982941 0.00551454 0)
(0.989336 0.00535428 0)
(0.995562 0.0045329 0)
(1.00124 0.00377219 0)
(1.00635 0.00311056 0)
(1.01092 0.00251798 0)
(1.01496 0.00201227 0)
(1.01849 0.00160397 0)
(1.02159 0.00128046 0)
(1.0243 -0.0010231 0)
(1.02668 -0.000817178 0)
(1.02877 -0.000653118 0)
(1.03062 -0.000523224 0)
(1.03226 -0.000420581 0)
(1.03372 -0.000339508 0)
(1.03502 -0.00027569 0)
(1.03619 -0.00022535 0)
(1.03724 -0.000185549 0)
(1.0382 -0.000154665 0)
(1.03907 -0.000130785 0)
(1.03987 -0.000111769 0)
(1.04061 -9.70288e-05 0)
(1.04129 -8.60389e-05 0)
(1.04193 -7.74868e-05 0)
(1.04252 -7.09785e-05 0)
(1.04308 -6.60361e-05 0)
(1.0436 -6.16971e-05 0)
(1.0441 -5.81325e-05 0)
(1.04456 -5.54603e-05 0)
(1.04501 -5.32208e-05 0)
(1.04543 -5.15383e-05 0)
(1.04583 -5.03797e-05 0)
(1.04622 -4.94147e-05 0)
(1.04659 -4.86204e-05 0)
(1.04694 -4.78814e-05 0)
(1.04728 -4.70713e-05 0)
(1.04761 -4.62134e-05 0)
(1.04793 -4.5297e-05 0)
(1.04823 -4.43493e-05 0)
(1.04852 -4.34205e-05 0)
(1.0488 -4.25356e-05 0)
(1.04908 -4.17175e-05 0)
(1.04934 -4.09685e-05 0)
(1.0496 -4.02737e-05 0)
(2.77487 -0.00399424 0)
(2.7761 -0.00361028 0)
(2.77733 -0.00326402 0)
(2.77855 -0.00295403 0)
(2.77975 -0.00267793 0)
(2.78091 -0.00243337 0)
(2.78204 -0.00221788 0)
(2.78313 -0.00202702 0)
(2.78419 -0.00185735 0)
(2.7852 -0.00170948 0)
(2.78618 -0.00158021 0)
(2.78712 -0.00146215 0)
(2.78802 -0.00135625 0)
(2.78889 -0.00126585 0)
(2.78973 -0.00118535 0)
(2.79054 -0.00111126 0)
(2.79132 -0.00104545 0)
(2.79206 -0.000985909 0)
(2.79279 -0.000931077 0)
(2.79348 -0.000881937 0)
(2.79415 -0.000837354 0)
(2.7948 -0.000796617 0)
(2.79543 -0.000759782 0)
(2.79604 -0.000725858 0)
(2.79663 -0.000694468 0)
(2.7972 -0.000665421 0)
(2.79775 -0.000638247 0)
(2.79828 -0.000612854 0)
(2.7988 -0.000589092 0)
(2.79931 -0.000566815 0)
(2.7998 -0.000545978 0)
(2.80027 -0.00052648 0)
(2.80074 -0.000508245 0)
(2.80119 -0.000491179 0)
(2.80163 -0.000475163 0)
(4.36756 -0.0037052 0)
(4.36754 -0.00345895 0)
(4.36758 -0.00323066 0)
(4.36766 -0.00302066 0)
(4.36777 -0.0028292 0)
(4.36791 -0.00265555 0)
(4.36807 -0.00249827 0)
(4.36825 -0.0023565 0)
(4.36844 -0.00222933 0)
(4.36865 -0.00211484 0)
(4.36887 -0.00200994 0)
(4.36908 -0.00191307 0)
(4.36932 -0.00182635 0)
(4.36956 -0.00174954 0)
(4.3698 -0.00167763 0)
(4.37005 -0.00160962 0)
(4.3703 -0.00154759 0)
(4.37056 -0.0014898 0)
(4.37081 -0.00143537 0)
(4.37107 -0.00138545 0)
(4.37134 -0.00133893 0)
(4.3716 -0.00129517 0)
(4.37186 -0.00125433 0)
(4.37213 -0.0012156 0)
(4.37239 -0.00117874 0)
(4.37266 -0.00114372 0)
(4.37292 -0.0011102 0)
(4.37318 -0.0010782 0)
(4.37345 -0.00104767 0)
(4.37371 -0.00101853 0)
(4.37397 -0.000990785 0)
(4.37423 -0.000964352 0)
(4.37449 -0.000939155 0)
(4.37475 -0.000915099 0)
(4.37501 -0.000892063 0)
(5.76779 -0.00366697 0)
(5.76747 -0.00345129 0)
(5.7672 -0.00324211 0)
(5.76695 -0.00304322 0)
(5.76674 -0.00285742 0)
(5.76655 -0.00268513 0)
(5.76637 -0.00252668 0)
(5.76622 -0.00238435 0)
(5.76608 -0.00225654 0)
(5.76595 -0.00213793 0)
(5.76583 -0.00202943 0)
(5.76572 -0.00193487 0)
(5.76562 -0.00185066 0)
(5.76553 -0.00177196 0)
(5.76544 -0.00169977 0)
(5.76536 -0.0016349 0)
(5.76529 -0.00157537 0)
(5.76523 -0.00152037 0)
(5.76517 -0.00147025 0)
(5.76512 -0.00142446 0)
(5.76507 -0.00138201 0)
(5.76503 -0.00134264 0)
(5.765 -0.00130605 0)
(5.76497 -0.00127166 0)
(5.76494 -0.00123929 0)
(5.76492 -0.00120876 0)
(5.7649 -0.00117977 0)
(5.76489 -0.00115228 0)
(5.76489 -0.00112617 0)
(5.76488 -0.00110133 0)
(5.76488 -0.00107773 0)
(5.76489 -0.00105526 0)
(5.7649 -0.0010338 0)
(5.76491 -0.00101325 0)
(5.76492 -0.000993481 0)
(6.96843 -0.00312921 0)
(6.968 -0.00295704 0)
(6.9676 -0.00278728 0)
(6.96724 -0.0026241 0)
(6.96691 -0.00247026 0)
(6.9666 -0.00232723 0)
(6.96631 -0.0021961 0)
(6.96604 -0.00207746 0)
(6.96579 -0.00196932 0)
(6.96555 -0.00186975 0)
(6.96532 -0.00178088 0)
(6.96511 -0.00170287 0)
(6.9649 -0.00163114 0)
(6.9647 -0.00156464 0)
(6.96451 -0.00150547 0)
(6.96433 -0.00145213 0)
(6.96415 -0.00140277 0)
(6.96398 -0.00135773 0)
(6.96382 -0.00131646 0)
(6.96366 -0.00127815 0)
(6.96351 -0.0012427 0)
(6.96336 -0.00120987 0)
(6.96322 -0.00117938 0)
(6.96307 -0.00115096 0)
(6.96294 -0.00112431 0)
(6.96281 -0.00109925 0)
(6.96268 -0.00107552 0)
(6.96256 -0.00105298 0)
(6.96244 -0.00103154 0)
(6.96232 -0.00101109 0)
(6.96221 -0.00099158 0)
(6.9621 -0.000972953 0)
(6.96199 -0.000955144 0)
(6.96188 -0.000938096 0)
(6.96178 -0.000921737 0)
(7.96889 -0.0026808 0)
(7.96839 -0.0025531 0)
(7.96793 -0.00242198 0)
(7.96749 -0.00229186 0)
(7.96709 -0.00216612 0)
(7.96671 -0.00204755 0)
(7.96636 -0.00193685 0)
(7.96602 -0.00183349 0)
(7.96571 -0.00173823 0)
(7.96541 -0.00165184 0)
(7.96513 -0.00157312 0)
(7.96486 -0.00150064 0)
(7.9646 -0.00143461 0)
(7.96435 -0.00137552 0)
(7.96411 -0.0013222 0)
(7.96388 -0.00127316 0)
(7.96366 -0.00122823 0)
(7.96344 -0.00118702 0)
(7.96324 -0.00114868 0)
(7.96303 -0.00111321 0)
(7.96284 -0.00108058 0)
(7.96264 -0.00105045 0)
(7.96246 -0.00102275 0)
(7.96228 -0.00099717 0)
(7.9621 -0.000973367 0)
(7.96193 -0.000951147 0)
(7.96176 -0.000930201 0)
(7.96159 -0.000910344 0)
(7.96143 -0.000891468 0)
(7.96127 -0.000873452 0)
(7.96111 -0.000856262 0)
(7.96096 -0.000839861 0)
(7.96081 -0.000824229 0)
(7.96066 -0.000809348 0)
(7.96052 -0.000795185 0)
(8.76925 -0.00211489 0)
(8.7687 -0.00201846 0)
(8.76818 -0.00191716 0)
(8.7677 -0.00181538 0)
(8.76724 -0.00171622 0)
(8.76681 -0.00162199 0)
(8.76641 -0.00153358 0)
(8.76603 -0.00145104 0)
(8.76567 -0.001375 0)
(8.76532 -0.00130575 0)
(8.765 -0.00124241 0)
(8.76469 -0.00118444 0)
(8.76439 -0.00113229 0)
(8.76411 -0.00108584 0)
(8.76384 -0.00104388 0)
(8.76357 -0.00100539 0)
(8.76332 -0.000970193 0)
(8.76307 -0.000937827 0)
(8.76284 -0.000907782 0)
(8.76261 -0.000880129 0)
(8.76238 -0.000854769 0)
(8.76217 -0.000831417 0)
(8.76196 -0.000810034 0)
(8.76175 -0.000790371 0)
(8.76155 -0.000772134 0)
(8.76135 -0.000755138 0)
(8.76116 -0.000739113 0)
(8.76097 -0.000723887 0)
(8.76078 -0.000709355 0)
(8.7606 -0.000695416 0)
(8.76043 -0.000682053 0)
(8.76025 -0.000669264 0)
(8.76008 -0.000657057 0)
(8.75991 -0.000645449 0)
(8.75975 -0.000634441 0)
(9.36949 -0.00153409 0)
(9.36891 -0.00147055 0)
(9.36836 -0.00140208 0)
(9.36784 -0.00133221 0)
(9.36735 -0.0012633 0)
(9.36688 -0.001197 0)
(9.36645 -0.00113435 0)
(9.36603 -0.00107573 0)
(9.36564 -0.00102113 0)
(9.36526 -0.000970642 0)
(9.36491 -0.000924483 0)
(9.36457 -0.000882509 0)
(9.36425 -0.000844282 0)
(9.36394 -0.000809742 0)
(9.36364 -0.000778594 0)
(9.36336 -0.000749937 0)
(9.36308 -0.000723462 0)
(9.36282 -0.000699158 0)
(9.36256 -0.000676579 0)
(9.36231 -0.000655643 0)
(9.36207 -0.000636435 0)
(9.36183 -0.000618734 0)
(9.3616 -0.000602455 0)
(9.36138 -0.000587474 0)
(9.36116 -0.000573555 0)
(9.36095 -0.000560549 0)
(9.36074 -0.000548281 0)
(9.36054 -0.000536609 0)
(9.36034 -0.000525459 0)
(9.36014 -0.000514771 0)
(9.35995 -0.000504538 0)
(9.35976 -0.000494769 0)
(9.35958 -0.000485479 0)
(9.3594 -0.000476686 0)
(9.35922 -0.000468387 0)
(9.76965 -0.000928097 0)
(9.76905 -0.00089108 0)
(9.76848 -0.000850364 0)
(9.76794 -0.000808226 0)
(9.76742 -0.000766435 0)
(9.76694 -0.000726062 0)
(9.76647 -0.000687409 0)
(9.76604 -0.000651041 0)
(9.76562 -0.000617592 0)
(9.76523 -0.000586487 0)
(9.76486 -0.000557391 0)
(9.7645 -0.000531255 0)
(9.76416 -0.000507938 0)
(9.76384 -0.00048641 0)
(9.76352 -0.000466868 0)
(9.76322 -0.00044934 0)
(9.76293 -0.000433061 0)
(9.76265 -0.000418002 0)
(9.76238 -0.000404272 0)
(9.76212 -0.000391617 0)
(9.76187 -0.000380058 0)
(9.76162 -0.000369551 0)
(9.76138 -0.000359914 0)
(9.76114 -0.000351054 0)
(9.76092 -0.000342829 0)
(9.76069 -0.000335109 0)
(9.76048 -0.000327807 0)
(9.76026 -0.00032085 0)
(9.76005 -0.000314209 0)
(9.75985 -0.000307874 0)
(9.75965 -0.000301855 0)
(9.75945 -0.000296163 0)
(9.75926 -0.000290806 0)
(9.75907 -0.000285783 0)
(9.75888 -0.000281075 0)
(9.96973 -0.000310475 0)
(9.96912 -0.000298428 0)
(9.96854 -0.000285117 0)
(9.96798 -0.000271392 0)
(9.96746 -0.000257829 0)
(9.96696 -0.000244643 0)
(9.96649 -0.000231977 0)
(9.96604 -0.000220179 0)
(9.96562 -0.000209421 0)
(9.96521 -0.000199413 0)
(9.96483 -0.000190089 0)
(9.96447 -0.000181794 0)
(9.96412 -0.000174381 0)
(9.96378 -0.000167444 0)
(9.96346 -0.000161118 0)
(9.96316 -0.000155448 0)
(9.96286 -0.000150145 0)
(9.96257 -0.000145228 0)
(9.9623 -0.000140782 0)
(9.96203 -0.00013669 0)
(9.96177 -0.000132953 0)
(9.96151 -0.00012957 0)
(9.96127 -0.00012643 0)
(9.96103 -0.000123485 0)
(9.9608 -0.000120695 0)
(9.96057 -0.000118006 0)
(9.96034 -0.000115408 0)
(9.96013 -0.000112904 0)
(9.95991 -0.0001105 0)
(9.9597 -0.000108216 0)
(9.9595 -0.000106069 0)
(9.9593 -0.000104068 0)
(9.9591 -0.000102212 0)
(9.9589 -0.000100487 0)
(9.95871 -9.88719e-05 0)
(9.96973 0.000310247 0)
(9.96912 0.000298201 0)
(9.96854 0.000284824 0)
(9.96799 0.00027095 0)
(9.96746 0.000257287 0)
(9.96696 0.000244187 0)
(9.96649 0.000231688 0)
(9.96604 0.000219988 0)
(9.96562 0.000209256 0)
(9.96521 0.000199123 0)
(9.96483 0.000189501 0)
(9.96447 0.000180986 0)
(9.96412 0.000173546 0)
(9.96378 0.000166622 0)
(9.96346 0.000160331 0)
(9.96316 0.000154758 0)
(9.96286 0.000149507 0)
(9.96257 0.000144549 0)
(9.96229 0.000139995 0)
(9.96203 0.000135742 0)
(9.96177 0.000131833 0)
(9.96151 0.000128299 0)
(9.96127 0.000125043 0)
(9.96103 0.000122028 0)
(9.9608 0.000119205 0)
(9.96057 0.000116516 0)
(9.96034 0.000113938 0)
(9.96013 0.000111455 0)
(9.95991 0.000109058 0)
(9.9597 0.000106752 0)
(9.9595 0.000104536 0)
(9.9593 0.000102412 0)
(9.9591 0.000100381 0)
(9.9589 9.84442e-05 0)
(9.95871 9.66011e-05 0)
(9.76965 0.000927906 0)
(9.76905 0.000890927 0)
(9.76848 0.000850152 0)
(9.76794 0.000807911 0)
(9.76742 0.000766017 0)
(9.76694 0.000725573 0)
(9.76647 0.000687013 0)
(9.76604 0.000650783 0)
(9.76562 0.000617163 0)
(9.76523 0.000585768 0)
(9.76486 0.000556715 0)
(9.7645 0.000530687 0)
(9.76416 0.000507217 0)
(9.76384 0.000485671 0)
(9.76352 0.000466381 0)
(9.76322 0.000448918 0)
(9.76293 0.000432472 0)
(9.76265 0.000417253 0)
(9.76238 0.000403351 0)
(9.76212 0.000390527 0)
(9.76187 0.000378887 0)
(9.76162 0.000368365 0)
(9.76138 0.000358736 0)
(9.76114 0.000349883 0)
(9.76092 0.000341627 0)
(9.76069 0.000333818 0)
(9.76047 0.000326383 0)
(9.76026 0.000319281 0)
(9.76005 0.000312505 0)
(9.75985 0.000306064 0)
(9.75964 0.000299981 0)
(9.75945 0.000294262 0)
(9.75925 0.000288897 0)
(9.75907 0.000283863 0)
(9.75888 0.000279124 0)
(9.36949 0.00153385 0)
(9.36891 0.00147039 0)
(9.36836 0.00140186 0)
(9.36784 0.00133183 0)
(9.36735 0.00126293 0)
(9.36688 0.00119682 0)
(9.36644 0.00113413 0)
(9.36603 0.0010753 0)
(9.36564 0.00102081 0)
(9.36526 0.000970449 0)
(9.36491 0.000923877 0)
(9.36457 0.000881549 0)
(9.36425 0.00084363 0)
(9.36394 0.000809417 0)
(9.36364 0.000778173 0)
(9.36336 0.000749419 0)
(9.36308 0.000722902 0)
(9.36282 0.000698359 0)
(9.36256 0.0006755 0)
(9.36231 0.000654415 0)
(9.36207 0.000635157 0)
(9.36183 0.000617513 0)
(9.3616 0.000601375 0)
(9.36138 0.000586531 0)
(9.36116 0.000572686 0)
(9.36095 0.000559654 0)
(9.36074 0.000547233 0)
(9.36054 0.000535319 0)
(9.36034 0.000523894 0)
(9.36014 0.000512946 0)
(9.35995 0.000502523 0)
(9.35976 0.000492664 0)
(9.35958 0.000483384 0)
(9.35939 0.000474674 0)
(9.35922 0.000466488 0)
(8.76925 0.00211478 0)
(8.7687 0.00201832 0)
(8.76818 0.00191688 0)
(8.7677 0.00181502 0)
(8.76724 0.00171582 0)
(8.76681 0.00162154 0)
(8.76641 0.00153335 0)
(8.76603 0.0014511 0)
(8.76567 0.00137476 0)
(8.76532 0.00130507 0)
(8.765 0.00124187 0)
(8.76469 0.00118406 0)
(8.76439 0.00113161 0)
(8.76411 0.00108508 0)
(8.76384 0.0010433 0)
(8.76357 0.00100481 0)
(8.76332 0.000969576 0)
(8.76307 0.000937253 0)
(8.76284 0.000907098 0)
(8.76261 0.000879264 0)
(8.76238 0.000853762 0)
(8.76216 0.000830308 0)
(8.76195 0.000808923 0)
(8.76175 0.000789333 0)
(8.76155 0.000771187 0)
(8.76135 0.000754273 0)
(8.76116 0.000738254 0)
(8.76097 0.000722921 0)
(8.76078 0.000708188 0)
(8.7606 0.000693993 0)
(8.76042 0.000680369 0)
(8.76025 0.000667369 0)
(8.76008 0.000655044 0)
(8.75991 0.000643422 0)
(8.75974 0.000632482 0)
(7.96889 0.00268073 0)
(7.96839 0.00255304 0)
(7.96793 0.00242183 0)
(7.96749 0.00229159 0)
(7.96709 0.00216576 0)
(7.96671 0.00204718 0)
(7.96635 0.00193658 0)
(7.96602 0.00183331 0)
(7.96571 0.001738 0)
(7.96541 0.00165146 0)
(7.96513 0.00157278 0)
(7.96486 0.00150046 0)
(7.9646 0.00143431 0)
(7.96435 0.0013749 0)
(7.96411 0.00132148 0)
(7.96388 0.00127251 0)
(7.96366 0.0012276 0)
(7.96344 0.00118645 0)
(7.96324 0.00114827 0)
(7.96303 0.00111285 0)
(7.96284 0.00108009 0)
(7.96264 0.00104974 0)
(7.96246 0.00102178 0)
(7.96227 0.000996011 0)
(7.9621 0.000972128 0)
(7.96192 0.000949937 0)
(7.96175 0.000929099 0)
(7.96159 0.000909357 0)
(7.96142 0.000890534 0)
(7.96127 0.000872485 0)
(7.96111 0.000855176 0)
(7.96096 0.000838599 0)
(7.96081 0.000822773 0)
(7.96066 0.000807729 0)
(7.96051 0.000793464 0)
(6.96843 0.003129 0)
(6.968 0.00295691 0)
(6.9676 0.0027872 0)
(6.96724 0.002624 0)
(6.96691 0.00247014 0)
(6.9666 0.00232713 0)
(6.96631 0.00219576 0)
(6.96604 0.00207677 0)
(6.96579 0.00196889 0)
(6.96555 0.00186992 0)
(6.96532 0.00178088 0)
(6.96511 0.00170246 0)
(6.9649 0.00163097 0)
(6.9647 0.00156459 0)
(6.96451 0.00150492 0)
(6.96433 0.00145128 0)
(6.96415 0.00140199 0)
(6.96398 0.00135701 0)
(6.96382 0.00131589 0)
(6.96366 0.0012778 0)
(6.96351 0.00124245 0)
(6.96336 0.00120955 0)
(6.96321 0.00117885 0)
(6.96307 0.00115013 0)
(6.96294 0.00112325 0)
(6.9628 0.00109806 0)
(6.96268 0.00107435 0)
(6.96255 0.00105196 0)
(6.96243 0.00103072 0)
(6.96232 0.00101044 0)
(6.9622 0.000991013 0)
(6.96209 0.000972346 0)
(6.96198 0.000954379 0)
(6.96188 0.000937092 0)
(6.96178 0.000920474 0)
(5.76779 0.00366671 0)
(5.76747 0.00345099 0)
(5.7672 0.00324197 0)
(5.76695 0.00304339 0)
(5.76674 0.00285766 0)
(5.76655 0.00268503 0)
(5.76637 0.00252629 0)
(5.76622 0.00238388 0)
(5.76608 0.00225603 0)
(5.76595 0.00213762 0)
(5.76583 0.00202961 0)
(5.76572 0.00193514 0)
(5.76562 0.00185055 0)
(5.76553 0.00177169 0)
(5.76544 0.00169949 0)
(5.76536 0.00163441 0)
(5.76529 0.00157468 0)
(5.76523 0.00151971 0)
(5.76517 0.00146977 0)
(5.76512 0.00142418 0)
(5.76507 0.00138191 0)
(5.76503 0.00134263 0)
(5.765 0.00130596 0)
(5.76497 0.00127133 0)
(5.76494 0.00123867 0)
(5.76492 0.00120787 0)
(5.7649 0.00117874 0)
(5.76489 0.00115127 0)
(5.76488 0.00112532 0)
(5.76488 0.00110072 0)
(5.76488 0.00107733 0)
(5.76488 0.00105495 0)
(5.76489 0.00103346 0)
(5.7649 0.00101273 0)
(5.76492 0.000992706 0)
(4.36756 0.00370491 0)
(4.36754 0.00345847 0)
(4.36758 0.00323042 0)
(4.36766 0.00302081 0)
(4.36777 0.00282956 0)
(4.36791 0.00265574 0)
(4.36807 0.002498 0)
(4.36825 0.00235593 0)
(4.36844 0.00222898 0)
(4.36865 0.00211476 0)
(4.36887 0.0020099 0)
(4.36908 0.00191318 0)
(4.36932 0.00182661 0)
(4.36956 0.00174949 0)
(4.3698 0.00167721 0)
(4.37005 0.00160922 0)
(4.3703 0.00154725 0)
(4.37056 0.00148942 0)
(4.37081 0.00143507 0)
(4.37107 0.00138526 0)
(4.37133 0.00133883 0)
(4.3716 0.00129514 0)
(4.37186 0.00125431 0)
(4.37212 0.00121547 0)
(4.37239 0.00117842 0)
(4.37265 0.00114318 0)
(4.37292 0.00110947 0)
(4.37318 0.00107737 0)
(4.37344 0.00104689 0)
(4.3737 0.00101791 0)
(4.37397 0.000990379 0)
(4.37423 0.000964155 0)
(4.37449 0.000939087 0)
(4.37474 0.00091504 0)
(4.375 0.000891889 0)
(2.77487 0.00399398 0)
(2.7761 0.00360979 0)
(2.77733 0.00326377 0)
(2.77855 0.00295415 0)
(2.77975 0.00267821 0)
(2.78091 0.00243352 0)
(2.78204 0.00221783 0)
(2.78313 0.00202686 0)
(2.78419 0.00185711 0)
(2.7852 0.00170921 0)
(2.78618 0.00158021 0)
(2.78712 0.00146246 0)
(2.78802 0.0013564 0)
(2.78889 0.00126568 0)
(2.78973 0.00118519 0)
(2.79054 0.00111119 0)
(2.79132 0.00104535 0)
(2.79206 0.000985822 0)
(2.79278 0.00093098 0)
(2.79348 0.000881771 0)
(2.79415 0.000837201 0)
(2.7948 0.000796527 0)
(2.79543 0.000759745 0)
(2.79604 0.000725884 0)
(2.79662 0.000694494 0)
(2.79719 0.000665352 0)
(2.79775 0.000638035 0)
(2.79828 0.0006125 0)
(2.7988 0.000588653 0)
(2.7993 0.000566395 0)
(2.79979 0.00054568 0)
(2.80027 0.00052637 0)
(2.80073 0.00050832 0)
(2.80118 0.000491374 0)
(2.80162 0.000475369 0)
(1.0243 0.0010229 0)
(1.02668 0.000817018 0)
(1.02877 0.00065306 0)
(1.03062 0.000523233 0)
(1.03226 0.00042064 0)
(1.03372 0.000339609 0)
(1.03502 0.000275799 0)
(1.03619 0.0002254 0)
(1.03724 0.0001855 0)
(1.0382 0.000154556 0)
(1.03907 0.000130669 0)
(1.03987 0.000111678 0)
(1.04061 9.70433e-05 0)
(1.04129 8.62079e-05 0)
(1.04193 7.76994e-05 0)
(1.04252 7.11026e-05 0)
(1.04308 6.60647e-05 0)
(1.0436 6.16587e-05 0)
(1.0441 5.80223e-05 0)
(1.04456 5.53145e-05 0)
(1.04501 5.31144e-05 0)
(1.04543 5.15004e-05 0)
(1.04583 5.04075e-05 0)
(1.04622 4.94987e-05 0)
(1.04659 4.87155e-05 0)
(1.04694 4.79439e-05 0)
(1.04728 4.70788e-05 0)
(1.04761 4.61608e-05 0)
(1.04792 4.52042e-05 0)
(1.04823 4.42513e-05 0)
(1.04852 4.33495e-05 0)
(1.0488 4.25114e-05 0)
(1.04908 4.1739e-05 0)
(1.04934 4.10159e-05 0)
(1.0496 4.03153e-05 0)
(1.04985 -3.96094e-05 0)
(1.05009 -3.8948e-05 0)
(1.05032 -3.82648e-05 0)
(1.05055 -3.75459e-05 0)
(1.05077 -3.67869e-05 0)
(1.05098 -3.59961e-05 0)
(1.05119 -3.51892e-05 0)
(1.05139 -3.43857e-05 0)
(1.05159 -3.36044e-05 0)
(1.05178 -3.28589e-05 0)
(2.80206 -0.000460078 0)
(2.80247 -0.000445798 0)
(2.80288 -0.000432214 0)
(2.80327 -0.00041924 0)
(2.80366 -0.000406819 0)
(2.80404 -0.000394927 0)
(2.80441 -0.000383558 0)
(2.80477 -0.000372721 0)
(2.80512 -0.000362422 0)
(2.80546 -0.000352661 0)
(4.37526 -0.000869943 0)
(4.37551 -0.000848641 0)
(4.37576 -0.000828081 0)
(4.37601 -0.00080822 0)
(4.37626 -0.000789034 0)
(4.37651 -0.000770522 0)
(4.37675 -0.000752688 0)
(4.37699 -0.000735538 0)
(4.37723 -0.000719065 0)
(4.37747 -0.000703252 0)
(5.76494 -0.000974415 0)
(5.76496 -0.000955976 0)
(5.76498 -0.000938125 0)
(5.76501 -0.000920845 0)
(5.76504 -0.000904136 0)
(5.76507 -0.000887996 0)
(5.76511 -0.000872422 0)
(5.76514 -0.000857395 0)
(5.76518 -0.000842886 0)
(5.76523 -0.000828852 0)
(6.96169 -0.000906015 0)
(6.96159 -0.000890881 0)
(6.9615 -0.000876303 0)
(6.96141 -0.000862255 0)
(6.96132 -0.000848718 0)
(6.96124 -0.00083567 0)
(6.96116 -0.000823085 0)
(6.96108 -0.000810931 0)
(6.961 -0.000799169 0)
(6.96093 -0.00078776 0)
(7.96038 -0.000781708 0)
(7.96024 -0.000768871 0)
(7.9601 -0.00075662 0)
(7.95997 -0.0007449 0)
(7.95984 -0.000733654 0)
(7.95971 -0.00072283 0)
(7.95958 -0.000712379 0)
(7.95946 -0.00070226 0)
(7.95933 -0.000692441 0)
(7.95921 -0.0006829 0)
(8.75958 -0.000624014 0)
(8.75943 -0.000614131 0)
(8.75927 -0.000604733 0)
(8.75911 -0.000595753 0)
(8.75896 -0.00058712 0)
(8.75881 -0.00057877 0)
(8.75867 -0.000570652 0)
(8.75852 -0.000562733 0)
(8.75838 -0.000554999 0)
(8.75824 -0.000547452 0)
(9.35904 -0.000460563 0)
(9.35887 -0.00045317 0)
(9.3587 -0.00044615 0)
(9.35854 -0.000439436 0)
(9.35837 -0.000432961 0)
(9.35821 -0.00042667 0)
(9.35805 -0.000420526 0)
(9.35789 -0.000414512 0)
(9.35774 -0.00040863 0)
(9.35758 -0.000402897 0)
(9.7587 -0.000276648 0)
(9.75852 -0.000272458 0)
(9.75834 -0.000268454 0)
(9.75817 -0.00026459 0)
(9.75799 -0.000260826 0)
(9.75782 -0.000257135 0)
(9.75766 -0.000253508 0)
(9.75749 -0.00024995 0)
(9.75733 -0.000246476 0)
(9.75717 -0.00024311 0)
(9.95853 -9.73387e-05 0)
(9.95834 -9.58583e-05 0)
(9.95816 -9.44054e-05 0)
(9.95798 -9.29636e-05 0)
(9.95781 -9.15275e-05 0)
(9.95763 -9.01002e-05 0)
(9.95746 -8.86935e-05 0)
(9.95729 -8.73241e-05 0)
(9.95713 -8.60112e-05 0)
(9.95697 -8.477e-05 0)
(9.95853 9.48493e-05 0)
(9.95834 9.31849e-05 0)
(9.95816 9.16008e-05 0)
(9.95798 9.0086e-05 0)
(9.95781 8.86285e-05 0)
(9.95763 8.72155e-05 0)
(9.95746 8.58366e-05 0)
(9.95729 8.4484e-05 0)
(9.95713 8.31548e-05 0)
(9.95696 8.18491e-05 0)
(9.7587 0.000274634 0)
(9.75851 0.000270344 0)
(9.75834 0.000266205 0)
(9.75816 0.000262182 0)
(9.75799 0.000258249 0)
(9.75782 0.000254393 0)
(9.75765 0.000250612 0)
(9.75749 0.00024692 0)
(9.75733 0.000243334 0)
(9.75717 0.000239872 0)
(9.35904 0.00045876 0)
(9.35887 0.000451406 0)
(9.3587 0.000444342 0)
(9.35853 0.000437493 0)
(9.35837 0.000430807 0)
(9.35821 0.000424258 0)
(9.35805 0.000417841 0)
(9.35789 0.000411572 0)
(9.35773 0.000405479 0)
(9.35758 0.000399594 0)
(8.75958 0.000622169 0)
(8.75942 0.000612398 0)
(8.75927 0.000603067 0)
(8.75911 0.000594076 0)
(8.75896 0.000585344 0)
(8.75881 0.000576815 0)
(8.75866 0.000568464 0)
(8.75852 0.00056029 0)
(8.75837 0.000552311 0)
(8.75823 0.000544554 0)
(7.96037 0.000779953 0)
(7.96023 0.000767137 0)
(7.9601 0.000754938 0)
(7.95996 0.00074327 0)
(7.95983 0.000732046 0)
(7.9597 0.00072119 0)
(7.95957 0.000710648 0)
(7.95945 0.000700385 0)
(7.95933 0.000690383 0)
(7.9592 0.000680642 0)
(6.96168 0.000904529 0)
(6.96158 0.000889251 0)
(6.96149 0.000874619 0)
(6.9614 0.000860601 0)
(6.96131 0.000847147 0)
(6.96123 0.0008342 0)
(6.96115 0.000821691 0)
(6.96107 0.00080956 0)
(6.96099 0.000797755 0)
(6.96092 0.000786239 0)
(5.76493 0.000973353 0)
(5.76495 0.000954674 0)
(5.76498 0.00093668 0)
(5.765 0.000919374 0)
(5.76503 0.000902743 0)
(5.76507 0.000886756 0)
(5.7651 0.000871357 0)
(5.76514 0.000856483 0)
(5.76518 0.000842063 0)
(5.76522 0.000828036 0)
(4.37526 0.000869562 0)
(4.37551 0.000848013 0)
(4.37576 0.000827237 0)
(4.37601 0.000807234 0)
(4.37625 0.000788012 0)
(4.3765 0.000769564 0)
(4.37674 0.000751874 0)
(4.37698 0.0007349 0)
(4.37722 0.000718595 0)
(4.37746 0.000702892 0)
(2.80205 0.000460179 0)
(2.80247 0.000445703 0)
(2.80287 0.000431887 0)
(2.80327 0.000418704 0)
(2.80366 0.000406152 0)
(2.80403 0.000394229 0)
(2.8044 0.000382935 0)
(2.80476 0.000372248 0)
(2.80511 0.000362137 0)
(2.80545 0.00035255 0)
(1.04985 3.96142e-05 0)
(1.05009 3.88944e-05 0)
(1.05032 3.81496e-05 0)
(1.05055 3.73832e-05 0)
(1.05077 3.6606e-05 0)
(1.05098 3.58309e-05 0)
(1.05119 3.50713e-05 0)
(1.05139 3.43352e-05 0)
(1.05159 3.36274e-05 0)
(1.05178 3.29451e-05 0)
(1.05197 -3.21563e-05 0)
(1.05215 -3.14964e-05 0)
(1.05233 -3.08727e-05 0)
(1.0525 -3.0275e-05 0)
(1.05267 -2.96912e-05 0)
(1.05283 -2.91116e-05 0)
(1.053 -2.85282e-05 0)
(1.05315 -2.79387e-05 0)
(1.05331 -2.73435e-05 0)
(1.05346 -2.67478e-05 0)
(1.0536 -2.61578e-05 0)
(1.05375 -2.55815e-05 0)
(1.05389 -2.50255e-05 0)
(1.05403 -2.4495e-05 0)
(1.05416 -2.39928e-05 0)
(1.05429 -2.35187e-05 0)
(1.05442 -2.30704e-05 0)
(1.05455 -2.2644e-05 0)
(1.05467 -2.2234e-05 0)
(1.05479 -2.18354e-05 0)
(1.05491 -2.14429e-05 0)
(1.05503 -2.10534e-05 0)
(1.05515 -2.06639e-05 0)
(1.05526 -2.02747e-05 0)
(1.05537 -1.98862e-05 0)
(1.05548 -1.9501e-05 0)
(1.05558 -1.91217e-05 0)
(1.05569 -1.87521e-05 0)
(1.05579 -1.83954e-05 0)
(1.05589 -1.8055e-05 0)
(1.05599 -1.77331e-05 0)
(1.05609 -1.74319e-05 0)
(1.05619 -1.7152e-05 0)
(1.05628 -1.68942e-05 0)
(1.05637 -1.66583e-05 0)
(2.8058 -0.000343417 0)
(2.80613 -0.000334657 0)
(2.80645 -0.000326333 0)
(2.80676 -0.000318389 0)
(2.80707 -0.000310769 0)
(2.80737 -0.000303422 0)
(2.80767 -0.000296312 0)
(2.80796 -0.000289416 0)
(2.80824 -0.000282724 0)
(2.80852 -0.000276239 0)
(2.8088 -0.000269971 0)
(2.80906 -0.000263935 0)
(2.80933 -0.00025814 0)
(2.80958 -0.000252595 0)
(2.80984 -0.000247298 0)
(2.81009 -0.00024224 0)
(2.81033 -0.000237406 0)
(2.81057 -0.000232774 0)
(2.81081 -0.000228318 0)
(2.81104 -0.000224014 0)
(2.81127 -0.000219838 0)
(2.81149 -0.000215771 0)
(2.81171 -0.000211799 0)
(2.81193 -0.000207914 0)
(2.81214 -0.000204113 0)
(2.81235 -0.0002004 0)
(2.81256 -0.00019678 0)
(2.81276 -0.000193261 0)
(2.81296 -0.000189852 0)
(2.81316 -0.00018656 0)
(2.81336 -0.000183392 0)
(2.81355 -0.000180353 0)
(2.81374 -0.000177444 0)
(2.81392 -0.000174667 0)
(2.8141 -0.000172021 0)
(4.3777 -0.000688063 0)
(4.37794 -0.000673453 0)
(4.37817 -0.000659368 0)
(4.3784 -0.000645754 0)
(4.37863 -0.000632563 0)
(4.37885 -0.000619758 0)
(4.37907 -0.00060731 0)
(4.37929 -0.000595207 0)
(4.37951 -0.000583445 0)
(4.37973 -0.00057203 0)
(4.37994 -0.000560969 0)
(4.38015 -0.000550267 0)
(4.38036 -0.000539929 0)
(4.38057 -0.000529951 0)
(4.38077 -0.000520321 0)
(4.38098 -0.000511023 0)
(4.38118 -0.000502034 0)
(4.38138 -0.000493329 0)
(4.38158 -0.00048488 0)
(4.38177 -0.000476664 0)
(4.38196 -0.000468658 0)
(4.38216 -0.000460845 0)
(4.38235 -0.000453214 0)
(4.38253 -0.000445759 0)
(4.38272 -0.000438479 0)
(4.3829 -0.000431377 0)
(4.38308 -0.000424457 0)
(4.38326 -0.000417726 0)
(4.38344 -0.00041119 0)
(4.38362 -0.000404855 0)
(4.38379 -0.000398724 0)
(4.38397 -0.000392799 0)
(4.38414 -0.000387081 0)
(4.38431 -0.000381572 0)
(4.38448 -0.000376271 0)
(5.76527 -0.000815247 0)
(5.76531 -0.000802023 0)
(5.76536 -0.000789141 0)
(5.76541 -0.00077657 0)
(5.76546 -0.00076429 0)
(5.76551 -0.000752295 0)
(5.76557 -0.000740584 0)
(5.76562 -0.000729164 0)
(5.76568 -0.000718044 0)
(5.76574 -0.000707227 0)
(5.7658 -0.000696716 0)