/*--------------------------------*- C++ -*----------------------------------*\
| =========                 |                                                 |
| \\      /  F ield         | OpenFOAM: The Open Source CFD Toolbox           |
|  \\    /   O peration     | Version:  2406                                  |
|   \\  /    A nd           | Website:  www.openfoam.com                      |
|    \\/     M anipulation  |                                                 |
\*---------------------------------------------------------------------------*/
FoamFile
{
    version     2.0;
    format      ascii;
    arch        "LSB;label=32;scalar=64";
    class       volScalarField;
    location    "928";
    object      p;
}
// * * * * * * * * * * * * * * * * * * * * * * * * * * * * * * * * * * * * * //

dimensions      [0 2 -2 0 0 0 0];

internalField   nonuniform List<scalar> 
190000
(
-0.0648447
-0.0630113
-0.0621649
-0.0619065
-0.0618674
-0.0619369
-0.0620733
-0.0622512
-0.0624557
-0.0626783
-0.0629141
-0.06316
-0.063414
-0.0636746
-0.0639408
-0.0642119
-0.0644874
-0.0647668
-0.0650497
-0.065336
-0.0656253
-0.0659176
-0.0662126
-0.0665103
-0.0668106
-0.0671133
-0.0674185
-0.067726
-0.0680358
-0.0683478
-0.0686621
-0.0689787
-0.0692974
-0.0696183
-0.0699414
-0.0702667
-0.0705942
-0.0709238
-0.0712557
-0.0715897
-0.071926
-0.0722645
-0.0726053
-0.0729483
-0.0732936
-0.0736413
-0.0739913
-0.0743437
-0.0746986
-0.0750559
-0.0754157
-0.075778
-0.0761429
-0.0765105
-0.0768808
-0.0772538
-0.0776296
-0.0780083
-0.0783899
-0.0787745
-0.0791622
-0.079553
-0.0799471
-0.0803445
-0.0807454
-0.0811498
-0.0815578
-0.0819696
-0.0823852
-0.0828049
-0.0832287
-0.0836568
-0.0840895
-0.0845268
-0.084969
-0.0854162
-0.0858688
-0.086327
-0.0867911
-0.0872613
-0.0877382
-0.0882219
-0.0887131
-0.0892122
-0.0897196
-0.0902362
-0.0907625
-0.0912994
-0.0918478
-0.0924085
-0.0929828
-0.093572
-0.0941779
-0.0948034
-0.0954546
-0.0961489
-0.096916
-0.0977318
-0.0985479
-0.101105
-0.062967
-0.0624055
-0.0620479
-0.0619192
-0.0619178
-0.0619959
-0.0621293
-0.0623009
-0.0624989
-0.062716
-0.0629472
-0.0631895
-0.0634406
-0.0636989
-0.0639633
-0.064233
-0.0645073
-0.0647857
-0.0650679
-0.0653535
-0.0656423
-0.0659342
-0.0662289
-0.0665264
-0.0668264
-0.067129
-0.067434
-0.0677415
-0.0680512
-0.0683633
-0.0686777
-0.0689943
-0.0693131
-0.0696341
-0.0699573
-0.0702828
-0.0706104
-0.0709402
-0.0712723
-0.0716065
-0.071943
-0.0722818
-0.0726228
-0.0729661
-0.0733117
-0.0736596
-0.07401
-0.0743627
-0.0747179
-0.0750755
-0.0754357
-0.0757984
-0.0761638
-0.0765318
-0.0769025
-0.0772759
-0.0776522
-0.0780314
-0.0784136
-0.0787987
-0.079187
-0.0795785
-0.0799732
-0.0803713
-0.0807729
-0.081178
-0.0815868
-0.0819994
-0.082416
-0.0828366
-0.0832614
-0.0836907
-0.0841245
-0.084563
-0.0850065
-0.0854553
-0.0859094
-0.0863694
-0.0868353
-0.0873077
-0.0877868
-0.0882732
-0.0887673
-0.0892697
-0.089781
-0.0903021
-0.0908337
-0.0913769
-0.0919331
-0.0925038
-0.093091
-0.0936974
-0.0943272
-0.0949863
-0.0956853
-0.0964437
-0.0972917
-0.0982724
-0.0995746
-0.101913
-0.0619028
-0.0619264
-0.061887
-0.0618756
-0.0619228
-0.0620223
-0.062163
-0.0623353
-0.0625317
-0.0627463
-0.0629751
-0.0632151
-0.0634642
-0.0637209
-0.0639839
-0.0642524
-0.0645257
-0.0648034
-0.0650849
-0.0653701
-0.0656585
-0.06595
-0.0662445
-0.0665417
-0.0668416
-0.0671441
-0.067449
-0.0677564
-0.0680662
-0.0683783
-0.0686927
-0.0690094
-0.0693283
-0.0696494
-0.0699728
-0.0702984
-0.0706262
-0.0709562
-0.0712884
-0.0716229
-0.0719596
-0.0722986
-0.0726399
-0.0729835
-0.0733293
-0.0736776
-0.0740282
-0.0743813
-0.0747368
-0.0750948
-0.0754553
-0.0758184
-0.0761842
-0.0765526
-0.0769237
-0.0772976
-0.0776744
-0.0780541
-0.0784367
-0.0788224
-0.0792113
-0.0796033
-0.0799987
-0.0803974
-0.0807997
-0.0812055
-0.0816151
-0.0820285
-0.0824459
-0.0828674
-0.0832932
-0.0837234
-0.0841583
-0.084598
-0.0850428
-0.0854928
-0.0859485
-0.08641
-0.0868776
-0.0873519
-0.0878331
-0.0883218
-0.0888185
-0.0893238
-0.0898385
-0.0903634
-0.0908995
-0.0914482
-0.0920108
-0.0925896
-0.0931869
-0.0938062
-0.0944523
-0.095132
-0.0958549
-0.0966348
-0.0974883
-0.0984342
-0.0995181
-0.100807
-0.0613966
-0.0616106
-0.06172
-0.061791
-0.0618859
-0.062013
-0.0621683
-0.0623478
-0.0625473
-0.0627631
-0.062992
-0.0632316
-0.0634801
-0.0637361
-0.0639985
-0.0642665
-0.0645393
-0.0648165
-0.0650977
-0.0653825
-0.0656707
-0.065962
-0.0662563
-0.0665535
-0.0668533
-0.0671557
-0.0674607
-0.0677681
-0.0680779
-0.06839
-0.0687045
-0.0690212
-0.0693402
-0.0696615
-0.069985
-0.0703107
-0.0706386
-0.0709688
-0.0713012
-0.0716358
-0.0719727
-0.0723119
-0.0726534
-0.0729972
-0.0733433
-0.0736918
-0.0740427
-0.074396
-0.0747517
-0.07511
-0.0754708
-0.0758342
-0.0762003
-0.076569
-0.0769405
-0.0773147
-0.0776919
-0.0780719
-0.078455
-0.0788411
-0.0792303
-0.0796228
-0.0800186
-0.0804178
-0.0808206
-0.0812269
-0.081637
-0.082051
-0.082469
-0.0828911
-0.0833176
-0.0837485
-0.0841841
-0.0846246
-0.0850702
-0.0855212
-0.0859777
-0.0864402
-0.086909
-0.0873844
-0.0878669
-0.088357
-0.0888552
-0.0893621
-0.0898786
-0.0904054
-0.0909438
-0.0914948
-0.0920602
-0.0926418
-0.0932421
-0.0938641
-0.0945115
-0.0951888
-0.0959009
-0.0966522
-0.0974422
-0.0982581
-0.0990662
-0.0997934
-0.0610866
-0.0613806
-0.0615713
-0.0617011
-0.0618359
-0.0619889
-0.06216
-0.0623486
-0.0625533
-0.0627719
-0.0630022
-0.0632424
-0.0634911
-0.063747
-0.0640093
-0.064277
-0.0645496
-0.0648266
-0.0651076
-0.0653922
-0.0656802
-0.0659714
-0.0662656
-0.0665627
-0.0668625
-0.0671649
-0.0674698
-0.0677772
-0.0680871
-0.0683993
-0.0687138
-0.0690306
-0.0693497
-0.069671
-0.0699946
-0.0703204
-0.0706485
-0.0709788
-0.0713113
-0.0716461
-0.0719831
-0.0723225
-0.0726641
-0.0730081
-0.0733544
-0.073703
-0.0740541
-0.0744076
-0.0747636
-0.0751221
-0.0754831
-0.0758467
-0.076213
-0.076582
-0.0769537
-0.0773282
-0.0777056
-0.0780859
-0.0784692
-0.0788556
-0.0792452
-0.079638
-0.0800341
-0.0804336
-0.0808367
-0.0812434
-0.0816538
-0.0820682
-0.0824865
-0.0829091
-0.0833359
-0.0837673
-0.0842033
-0.0846442
-0.0850903
-0.0855416
-0.0859987
-0.0864616
-0.0869308
-0.0874067
-0.0878896
-0.0883801
-0.0888786
-0.0893858
-0.0899025
-0.0904293
-0.0909674
-0.0915178
-0.0920819
-0.0926612
-0.0932574
-0.0938725
-0.0945083
-0.0951661
-0.0958456
-0.0965425
-0.0972448
-0.0979246
-0.0985301
-0.0989767
-0.0608714
-0.0612038
-0.0614439
-0.061616
-0.0617826
-0.0619581
-0.0621442
-0.0623424
-0.0625531
-0.0627752
-0.0630077
-0.0632491
-0.0634984
-0.0637547
-0.064017
-0.0642846
-0.0645572
-0.0648341
-0.0651149
-0.0653994
-0.0656874
-0.0659785
-0.0662726
-0.0665696
-0.0668694
-0.0671718
-0.0674767
-0.0677841
-0.068094
-0.0684062
-0.0687207
-0.0690376
-0.0693567
-0.0696781
-0.0700018
-0.0703277
-0.0706558
-0.0709862
-0.0713189
-0.0716538
-0.0719909
-0.0723304
-0.0726721
-0.0730162
-0.0733626
-0.0737114
-0.0740626
-0.0744162
-0.0747724
-0.075131
-0.0754922
-0.0758559
-0.0762224
-0.0765915
-0.0769633
-0.077338
-0.0777156
-0.078096
-0.0784795
-0.0788661
-0.0792558
-0.0796487
-0.080045
-0.0804447
-0.0808479
-0.0812548
-0.0816654
-0.0820799
-0.0824984
-0.082921
-0.083348
-0.0837794
-0.0842155
-0.0846564
-0.0851025
-0.0855538
-0.0860107
-0.0864735
-0.0869425
-0.087418
-0.0879004
-0.0883902
-0.0888878
-0.0893938
-0.0899088
-0.0904336
-0.0909687
-0.0915152
-0.0920739
-0.0926457
-0.0932315
-0.0938317
-0.094446
-0.0950728
-0.0957074
-0.0963401
-0.0969527
-0.0975137
-0.0979736
-0.0982632
-0.0607136
-0.0610634
-0.0613339
-0.0615361
-0.061728
-0.0619229
-0.0621229
-0.0623307
-0.0625477
-0.062774
-0.0630091
-0.0632522
-0.0635025
-0.0637593
-0.0640219
-0.0642897
-0.0645622
-0.0648391
-0.0651199
-0.0654043
-0.0656922
-0.0659832
-0.0662773
-0.0665743
-0.066874
-0.0671763
-0.0674812
-0.0677886
-0.0680985
-0.0684107
-0.0687252
-0.0690421
-0.0693613
-0.0696827
-0.0700064
-0.0703323
-0.0706605
-0.070991
-0.0713237
-0.0716586
-0.0719958
-0.0723353
-0.0726771
-0.0730213
-0.0733677
-0.0737166
-0.0740679
-0.0744216
-0.0747777
-0.0751364
-0.0754977
-0.0758615
-0.076228
-0.0765972
-0.0769691
-0.0773438
-0.0777214
-0.0781019
-0.0784854
-0.078872
-0.0792617
-0.0796546
-0.0800509
-0.0804505
-0.0808537
-0.0812605
-0.081671
-0.0820854
-0.0825037
-0.0829262
-0.0833529
-0.0837841
-0.0842198
-0.0846604
-0.0851059
-0.0855567
-0.0860129
-0.0864748
-0.0869427
-0.087417
-0.0878979
-0.0883858
-0.0888811
-0.0893843
-0.0898959
-0.0904162
-0.0909458
-0.0914851
-0.0920346
-0.0925944
-0.0931642
-0.0937433
-0.0943294
-0.0949184
-0.0955029
-0.0960703
-0.0966008
-0.0970644
-0.0974201
-0.0976173
-0.0605895
-0.0609468
-0.0612365
-0.0614605
-0.0616723
-0.0618839
-0.0620968
-0.0623139
-0.0625375
-0.0627684
-0.0630066
-0.0632517
-0.0635033
-0.0637609
-0.064024
-0.0642921
-0.0645648
-0.0648417
-0.0651224
-0.0654068
-0.0656946
-0.0659856
-0.0662796
-0.0665765
-0.0668761
-0.0671784
-0.0674833
-0.0677906
-0.0681004
-0.0684126
-0.0687271
-0.069044
-0.0693631
-0.0696846
-0.0700082
-0.0703342
-0.0706624
-0.0709928
-0.0713255
-0.0716604
-0.0719976
-0.0723371
-0.0726789
-0.073023
-0.0733695
-0.0737184
-0.0740696
-0.0744233
-0.0747795
-0.0751381
-0.0754993
-0.0758631
-0.0762295
-0.0765986
-0.0769705
-0.0773451
-0.0777226
-0.078103
-0.0784864
-0.0788728
-0.0792624
-0.0796551
-0.0800512
-0.0804506
-0.0808535
-0.08126
-0.0816702
-0.0820841
-0.082502
-0.082924
-0.0833501
-0.0837806
-0.0842155
-0.0846552
-0.0850997
-0.0855493
-0.0860041
-0.0864644
-0.0869305
-0.0874025
-0.0878808
-0.0883657
-0.0888573
-0.0893561
-0.0898622
-0.090376
-0.0908975
-0.0914268
-0.0919638
-0.0925077
-0.0930576
-0.0936113
-0.0941651
-0.0947135
-0.0952475
-0.0957537
-0.0962131
-0.0965998
-0.0968817
-0.0970238
-0.0604848
-0.0608455
-0.0611479
-0.0613878
-0.0616155
-0.0618414
-0.0620659
-0.062292
-0.0625224
-0.0627582
-0.0629998
-0.0632474
-0.0635006
-0.0637593
-0.0640231
-0.0642917
-0.0645646
-0.0648416
-0.0651224
-0.0654068
-0.0656946
-0.0659855
-0.0662794
-0.0665762
-0.0668757
-0.0671779
-0.0674827
-0.06779
-0.0680997
-0.0684118
-0.0687263
-0.0690431
-0.0693621
-0.0696835
-0.0700071
-0.070333
-0.0706611
-0.0709915
-0.0713241
-0.071659
-0.0719961
-0.0723355
-0.0726772
-0.0730213
-0.0733677
-0.0737164
-0.0740676
-0.0744211
-0.0747772
-0.0751357
-0.0754968
-0.0758604
-0.0762267
-0.0765956
-0.0769672
-0.0773417
-0.0777189
-0.078099
-0.0784821
-0.0788683
-0.0792575
-0.0796498
-0.0800455
-0.0804444
-0.0808468
-0.0812527
-0.0816623
-0.0820755
-0.0824926
-0.0829137
-0.0833388
-0.0837682
-0.0842019
-0.0846402
-0.0850831
-0.0855309
-0.0859836
-0.0864416
-0.0869049
-0.0873738
-0.0878484
-0.0883289
-0.0888155
-0.0893083
-0.0898073
-0.0903125
-0.0908237
-0.0913406
-0.0918623
-0.0923877
-0.0929149
-0.0934408
-0.0939609
-0.0944686
-0.0949546
-0.0954061
-0.0958058
-0.0961327
-0.0963624
-0.096471
-0.0603918
-0.0607541
-0.0610653
-0.061317
-0.0615573
-0.0617953
-0.0620303
-0.062265
-0.062502
-0.0627429
-0.0629884
-0.0632387
-0.063494
-0.0637541
-0.0640188
-0.064288
-0.0645613
-0.0648386
-0.0651195
-0.065404
-0.0656917
-0.0659826
-0.0662764
-0.0665731
-0.0668725
-0.0671746
-0.0674793
-0.0677865
-0.0680961
-0.0684081
-0.0687224
-0.0690391
-0.069358
-0.0696793
-0.0700028
-0.0703285
-0.0706565
-0.0709868
-0.0713192
-0.071654
-0.071991
-0.0723303
-0.0726718
-0.0730157
-0.0733619
-0.0737105
-0.0740614
-0.0744148
-0.0747706
-0.0751289
-0.0754897
-0.0758531
-0.076219
-0.0765877
-0.076959
-0.077333
-0.0777099
-0.0780896
-0.0784722
-0.0788578
-0.0792465
-0.0796383
-0.0800332
-0.0804315
-0.0808331
-0.0812382
-0.0816468
-0.082059
-0.082475
-0.0828948
-0.0833185
-0.0837463
-0.0841784
-0.0846147
-0.0850554
-0.0855007
-0.0859507
-0.0864055
-0.0868652
-0.08733
-0.0877999
-0.0882749
-0.0887551
-0.0892405
-0.0897308
-0.0902258
-0.0907249
-0.0912274
-0.091732
-0.0922371
-0.09274
-0.0932372
-0.0937237
-0.0941926
-0.0946348
-0.0950385
-0.0953892
-0.0956698
-0.0958624
-0.0959504
-0.0603056
-0.0606689
-0.0609868
-0.0612472
-0.0614976
-0.0617457
-0.06199
-0.0622326
-0.0624762
-0.0627223
-0.0629719
-0.0632253
-0.0634828
-0.0637446
-0.0640106
-0.0642806
-0.0645546
-0.0648322
-0.0651134
-0.0653979
-0.0656857
-0.0659766
-0.0662703
-0.066567
-0.0668663
-0.0671683
-0.0674728
-0.0677798
-0.0680893
-0.0684011
-0.0687153
-0.0690318
-0.0693506
-0.0696717
-0.069995
-0.0703206
-0.0706484
-0.0709784
-0.0713107
-0.0716452
-0.071982
-0.0723211
-0.0726624
-0.073006
-0.073352
-0.0737003
-0.0740509
-0.074404
-0.0747594
-0.0751174
-0.0754778
-0.0758408
-0.0762063
-0.0765745
-0.0769453
-0.0773188
-0.0776951
-0.0780742
-0.0784562
-0.0788411
-0.079229
-0.07962
-0.0800141
-0.0804114
-0.0808119
-0.0812159
-0.0816232
-0.0820341
-0.0824485
-0.0828667
-0.0832886
-0.0837145
-0.0841442
-0.0845781
-0.0850161
-0.0854583
-0.0859048
-0.0863557
-0.086811
-0.0872707
-0.0877349
-0.0882034
-0.0886761
-0.0891528
-0.0896331
-0.0901164
-0.090602
-0.0910888
-0.0915751
-0.0920588
-0.092537
-0.0930058
-0.09346
-0.0938929
-0.0942959
-0.0946588
-0.0949694
-0.0952143
-0.0953801
-0.0954554
-0.0602236
-0.0605877
-0.0609106
-0.0611778
-0.0614361
-0.0616928
-0.0619452
-0.0621951
-0.0624449
-0.0626962
-0.0629499
-0.0632066
-0.0634667
-0.0637305
-0.0639979
-0.064269
-0.0645437
-0.0648219
-0.0651035
-0.0653883
-0.0656762
-0.0659671
-0.0662609
-0.0665574
-0.0668566
-0.0671585
-0.0674629
-0.0677697
-0.068079
-0.0683907
-0.0687047
-0.069021
-0.0693396
-0.0696604
-0.0699835
-0.0703088
-0.0706364
-0.0709662
-0.0712982
-0.0716324
-0.0719689
-0.0723076
-0.0726487
-0.0729919
-0.0733375
-0.0736854
-0.0740357
-0.0743883
-0.0747433
-0.0751008
-0.0754607
-0.0758232
-0.0761881
-0.0765557
-0.0769259
-0.0772987
-0.0776743
-0.0780526
-0.0784337
-0.0788177
-0.0792047
-0.0795946
-0.0799875
-0.0803836
-0.0807829
-0.0811853
-0.0815911
-0.0820003
-0.0824129
-0.082829
-0.0832487
-0.0836721
-0.0840991
-0.08453
-0.0849646
-0.0854031
-0.0858455
-0.0862918
-0.0867419
-0.0871958
-0.0876533
-0.0881143
-0.0885785
-0.0890455
-0.0895147
-0.0899854
-0.0904565
-0.0909266
-0.091394
-0.0918561
-0.0923098
-0.0927512
-0.0931751
-0.0935752
-0.0939439
-0.0942722
-0.0945501
-0.0947673
-0.0949137
-0.0949815
-0.0601438
-0.0605087
-0.0608357
-0.061108
-0.0613727
-0.0616365
-0.0618961
-0.0621525
-0.0624081
-0.0626643
-0.0629222
-0.0631823
-0.0634452
-0.0637112
-0.0639803
-0.0642527
-0.0645284
-0.0648073
-0.0650894
-0.0653746
-0.0656627
-0.0659537
-0.0662475
-0.0665441
-0.0668432
-0.067145
-0.0674492
-0.0677559
-0.068065
-0.0683764
-0.0686902
-0.0690063
-0.0693246
-0.0696452
-0.069968
-0.070293
-0.0706203
-0.0709497
-0.0712814
-0.0716153
-0.0719514
-0.0722897
-0.0726303
-0.0729731
-0.0733183
-0.0736657
-0.0740154
-0.0743675
-0.074722
-0.0750789
-0.0754382
-0.0757999
-0.0761642
-0.076531
-0.0769003
-0.0772723
-0.077647
-0.0780243
-0.0784044
-0.0787873
-0.079173
-0.0795617
-0.0799532
-0.0803478
-0.0807455
-0.0811462
-0.0815501
-0.0819572
-0.0823676
-0.0827813
-0.0831983
-0.0836188
-0.0840426
-0.08447
-0.0849007
-0.085335
-0.0857726
-0.0862135
-0.0866578
-0.087105
-0.0875552
-0.0880079
-0.0884628
-0.0889193
-0.0893766
-0.0898339
-0.0902898
-0.0907429
-0.0911911
-0.0916319
-0.092062
-0.0924774
-0.0928734
-0.0932441
-0.0935829
-0.093882
-0.0941335
-0.094329
-0.0944614
-0.0945248
-0.060065
-0.0604307
-0.060761
-0.0610375
-0.0613073
-0.0615771
-0.0618427
-0.0621049
-0.0623658
-0.0626269
-0.0628888
-0.0631524
-0.0634181
-0.0636864
-0.0639574
-0.0642313
-0.0645082
-0.064788
-0.0650707
-0.0653563
-0.0656448
-0.065936
-0.06623
-0.0665265
-0.0668257
-0.0671273
-0.0674314
-0.067738
-0.0680468
-0.0683581
-0.0686716
-0.0689874
-0.0693054
-0.0696257
-0.0699481
-0.0702728
-0.0705997
-0.0709287
-0.07126
-0.0715934
-0.0719291
-0.072267
-0.072607
-0.0729494
-0.0732939
-0.0736408
-0.0739899
-0.0743413
-0.0746951
-0.0750512
-0.0754098
-0.0757707
-0.0761341
-0.0765
-0.0768684
-0.0772394
-0.0776129
-0.0779891
-0.0783679
-0.0787495
-0.0791338
-0.0795209
-0.0799108
-0.0803037
-0.0806994
-0.0810981
-0.0814998
-0.0819045
-0.0823123
-0.0827232
-0.0831372
-0.0835543
-0.0839745
-0.0843978
-0.0848242
-0.0852536
-0.0856859
-0.086121
-0.0865587
-0.0869987
-0.0874408
-0.0878846
-0.0883295
-0.0887748
-0.0892197
-0.0896631
-0.0901037
-0.0905397
-0.090969
-0.091389
-0.0917966
-0.0921879
-0.0925585
-0.0929031
-0.0932159
-0.0934906
-0.0937204
-0.0938992
-0.0940212
-0.0940825
-0.0599863
-0.0603527
-0.060686
-0.0609658
-0.0612396
-0.0615144
-0.0617854
-0.0620527
-0.0623184
-0.0625838
-0.0628497
-0.0631166
-0.0633853
-0.063656
-0.063929
-0.0642045
-0.0644826
-0.0647635
-0.065047
-0.0653332
-0.0656221
-0.0659136
-0.0662078
-0.0665044
-0.0668036
-0.0671052
-0.0674092
-0.0677156
-0.0680242
-0.0683352
-0.0686485
-0.068964
-0.0692817
-0.0696016
-0.0699237
-0.0702479
-0.0705744
-0.070903
-0.0712337
-0.0715667
-0.0719018
-0.0722391
-0.0725786
-0.0729203
-0.0732642
-0.0736103
-0.0739587
-0.0743094
-0.0746624
-0.0750176
-0.0753753
-0.0757353
-0.0760976
-0.0764625
-0.0768297
-0.0771995
-0.0775717
-0.0779466
-0.078324
-0.078704
-0.0790866
-0.079472
-0.07986
-0.0802508
-0.0806444
-0.0810408
-0.0814399
-0.0818419
-0.0822468
-0.0826545
-0.083065
-0.0834784
-0.0838945
-0.0843134
-0.0847349
-0.085159
-0.0855854
-0.0860141
-0.0864447
-0.086877
-0.0873106
-0.0877448
-0.0881793
-0.088613
-0.0890452
-0.0894746
-0.0898997
-0.0903188
-0.0907298
-0.09113
-0.0915164
-0.0918855
-0.0922332
-0.0925548
-0.0928452
-0.0930993
-0.0933115
-0.093477
-0.0935916
-0.0936523
-0.0599069
-0.060274
-0.0606098
-0.0608923
-0.0611696
-0.0614485
-0.061724
-0.0619958
-0.0622659
-0.0625353
-0.0628049
-0.0630751
-0.0633466
-0.0636197
-0.0638948
-0.064172
-0.0644515
-0.0647335
-0.0650179
-0.0653049
-0.0655943
-0.0658862
-0.0661806
-0.0664774
-0.0667766
-0.0670782
-0.0673821
-0.0676884
-0.0679969
-0.0683076
-0.0686206
-0.0689357
-0.0692531
-0.0695726
-0.0698942
-0.0702181
-0.070544
-0.0708721
-0.0712023
-0.0715347
-0.0718692
-0.0722058
-0.0725446
-0.0728856
-0.0732288
-0.0735741
-0.0739217
-0.0742715
-0.0746235
-0.0749778
-0.0753344
-0.0756933
-0.0760545
-0.0764181
-0.0767841
-0.0771524
-0.0775232
-0.0778965
-0.0782722
-0.0786505
-0.0790313
-0.0794146
-0.0798006
-0.0801891
-0.0805802
-0.0809739
-0.0813703
-0.0817693
-0.0821709
-0.082575
-0.0829818
-0.083391
-0.0838027
-0.0842167
-0.0846329
-0.0850512
-0.0854714
-0.0858932
-0.0863163
-0.0867404
-0.0871649
-0.0875894
-0.088013
-0.088435
-0.0888543
-0.0892697
-0.0896796
-0.0900823
-0.0904756
-0.0908571
-0.0912239
-0.0915726
-0.0918997
-0.092201
-0.0924722
-0.0927089
-0.0929068
-0.0930618
-0.093171
-0.0932321
-0.0598263
-0.060194
-0.0605321
-0.0608169
-0.0610968
-0.0613794
-0.0616587
-0.0619345
-0.0622084
-0.0624816
-0.0627545
-0.0630279
-0.0633021
-0.0635776
-0.0638547
-0.0641337
-0.0644147
-0.0646979
-0.0649833
-0.0652711
-0.0655611
-0.0658535
-0.0661482
-0.0664452
-0.0667445
-0.0670461
-0.06735
-0.0676561
-0.0679644
-0.0682749
-0.0685876
-0.0689024
-0.0692194
-0.0695384
-0.0698596
-0.070183
-0.0705084
-0.0708359
-0.0711655
-0.0714972
-0.071831
-0.0721669
-0.072505
-0.0728452
-0.0731875
-0.0735319
-0.0738785
-0.0742273
-0.0745783
-0.0749315
-0.0752869
-0.0756445
-0.0760044
-0.0763666
-0.0767311
-0.077098
-0.0774671
-0.0778387
-0.0782126
-0.0785888
-0.0789675
-0.0793487
-0.0797322
-0.0801182
-0.0805066
-0.0808975
-0.0812907
-0.0816864
-0.0820844
-0.0824847
-0.0828873
-0.083292
-0.0836989
-0.0841077
-0.0845182
-0.0849304
-0.0853439
-0.0857585
-0.0861738
-0.0865893
-0.0870046
-0.087419
-0.0878317
-0.0882418
-0.0886483
-0.0890498
-0.0894449
-0.0898317
-0.0902083
-0.0905722
-0.0909208
-0.091251
-0.0915597
-0.0918432
-0.0920978
-0.0923199
-0.092506
-0.0926529
-0.0927582
-0.0928203
-0.0597439
-0.0601122
-0.0604524
-0.060739
-0.0610213
-0.0613068
-0.0615896
-0.0618688
-0.0621462
-0.0624226
-0.0626987
-0.062975
-0.0632518
-0.0635297
-0.0638088
-0.0640896
-0.0643721
-0.0646565
-0.064943
-0.0652316
-0.0655223
-0.0658152
-0.0661103
-0.0664075
-0.066707
-0.0670087
-0.0673125
-0.0676185
-0.0679266
-0.0682369
-0.0685492
-0.0688637
-0.0691803
-0.0694989
-0.0698196
-0.0701424
-0.0704672
-0.0707941
-0.071123
-0.071454
-0.0717871
-0.0721222
-0.0724594
-0.0727986
-0.07314
-0.0734834
-0.073829
-0.0741766
-0.0745264
-0.0748784
-0.0752325
-0.0755888
-0.0759472
-0.0763079
-0.0766708
-0.0770359
-0.0774032
-0.0777728
-0.0781447
-0.0785188
-0.0788952
-0.0792739
-0.0796548
-0.080038
-0.0804235
-0.0808112
-0.0812011
-0.0815931
-0.0819873
-0.0823834
-0.0827816
-0.0831816
-0.0835832
-0.0839865
-0.0843911
-0.0847968
-0.0852034
-0.0856104
-0.0860176
-0.0864244
-0.0868302
-0.0872344
-0.0876361
-0.0880344
-0.0884282
-0.0888162
-0.0891969
-0.0895687
-0.0899294
-0.090277
-0.0906088
-0.0909223
-0.0912146
-0.0914824
-0.0917228
-0.0919325
-0.0921089
-0.0922493
-0.0923519
-0.0924157
-0.0596594
-0.0600283
-0.0603703
-0.0606586
-0.0609427
-0.0612308
-0.0615165
-0.0617988
-0.0620792
-0.0623587
-0.0626376
-0.0629165
-0.0631958
-0.0634759
-0.0637571
-0.0640396
-0.0643236
-0.0646093
-0.0648968
-0.0651863
-0.0654777
-0.0657712
-0.0660667
-0.0663642
-0.0666639
-0.0669656
-0.0672694
-0.0675753
-0.0678833
-0.0681933
-0.0685053
-0.0688194
-0.0691356
-0.0694537
-0.0697739
-0.0700961
-0.0704202
-0.0707464
-0.0710746
-0.0714049
-0.0717371
-0.0720713
-0.0724076
-0.0727458
-0.0730861
-0.0734285
-0.0737729
-0.0741193
-0.0744678
-0.0748184
-0.0751711
-0.0755258
-0.0758827
-0.0762417
-0.0766028
-0.076966
-0.0773314
-0.0776989
-0.0780685
-0.0784403
-0.0788142
-0.0791902
-0.0795683
-0.0799485
-0.0803308
-0.0807151
-0.0811014
-0.0814895
-0.0818796
-0.0822713
-0.0826647
-0.0830597
-0.0834559
-0.0838534
-0.0842517
-0.0846508
-0.0850501
-0.0854495
-0.0858483
-0.0862462
-0.0866424
-0.0870364
-0.0874272
-0.0878138
-0.0881953
-0.0885702
-0.0889372
-0.0892945
-0.0896404
-0.0899728
-0.0902894
-0.0905878
-0.0908654
-0.0911195
-0.0913475
-0.0915469
-0.0917152
-0.0918505
-0.0919514
-0.092017
-0.0595724
-0.0599419
-0.0602855
-0.0605752
-0.060861
-0.0611513
-0.0614395
-0.0617244
-0.0620075
-0.0622897
-0.0625713
-0.0628527
-0.0631343
-0.0634164
-0.0636995
-0.0639837
-0.0642692
-0.0645561
-0.0648448
-0.0651351
-0.0654273
-0.0657213
-0.0660172
-0.0663151
-0.066615
-0.0669168
-0.0672206
-0.0675264
-0.0678342
-0.0681439
-0.0684557
-0.0687694
-0.0690851
-0.0694027
-0.0697223
-0.0700438
-0.0703674
-0.0706928
-0.0710202
-0.0713496
-0.0716809
-0.0720142
-0.0723494
-0.0726866
-0.0730258
-0.0733669
-0.0737101
-0.0740552
-0.0744023
-0.0747514
-0.0751025
-0.0754556
-0.0758107
-0.0761679
-0.076527
-0.0768882
-0.0772514
-0.0776167
-0.0779839
-0.0783531
-0.0787243
-0.0790975
-0.0794726
-0.0798496
-0.0802285
-0.0806092
-0.0809916
-0.0813757
-0.0817613
-0.0821485
-0.0825369
-0.0829265
-0.0833172
-0.0837086
-0.0841005
-0.0844926
-0.0848846
-0.0852761
-0.0856665
-0.0860554
-0.0864421
-0.0868259
-0.0872059
-0.0875812
-0.0879506
-0.0883129
-0.0886668
-0.0890106
-0.0893426
-0.089661
-0.0899636
-0.0902483
-0.0905129
-0.090755
-0.0909724
-0.0911628
-0.0913245
-0.0914559
-0.0915557
-0.0916234
-0.0594827
-0.0598528
-0.0601979
-0.0604887
-0.0607759
-0.0610681
-0.0613585
-0.0616458
-0.0619313
-0.0622159
-0.0624998
-0.0627834
-0.0630672
-0.0633513
-0.0636362
-0.0639219
-0.0642089
-0.0644971
-0.0647868
-0.065078
-0.0653709
-0.0656655
-0.0659619
-0.0662601
-0.0665602
-0.0668621
-0.0671659
-0.0674716
-0.0677792
-0.0680887
-0.0684001
-0.0687134
-0.0690286
-0.0693457
-0.0696647
-0.0699856
-0.0703084
-0.0706331
-0.0709596
-0.0712881
-0.0716184
-0.0719507
-0.0722848
-0.0726208
-0.0729588
-0.0732986
-0.0736404
-0.0739841
-0.0743297
-0.0746772
-0.0750266
-0.0753779
-0.0757312
-0.0760864
-0.0764435
-0.0768025
-0.0771634
-0.0775261
-0.0778908
-0.0782573
-0.0786257
-0.0789958
-0.0793677
-0.0797413
-0.0801166
-0.0804935
-0.0808718
-0.0812516
-0.0816327
-0.082015
-0.0823983
-0.0827824
-0.0831672
-0.0835524
-0.0839377
-0.0843228
-0.0847073
-0.0850908
-0.0854728
-0.0858528
-0.08623
-0.0866037
-0.0869732
-0.0873373
-0.0876952
-0.0880455
-0.0883869
-0.088718
-0.0890371
-0.0893425
-0.0896324
-0.0899049
-0.0901578
-0.0903893
-0.0905974
-0.0907804
-0.0909366
-0.0910648
-0.0911641
-0.091234
-0.0593901
-0.0597606
-0.0601071
-0.060399
-0.0606873
-0.0609812
-0.0612735
-0.0615629
-0.0618505
-0.0621372
-0.0624233
-0.062709
-0.0629947
-0.0632806
-0.0635672
-0.0638545
-0.0641427
-0.0644322
-0.0647229
-0.065015
-0.0653086
-0.0656038
-0.0659007
-0.0661992
-0.0664995
-0.0668015
-0.0671053
-0.0674109
-0.0677183
-0.0680275
-0.0683386
-0.0686515
-0.0689661
-0.0692827
-0.069601
-0.0699212
-0.0702432
-0.070567
-0.0708927
-0.0712202
-0.0715495
-0.0718806
-0.0722136
-0.0725484
-0.072885
-0.0732235
-0.0735638
-0.0739059
-0.0742499
-0.0745957
-0.0749433
-0.0752927
-0.075644
-0.0759971
-0.076352
-0.0767086
-0.0770671
-0.0774273
-0.0777892
-0.0781529
-0.0785182
-0.0788851
-0.0792537
-0.0796237
-0.0799952
-0.0803681
-0.0807422
-0.0811175
-0.0814939
-0.0818711
-0.0822491
-0.0826276
-0.0830064
-0.0833852
-0.0837638
-0.0841418
-0.0845188
-0.0848943
-0.0852679
-0.0856389
-0.0860068
-0.0863707
-0.0867298
-0.0870833
-0.08743
-0.0877688
-0.0880985
-0.0884177
-0.0887248
-0.0890184
-0.0892967
-0.089558
-0.0898006
-0.0900228
-0.0902229
-0.0903994
-0.0905511
-0.0906768
-0.090776
-0.0908482
-0.0592944
-0.0596654
-0.0600131
-0.0603059
-0.0605952
-0.0608905
-0.0611845
-0.0614757
-0.0617652
-0.0620538
-0.0623418
-0.0626294
-0.0629169
-0.0632045
-0.0634926
-0.0637813
-0.0640709
-0.0643614
-0.0646531
-0.0649461
-0.0652404
-0.0655362
-0.0658334
-0.0661323
-0.0664328
-0.0667349
-0.0670387
-0.0673442
-0.0676514
-0.0679603
-0.068271
-0.0685834
-0.0688976
-0.0692135
-0.0695311
-0.0698506
-0.0701717
-0.0704947
-0.0708194
-0.0711458
-0.071474
-0.071804
-0.0721357
-0.0724692
-0.0728045
-0.0731414
-0.0734802
-0.0738207
-0.0741629
-0.0745069
-0.0748526
-0.0752
-0.0755492
-0.0759001
-0.0762526
-0.0766068
-0.0769627
-0.0773202
-0.0776792
-0.0780398
-0.078402
-0.0787656
-0.0791305
-0.0794969
-0.0798644
-0.0802331
-0.0806029
-0.0809736
-0.081345
-0.0817171
-0.0820896
-0.0824624
-0.0828351
-0.0832075
-0.0835793
-0.0839501
-0.0843195
-0.0846871
-0.0850523
-0.0854146
-0.0857732
-0.0861276
-0.0864767
-0.0868199
-0.087156
-0.0874839
-0.0878025
-0.0881105
-0.0884066
-0.0886892
-0.088957
-0.0892083
-0.0894417
-0.0896557
-0.0898488
-0.0900199
-0.0901677
-0.0902916
-0.0903909
-0.0904655
-0.0591955
-0.0595668
-0.0599157
-0.0602093
-0.0604994
-0.060796
-0.0610915
-0.0613843
-0.0616754
-0.0619658
-0.0622555
-0.0625448
-0.0628339
-0.063123
-0.0634126
-0.0637026
-0.0639933
-0.0642849
-0.0645776
-0.0648713
-0.0651663
-0.0654626
-0.0657603
-0.0660595
-0.0663601
-0.0666623
-0.066966
-0.0672714
-0.0675784
-0.067887
-0.0681973
-0.0685092
-0.0688228
-0.0691381
-0.069455
-0.0697737
-0.070094
-0.070416
-0.0707396
-0.071065
-0.071392
-0.0717208
-0.0720512
-0.0723833
-0.072717
-0.0730525
-0.0733896
-0.0737283
-0.0740687
-0.0744108
-0.0747545
-0.0750998
-0.0754468
-0.0757953
-0.0761454
-0.076497
-0.0768501
-0.0772048
-0.0775608
-0.0779183
-0.0782771
-0.0786372
-0.0789985
-0.079361
-0.0797244
-0.0800889
-0.0804541
-0.0808201
-0.0811865
-0.0815533
-0.0819203
-0.0822871
-0.0826537
-0.0830196
-0.0833846
-0.0837482
-0.0841101
-0.0844698
-0.0848268
-0.0851804
-0.0855301
-0.0858752
-0.0862147
-0.0865479
-0.0868739
-0.0871915
-0.0874997
-0.0877974
-0.0880831
-0.0883558
-0.0886139
-0.0888563
-0.0890814
-0.0892881
-0.0894752
-0.0896416
-0.0897863
-0.0899088
-0.0900085
-0.0900854
-0.0590932
-0.0594649
-0.0598148
-0.0601091
-0.0604
-0.0606976
-0.0609945
-0.0612886
-0.0615813
-0.0618732
-0.0621644
-0.0624552
-0.0627458
-0.0630363
-0.0633272
-0.0636184
-0.0639103
-0.0642028
-0.0644963
-0.0647908
-0.0650864
-0.0653832
-0.0656813
-0.0659807
-0.0662815
-0.0665837
-0.0668874
-0.0671927
-0.0674994
-0.0678077
-0.0681175
-0.0684289
-0.0687419
-0.0690565
-0.0693727
-0.0696905
-0.0700099
-0.0703309
-0.0706535
-0.0709777
-0.0713035
-0.0716309
-0.07196
-0.0722906
-0.0726228
-0.0729566
-0.073292
-0.0736289
-0.0739674
-0.0743075
-0.074649
-0.0749921
-0.0753367
-0.0756828
-0.0760303
-0.0763793
-0.0767296
-0.0770812
-0.0774342
-0.0777884
-0.0781437
-0.0785002
-0.0788577
-0.0792162
-0.0795755
-0.0799355
-0.0802962
-0.0806572
-0.0810186
-0.08138
-0.0817413
-0.0821023
-0.0824627
-0.0828221
-0.0831802
-0.0835367
-0.0838912
-0.0842431
-0.0845919
-0.0849372
-0.0852782
-0.0856142
-0.0859445
-0.0862683
-0.0865846
-0.0868925
-0.087191
-0.0874789
-0.0877552
-0.0880187
-0.0882681
-0.0885023
-0.0887201
-0.0889204
-0.0891021
-0.0892645
-0.0894066
-0.089528
-0.0896284
-0.0897076
-0.0589874
-0.0593595
-0.0597104
-0.0600054
-0.0602969
-0.0605954
-0.0608935
-0.0611888
-0.0614828
-0.061776
-0.0620686
-0.0623608
-0.0626527
-0.0629445
-0.0632365
-0.0635289
-0.0638217
-0.0641152
-0.0644095
-0.0647047
-0.0650008
-0.0652981
-0.0655965
-0.0658961
-0.0661971
-0.0664993
-0.0668029
-0.0671079
-0.0674144
-0.0677223
-0.0680317
-0.0683425
-0.0686549
-0.0689688
-0.0692842
-0.0696011
-0.0699195
-0.0702394
-0.0705609
-0.0708839
-0.0712085
-0.0715345
-0.0718621
-0.0721912
-0.0725217
-0.0728538
-0.0731874
-0.0735224
-0.0738589
-0.0741969
-0.0745363
-0.0748771
-0.0752192
-0.0755628
-0.0759076
-0.0762537
-0.0766011
-0.0769497
-0.0772994
-0.0776502
-0.0780021
-0.0783548
-0.0787084
-0.0790628
-0.0794178
-0.0797734
-0.0801293
-0.0804854
-0.0808416
-0.0811976
-0.0815533
-0.0819083
-0.0822624
-0.0826154
-0.0829667
-0.0833162
-0.0836633
-0.0840075
-0.0843485
-0.0846855
-0.0850181
-0.0853454
-0.0856669
-0.0859816
-0.0862888
-0.0865876
-0.0868769
-0.0871559
-0.0874234
-0.0876784
-0.0879199
-0.0881467
-0.0883579
-0.0885525
-0.0887297
-0.0888885
-0.0890285
-0.0891492
-0.0892503
-0.0893318
-0.0588783
-0.0592506
-0.0596025
-0.059898
-0.06019
-0.0604894
-0.0607884
-0.0610849
-0.06138
-0.0616744
-0.0619683
-0.0622616
-0.0625547
-0.0628477
-0.0631408
-0.0634341
-0.0637279
-0.0640222
-0.0643172
-0.064613
-0.0649097
-0.0652073
-0.065506
-0.0658058
-0.0661068
-0.0664091
-0.0667126
-0.0670174
-0.0673235
-0.067631
-0.0679399
-0.0682501
-0.0685618
-0.0688749
-0.0691895
-0.0695055
-0.0698229
-0.0701417
-0.070462
-0.0707838
-0.071107
-0.0714316
-0.0717576
-0.0720851
-0.072414
-0.0727443
-0.073076
-0.073409
-0.0737435
-0.0740792
-0.0744163
-0.0747547
-0.0750944
-0.0754353
-0.0757773
-0.0761206
-0.0764649
-0.0768103
-0.0771568
-0.0775041
-0.0778523
-0.0782012
-0.0785509
-0.0789011
-0.0792517
-0.0796027
-0.0799539
-0.080305
-0.080656
-0.0810065
-0.0813565
-0.0817056