/*--------------------------------*- C++ -*----------------------------------*\
| =========                 |                                                 |
| \\      /  F ield         | OpenFOAM: The Open Source CFD Toolbox           |
|  \\    /   O peration     | Version:  2406                                  |
|   \\  /    A nd           | Website:  www.openfoam.com                      |
|    \\/     M anipulation  |                                                 |
\*---------------------------------------------------------------------------*/
FoamFile
{
    version     2.0;
    format      ascii;
    arch        "LSB;label=32;scalar=64";
    class       volScalarField;
    location    "84";
    object      p;
}
// * * * * * * * * * * * * * * * * * * * * * * * * * * * * * * * * * * * * * //

dimensions      [0 2 -2 0 0 0 0];

internalField   nonuniform List<scalar> 
1916
(
15.4282
15.4272
15.425
15.4223
15.4191
15.4158
15.4122
15.4085
15.4047
15.4008
15.3969
15.393
15.389
15.385
15.381
15.377
15.373
15.3689
15.3649
15.3609
15.3569
15.3529
15.3489
15.3449
15.341
15.3371
15.3333
15.3296
15.326
15.3226
15.3194
15.3164
15.3139
15.3118
15.3103
15.3095
15.3096
15.3108
15.3133
15.3173
15.3227
15.3296
15.3378
15.3468
15.3559
15.364
15.3684
15.4309
15.4281
15.4252
15.4222
15.4191
15.4157
15.4121
15.4084
15.4046
15.4007
15.3968
15.3929
15.389
15.385
15.381
15.377
15.3729
15.3689
15.3649
15.3609
15.3568
15.3528
15.3488
15.3449
15.3409
15.3371
15.3333
15.3295
15.3259
15.3225
15.3193
15.3163
15.3138
15.3116
15.3101
15.3094
15.3096
15.311
15.3138
15.3181
15.3242
15.332
15.3412
15.3512
15.3614
15.3708
15.376
15.4328
15.4287
15.425
15.422
15.419
15.4155
15.4119
15.4083
15.4045
15.4007
15.3968
15.3929
15.3889
15.3849
15.3809
15.3769
15.3729
15.3689
15.3648
15.3608
15.3568
15.3527
15.3487
15.3447
15.3407
15.3368
15.3329
15.3291
15.3253
15.3217
15.3183
15.315
15.3121
15.3095
15.3074
15.306
15.3054
15.306
15.308
15.3117
15.3176
15.3257
15.3361
15.3484
15.3617
15.3749
15.3814
15.4341
15.4294
15.4251
15.422
15.4189
15.4154
15.4118
15.4081
15.4044
15.4005
15.3967
15.3928
15.3888
15.3848
15.3808
15.3768
15.3728
15.3688
15.3647
15.3606
15.3566
15.3525
15.3484
15.3443
15.3402
15.3362
15.3321
15.328
15.3239
15.3198
15.3157
15.3117
15.3078
15.3039
15.3001
15.2967
15.2935
15.291
15.2894
15.2892
15.291
15.2955
15.3036
15.316
15.3318
15.3495
15.3537
15.4351
15.4302
15.4255
15.4221
15.4189
15.4154
15.4117
15.408
15.4042
15.4004
15.3965
15.3926
15.3887
15.3847
15.3807
15.3767
15.3727
15.3686
15.3645
15.3604
15.3563
15.3521
15.3479
15.3437
15.3394
15.3351
15.3307
15.3262
15.3215
15.3167
15.3117
15.3063
15.3007
15.2945
15.2879
15.2806
15.2726
15.2639
15.2544
15.2445
15.2346
15.2257
15.2193
15.2175
15.2199
15.2266
15.2036
15.4359
15.4308
15.4259
15.4222
15.4189
15.4154
15.4116
15.4079
15.4041
15.4003
15.3964
15.3925
15.3885
15.3846
15.3806
15.3765
15.3725
15.3684
15.3643
15.3601
15.3559
15.3517
15.3473
15.3429
15.3384
15.3338
15.3289
15.3239
15.3185
15.3127
15.3063
15.2993
15.2913
15.2821
15.2713
15.2586
15.2433
15.2249
15.2025
15.1754
15.1426
15.1037
15.0575
15.0047
14.9366
14.8499
14.6235
15.4365
15.4314
15.4262
15.4224
15.419
15.4154
15.4116
15.4078
15.404
15.4001
15.3963
15.3924
15.3884
15.3844
15.3804
15.3764
15.3723
15.3682
15.364
15.3598
15.3555
15.3511
15.3467
15.3421
15.3373
15.3323
15.327
15.3213
15.3151
15.3082
15.3004
15.2914
15.2807
15.268
15.2524
15.2331
15.2088
15.1779
15.1382
15.0866
15.0188
14.9289
14.8063
14.6408
14.3821
14.0546
12.8547
15.4369
15.4317
15.4265
15.4225
15.419
15.4154
15.4115
15.4077
15.4039
15.4
15.3962
15.3922
15.3883
15.3843
15.3803
15.3762
15.3721
15.3679
15.3637
15.3595
15.3551
15.3506
15.346
15.3412
15.3362
15.3309
15.3252
15.3189
15.3119
15.304
15.2947
15.2838
15.2706
15.2544
15.234
15.208
15.1744
15.1302
15.0713
14.9915
14.8811
14.7249
14.491
14.1304
13.4347
12.1022
7.50726
15.4372
15.432
15.4266
15.4226
15.4191
15.4154
15.4115
15.4076
15.4038
15.4
15.3961
15.3921
15.3882
15.3842
15.3801
15.3761
15.3719
15.3678
15.3635
15.3592
15.3548
15.3502
15.3455
15.3406
15.3354
15.3298
15.3237
15.317
15.3094
15.3006
15.2903
15.2778
15.2626
15.2435
15.2192
15.1877
15.1463
15.0908
15.0153
14.9105
14.7614
14.5433
14.2085
13.6745
12.7324
11.0901
8.12705
15.4373
15.4321
15.4267
15.4227
15.4191
15.4154
15.4115
15.4076
15.4038
15.3999
15.396
15.3921
15.3881
15.3841
15.3801
15.376
15.3718
15.3676
15.3634
15.359
15.3546
15.35
15.3452
15.3402
15.3349
15.3291
15.3229
15.3159
15.3079
15.2987
15.2877
15.2745
15.2581
15.2374
15.2109
15.1763
15.1303
15.0684
14.9832
14.8637
14.6922
14.44
14.058
13.4663
12.5371
11.0779
8.98675
15.4373
15.4321
15.4267
15.4226
15.4191
15.4153
15.4115
15.4076
15.4037
15.3999
15.396
15.392
15.3881
15.3841
15.38
15.3759
15.3718
15.3676
15.3633
15.359
15.3545
15.3499
15.3451
15.3401
15.3348
15.329
15.3228
15.3158
15.3078
15.2986
15.2876
15.2743
15.2578
15.2371
15.2106
15.1759
15.1299
15.0678
14.9824
14.8627
14.6908
14.4377
14.0542
13.4596
12.5255
11.0571
8.95464
15.4371
15.4319
15.4266
15.4225
15.419
15.4153
15.4114
15.4076
15.4037
15.3999
15.396
15.392
15.3881
15.3841
15.38
15.3759
15.3718
15.3676
15.3634
15.359
15.3546
15.35
15.3453
15.3403
15.3351
15.3295
15.3234
15.3166
15.309
15.3002
15.2898
15.2773
15.2619
15.2428
15.2183
15.1867
15.145
15.0893
15.0133
14.9077
14.7574
14.5372
14.1985
13.6567
12.698
11.0194
7.9868
15.4368
15.4316
15.4263
15.4224
15.4189
15.4152
15.4114
15.4076
15.4037
15.3999
15.396
15.3921
15.3881
15.3841
15.3801
15.376
15.3719
15.3677
15.3635
15.3592
15.3548
15.3503
15.3457
15.3408
15.3358
15.3304
15.3246
15.3183
15.3113
15.3032
15.2939
15.2829
15.2696
15.2532
15.2326
15.2064
15.1725
15.1279
15.0683
14.9876
14.8757
14.717
14.4789
14.1105
13.3955
12.0192
7.23573
15.4363
15.4312
15.426
15.4222
15.4188
15.4152
15.4114
15.4076
15.4038
15.3999
15.3961
15.3921
15.3882
15.3842
15.3802
15.3761
15.372
15.3678
15.3636
15.3594
15.3551
15.3507
15.3462
15.3415
15.3367
15.3317
15.3263
15.3205
15.3143
15.3073
15.2993
15.2902
15.2794
15.2665
15.2507
15.2311
15.2065
15.1751
15.1348
15.0823
15.0132
14.9214
14.7957
14.6257
14.3585
14.0208
12.7747
15.4357
15.4307
15.4257
15.422
15.4187
15.4152
15.4114
15.4076
15.4039
15.4
15.3962
15.3922
15.3883
15.3843
15.3803
15.3762
15.3721
15.368
15.3638
15.3597
15.3554
15.3511
15.3467
15.3423
15.3377
15.333
15.3281
15.3229
15.3175
15.3115
15.3051
15.2979
15.2897
15.2804
15.2694
15.2564
15.2408
15.2219
15.199
15.1712
15.1376
15.0974
15.0497
14.9948
14.9235
14.8329
14.5968
15.4348
15.43
15.4253
15.4218
15.4186
15.4152
15.4115
15.4077
15.404
15.4001
15.3963
15.3923
15.3884
15.3844
15.3804
15.3763
15.3722
15.3682
15.364
15.3599
15.3557
15.3515
15.3473
15.343
15.3387
15.3342
15.3297
15.3251
15.3204
15.3154
15.3103
15.3048
15.299
15.2927
15.2858
15.2783
15.27
15.261
15.2511
15.2407
15.2303
15.2209
15.2138
15.2113
15.2131
15.2194
15.1951
15.4338
15.4292
15.4249
15.4217
15.4186
15.4152
15.4116
15.4078
15.4041
15.4003
15.3964
15.3924
15.3885
15.3845
15.3805
15.3764
15.3724
15.3683
15.3642
15.3601
15.356
15.3518
15.3477
15.3436
15.3394
15.3352
15.331
15.3269
15.3227
15.3185
15.3143
15.3101
15.306
15.302
15.298
15.2943
15.291
15.2883
15.2864
15.2859
15.2874
15.2918
15.2997
15.312
15.3279
15.3458
15.3499
15.4325
15.4285
15.4247
15.4218
15.4187
15.4153
15.4117
15.408
15.4042
15.4004
15.3965
15.3925
15.3886
15.3846
15.3805
15.3765
15.3724
15.3684
15.3643
15.3602
15.3561
15.3521
15.348
15.3439
15.3399
15.3358
15.3319
15.3279
15.3241
15.3204
15.3168
15.3134
15.3103
15.3076
15.3053
15.3037
15.303
15.3034
15.3052
15.3088
15.3145
15.3225
15.3329
15.3454
15.3588
15.3722
15.3787
15.4307
15.4279
15.4249
15.422
15.4188
15.4154
15.4118
15.4081
15.4043
15.4004
15.3965
15.3926
15.3886
15.3846
15.3806
15.3765
15.3725
15.3684
15.3644
15.3603
15.3562
15.3521
15.3481
15.3441
15.3401
15.3361
15.3322
15.3284
15.3247
15.3211
15.3178
15.3147
15.312
15.3097
15.3081
15.3072
15.3072
15.3085
15.3111
15.3154
15.3214
15.3291
15.3383
15.3484
15.3587
15.3682
15.3734
15.4279
15.4269
15.4248
15.422
15.4189
15.4155
15.4119
15.4082
15.4044
15.4005
15.3966
15.3926
15.3886
15.3846
15.3806
15.3766
15.3725
15.3685
15.3644
15.3603
15.3562
15.3522
15.3481
15.3441
15.3401
15.3361
15.3322
15.3284
15.3248
15.3212
15.3179
15.3148
15.3121
15.3099
15.3082
15.3073
15.3073
15.3083
15.3107
15.3145
15.3199
15.3267
15.3349
15.344
15.3532
15.3613
15.3658
-2.59949
-2.34537
-0.385683
0.0294189
-0.255948
-0.384103
3.29038
1.224
0.942287
0.591263
0.0641665
-0.236034
5.68967
2.61267
1.13194
0.553702
0.0986837
-0.265958
5.62613
2.51052
1.00039
0.38687
-0.126417
-0.562171
3.00035
0.8426
0.527957
0.112946
-0.557061
-1.05194
-3.39435
-3.23589
-1.15773
-0.749955
-1.22122
-1.59366
-0.114331
-0.115246
-0.115916
-0.116039
-0.115755
-0.115108
-0.114099
-0.11273
-0.111006
-0.108936
-0.10652
-0.103755
-0.100634
-0.0971524
-0.0933155
-0.089146
-0.0846862
-0.0799936
-0.0751372
-0.070193
-0.0652375
-0.0603452
-0.0555847
-0.0510161
-0.0466882
-0.0426378
-0.0388875
-0.035445
-0.0323072
-0.0294619
-0.0268894
-0.0245638
-0.0224526
-0.0205196
-0.0187296
-0.0170481
-0.0154417
-0.0138798
-0.0123393
-0.0108042
-0.00924922
-0.00764529
-0.00601977
-0.00443266
-0.00277758
-0.00109604
-0.000204612
-0.112892
-0.113862
-0.114555
-0.114737
-0.114578
-0.114074
-0.113199
-0.11195
-0.110335
-0.108366
-0.106051
-0.103392
-0.100383
-0.0970178
-0.0932952
-0.08923
-0.0848622
-0.080247
-0.0754501
-0.0705516
-0.0656254
-0.0607464
-0.0559818
-0.051395
-0.0470358
-0.0429477
-0.0391532
-0.0356543
-0.0324517
-0.0295389
-0.0268948
-0.0244977
-0.0223168
-0.0203172
-0.0184745
-0.0167583
-0.0151394
-0.0135744
-0.0120314
-0.0105283
-0.00906314
-0.00749723
-0.00575587
-0.00421698
-0.00283783
-0.000752139
-0.000116459
-0.11309
-0.113982
-0.114629
-0.114794
-0.114671
-0.114205
-0.113356
-0.112124
-0.110529
-0.108593
-0.106329
-0.103749
-0.100846
-0.097597
-0.0939769
-0.0899872
-0.0856612
-0.0810588
-0.0762461
-0.0713048
-0.0663154
-0.0613505
-0.0564794
-0.0517762
-0.0473024
-0.0431029
-0.0391874
-0.0355695
-0.0322505
-0.0292328
-0.026498
-0.0240336
-0.0218071
-0.0197915
-0.017954
-0.0162754
-0.0147157
-0.0131905
-0.0116852
-0.0102868
-0.009018
-0.00752478
-0.00558896
-0.00400287
-0.00300073
-0.00099436
0.000106953
-0.117981
-0.118175
-0.118265
-0.118016
-0.117537
-0.116729
-0.115559
-0.114044
-0.112221
-0.110122
-0.107771
-0.105181
-0.102326
-0.0991541
-0.0955992
-0.091624
-0.0872527
-0.0825546
-0.0776045
-0.0724815
-0.0672694
-0.0620555
-0.0569416
-0.0520078
-0.0473058
-0.0428621
-0.0386919
-0.0348566
-0.0313824
-0.0282425
-0.0254141
-0.0228983
-0.0206721
-0.0187193
-0.0169673
-0.0153994
-0.0139646
-0.0125738
-0.011252
-0.0100993
-0.0090842
-0.00771483
-0.00574626
-0.00414506
-0.00318063
-0.00117037
0.000389406
-0.131877
-0.128876
-0.126565
-0.124865
-0.123329
-0.121632
-0.119705
-0.117563
-0.115241
-0.112769
-0.110182
-0.107485
-0.104639
-0.101542
-0.0980661
-0.0941009
-0.0896367
-0.0847502
-0.0795388
-0.0741053
-0.0685404
-0.062963
-0.057491
-0.0521831
-0.0470386
-0.0421262
-0.0375762
-0.0334927
-0.0298367
-0.0265076
-0.023536
-0.0209852
-0.0188457
-0.0170401
-0.0154558
-0.0140741
-0.0128977
-0.0118426
-0.0108949
-0.0100986
-0.00935915
-0.00820229
-0.0064855
-0.00503141
-0.00392114
-0.0016459
0.000336101
-0.165863
-0.146779
-0.136508
-0.132077
-0.12914
-0.126395
-0.123653
-0.120878
-0.118065
-0.11524
-0.112443
-0.109691
-0.106932
-0.104023
-0.100746
-0.0968665
-0.0923025
-0.087149
-0.0815702
-0.0757306
-0.0697768
-0.0638192
-0.0579084
-0.0520395
-0.0463016
-0.0408935
-0.0360151
-0.0316347
-0.0276011
-0.0239115
-0.0207665
-0.0182659
-0.0163035
-0.0147103
-0.0133907
-0.0123323
-0.0115603
-0.0110277
-0.0106776
-0.0104482
-0.0101384
-0.00934885
-0.00803308
-0.00675062
-0.00517788
-0.00245324
-0.000206586
-0.232907
-0.15809
-0.132315
-0.129247
-0.126942
-0.124157
-0.121847
-0.11963
-0.117259
-0.11482
-0.112407
-0.110035
-0.107652
-0.105077
-0.102017
-0.0982245
-0.0936257
-0.0883268
-0.082553
-0.0765702
-0.0705211
-0.0643406
-0.0579772
-0.0515099
-0.0452116
-0.0393488
-0.0339816
-0.0290354
-0.0245083
-0.0206467
-0.0175628
-0.015187
-0.013368
-0.0120199
-0.0110556
-0.0104688
-0.0102445
-0.0103323
-0.0106552
-0.0110977
-0.0113986
-0.0111869
-0.0103748
-0.00923719
-0.00725622
-0.00391384
-0.00127572
-0.270658
-0.168123
-0.145769
-0.1479
-0.144549
-0.13864
-0.134165
-0.130416
-0.126523
-0.122553
-0.118699
-0.114993
-0.111397
-0.107755
-0.103764
-0.0991394
-0.0938165
-0.087978
-0.0819205
-0.0759339
-0.0699384
-0.0636839
-0.057121
-0.0504056
-0.0438214
-0.0375658
-0.0316854
-0.0262754
-0.0215413
-0.0176056
-0.0143946
-0.011874
-0.0101794
-0.00924696
-0.00880777
-0.00879443
-0.00917845
-0.00986812
-0.0108198
-0.0119661
-0.0130439
-0.0136034
-0.0134176
-0.0126211
-0.0105378
-0.00649545
-0.00275171
-0.241816
-0.159437
-0.128825
-0.128547
-0.126361
-0.120945
-0.117156
-0.114865
-0.112612
-0.1101
-0.107615
-0.10534
-0.103246
-0.101133
-0.0987015
-0.0956455
-0.0917351
-0.0870026
-0.0816678
-0.0758977
-0.0697129
-0.0630595
-0.0560127
-0.0489138
-0.0421676
-0.0358129
-0.0297817
-0.0242094
-0.0193273
-0.0151725
-0.0118502
-0.00949234
-0.00813409
-0.00754869
-0.00749568
-0.00791153
-0.0087555
-0.00989309
-0.0113014
-0.0129337
-0.0145349
-0.0157264
-0.0162999
-0.0161376
-0.0142922
-0.00970263
-0.00416618
-0.418011
-0.427457
-0.415081
-0.412256
-0.401986
-0.378381
-0.34885
-0.318821
-0.289016
-0.259394
-0.230743
-0.204034
-0.179835
-0.158306
-0.13935
-0.122703
-0.108075
-0.0953236
-0.0844167
-0.0752047
-0.0673474
-0.0602616
-0.053501
-0.0469255
-0.0405316
-0.0343059
-0.0282907
-0.0226992
-0.0178043
-0.0137425
-0.0106889
-0.00867101
-0.00752242
-0.0070052
-0.00702045
-0.00757732
-0.00862421
-0.010022
-0.0116967
-0.0135941
-0.015562
-0.0173224
-0.0184991
-0.0184872
-0.0163987
-0.0116384
-0.00447551
-0.772997
-0.805498
-0.796077
-0.796824
-0.789355
-0.762802
-0.725386
-0.684069
-0.639157
-0.589862
-0.537136
-0.482737
-0.428189
-0.37468
-0.323205
-0.274588
-0.229527
-0.188644
-0.152458
-0.121293
-0.0951737
-0.073822
-0.0568996
-0.0440497
-0.0346696
-0.0278804
-0.0226527
-0.0183201
-0.0146737
-0.0116534
-0.00925646
-0.00751749
-0.0064885
-0.00611876
-0.00632099
-0.0070455
-0.0082348
-0.00979218
-0.0115776
-0.013525
-0.0155397
-0.0173672
-0.0185932
-0.0185687
-0.0164875
-0.0124787
-0.00425543
-1.22394
-1.18488
-1.15257
-1.1559
-1.14818
-1.12042
-1.08588
-1.04977
-1.00926
-0.961895
-0.907629
-0.847233
-0.781437
-0.711177
-0.637791
-0.562759
-0.487353
-0.412555
-0.339291
-0.268802
-0.202897
-0.143919
-0.0942554
-0.0555546
-0.0280563
-0.0104183
-0.000290976
0.00469481
0.00642698
0.00631712
0.0053022
0.00386208
0.0022405
0.000640849
-0.000879632
-0.0024449
-0.00420228
-0.00618337
-0.00828677
-0.010465
-0.0125977
-0.0144621
-0.0157059
-0.0158909
-0.014116
-0.0111807
-0.002229
-1.66867
-1.51936
-1.46771
-1.47903
-1.47409
-1.44968
-1.42215
-1.39453
-1.36293
-1.32482
-1.27942
-1.226
-1.16381
-1.09298
-1.01465
-0.930184
-0.840014
-0.743359
-0.638986
-0.526742
-0.409129
-0.291733
-0.182052
-0.0874042
-0.0129262
0.0395916
0.0715312
0.0864117
0.0887235
0.0829927
0.0730466
0.061663
0.0506186
0.0408156
0.0324381
0.0252199
0.0188379
0.0131209
0.00801336
0.00342438
-0.000672183
-0.00422721
-0.00700867
-0.00878402
-0.00854624
-0.0082619
0.000841071
-1.68934
-1.54228
-1.48872
-1.48869
-1.48833
-1.48352
-1.48022
-1.47782
-1.47324
-1.46447
-1.44983
-1.42687
-1.39329
-1.34844
-1.29353
-1.23002
-1.15711
-1.07074
-0.964363
-0.832155
-0.673156
-0.493612
-0.306086
-0.126347
0.0306484
0.15424
0.239718
0.288151
0.305001
0.298184
0.27605
0.245864
0.213058
0.181103
0.151799
0.125776
0.103043
0.0833702
0.066429
0.0518544
0.0392929
0.0284417
0.0191424
0.0112942
0.00576354
-0.000103574
0.00424938
-1.54302
-1.51133
-1.49419
-1.48815
-1.48576
-1.48437
-1.48464
-1.48683
-1.48974
-1.49201
-1.49188
-1.48636
-1.47229
-1.44881
-1.41818
-1.38324
-1.34305
-1.29022
-1.2107
-1.08868
-0.914517
-0.689806
-0.428056
-0.152197
0.1114
0.3394
0.515813
0.633645
0.694604
0.706989
0.682547
0.633512
0.570702
0.502558
0.434922
0.371303
0.313436
0.261904
0.216584
0.177001
0.142465
0.112256
0.0857158
0.0621498
0.0416003
0.0219331
0.0100587
-1.48472
-1.48072
-1.47879
-1.47852
-1.47946
-1.48091
-1.48275
-1.48508
-1.48766
-1.48996
-1.49088
-1.48803
-1.47826
-1.46093
-1.44001
-1.42095
-1.40523
-1.38525
-1.34039
-1.24355
-1.07443
-0.826756
-0.510261
-0.150426
0.218434
0.561674
0.850507
1.06601
1.20128
1.26049
1.25526
1.20084
1.11313
1.00649
0.892271
0.778486
0.67018
0.570124
0.479468
0.398248
0.325826
0.261253
0.203546
0.151532
0.104131
0.0601616
0.0199426
-1.45985
-1.46045
-1.46209
-1.46414
-1.46663
-1.46933
-1.47222
-1.47535
-1.47856
-1.48135
-1.48267
-1.48007
-1.47011
-1.45214
-1.43165
-1.41574
-1.40893
-1.40611
-1.38514
-1.31089
-1.15299
-0.895467
-0.543372
-0.122539
0.329472
0.771547
1.16507
1.47979
1.69913
1.82076
1.85275
1.81008
1.7117
1.57683
1.42199
1.25986
1.09944
0.946524
0.804355
0.67419
0.555973
0.448942
0.351999
0.263762
0.182423
0.107274
0.0338933
-1.4516
-1.45301
-1.45489
-1.45682
-1.459
-1.46125
-1.46346
-1.46552
-1.46727
-1.46846
-1.46849
-1.46582
-1.45782
-1.44277
-1.42301
-1.40515
-1.39638
-1.39392
-1.37342
-1.30115
-1.14967
-0.889509
-0.520284
-0.0668842
0.433816
0.939257
1.40485
1.79171
2.07612
2.25072
2.31954
2.29519
2.19736
2.04785
1.86646
1.66938
1.46889
1.27358
1.08874
0.916985
0.759009
0.614571
0.482674
0.361907
0.250262
0.147083
0.0460201
-1.45186
-1.45343
-1.45529
-1.4571
-1.45903
-1.46096
-1.46275
-1.46416
-1.46494
-1.46477
-1.46324
-1.45966
-1.45282
-1.44107
-1.42295
-1.39897
-1.37312
-1.34894
-1.31614
-1.24266
-1.08665
-0.816755
-0.437385
0.0275765
0.542663
1.07051
1.56596
1.98603
2.30354
2.50655
2.59511
2.58115
2.48513
2.32939
2.13468
1.91881
1.6959
1.47612
1.26601
1.06908
0.886355
0.717742
0.562796
0.420622
0.289182
0.1692
0.0492105
-1.45447
-1.45609
-1.45813
-1.46017
-1.46228
-1.4644
-1.4664
-1.46808
-1.46919
-1.46939
-1.46819
-1.46493
-1.45875
-1.44835
-1.43177
-1.40637
-1.36917
-1.31614
-1.23966
-1.12546
-0.952057
-0.694855
-0.33546
0.119073
0.632154
1.1585
1.64977
2.06253
2.37893
2.58941
2.68169
2.66785
2.57034
2.41164
2.21242
1.99092
1.7617
1.53528
1.31843
1.11501
0.926772
0.752999
0.591737
0.442366
0.303824
0.177702
0.0500207
)
;

boundaryField
{
    inlet
    {
        type            zeroGradient;
    }
    outlet
    {
        type            fixedValue;
        value           uniform 0;
    }
    upperWall
    {
        type            zeroGradient;
    }
    lowerWall
    {
        type            zeroGradient;
    }
    frontAndBack
    {
        type            empty;
    }
}


// ************************************************************************* //
