/*--------------------------------*- C++ -*----------------------------------*\
| =========                 |                                                 |
| \\      /  F ield         | OpenFOAM: The Open Source CFD Toolbox           |
|  \\    /   O peration     | Version:  2406                                  |
|   \\  /    A nd           | Website:  www.openfoam.com                      |
|    \\/     M anipulation  |                                                 |
\*---------------------------------------------------------------------------*/
FoamFile
{
    version     2.0;
    format      ascii;
    arch        "LSB;label=32;scalar=64";
    class       volVectorField;
    location    "84";
    object      U;
}
// * * * * * * * * * * * * * * * * * * * * * * * * * * * * * * * * * * * * * //

dimensions      [0 1 -1 0 0 0 0];

internalField   nonuniform List<vector> 
1916
(
(0.196272 -0.00158744 0)
(0.199241 -0.00187236 0)
(0.201924 -0.00118971 0)
(0.203957 -0.000691741 0)
(0.205431 -0.000440114 0)
(0.206543 -0.000290473 0)
(0.207398 -0.000189694 0)
(0.208053 -0.000127554 0)
(0.208561 -9.18922e-05 0)
(0.208967 -7.00709e-05 0)
(0.209297 -5.49208e-05 0)
(0.20957 -4.36148e-05 0)
(0.209795 -3.46688e-05 0)
(0.209983 -2.70341e-05 0)
(0.210137 -1.99409e-05 0)
(0.210261 -1.30222e-05 0)
(0.210357 -5.85156e-06 0)
(0.210425 2.04042e-06 0)
(0.210462 1.1367e-05 0)
(0.210466 2.27488e-05 0)
(0.21043 3.69121e-05 0)
(0.210347 5.46105e-05 0)
(0.210206 7.71019e-05 0)
(0.20999 0.000105994 0)
(0.209681 0.000143568 0)
(0.209249 0.000192561 0)
(0.208661 0.000256558 0)
(0.207867 0.000339882 0)
(0.206806 0.000448085 0)
(0.205398 0.000587858 0)
(0.203539 0.000767426 0)
(0.201096 0.000996162 0)
(0.197903 0.00128443 0)
(0.193754 0.00164225 0)
(0.1884 0.00207766 0)
(0.181546 0.00259316 0)
(0.172865 0.0031811 0)
(0.16201 0.00381683 0)
(0.148657 0.00445141 0)
(0.132572 0.00500475 0)
(0.113705 0.00536463 0)
(0.0923205 0.00539053 0)
(0.0691562 0.00493084 0)
(0.0456415 0.00381875 0)
(0.0242386 0.00187621 0)
(0.00872399 -0.00123085 0)
(-0.000920631 -0.00226096 0)
(0.553314 -0.00191827 0)
(0.55299 -0.0034097 0)
(0.553434 -0.00321733 0)
(0.553992 -0.00263225 0)
(0.554723 -0.00211916 0)
(0.555577 -0.00169388 0)
(0.556428 -0.00133686 0)
(0.557203 -0.00105412 0)
(0.557891 -0.000841672 0)
(0.558498 -0.000682699 0)
(0.559031 -0.000560402 0)
(0.559495 -0.000463566 0)
(0.559897 -0.000384793 0)
(0.560243 -0.000318583 0)
(0.560539 -0.00026033 0)
(0.560787 -0.000206505 0)
(0.560989 -0.000154094 0)
(0.561144 -0.000100398 0)
(0.561249 -4.2257e-05 0)
(0.561299 2.38334e-05 0)
(0.561286 0.000102182 0)
(0.561198 0.000197791 0)
(0.561017 0.000317211 0)
(0.56072 0.000468669 0)
(0.560275 0.000663151 0)
(0.559641 0.000914727 0)
(0.55876 0.00124193 0)
(0.557558 0.00166842 0)
(0.555936 0.00222487 0)
(0.553764 0.00295002 0)
(0.550871 0.003893 0)
(0.547033 0.00511437 0)
(0.541959 0.00668783 0)
(0.535272 0.00869944 0)
(0.52649 0.0112454 0)
(0.515 0.0144242 0)
(0.500038 0.018322 0)
(0.480676 0.0229854 0)
(0.455823 0.0283785 0)
(0.424271 0.0343177 0)
(0.384811 0.0403866 0)
(0.336484 0.0458275 0)
(0.278988 0.0494588 0)
(0.213413 0.049593 0)
(0.14309 0.0443574 0)
(0.0759284 0.0320435 0)
(0.0130107 0.0170798 0)
(0.873791 -0.0009918 0)
(0.873515 -0.00210959 0)
(0.873298 -0.00237541 0)
(0.872807 -0.00230072 0)
(0.872492 -0.00215933 0)
(0.872473 -0.00198232 0)
(0.872626 -0.0017716 0)
(0.87285 -0.00155504 0)
(0.87311 -0.00135586 0)
(0.87339 -0.00118005 0)
(0.873675 -0.0010251 0)
(0.873951 -0.000887784 0)
(0.874211 -0.000765395 0)
(0.87445 -0.000654774 0)
(0.874665 -0.00055216 0)
(0.874853 -0.000453634 0)
(0.87501 -0.00035537 0)
(0.875133 -0.000253261 0)
(0.875217 -0.000142409 0)
(0.875255 -1.66877e-05 0)
(0.875238 0.000131491 0)
(0.875154 0.000311592 0)
(0.874986 0.000535555 0)
(0.874712 0.000818826 0)
(0.8743 0.00118158 0)
(0.873713 0.00165035 0)
(0.872895 0.00225985 0)
(0.871777 0.00305546 0)
(0.870263 0.00409612 0)
(0.868228 0.00545819 0)
(0.865503 0.00723991 0)
(0.861867 0.00956671 0)
(0.857021 0.0125968 0)
(0.85057 0.0165267 0)
(0.841988 0.0215943 0)
(0.830574 0.0280784 0)
(0.815399 0.0362879 0)
(0.795242 0.0465339 0)
(0.768507 0.0590718 0)
(0.733153 0.0739912 0)
(0.686641 0.0910352 0)
(0.625994 0.109297 0)
(0.548002 0.126855 0)
(0.450056 0.140224 0)
(0.330991 0.144746 0)
(0.197239 0.134157 0)
(0.0456223 0.098576 0)
(1.15408 -0.000539475 0)
(1.15404 -0.00135454 0)
(1.15397 -0.00174172 0)
(1.15344 -0.00184766 0)
(1.1529 -0.00184178 0)
(1.15257 -0.00177866 0)
(1.15238 -0.00166902 0)
(1.15225 -0.00153279 0)
(1.15216 -0.00139134 0)
(1.15211 -0.00125502 0)
(1.15209 -0.00112575 0)
(1.1521 -0.00100318 0)
(1.15212 -0.000886657 0)
(1.15214 -0.000774713 0)
(1.15217 -0.00066471 0)
(1.15219 -0.000553255 0)
(1.15221 -0.000436535 0)
(1.15221 -0.000310083 0)
(1.1522 -0.000168148 0)
(1.15216 -3.13432e-06 0)
(1.15209 0.000194845 0)
(1.15198 0.000438454 0)
(1.15181 0.000743966 0)
(1.15157 0.00113255 0)
(1.15124 0.00163205 0)
(1.15079 0.00227924 0)
(1.15017 0.00312267 0)
(1.14934 0.00422622 0)
(1.14822 0.00567384 0)
(1.14673 0.00757546 0)
(1.14473 0.0100748 0)
(1.14205 0.0133587 0)
(1.13845 0.0176693 0)
(1.13362 0.0233176 0)
(1.12711 0.0306985 0)
(1.11828 0.0403064 0)
(1.10629 0.0527456 0)
(1.08989 0.0687288 0)
(1.06736 0.0890496 0)
(1.03624 0.114494 0)
(0.993084 0.145661 0)
(0.933117 0.182551 0)
(0.849779 0.223994 0)
(0.735059 0.266227 0)
(0.578777 0.302784 0)
(0.377968 0.320356 0)
(0.105844 0.277424 0)
(1.39423 -0.000339274 0)
(1.3943 -0.000922571 0)
(1.39437 -0.00127634 0)
(1.39398 -0.00142589 0)
(1.39348 -0.00146862 0)
(1.39311 -0.00145612 0)
(1.39284 -0.00140134 0)
(1.3926 -0.00131634 0)
(1.39239 -0.00121691 0)
(1.3922 -0.0011136 0)
(1.39205 -0.00101028 0)
(1.39191 -0.000907873 0)
(1.39179 -0.000806469 0)
(1.39168 -0.000705176 0)
(1.39158 -0.000601796 0)
(1.39149 -0.00049309 0)
(1.3914 -0.000375128 0)
(1.39131 -0.000243101 0)
(1.39122 -9.07197e-05 0)
(1.39112 9.04814e-05 0)
(1.39101 0.000311698 0)
(1.39088 0.000587492 0)
(1.39073 0.000936719 0)
(1.39056 0.00138403 0)
(1.39034 0.00196194 0)
(1.39006 0.00271355 0)
(1.38971 0.00369604 0)
(1.38927 0.00498518 0)
(1.38868 0.00668129 0)
(1.38792 0.00891708 0)
(1.3869 0.0118681 0)
(1.38554 0.0157663 0)
(1.3837 0.0209181 0)
(1.38119 0.0277276 0)
(1.37772 0.0367258 0)
(1.37288 0.0486082 0)
(1.36602 0.0642787 0)
(1.35619 0.0849001 0)
(1.34188 0.111944 0)
(1.3208 0.147213 0)
(1.28928 0.192827 0)
(1.2417 0.250944 0)
(1.16888 0.323491 0)
(1.05773 0.410107 0)
(0.885321 0.508506 0)
(0.629957 0.606817 0)
(0.206768 0.631446 0)
(1.59432 -0.00022527 0)
(1.59444 -0.00063323 0)
(1.59459 -0.000916071 0)
(1.5943 -0.00106543 0)
(1.59386 -0.00112898 0)
(1.59351 -0.00114232 0)
(1.59323 -0.00111769 0)
(1.59298 -0.0010637 0)
(1.59274 -0.000991876 0)
(1.59251 -0.00091151 0)
(1.59231 -0.000827187 0)
(1.59212 -0.000740607 0)
(1.59195 -0.000652277 0)
(1.5918 -0.00056165 0)
(1.59165 -0.000466873 0)
(1.59151 -0.000364965 0)
(1.59138 -0.000252094 0)
(1.59126 -0.000123455 0)
(1.59114 2.72893e-05 0)
(1.59103 0.0002087 0)
(1.59093 0.000432194 0)
(1.59084 0.000712721 0)
(1.59076 0.00106975 0)
(1.59068 0.0015288 0)
(1.59062 0.00212358 0)
(1.59057 0.00289888 0)
(1.59055 0.00391436 0)
(1.59054 0.00524946 0)
(1.59056 0.00701005 0)
(1.59062 0.0093373 0)
(1.59071 0.0124198 0)
(1.59084 0.0165102 0)
(1.59099 0.0219475 0)
(1.59115 0.0291881 0)
(1.59125 0.0388481 0)
(1.59116 0.0517622 0)
(1.59063 0.0690651 0)
(1.58921 0.0923026 0)
(1.58604 0.123592 0)
(1.57959 0.165815 0)
(1.56703 0.222959 0)
(1.54352 0.300212 0)
(1.49943 0.405135 0)
(1.42048 0.544546 0)
(1.27334 0.733659 0)
(1.02615 0.953353 0)
(0.443833 1.15554 0)
(1.75438 -0.000150058 0)
(1.75451 -0.000429413 0)
(1.75471 -0.000639276 0)
(1.75449 -0.000765243 0)
(1.7541 -0.000827879 0)
(1.75377 -0.000848754 0)
(1.75351 -0.000838096 0)
(1.75325 -0.000802619 0)
(1.753 -0.000750357 0)
(1.75276 -0.000688341 0)
(1.75254 -0.00062064 0)
(1.75234 -0.00054908 0)
(1.75216 -0.000474324 0)
(1.75198 -0.00039603 0)
(1.75182 -0.0003127 0)
(1.75168 -0.000221783 0)
(1.75155 -0.000119881 0)
(1.75143 -2.64567e-06 0)
(1.75133 0.000135681 0)
(1.75124 0.000302895 0)
(1.75119 0.000509438 0)
(1.75116 0.000769051 0)
(1.75116 0.0010997 0)
(1.75122 0.001525 0)
(1.75134 0.00207616 0)
(1.75154 0.00279477 0)
(1.75184 0.00373634 0)
(1.75229 0.00497512 0)
(1.75293 0.00661056 0)
(1.75381 0.00877619 0)
(1.75501 0.0116519 0)
(1.75663 0.0154812 0)
(1.7588 0.0205951 0)
(1.76167 0.027447 0)
(1.76544 0.0366617 0)
(1.77033 0.0491085 0)
(1.77661 0.0660084 0)
(1.78451 0.089095 0)
(1.7942 0.120872 0)
(1.80564 0.164973 0)
(1.81798 0.226917 0)
(1.82986 0.314697 0)
(1.83378 0.442475 0)
(1.82688 0.628179 0)
(1.74501 0.924578 0)
(1.66931 1.4092 0)
(0.585022 2.29019 0)
(1.87442 -9.51705e-05 0)
(1.87456 -0.000275119 0)
(1.87478 -0.000416075 0)
(1.8746 -0.000506414 0)
(1.87425 -0.000554366 0)
(1.87394 -0.000571857 0)
(1.87369 -0.000566038 0)
(1.87343 -0.000541687 0)
(1.87318 -0.000503966 0)
(1.87294 -0.000457558 0)
(1.87272 -0.000405482 0)
(1.87251 -0.000349281 0)
(1.87232 -0.000289566 0)
(1.87214 -0.000226112 0)
(1.87198 -0.000157779 0)
(1.87184 -8.25848e-05 0)
(1.87172 2.16653e-06 0)
(1.87161 9.99555e-05 0)
(1.87153 0.000215406 0)
(1.87149 0.000354771 0)
(1.87148 0.000526442 0)
(1.87152 0.000741498 0)
(1.87162 0.00101447 0)
(1.8718 0.00136445 0)
(1.87208 0.00181674 0)
(1.87251 0.00240508 0)
(1.87312 0.00317458 0)
(1.87398 0.00418578 0)
(1.87516 0.00552006 0)
(1.87677 0.00728729 0)
(1.87895 0.00963642 0)
(1.8819 0.0127707 0)
(1.88586 0.0169693 0)
(1.89117 0.0226195 0)
(1.89826 0.0302633 0)
(1.90775 0.0406693 0)
(1.92041 0.0549427 0)
(1.93729 0.0746977 0)
(1.95976 0.102341 0)
(1.98975 0.141515 0)
(2.02934 0.197955 0)
(2.08333 0.280617 0)
(2.15117 0.405364 0)
(2.26456 0.596009 0)
(2.37133 0.912494 0)
(2.84955 1.38355 0)
(2.98156 2.5607 0)
(1.95444 -5.10741e-05 0)
(1.95458 -0.000148397 0)
(1.95482 -0.000225425 0)
(1.95466 -0.000275424 0)
(1.95434 -0.000301416 0)
(1.95404 -0.000309086 0)
(1.9538 -0.000302408 0)
(1.95355 -0.000284176 0)
(1.9533 -0.000257266 0)
(1.95306 -0.000224317 0)
(1.95283 -0.000187138 0)
(1.95262 -0.00014671 0)
(1.95243 -0.000103407 0)
(1.95225 -5.70462e-05 0)
(1.9521 -6.85456e-06 0)
(1.95196 4.84776e-05 0)
(1.95185 0.000110729 0)
(1.95176 0.000182204 0)
(1.95171 0.000265948 0)
(1.95169 0.000366066 0)
(1.95172 0.000488057 0)
(1.95181 0.000639178 0)
(1.95199 0.000828949 0)
(1.95227 0.00106989 0)
(1.95269 0.00137857 0)
(1.95328 0.00177709 0)
(1.95413 0.00229501 0)
(1.95529 0.00297206 0)
(1.95688 0.00386179 0)
(1.95904 0.00503669 0)
(1.96196 0.00659549 0)
(1.9659 0.00867361 0)
(1.97121 0.0114584 0)
(1.97837 0.0152117 0)
(1.98801 0.020304 0)
(2.00104 0.027267 0)
(2.0187 0.0368763 0)
(2.04273 0.0502844 0)
(2.0756 0.0692321 0)
(2.12099 0.0964267 0)
(2.184 0.136048 0)
(2.27402 0.194987 0)
(2.40107 0.283312 0)
(2.60083 0.417872 0)
(2.87776 0.621103 0)
(3.38539 0.871607 0)
(4.0562 1.34366 0)
(1.99445 -1.23486e-05 0)
(1.9946 -3.58787e-05 0)
(1.99483 -5.26258e-05 0)
(1.99469 -6.0858e-05 0)
(1.99438 -6.13643e-05 0)
(1.99409 -5.56696e-05 0)
(1.99385 -4.49777e-05 0)
(1.99361 -3.01488e-05 0)
(1.99336 -1.20532e-05 0)
(1.99312 8.51715e-06 1.36655e-33)
(1.9929 3.1029e-05 0)
(1.99269 5.52278e-05 0)
(1.9925 8.10793e-05 0)
(1.99233 0.000108749 0)
(1.99217 0.000138601 0)
(1.99204 0.000171188 1.36499e-33)
(1.99194 0.000207236 0)
(1.99187 0.000247672 0)
(1.99182 0.000293691 0)
(1.99183 0.000346861 0)
(1.99189 0.000409243 0)
(1.99201 0.000483524 0)
(1.99223 0.000573204 0)
(1.99257 0.000682852 -1.36121e-33)
(1.99307 0.000818481 0)
(1.99377 0.000988055 0)
(1.99474 0.00120219 0)
(1.99607 0.00147512 0)
(1.99789 0.00182597 0)
(2.00035 0.00228069 0)
(2.00368 0.00287458 0)
(2.00817 0.0036562 0)
(2.01422 0.00469291 0)
(2.02238 0.00607925 0)
(2.03342 0.00794968 0)
(2.04841 0.0104985 0)
(2.06884 0.0140108 0)
(2.09687 0.0189148 0)
(2.1356 0.0258594 0)
(2.18968 0.0358685 0)
(2.26594 0.0504758 0)
(2.37487 0.0722746 -1.07707e-33)
(2.53162 0.104203 0)
(2.75741 0.151473 0)
(3.08309 0.212586 0)
(3.51613 0.27191 0)
(4.13017 0.319214 0)
(1.99445 2.46485e-05 0)
(1.9946 7.19639e-05 0)
(1.99483 0.000114036 0)
(1.99469 0.000147675 0)
(1.99438 0.000173504 0)
(1.9941 0.000193471 0)
(1.99386 0.000208937 0)
(1.99362 0.000220952 0)
(1.99337 0.000230594 0)
(1.99313 0.000238866 -1.36647e-33)
(1.99291 0.000246521 0)
(1.99271 0.000254073 0)
(1.99252 0.000261846 0)
(1.99236 0.000269979 0)
(1.99221 0.000278401 0)
(1.99209 0.000286874 -1.3649e-33)
(1.99199 0.000295024 0)
(1.99192 0.000302335 0)
(1.99189 0.000308051 0)
(1.9919 0.00031107 0)
(1.99197 0.000309818 0)
(1.99211 0.000302154 0)
(1.99234 0.00028519 0)
(1.99269 0.000255068 1.36138e-33)
(1.9932 0.000206578 0)
(1.99391 0.000132683 0)
(1.9949 2.38286e-05 0)
(1.99625 -0.000132934 0)
(1.99809 -0.00035521 0)
(2.00058 -0.000666978 0)
(2.00393 -0.00110109 0)
(2.00845 -0.0017028 0)
(2.01453 -0.00253507 0)
(2.02274 -0.00368629 0)
(2.03383 -0.00528217 0)
(2.04888 -0.00750415 0)
(2.06939 -0.0106181 0)
(2.09752 -0.0150223 0)
(2.1364 -0.0213179 0)
(2.19069 -0.0304504 0)
(2.26727 -0.04382 0)
(2.37672 -0.0637863 1.07784e-33)
(2.53438 -0.0928723 0)
(2.76155 -0.135451 0)
(3.08993 -0.188819 0)
(3.52563 -0.233724 0)
(4.14546 -0.25891 0)
(1.95444 6.30748e-05 0)
(1.95458 0.000183584 0)
(1.95482 0.00028533 0)
(1.95467 0.000360113 0)
(1.95435 0.00041079 0)
(1.95406 0.000443457 0)
(1.95381 0.000462247 0)
(1.95358 0.000470136 0)
(1.95333 0.00047021 0)
(1.9531 0.00046531 0)
(1.95288 0.000457465 0)
(1.95269 0.000447898 0)
(1.95251 0.000437273 0)
(1.95235 0.00042569 0)
(1.95221 0.000412675 0)
(1.95209 0.000397216 0)
(1.95199 0.00037789 0)
(1.95193 0.000352781 0)
(1.95189 0.000319279 0)
(1.9519 0.000273712 0)
(1.95196 0.000211067 0)
(1.95209 0.000124596 0)
(1.9523 5.38267e-06 0)
(1.95261 -0.000158433 0)
(1.95307 -0.000382649 0)
(1.95372 -0.000688501 0)
(1.95461 -0.00110455 0)
(1.95583 -0.00166938 0)
(1.95748 -0.0024351 0)
(1.95971 -0.00347251 0)
(1.96271 -0.00487814 0)
(1.96674 -0.00678459 0)
(1.97215 -0.00937546 0)
(1.97943 -0.0129076 0)
(1.98922 -0.0177445 0)
(2.00242 -0.024408 0)
(2.0203 -0.033659 0)
(2.04462 -0.046629 0)
(2.07789 -0.0650259 0)
(2.12386 -0.0915082 0)
(2.18775 -0.130174 0)
(2.27916 -0.187804 0)
(2.40851 -0.274233 0)
(2.61245 -0.405986 0)
(2.89685 -0.604952 0)
(3.41738 -0.846015 0)
(4.114 -1.30624 0)
(1.87442 0.000106575 0)
(1.87456 0.000308522 0)
(1.87478 0.000472987 0)
(1.87461 0.000586874 0)
(1.87427 0.000658242 0)
(1.87396 0.00069941 0)
(1.87372 0.00071769 0)
(1.87348 0.000718024 0)
(1.87324 0.000705781 0)
(1.87301 0.000685836 0)
(1.8728 0.000661426 0)
(1.87262 0.000634316 0)
(1.87244 0.000605394 0)
(1.87229 0.000574696 0)
(1.87216 0.000541373 0)
(1.87205 0.000503714 0)
(1.87195 0.000459373 0)
(1.87189 0.000405217 0)
(1.87185 0.000337041 0)
(1.87184 0.000248981 0)
(1.87188 0.00013311 0)
(1.87197 -2.11921e-05 0)
(1.87213 -0.00022788 0)
(1.87237 -0.000505477 0)
(1.87272 -0.000878577 0)
(1.87323 -0.00138018 0)
(1.87392 -0.00205452 0)
(1.87487 -0.00296118 0)
(1.87615 -0.00418038 0)
(1.87787 -0.00582066 0)
(1.88019 -0.00802932 0)
(1.88328 -0.0110076 0)
(1.8874 -0.0150323 0)
(1.8929 -0.0204873 0)
(1.90023 -0.0279109 0)
(1.90998 -0.0380664 0)
(1.92298 -0.0520524 0)
(1.9403 -0.0714753 0)
(1.96335 -0.0987319 0)
(1.99415 -0.137458 0)
(2.03487 -0.193385 0)
(2.09062 -0.275492 0)
(2.16101 -0.399747 0)
(2.27953 -0.590134 0)
(2.39268 -0.907879 0)
(2.89469 -1.37985 0)
(3.04716 -2.58037 0)
(1.75438 0.000160576 0)
(1.75452 0.00046018 0)
(1.75472 0.000691753 0)
(1.7545 0.000839436 0)
(1.75412 0.000923588 0)
(1.7538 0.000966187 0)
(1.75355 0.000977582 0)
(1.75331 0.000964678 0)
(1.75308 0.000935655 0)
(1.75286 0.00089777 0)
(1.75267 0.000855243 0)
(1.75249 0.000810166 0)
(1.75233 0.000763387 0)
(1.75219 0.000714872 0)
(1.75207 0.000663315 0)
(1.75196 0.000606501 0)
(1.75188 0.000541262 0)
(1.75181 0.000463654 0)
(1.75176 0.000368186 0)
(1.75173 0.000247513 0)
(1.75174 9.15038e-05 0)
(1.75178 -0.000113058 0)
(1.75187 -0.000383762 0)
(1.75201 -0.000743589 0)
(1.75222 -0.00122331 0)
(1.75252 -0.00186378 0)
(1.75294 -0.00271996 0)
(1.75352 -0.00386526 0)
(1.75429 -0.00539844 0)
(1.75533 -0.00745203 0)
(1.7567 -0.0102051 0)
(1.75852 -0.0139 0)
(1.76091 -0.018867 0)
(1.76403 -0.0255583 0)
(1.76809 -0.0345983 0)
(1.77333 -0.0468561 0)
(1.78002 -0.0635544 0)
(1.78845 -0.0864317 0)
(1.7988 -0.118003 0)
(1.81111 -0.161928 0)
(1.8246 -0.223782 0)
(1.83807 -0.311658 0)
(1.8441 -0.440004 0)
(1.84044 -0.627091 0)
(1.76136 -0.927407 0)
(1.69369 -1.42074 0)
(0.591703 -2.33218 0)
(1.59432 0.000234623 0)
(1.59444 0.000660559 0)
(1.5946 0.000962762 0)
(1.59431 0.00113141 0)
(1.59389 0.00121398 0)
(1.59355 0.00124645 0)
(1.59329 0.0012412 0)
(1.59305 0.00120698 0)
(1.59283 0.00115547 0)
(1.59263 0.00109616 0)
(1.59246 0.00103378 0)
(1.59231 0.00097025 0)
(1.59218 0.000906248 0)
(1.59206 0.000841474 0)
(1.59196 0.000774272 0)
(1.59187 0.000701948 0)
(1.5918 0.000620895 0)
(1.59174 0.000526622 0)
(1.59169 0.000413031 0)
(1.59165 0.000271919 0)
(1.59163 9.21641e-05 0)
(1.59163 -0.000140756 0)
(1.59164 -0.000445972 0)
(1.59168 -0.00084853 0)
(1.59173 -0.00138178 0)
(1.59181 -0.00209 0)
(1.59193 -0.00303246 0)
(1.59208 -0.00428807 0)
(1.59227 -0.00596231 0)
(1.59252 -0.00819594 0)
(1.59282 -0.0111774 0)
(1.59318 -0.0151591 0)
(1.5936 -0.0204807 0)
(1.59406 -0.0275994 0)
(1.5945 -0.0371338 0)
(1.5948 -0.0499227 0)
(1.59474 -0.0671085 0)
(1.59387 -0.0902505 0)
(1.59137 -0.12149 0)
(1.58575 -0.163749 0)
(1.57418 -0.221089 0)
(1.55191 -0.298815 0)
(1.50928 -0.404725 0)
(1.43198 -0.545902 0)
(1.28624 -0.738377 0)
(1.03995 -0.962658 0)
(0.452591 -1.17188 0)
(1.39423 0.000347208 0)
(1.3943 0.000945743 0)
(1.39438 0.00131602 0)
(1.39399 0.00148186 0)
(1.39351 0.00154058 0)
(1.39315 0.00154401 0)
(1.3929 0.00150534 0)
(1.39269 0.00143664 0)
(1.3925 0.001354 0)
(1.39235 0.00126794 0)
(1.39223 0.00118266 0)
(1.39214 0.00109908 0)
(1.39206 0.00101762 0)
(1.392 0.000937357 0)
(1.39195 0.000856526 0)
(1.39192 0.000771876 0)
(1.3919 0.000679941 0)
(1.39188 0.00057585 0)
(1.39186 0.000453811 0)
(1.39185 0.000305309 0)
(1.39184 0.000119748 0)
(1.39182 -0.000117455 0)
(1.39178 -0.000424513 0)
(1.39173 -0.000826145 0)
(1.39165 -0.00135421 0)
(1.39153 -0.00205192 0)
(1.39134 -0.00297579 0)
(1.39108 -0.00420179 0)
(1.39069 -0.00582973 0)
(1.39014 -0.00799278 0)
(1.38937 -0.0108664 0)
(1.38828 -0.0146838 0)
(1.38674 -0.0197524 0)
(1.38456 -0.0264792 0)
(1.38146 -0.0353991 0)
(1.37704 -0.0472144 0)
(1.37066 -0.0628396 0)
(1.36136 -0.0834546 0)
(1.34768 -0.110558 0)
(1.32731 -0.145992 0)
(1.29658 -0.19194 0)
(1.24986 -0.250649 0)
(1.17787 -0.324182 0)
(1.06737 -0.412312 0)
(0.894938 -0.512946 0)
(0.638214 -0.614206 0)
(0.210097 -0.642356 0)
(1.15408 0.000545744 0)
(1.15405 0.00137296 0)
(1.15398 0.00177326 0)
(1.15346 0.001892 0)
(1.15294 0.00189845 0)
(1.15263 0.00184758 0)
(1.15246 0.00175017 0)
(1.15235 0.00162634 0)
(1.15229 0.00149746 0)
(1.15228 0.00137412 0)
(1.1523 0.00125828 0)
(1.15235 0.00114982 0)
(1.15242 0.00104806 0)
(1.1525 0.000951799 0)
(1.15259 0.00085845 0)
(1.15268 0.000764942 0)
(1.15277 0.000667467 0)
(1.15285 0.000561841 0)
(1.15293 0.000442304 0)
(1.15299 0.000301617 0)
(1.15302 0.00012994 0)
(1.15303 -8.49854e-05 0)
(1.15299 -0.000359426 0)
(1.15289 -0.00071419 0)
(1.15271 -0.00117717 0)
(1.15242 -0.00178481 0)
(1.15199 -0.00258576 0)
(1.15135 -0.0036437 0)
(1.15045 -0.00504294 0)
(1.1492 -0.00689358 0)
(1.14746 -0.00934026 0)
(1.14506 -0.012571 0)
(1.14178 -0.0168301 0)
(1.13729 -0.0224314 0)
(1.13116 -0.0297752 0)
(1.12275 -0.0393627 0)
(1.1112 -0.0518093 0)
(1.0953 -0.0678433 0)
(1.0733 -0.0882806 0)
(1.04274 -0.113938 0)
(1.00013 -0.145456 0)
(0.940657 -0.182881 0)
(0.857636 -0.225093 0)
(0.742881 -0.268338 0)
(0.585896 -0.306105 0)
(0.383431 -0.324845 0)
(0.10781 -0.282322 0)
(0.873791 0.000996261 0)
(0.873519 0.00212272 0)
(0.873308 0.00239781 0)
(0.872829 0.00233191 0)
(0.872529 0.00219874 0)
(0.87253 0.0020298 0)
(0.872707 0.00182701 0)
(0.87296 0.00161844 0)
(0.873252 0.00142727 0)
(0.87357 0.00125971 0)
(0.873898 0.00111322 0)
(0.874221 0.000984825 0)
(0.874534 0.000871685 0)
(0.874831 0.000770947 0)
(0.87511 0.000678764 0)
(0.875368 0.000591581 0)
(0.875602 0.000505395 0)
(0.875809 0.000416438 0)
(0.875985 0.000319627 0)
(0.876123 0.000209265 0)
(0.876216 7.759e-05 0)
(0.876251 -8.43982e-05 0)
(0.876213 -0.000288899 0)
(0.876079 -0.000550931 0)
(0.875822 -0.000890996 0)
(0.875403 -0.00133521 0)
(0.874768 -0.00191871 0)
(0.873849 -0.00268659 0)
(0.872552 -0.00369852 0)
(0.870753 -0.00503095 0)
(0.868285 -0.00678344 0)
(0.864927 -0.00908234 0)
(0.860382 -0.0120884 0)
(0.854256 -0.0160004 0)
(0.846021 -0.0210614 0)
(0.834975 -0.0275554 0)
(0.820186 -0.0358003 0)
(0.800422 -0.0461177 0)
(0.774075 -0.0587777 0)
(0.739076 -0.0738858 0)
(0.692843 -0.0912027 0)
(0.632333 -0.109833 0)
(0.554237 -0.12785 0)
(0.455821 -0.141728 0)
(0.335772 -0.146729 0)
(0.200473 -0.136446 0)
(0.0465713 -0.100715 0)
(0.553315 0.00192096 0)
(0.552993 0.00341741 0)
(0.553443 0.00323022 0)
(0.554012 0.00264943 0)
(0.554758 0.00214024 0)
(0.555632 0.00171861 0)
(0.556505 0.00136527 0)
(0.557307 0.00108607 0)
(0.558027 0.000877282 0)
(0.558669 0.000721906 0)
(0.55924 0.000603476 0)
(0.559747 0.000510527 0)
(0.560197 0.000435985 0)
(0.560596 0.000374083 0)
(0.560949 0.000320641 0)
(0.561259 0.000271813 0)
(0.561529 0.000225001 0)
(0.561758 0.000177134 0)
(0.561943 0.00012557 0)
(0.562081 6.64235e-05 0)
(0.562162 -4.15381e-06 0)
(0.562177 -9.16774e-05 0)
(0.562109 -0.000202123 0)
(0.561933 -0.000344211 0)
(0.561621 -0.000528372 0)
(0.56113 -0.000769266 0)
(0.560406 -0.00108494 0)
(0.559373 -0.00149981 0)
(0.557934 -0.00204424 0)
(0.555959 -0.00275807 0)
(0.553278 -0.00369048 0)
(0.549667 -0.00490369 0)
(0.544833 -0.00647215 0)
(0.538398 -0.00848455 0)
(0.529876 -0.0110391 0)
(0.518648 -0.0142382 0)
(0.503941 -0.0181718 0)
(0.484813 -0.0228918 0)
(0.460153 -0.0283668 0)
(0.428724 -0.0344175 0)
(0.389279 -0.0406273 0)
(0.34081 -0.0462322 0)
(0.282964 -0.0500327 0)
(0.216792 -0.0503072 0)
(0.145621 -0.0451447 0)
(0.0774485 -0.0327895 0)
(0.0133473 -0.0176473 0)
(0.196272 0.00158856 0)
(0.199243 0.00187506 0)
(0.201931 0.00119335 0)
(0.203971 0.000695925 0)
(0.205455 0.000444709 0)
(0.206579 0.000295437 0)
(0.207447 0.000195057 0)
(0.208117 0.000133284 0)
(0.208644 9.80237e-05 0)
(0.209069 7.66122e-05 0)
(0.209421 6.19357e-05 0)
(0.209717 5.10998e-05 0)
(0.209968 4.27078e-05 0)
(0.210184 3.5657e-05 0)
(0.210369 2.92347e-05 0)
(0.210526 2.2963e-05 0)
(0.210658 1.65103e-05 0)
(0.210765 9.373e-06 0)
(0.210844 9.97633e-07 0)
(0.210894 -9.3346e-06 0)
(0.210909 -2.23554e-05 0)
(0.21088 -3.89931e-05 0)
(0.210797 -6.03515e-05 0)
(0.210645 -8.80939e-05 0)
(0.210404 -0.000124365 0)
(0.210047 -0.000172026 0)
(0.209538 -0.000234596 0)
(0.20883 -0.000316603 0)
(0.207861 -0.000423613 0)
(0.20655 -0.000562596 0)
(0.204794 -0.000741866 0)
(0.202457 -0.000971173 0)
(0.199374 -0.00126111 0)
(0.195333 -0.00162226 0)
(0.190082 -0.00206309 0)
(0.183322 -0.00258681 0)
(0.174716 -0.00318622 0)
(0.163908 -0.00383702 0)
(0.150564 -0.00448985 0)
(0.134435 -0.00506339 0)
(0.115459 -0.00544278 0)
(0.0938924 -0.00548381 0)
(0.0704728 -0.00503089 0)
(0.0466435 -0.00391345 0)
(0.0248973 -0.00195341 0)
(0.00906782 0.00118917 0)
(-0.000872249 0.00222956 0)
(3.62057 1.91085 0)
(3.03848 1.01912 0)
(2.17965 0.465202 0)
(1.78761 0.183705 0)
(1.70289 0.0453671 0)
(1.62414 -0.0352931 0)
(4.94951 1.10178 0)
(5.28681 0.706241 0)
(5.26315 0.499168 0)
(5.17947 0.401161 0)
(5.10803 0.335733 0)
(5.01426 0.293859 0)
(4.85753 0.197916 0)
(5.41899 0.0962526 0)
(5.71657 0.0888603 0)
(5.85752 0.11793 0)
(5.93896 0.14741 0)
(5.98063 0.181189 0)
(4.87624 -0.0957959 0)
(5.43576 0.0603775 0)
(5.73051 0.126454 0)
(5.87228 0.160594 0)
(5.96821 0.203385 0)
(6.03702 0.257618 0)
(5.03364 -1.00888 0)
(5.40892 -0.544193 0)
(5.45719 -0.281215 0)
(5.48154 -0.137939 0)
(5.53894 -0.0219775 0)
(5.58907 0.0849721 0)
(3.75212 -1.92883 0)
(3.26674 -1.03246 0)
(2.52832 -0.473711 0)
(2.26433 -0.176836 0)
(2.34346 -0.00439658 0)
(2.47665 0.12736 0)
(-0.00088416 0.000685002 0)
(-0.00787816 0.00169491 0)
(-0.0173623 0.00206385 0)
(-0.0272674 0.002 0)
(-0.0364494 0.00188037 0)
(-0.0447866 0.00176388 0)
(-0.0523395 0.00165917 0)
(-0.0591794 0.00157057 0)
(-0.0653826 0.00149999 0)
(-0.0710245 0.00144667 0)
(-0.076167 0.00140525 0)
(-0.080844 0.00136733 0)
(-0.0850499 0.001319 0)
(-0.0887369 0.001245 0)
(-0.091827 0.00113281 0)
(-0.0942356 0.000979804 0)
(-0.0958975 0.000793573 0)
(-0.0967818 0.000584523 0)
(-0.0968934 0.000363088 0)
(-0.0962771 0.000141891 0)
(-0.0950045 -7.16395e-05 0)
(-0.0931662 -0.000270357 0)
(-0.0908687 -0.000447845 0)
(-0.0882308 -0.000596979 0)
(-0.0853787 -0.000713961 0)
(-0.0824399 -0.000796349 0)
(-0.0795376 -0.000848641 0)
(-0.0767799 -0.000876247 0)
(-0.0742572 -0.000880054 0)
(-0.0720448 -0.000859894 0)
(-0.0702026 -0.000820191 0)
(-0.0687738 -0.000762226 0)
(-0.0677817 -0.0006902 0)
(-0.067226 -0.000606967 0)
(-0.0670864 -0.000511614 0)
(-0.0673297 -0.000407201 0)
(-0.0679061 -0.000303727 0)
(-0.0687451 -0.00022009 0)
(-0.069768 -0.000155119 0)
(-0.0709086 -8.47506e-05 0)
(-0.0720753 -3.43345e-05 0)
(-0.0730794 -0.000117106 0)
(-0.0737336 -0.000300134 0)
(-0.0739989 -0.000278285 0)
(-0.0736975 -0.000267339 0)
(-0.0733255 -0.000751039 0)
(-0.0724447 -0.000579246 0)
(-0.00433073 0.00959377 0)
(-0.026766 0.0179915 0)
(-0.0523604 0.0200469 0)
(-0.0773539 0.0191326 0)
(-0.0998233 0.0174411 0)
(-0.119734 0.0156749 0)
(-0.137319 0.0140242 0)
(-0.152852 0.0125439 0)
(-0.166606 0.0112492 0)
(-0.178826 0.0101253 0)
(-0.189704 0.00913023 0)
(-0.19935 0.00819461 0)
(-0.207792 0.00723994 0)
(-0.214977 0.0061957 0)
(-0.220806 0.00502585 0)
(-0.225181 0.00373709 0)
(-0.228046 0.002374 0)
(-0.229404 0.000996662 0)
(-0.229341 -0.000327133 0)
(-0.22797 -0.00153956 0)
(-0.225464 -0.00260391 0)
(-0.222018 -0.00349087 0)
(-0.217847 -0.00417382 0)
(-0.213181 -0.00463435 0)
(-0.208259 -0.0048646 0)
(-0.203321 -0.00487525 0)
(-0.198585 -0.00468532 0)
(-0.194244 -0.00432255 0)
(-0.190459 -0.00381478 0)
(-0.187353 -0.00319422 0)
(-0.18502 -0.00249072 0)
(-0.183517 -0.00174088 0)
(-0.182859 -0.000980397 0)
(-0.183014 -0.00024812 0)
(-0.183901 0.000425544 0)
(-0.185435 0.00101711 0)
(-0.187485 0.00149065 0)
(-0.189879 0.0018202 0)
(-0.192436 0.00200684 0)
(-0.194989 0.00204409 0)
(-0.197324 0.00184862 0)
(-0.19915 0.00132307 0)
(-0.200436 0.00056889 0)
(-0.201339 -0.000299251 0)
(-0.201296 -0.0012169 0)
(-0.202573 -0.000949576 0)
(-0.201023 -0.000825884 0)
(-0.00872257 0.0307199 0)
(-0.0474679 0.0501929 0)
(-0.0865559 0.0523789 0)
(-0.122383 0.048561 0)
(-0.153597 0.0435076 0)
(-0.180748 0.0385908 0)
(-0.204412 0.0341597 0)
(-0.225116 0.0302822 0)
(-0.243314 0.0269292 0)
(-0.259374 0.0240147 0)
(-0.273564 0.0214007 0)
(-0.28604 0.0189167 0)
(-0.296849 0.0163903 0)
(-0.305939 0.0136916 0)
(-0.313209 0.0107698 0)
(-0.318574 0.00766682 0)
(-0.322013 0.00449309 0)
(-0.32358 0.00138437 0)
(-0.323432 -0.00153464 0)
(-0.321735 -0.00415306 0)
(-0.318725 -0.00639951 0)
(-0.314648 -0.00821662 0)
(-0.309777 -0.00955782 0)
(-0.304404 -0.0103968 0)
(-0.298832 -0.0107365 0)
(-0.293358 -0.0106019 0)
(-0.288246 -0.0100262 0)
(-0.283727 -0.00906679 0)
(-0.27999 -0.00779237 0)
(-0.277186 -0.00627934 0)
(-0.27542 -0.00460223 0)
(-0.274749 -0.00284261 0)
(-0.275175 -0.00108287 0)
(-0.276616 0.000579035 0)
(-0.278988 0.00208309 0)
(-0.282162 0.00335806 0)
(-0.285945 0.00433564 0)
(-0.290096 0.0049659 0)
(-0.294383 0.0052191 0)
(-0.298623 0.0050606 0)
(-0.302561 0.00441301 0)
(-0.305799 0.00328523 0)
(-0.308322 0.00193599 0)
(-0.310467 0.000700252 0)
(-0.311617 -0.000186634 0)
(-0.31291 -0.000102611 0)
(-0.314809 0.00120573 0)
(-0.0138389 0.0654927 0)
(-0.0672101 0.0961368 0)
(-0.113455 0.094421 0)
(-0.152651 0.084978 0)
(-0.185775 0.074912 0)
(-0.214306 0.0657601 0)
(-0.239191 0.0577988 0)
(-0.261157 0.0509805 0)
(-0.280739 0.0451512 0)
(-0.298317 0.0401067 0)
(-0.314157 0.0355871 0)
(-0.328409 0.031303 0)
(-0.3411 0.0269747 0)
(-0.352145 0.0224019 0)
(-0.361396 0.017517 0)
(-0.368719 0.0124021 0)
(-0.374066 0.00724362 0)
(-0.377487 0.00226158 0)
(-0.379139 -0.00235661 0)
(-0.379176 -0.00645298 0)
(-0.377795 -0.00991509 0)
(-0.375235 -0.0126696 0)
(-0.37177 -0.0146526 0)
(-0.367716 -0.0158304 0)
(-0.363409 -0.0161952 0)
(-0.359165 -0.0157675 0)
(-0.355288 -0.0146158 0)
(-0.352049 -0.0128506 0)
(-0.349662 -0.0106089 0)
(-0.348282 -0.00800728 0)
(-0.348016 -0.00517106 0)
(-0.348911 -0.0022345 0)
(-0.35094 0.000640827 0)
(-0.354026 0.00332143 0)
(-0.358068 0.00569975 0)
(-0.362903 0.00767195 0)
(-0.368317 0.00913553 0)
(-0.374062 0.0100106 0)
(-0.379911 0.0102352 0)
(-0.385679 0.00977507 0)
(-0.391084 0.0086277 0)
(-0.395694 0.00689764 0)
(-0.399455 0.00482543 0)
(-0.402609 0.00276849 0)
(-0.404402 0.00117913 0)
(-0.405331 0.00074755 0)
(-0.407188 0.00247418 0)
(-0.0198688 0.115594 0)
(-0.0806546 0.148564 0)
(-0.119575 0.135578 0)
(-0.148887 0.11863 0)
(-0.174122 0.103604 0)
(-0.196973 0.0907871 0)
(-0.218155 0.0800663 0)
(-0.238186 0.0710964 0)
(-0.25733 0.0635052 0)
(-0.275686 0.0569514 0)
(-0.293287 0.0510762 0)
(-0.310115 0.0454801 0)
(-0.326074 0.0397748 0)
(-0.340959 0.0336625 0)
(-0.35449 0.0270415 0)
(-0.366397 0.0200371 0)
(-0.376512 0.0129382 0)
(-0.384781 0.00608287 0)
(-0.391272 -0.000251264 0)
(-0.396124 -0.00588661 0)
(-0.399374 -0.0106869 0)
(-0.401143 -0.0145519 0)
(-0.401627 -0.017372 0)
(-0.401111 -0.0190505 0)
(-0.399937 -0.0195423 0)
(-0.39849 -0.0188897 0)
(-0.397165 -0.0172368 0)
(-0.396297 -0.0147571 0)
(-0.396122 -0.0116103 0)
(-0.39681 -0.00794867 0)
(-0.398495 -0.00396408 0)
(-0.40124 0.000112995 0)
(-0.405031 0.00406479 0)
(-0.409816 0.0077312 0)
(-0.415464 0.0109524 0)
(-0.421838 0.0135925 0)
(-0.428753 0.0155199 0)
(-0.43599 0.0166147 0)
(-0.443348 0.01679 0)
(-0.45065 0.0160072 0)
(-0.457607 0.0143186 0)
(-0.463804 0.0118637 0)
(-0.469154 0.00884361 0)
(-0.473687 0.00561242 0)
(-0.476516 0.00282429 0)
(-0.477965 0.00133422 0)
(-0.480073 0.00297241 0)
(-0.0184483 0.168655 0)
(-0.0628224 0.184037 0)
(-0.0624273 0.153819 0)
(-0.0604851 0.134454 0)
(-0.0659823 0.119291 0)
(-0.0766249 0.106456 0)