/*--------------------------------*- C++ -*----------------------------------*\
| =========                 |                                                 |
| \\      /  F ield         | OpenFOAM: The Open Source CFD Toolbox           |
|  \\    /   O peration     | Version:  2406                                  |
|   \\  /    A nd           | Website:  www.openfoam.com                      |
|    \\/     M anipulation  |                                                 |
\*---------------------------------------------------------------------------*/
FoamFile
{
    version     2.0;
    format      ascii;
    arch        "LSB;label=32;scalar=64";
    class       volScalarField;
    location    "125";
    object      p;
}
// * * * * * * * * * * * * * * * * * * * * * * * * * * * * * * * * * * * * * //

dimensions      [0 2 -2 0 0 0 0];

internalField   nonuniform List<scalar> 
1900
(
-1.25349
-1.27455
-1.3017
-1.3297
-1.36033
-1.3953
-1.43463
-1.4782
-1.52559
-1.57673
-1.23276
-1.26397
-1.29743
-1.32678
-1.35726
-1.39208
-1.43098
-1.47305
-1.51731
-1.56175
-1.20519
-1.24617
-1.28681
-1.31752
-1.3469
-1.38018
-1.41655
-1.45372
-1.48898
-1.51735
-1.17384
-1.21942
-1.26429
-1.29593
-1.32409
-1.35528
-1.38851
-1.42086
-1.44988
-1.47287
-1.14142
-1.18885
-1.23565
-1.26764
-1.29463
-1.32375
-1.35418
-1.38307
-1.40867
-1.42965
-1.11258
-1.16023
-1.20663
-1.23762
-1.26318
-1.29047
-1.31874
-1.34538
-1.36916
-1.38955
-1.09224
-1.13836
-1.18215
-1.21104
-1.23515
-1.26104
-1.28778
-1.31311
-1.33618
-1.35686
-1.08432
-1.1258
-1.16493
-1.19178
-1.2152
-1.24025
-1.26599
-1.29064
-1.3136
-1.33483
-1.09067
-1.12224
-1.15422
-1.17954
-1.2033
-1.22831
-1.25379
-1.27849
-1.30191
-1.3239
-1.1057
-1.12751
-1.15358
-1.1778
-1.20173
-1.2266
-1.25182
-1.27647
-1.30005
-1.3223
-1.50066
-1.50121
-1.5018
-1.50224
-1.50253
-1.50272
-1.50278
-1.50272
-1.50252
-1.50216
-1.50162
-1.50089
-1.49996
-1.49882
-1.49746
-1.49587
-1.49405
-1.49198
-1.48967
-1.48709
-1.48426
-1.48115
-1.47777
-1.4741
-1.47014
-1.4659
-1.46135
-1.45652
-1.45139
-1.44596
-1.44023
-1.4342
-1.42785
-1.42118
-1.41416
-1.50003
-1.50062
-1.50116
-1.50153
-1.5018
-1.50198
-1.50206
-1.50202
-1.50183
-1.50149
-1.50097
-1.50026
-1.49935
-1.49822
-1.49687
-1.49529
-1.49348
-1.49142
-1.48912
-1.48655
-1.48373
-1.48063
-1.47726
-1.4736
-1.46965
-1.46541
-1.46088
-1.45605
-1.45091
-1.44548
-1.43975
-1.4337
-1.42734
-1.42065
-1.41362
-1.49946
-1.50017
-1.50073
-1.50107
-1.50132
-1.50151
-1.50162
-1.50161
-1.50146
-1.50115
-1.50065
-1.49997
-1.49907
-1.49797
-1.49663
-1.49507
-1.49327
-1.49122
-1.48893
-1.48638
-1.48357
-1.48049
-1.47713
-1.47349
-1.46956
-1.46533
-1.46079
-1.45595
-1.45081
-1.44536
-1.4396
-1.43354
-1.42717
-1.42048
-1.41345
-1.49957
-1.50043
-1.50104
-1.50136
-1.50163
-1.50185
-1.50199
-1.50202
-1.5019
-1.50161
-1.50113
-1.50046
-1.49957
-1.49847
-1.49713
-1.49557
-1.49377
-1.49172
-1.48943
-1.48689
-1.4841
-1.48103
-1.47769
-1.47407
-1.47015
-1.46592
-1.46137
-1.4565
-1.45132
-1.44582
-1.44003
-1.43394
-1.42755
-1.42088
-1.41389
-1.5011
-1.50197
-1.50256
-1.50284
-1.50309
-1.5033
-1.50343
-1.50344
-1.5033
-1.50298
-1.50248
-1.50177
-1.50086
-1.49972
-1.49835
-1.49676
-1.49493
-1.49286
-1.49056
-1.48801
-1.48522
-1.48216
-1.47883
-1.47521
-1.47129
-1.46703
-1.46245
-1.45752
-1.45228
-1.44672
-1.44088
-1.43476
-1.42838
-1.42174
-1.41484
-1.50492
-1.50549
-1.50576
-1.5058
-1.50587
-1.50594
-1.50593
-1.5058
-1.50554
-1.50512
-1.50451
-1.50371
-1.50271
-1.50149
-1.50005
-1.49838
-1.49649
-1.49438
-1.49204
-1.48947
-1.48666
-1.48359
-1.48026
-1.47662
-1.47267
-1.46838
-1.46374
-1.45875
-1.45345
-1.44784
-1.44196
-1.43584
-1.42949
-1.4229
-1.41606
-1.5121
-1.51159
-1.51081
-1.5101
-1.50966
-1.50933
-1.50899
-1.50858
-1.50808
-1.50746
-1.50668
-1.50572
-1.50458
-1.50324
-1.50169
-1.49993
-1.49796
-1.49578
-1.49338
-1.49077
-1.48792
-1.48483
-1.48146
-1.47779
-1.4738
-1.46946
-1.46478
-1.45975
-1.45442
-1.4488
-1.44292
-1.4368
-1.43046
-1.4239
-1.41708
-1.5249
-1.52073
-1.51698
-1.51461
-1.51321
-1.51223
-1.5114
-1.51063
-1.50985
-1.509
-1.50805
-1.50696
-1.50571
-1.50427
-1.50264
-1.50081
-1.49878
-1.49655
-1.49411
-1.49146
-1.48859
-1.48546
-1.48207
-1.47838
-1.47438
-1.47003
-1.46533
-1.46029
-1.45494
-1.44931
-1.44341
-1.43728
-1.43091
-1.42431
-1.41745
-1.55273
-1.53288
-1.52127
-1.5167
-1.51448
-1.51294
-1.51182
-1.51091
-1.51005
-1.50913
-1.50811
-1.50697
-1.50566
-1.50419
-1.50253
-1.50067
-1.49861
-1.49634
-1.49388
-1.4912
-1.4883
-1.48515
-1.48174
-1.47802
-1.47399
-1.46961
-1.4649
-1.45984
-1.45446
-1.44878
-1.44282
-1.43659
-1.43011
-1.42336
-1.41631
-1.60828
-1.54453
-1.51762
-1.51348
-1.51196
-1.50998
-1.50874
-1.50813
-1.50758
-1.50689
-1.50605
-1.50507
-1.50391
-1.50255
-1.50098
-1.49919
-1.49719
-1.49498
-1.49254
-1.48986
-1.48693
-1.48373
-1.48024
-1.47644
-1.4723
-1.4678
-1.46295
-1.45773
-1.45216
-1.44625
-1.44001
-1.43347
-1.4266
-1.41939
-1.41181
-1.59068
-1.53626
-1.50977
-1.50914
-1.51008
-1.50817
-1.50657
-1.50598
-1.50558
-1.50493
-1.50408
-1.50308
-1.50191
-1.50052
-1.49891
-1.49706
-1.49498
-1.49266
-1.49008
-1.48723
-1.48409
-1.48065
-1.47689
-1.47277
-1.46828
-1.46339
-1.4581
-1.45239
-1.44626
-1.43973
-1.4328
-1.42545
-1.41767
-1.40943
-1.4007
-1.57217
-1.53854
-1.51277
-1.50696
-1.50616
-1.50389
-1.50187
-1.50108
-1.50078
-1.50033
-1.49963
-1.49874
-1.49764
-1.49627
-1.49462
-1.49267
-1.49041
-1.48785
-1.48497
-1.48174
-1.47816
-1.4742
-1.46983
-1.46505
-1.45981
-1.4541
-1.44789
-1.44119
-1.43396
-1.42622
-1.41795
-1.40913
-1.39973
-1.38972
-1.37904
-1.52658
-1.51464
-1.50053
-1.49585
-1.49595
-1.49561
-1.49476
-1.49438
-1.49432
-1.49407
-1.49348
-1.49258
-1.49138
-1.48983
-1.48791
-1.4856
-1.48291
-1.47981
-1.4763
-1.47236
-1.46795
-1.46307
-1.45769
-1.45179
-1.44534
-1.43831
-1.43068
-1.42242
-1.41353
-1.40398
-1.39375
-1.38282
-1.37114
-1.35868
-1.34538
-1.48573
-1.48679
-1.48246
-1.48049
-1.48138
-1.48243
-1.48285
-1.48319
-1.48359
-1.48377
-1.48352
-1.48283
-1.48168
-1.48004
-1.47789
-1.47523
-1.47204
-1.46831
-1.46403
-1.45918
-1.45374
-1.4477
-1.44103
-1.43372
-1.42574
-1.41705
-1.40764
-1.39748
-1.38654
-1.3748
-1.36223
-1.34881
-1.33449
-1.31922
-1.30297
-1.44429
-1.45174
-1.45457
-1.45701
-1.46047
-1.46391
-1.46659
-1.46866
-1.47031
-1.47143
-1.47188
-1.47163
-1.47067
-1.46902
-1.46667
-1.46363
-1.45989
-1.45545
-1.4503
-1.44445
-1.43786
-1.43055
-1.42249
-1.41365
-1.40403
-1.39358
-1.38228
-1.37012
-1.35707
-1.34309
-1.32817
-1.31226
-1.29534
-1.27736
-1.2583
-1.40589
-1.41785
-1.42647
-1.43359
-1.44022
-1.44615
-1.45101
-1.45482
-1.45773
-1.45976
-1.46086
-1.46101
-1.46023
-1.45857
-1.45603
-1.45262
-1.44836
-1.44325
-1.4373
-1.43051
-1.42288
-1.4144
-1.40507
-1.39485
-1.38374
-1.37172
-1.35876
-1.34485
-1.32996
-1.31406
-1.29713
-1.27915
-1.26008
-1.23991
-1.2186
-1.37489
-1.39006
-1.40265
-1.41337
-1.42277
-1.43091
-1.43768
-1.4431
-1.44725
-1.4502
-1.45196
-1.45256
-1.45204
-1.45044
-1.44779
-1.44413
-1.43948
-1.43387
-1.4273
-1.41979
-1.41135
-1.40198
-1.39167
-1.38042
-1.36821
-1.35503
-1.34086
-1.32569
-1.3095
-1.29226
-1.27396
-1.25457
-1.23409
-1.21249
-1.18977
-1.35416
-1.37138
-1.38649
-1.39967
-1.41115
-1.42099
-1.42921
-1.43583
-1.44092
-1.44456
-1.44682
-1.44774
-1.4474
-1.44585
-1.44314
-1.43932
-1.43442
-1.42848
-1.42153
-1.41358
-1.40466
-1.39475
-1.38388
-1.37203
-1.35919
-1.34537
-1.33054
-1.31469
-1.29781
-1.27989
-1.26091
-1.24085
-1.21971
-1.19748
-1.17415
-1.34425
-1.36276
-1.37931
-1.3939
-1.40657
-1.41738
-1.42636
-1.4336
-1.43916
-1.44315
-1.44564
-1.44671
-1.44645
-1.44492
-1.44218
-1.4383
-1.43331
-1.42725
-1.42016
-1.41206
-1.40297
-1.39289
-1.38183
-1.36979
-1.35677
-1.34276
-1.32776
-1.31174
-1.29469
-1.27661
-1.25749
-1.2373
-1.21605
-1.19373
-1.17034
-1.343
-1.36192
-1.37893
-1.39395
-1.40701
-1.41813
-1.42737
-1.43482
-1.44055
-1.44466
-1.44724
-1.44838
-1.44816
-1.44665
-1.44392
-1.44003
-1.43503
-1.42895
-1.42184
-1.41372
-1.4046
-1.3945
-1.38343
-1.37138
-1.35835
-1.34434
-1.32934
-1.31333
-1.29631
-1.27827
-1.25918
-1.23905
-1.21786
-1.19561
-1.1723
-1.40677
-1.39899
-1.39081
-1.38219
-1.37312
-1.36358
-1.35356
-1.34304
-1.33199
-1.32039
-1.40622
-1.39843
-1.39024
-1.38162
-1.37254
-1.363
-1.35296
-1.34241
-1.33133
-1.31968
-1.40608
-1.39832
-1.39017
-1.38158
-1.37253
-1.363
-1.35294
-1.34236
-1.33122
-1.31951
-1.40658
-1.39891
-1.39085
-1.38234
-1.37334
-1.36382
-1.35375
-1.3431
-1.33188
-1.32012
-1.40763
-1.40007
-1.39211
-1.38368
-1.37473
-1.36522
-1.35511
-1.34442
-1.33319
-1.32145
-1.40893
-1.40145
-1.39355
-1.38517
-1.37624
-1.36673
-1.35663
-1.34597
-1.33479
-1.32315
-1.40996
-1.4025
-1.39463
-1.38627
-1.37737
-1.3679
-1.35785
-1.34724
-1.33611
-1.32452
-1.4103
-1.40279
-1.39485
-1.38643
-1.37746
-1.36791
-1.35776
-1.34703
-1.33575
-1.32393
-1.40892
-1.40114
-1.3929
-1.38414
-1.37479
-1.36482
-1.3542
-1.34293
-1.33101
-1.31843
-1.40381
-1.39534
-1.38631
-1.37668
-1.36637
-1.35533
-1.34353
-1.33093
-1.31751
-1.30325
-1.39142
-1.38152
-1.37093
-1.35959
-1.34742
-1.33436
-1.32037
-1.30539
-1.28939
-1.27231
-1.36764
-1.35545
-1.34241
-1.32843
-1.31345
-1.29742
-1.28026
-1.26194
-1.24239
-1.22157
-1.33118
-1.31602
-1.29984
-1.28258
-1.26416
-1.24454
-1.22367
-1.2015
-1.178
-1.15312
-1.28568
-1.2673
-1.24777
-1.22705
-1.20509
-1.18186
-1.15732
-1.13146
-1.10426
-1.07572
-1.2381
-1.21674
-1.19418
-1.17039
-1.14536
-1.11906
-1.0915
-1.06269
-1.03263
-1.00137
-1.19613
-1.17248
-1.14765
-1.12162
-1.09441
-1.06602
-1.03647
-1.00581
-0.974087
-0.941362
-1.16591
-1.14091
-1.11477
-1.08752
-1.05918
-1.02977
-0.999338
-0.96795
-0.935674
-0.902595
-1.14972
-1.12421
-1.09763
-1.07
-1.04136
-1.01176
-0.981233
-0.949865
-0.917729
-0.884918
-1.14589
-1.12038
-1.09384
-1.06629
-1.03777
-1.00832
-0.978009
-0.946891
-0.91505
-0.882575
-1.14794
-1.12253
-1.0961
-1.06866
-1.04027
-1.01095
-0.980769
-0.949787
-0.918081
-0.885737
-1.3082
-1.29535
-1.28177
-1.26735
-1.25199
-1.23553
-1.21782
-1.19865
-1.17781
-1.15504
-1.13002
-1.1024
-1.07178
-1.0377
-0.999663
-0.957153
-0.909675
-0.856774
-0.798043
-0.733154
-0.661987
-0.584663
-0.501371
-0.412544
-0.319067
-0.222154
-0.123307
-0.0242797
0.072968
0.166321
0.253622
0.33277
0.401786
0.459252
0.503883
-1.30743
-1.29452
-1.28086
-1.26638
-1.25095
-1.23445
-1.21674
-1.19762
-1.17688
-1.15427
-1.12949
-1.1022
-1.07203
-1.03852
-1.00123
-0.959635
-0.91325
-0.861608
-0.80426
-0.74075
-0.670784
-0.594341
-0.511671
-0.423254
-0.329954
-0.233071
-0.134175
-0.0350854
0.062149
0.155458
0.242904
0.322352
0.391717
0.449319
0.493717
-1.3072
-1.29427
-1.28064
-1.26625
-1.251
-1.23475
-1.21735
-1.19861
-1.1783
-1.15618
-1.13199
-1.10543
-1.07616
-1.04378
-1.0078
-0.967641
-0.922655
-0.872215
-0.815836
-0.753239
-0.684172
-0.60849
-0.526344
-0.438221
-0.345181
-0.248647
-0.150161
-0.0515072
0.0452858
0.138053
0.224643
0.302994
0.371189
0.427565
0.470747
-1.30781
-1.29495
-1.28151
-1.26741
-1.25255
-1.23676
-1.21986
-1.20165
-1.18191
-1.16042
-1.13692
-1.11113
-1.08272
-1.05121
-1.01603
-0.976581
-0.932246
-0.882392
-0.826677
-0.764794
-0.696368
-0.621321
-0.539865
-0.452579
-0.360491
-0.265011
-0.16778
-0.0706561
0.0243034
0.114945
0.199156
0.274941
0.34047
0.39417
0.43477
-1.30926
-1.29661
-1.28344
-1.26967
-1.25515
-1.23971
-1.22315
-1.20526
-1.18585
-1.16467
-1.14149
-1.1161
-1.08813
-1.05706
-1.02232
-0.983269
-0.939297
-0.889823
-0.834391
-0.772683
-0.704507
-0.629884
-0.549132
-0.462935
-0.372387
-0.278937
-0.184278
-0.0902898
0.00100563
0.0875314
0.167271
0.238359
0.299144
0.348261
0.384669
-1.31109
-1.29858
-1.28556
-1.27192
-1.25753
-1.24221
-1.22578
-1.20803
-1.18876
-1.16773
-1.14464
-1.11922
-1.09106
-1.05968
-1.02451
-0.984961
-0.940449
-0.890465
-0.834621
-0.77269
-0.704607
-0.630526
-0.550905
-0.466551
-0.378631
-0.288625
-0.198237
-0.109321
-0.0238143
0.0563536
0.129363
0.193592
0.247679
0.290575
0.321566
-1.31247
-1.29993
-1.28685
-1.27311
-1.25857
-1.24305
-1.22635
-1.20825
-1.18852
-1.16689
-1.14307
-1.11675
-1.08753
-1.05495
-1.01848
-0.977583
-0.931781
-0.880667
-0.823972
-0.761596
-0.693639
-0.620438
-0.542621
-0.461126
-0.377193
-0.292313
-0.208147
-0.126444
-0.0489565
0.0226406
0.0868399
0.142374
0.188264
0.223855
0.248817
-1.31157
-1.29865
-1.28507
-1.27072
-1.25544
-1.23905
-1.22133
-1.20206
-1.18098
-1.15782
-1.13229
-1.10405
-1.07273
-1.03791
-0.999165
-0.956065
-0.908266
-0.855524
-0.797747
-0.735024
-0.667654
-0.596167
-0.521349
-0.444237
-0.366093
-0.288348
-0.212524
-0.140151
-0.0726895
-0.0114539
0.0424521
0.0881883
0.125207
0.153263
0.172401
-1.30517
-1.29116
-1.27633
-1.26052
-1.24358
-1.22532
-1.20551
-1.18393
-1.16032
-1.13442
-1.10595
-1.07462
-1.04011
-1.00212
-0.960338
-0.914517
-0.864493
-0.810227
-0.751832
-0.689601
-0.624019
-0.555768
-0.48573
-0.414958
-0.344645
-0.276057
-0.21047
-0.149091
-0.0929964
-0.0430763
1.04338e-05
0.0358601
0.0643315
0.0855333
0.0997987
-1.28809
-1.27196
-1.25474
-1.2363
-1.21648
-1.19509
-1.17193
-1.14678
-1.11943
-1.08968
-1.05729
-1.02206
-0.983798
-0.942331
-0.897528
-0.849331
-0.797781
-0.743042
-0.685417
-0.625363
-0.563484
-0.50053
-0.437371
-0.374972
-0.314343
-0.256487
-0.202344
-0.152734
-0.108315
-0.0695464
-0.0366783
-0.00974313
0.0114274
0.0271781
0.0379941
-1.25409
-1.23465
-1.21389
-1.19167
-1.16785
-1.1423
-1.11485
-1.08534
-1.05364
-1.0196
-0.983131
-0.944128
-0.90254
-0.858357
-0.811627
-0.762471
-0.711106
-0.657848
-0.603124
-0.547467
-0.491504
-0.435936
-0.381518
-0.329016
-0.279175
-0.232671
-0.190075
-0.151822
-0.118183
-0.0892623
-0.0649986
-0.04518
-0.0294682
-0.0174298
-0.00856925
-1.19943
-1.17588
-1.15085
-1.12426
-1.096
-1.066
-1.03417
-1.00044
-0.964757
-0.927096
-0.887463
-0.8459
-0.802488
-0.75736
-0.710701
-0.662764
-0.613867
-0.564402
-0.514822
-0.465636
-0.41739
-0.370644
-0.325947
-0.28381
-0.244675
-0.208893
-0.176702
-0.148216
-0.123425
-0.102197
-0.0843031
-0.0694315
-0.0572167
-0.047263
-0.0391706
-1.12684
-1.09912
-1.06992
-1.03921
-1.00697
-0.973171
-0.937828
-0.900959
-0.862613
-0.822867
-0.781833
-0.739656
-0.696521
-0.65265
-0.608309
-0.563799
-0.519464
-0.475677
-0.43283
-0.391324
-0.351548
-0.313864
-0.278586
-0.245965
-0.216175
-0.189302
-0.165345
-0.144218
-0.125757
-0.109739
-0.0958987
-0.0839475
-0.0735892
-0.064538
-0.056527
-1.04583
-1.0146
-0.982066
-0.948243
-0.91318
-0.876935
-0.83959
-0.801249
-0.76204
-0.722118
-0.681665
-0.640886
-0.600014
-0.559299
-0.519014
-0.47944
-0.440868
-0.403581
-0.367854
-0.333931
-0.302024
-0.272295
-0.244855
-0.219751
-0.196974
-0.176453
-0.15807
-0.141659
-0.12703
-0.113972
-0.102272
-0.091723
-0.0821313
-0.0733225
-0.0651436
-0.968953
-0.935427
-0.900866
-0.865356
-0.828997
-0.791911
-0.754233
-0.716122
-0.677749
-0.63931
-0.601006
-0.563057
-0.525681
-0.489107
-0.453552
-0.419228
-0.386328
-0.355023
-0.32545
-0.297713
-0.271875
-0.247959
-0.225942
-0.205768
-0.187341
-0.170546
-0.155241
-0.141277
-0.128501
-0.116762
-0.10592
-0.0958484
-0.0864343
-0.0775796
-0.0691988
-0.907715
-0.873239
-0.838042
-0.802245
-0.765987
-0.729417
-0.692699
-0.656007
-0.619524
-0.583438
-0.547936
-0.513205
-0.479422
-0.446752
-0.415344
-0.385324
-0.356795
-0.32983
-0.304472
-0.280735
-0.258602
-0.23803
-0.218953
-0.201285
-0.184929
-0.16978
-0.155729
-0.142668
-0.130495
-0.119112
-0.108432
-0.09838
-0.0888854
-0.0798879
-0.0713306
-0.868811
-0.834433
-0.799587
-0.764407
-0.729044
-0.693648
-0.658385
-0.623416
-0.58891
-0.555024
-0.521915
-0.489724
-0.458583
-0.428599
-0.399869
-0.37246
-0.346423
-0.32178
-0.298535
-0.276668
-0.256147
-0.236916
-0.218916
-0.202075
-0.186322
-0.171579
-0.157771
-0.144822
-0.132661
-0.121218
-0.11043
-0.100242
-0.0905996
-0.0814516
-0.07275
-0.851535
-0.817695
-0.783521
-0.74915
-0.714719
-0.680377
-0.646268
-0.612542
-0.579339
-0.546798
-0.515044
-0.484194
-0.454345
-0.425585
-0.397979
-0.371582
-0.346424
-0.322524
-0.299877
-0.278472
-0.258278
-0.239261
-0.22137
-0.204554
-0.188759
-0.173928
-0.159999
-0.146911
-0.134602
-0.123011
-0.112077
-0.101745
-0.0919649
-0.082687
-0.0738631
-0.849567
-0.816135
-0.782398
-0.748485
-0.714526
-0.68066
-0.647022
-0.613751
-0.580978
-0.54883
-0.517425
-0.48687
-0.457261
-0.428679
-0.401187
-0.374841
-0.349681
-0.325732
-0.302999
-0.281475
-0.26114
-0.241966
-0.223913
-0.206931
-0.190966
-0.175964
-0.161867
-0.148615
-0.136148
-0.124406
-0.113332
-0.102872
-0.0929732
-0.0835859
-0.0746615
-0.852853
-0.819536
-0.785902
-0.752076
-0.718188
-0.68437
-0.65076
-0.617493
-0.584701
-0.552511
-0.521041
-0.490402
-0.460689
-0.431987
-0.404366
-0.377883
-0.352576
-0.328469
-0.305569
-0.283872
-0.263362
-0.24401
-0.225778
-0.20862
-0.192486
-0.177326
-0.163081
-0.149693
-0.137103
-0.12525
-0.114078
-0.103531
-0.0935547
-0.0840974
-0.075109
0.534129
0.548991
0.54787
0.530354
0.496132
0.44513
0.376622
0.292254
0.184402
0.0846503
0.523698
0.538339
0.537022
0.519371
0.485074
0.434208
0.365517
0.282288
0.170015
0.0887584
0.499601
0.513266
0.511189
0.493103
0.458781
0.408507
0.340802
0.260431
0.149208
0.0876629
0.461295
0.473073
0.469741
0.451223
0.417504
0.369108
0.304843
0.230012
0.127123
0.0786632
0.407654
0.416823
0.412083
0.393621
0.361737
0.317163
0.25949
0.193173
0.105899
0.0620715
0.340274
0.346639
0.340888
0.323494
0.295104
0.256592
0.20854
0.153427
0.0873796
0.0403067
0.263138
0.26709
0.261198
0.24617
0.222937
0.192361
0.156008
0.113776
0.0711296
0.0170889
0.18293
0.185381
0.180476
0.169043
0.152134
0.130489
0.106279
0.0771405
0.0559011
-0.00293772
0.107647
0.109741
0.106855
0.0997903
0.089529
0.0766041
0.0632778
0.0459144
0.0406779
-0.0160954
0.0444637
0.0472342
0.0469927
0.0443873
0.040187
0.0346831
0.0297892
0.0217279
0.0257631
-0.0211376
-0.00236151
0.00171707
0.00417357
0.0054482
0.00602934
0.00602644
0.00672033
0.00510269
0.0126258
-0.0196483
-0.032553
-0.0270576
-0.0223684
-0.0182397
-0.0144188
-0.0109194
-0.0070526
-0.00478816
0.00282491
-0.0149074
-0.049318
-0.0427057
-0.0365201
-0.0306405
-0.024966
-0.0195448
-0.0141293
-0.00977778
-0.00316465
-0.00999626
-0.057462
-0.0501654
-0.0431611
-0.0363858
-0.0298004
-0.0234557
-0.0173301
-0.0119409
-0.00616926
-0.00653095
-0.0612155
-0.0535595
-0.0461676
-0.0389905
-0.0320044
-0.0252476
-0.0187939
-0.0129336
-0.00761559
-0.00472965
-0.0631588
-0.0553149
-0.047743
-0.0403965
-0.0332533
-0.026341
-0.0197416
-0.0137017
-0.00854503
-0.00414268
-0.0644456
-0.0564865
-0.0488203
-0.041406
-0.0342249
-0.0272878
-0.0206391
-0.0144919
-0.00928476
-0.00436895
-0.0654474
-0.0573923
-0.0496562
-0.0422108
-0.0350462
-0.028156
-0.0215472
-0.0153799
-0.0099683
-0.00444769
-0.0661543
-0.0580225
-0.0502338
-0.0427715
-0.0356323
-0.0288061
-0.0222806
-0.01614
-0.0104876
-0.00440033
-0.0665434
-0.0583611
-0.050535
-0.0430546
-0.0359234
-0.0291397
-0.0226888
-0.0165907
-0.0107884
-0.00433444
)
;

boundaryField
{
    inlet
    {
        type            zeroGradient;
    }
    outlet
    {
        type            fixedValue;
        value           uniform 0;
    }
    upperWall
    {
        type            zeroGradient;
    }
    lowerWall
    {
        type            zeroGradient;
    }
    frontAndBack
    {
        type            empty;
    }
}


// ************************************************************************* //
