/*--------------------------------*- C++ -*----------------------------------*\
| =========                 |                                                 |
| \\      /  F ield         | OpenFOAM: The Open Source CFD Toolbox           |
|  \\    /   O peration     | Version:  2406                                  |
|   \\  /    A nd           | Website:  www.openfoam.com                      |
|    \\/     M anipulation  |                                                 |
\*---------------------------------------------------------------------------*/
FoamFile
{
    version     2.0;
    format      ascii;
    arch        "LSB;label=32;scalar=64";
    class       surfaceScalarField;
    location    "125";
    object      phi;
}
// * * * * * * * * * * * * * * * * * * * * * * * * * * * * * * * * * * * * * //

dimensions      [0 3 -1 0 0 0 0];

oriented        oriented;

internalField   nonuniform List<scalar> 
3680
(
0.0957374
-0.000737418
0.0968921
-0.00115472
0.0981651
-0.001273
0.0995129
-0.00134778
0.100953
-0.0014399
0.102505
-0.00155262
0.104206
-0.00170013
0.106147
-0.00194157
0.108365
-0.00221787
-0.00388603
0.112251
0.254749
-0.000486626
0.254735
-0.0011406
0.255017
-0.00155476
0.255558
-0.00188892
0.256346
-0.00222746
0.257387
-0.0025942
0.258702
-0.00301464
0.26031
-0.00354964
0.26236
-0.00426776
-0.0054141
0.263888
0.374913
-0.000399179
0.374851
-0.00107917
0.374924
-0.00162783
0.375152
-0.00211662
0.375537
-0.00261277
0.376088
-0.00314489
0.376807
-0.00373401
0.377672
-0.00441476
0.378619
-0.0052141
-0.00616722
0.379372
0.454954
-0.000353479
0.454866
-0.000991321
0.454816
-0.00157746
0.45484
-0.00214056
0.454945
-0.00271773
0.45513
-0.00332969
0.455386
-0.00399006
0.455685
-0.00471418
0.455981
-0.00550995
-0.00637314
0.456187
0.494946
-0.000299339
0.494806
-0.000851687
0.494636
-0.00140691
0.494471
-0.0019758
0.49432
-0.00256685
0.494179
-0.0031882
0.494036
-0.00384783
0.493873
-0.00455106
0.493659
-0.00529531
-0.00606565
0.493351
0.494919
-0.000217973
0.494701
-0.000634494
0.494403
-0.00110817
0.494057
-0.00162956
0.493668
-0.00217852
0.493232
-0.00275201
0.492739
-0.00335473
0.492174
-0.00398622
0.491517
-0.00463808
-0.00529429
0.490746
0.454872
-9.02985e-05
0.454555
-0.00031685
0.454124
-0.000677371
0.453608
-0.00111352
0.453005
-0.00157509
0.452307
-0.0020543
0.451507
-0.00255473
0.450592
-0.00307176
0.449549
-0.0035943
-0.00410849
0.448363
0.374775
0.000134771
0.374341
0.000117548
0.373794
-0.000130432
0.373138
-0.000457942
0.37236
-0.000797357
0.371453
-0.00114702
0.370409
-0.00151014
0.369215
-0.00187848
0.367862
-0.00224067
-0.00258679
0.36634
0.254565
0.000569438
0.254058
0.000624793
0.253516
0.000412043
0.252885
0.000173213
0.252132
-4.49712e-05
0.251242
-0.000256661
0.250198
-0.000466378
0.248986
-0.000666421
0.247595
-0.000849703
-0.00101287
0.246021
0.0955694
0.0961943
0.0966063
0.0967796
0.0967346
0.096478
0.0960116
0.0953452
0.0944955
0.0934827
-4.2752e-05
4.27517e-05
-0.000293182
0.00025043
-0.000681376
0.000388192
-0.00112409
0.000442713
-0.00158188
0.000457779
-0.00204186
0.000459967
-0.00250133
0.000459456
-0.00296008
0.000458736
-0.00341794
0.000457831
-0.0038744
0.000456421
-0.00432883
0.000454395
-0.00478072
0.000451842
-0.00522972
0.000448954
-0.00567571
0.000445945
-0.00611877
0.000443013
-0.00655911
0.000440311
-0.00699708
0.000437931
-0.00743299
0.000435889
-0.00786712
0.000434126
-0.00829964
0.000432508
-0.0087305
0.000430858
-0.0091595
0.000428991
-0.00958629
0.000426776
-0.0100105
0.000424187
-0.0104319
0.000421344
-0.0108505
0.000418548
-0.0112669
0.00041625
-0.011682
0.00041501
-0.0120976
0.000415392
-0.0125156
0.000417884
-0.0129386
0.000422782
-0.0133688
0.000430123
-0.0138087
0.00043968
-0.0142598
0.000450983
0.000463414
-0.0147233
-0.000357217
0.000399968
-0.00118369
0.00107689
-0.00226756
0.00147206
-0.00345192
0.00162706
-0.00465975
0.00166559
-0.00586181
0.00166199
-0.00704913
0.00164673
-0.00821935
0.0016289
-0.00937175
0.00161015
-0.010506
0.00159054
-0.0116218
0.00157017
-0.0127195
0.00154943
-0.0137995
0.00152884
-0.0148626
0.00150891
-0.0159097
0.00149004
-0.0169419
0.0014725
-0.0179604
0.0014564
-0.0189662
0.00144162
-0.01996
0.00142792
-0.0209424
0.00141487
-0.0219136
0.001402
-0.0228735
0.00138893
-0.0238223
0.00137545
-0.0247599
0.0013617
-0.025687
0.00134823
-0.0266046
0.00133596
-0.0275148
0.00132619
-0.0284204
0.0013203
-0.0293248
0.00131956
-0.0302321
0.00132486
-0.0311461
0.00133653
-0.0320705
0.00135426
-0.0330082
0.00137711
-0.033961
0.00140368
0.00143239
-0.0349301
-0.000756952
0.00115692
-0.00223169
0.00255163
-0.00400039
0.00324075
-0.00584819
0.00347485
-0.00768586
0.00350324
-0.00948191
0.00345801
-0.0112274
0.00339223
-0.0129213
0.00332275
-0.0145649
0.00325367
-0.0161603
0.00318584
-0.0177099
0.00311969
-0.0192164
0.00305578
-0.0206823
0.00299471
-0.0221105
0.00293701
-0.0235036
0.00288303
-0.024864
0.00283288
-0.026194
0.0027864
-0.0274956
0.00274314
-0.0287701
0.00270243
-0.0300187
0.00266343
-0.031242
0.00262527
-0.0324405
0.00258732
-0.0336144
0.00254934
-0.0347646
0.00251172
-0.035892
0.00247548
-0.0369986
0.0024423
-0.0380868
0.00241423
-0.0391602
0.00239343
-0.0402225
0.00238161
-0.0412775
0.00237974
-0.042329
0.00238778
-0.0433795
0.00240462
-0.0444307
0.00242823
-0.0454831
0.00245599
0.0024852
-0.0465361
-0.00119369
0.0023506
-0.00330938
0.0046673
-0.00568249
0.00561385
-0.00804916
0.00584151
-0.0103257
0.00577975
-0.0124925
0.00562477
-0.0145503
0.00545005
-0.016506
0.00527835
-0.0183674
0.00511503
-0.0201424
0.00496071
-0.021838
0.00481524
-0.0234607
0.00467847
-0.0250165
0.00455037
-0.0265104
0.00443087
-0.0279472
0.00431974
-0.0293309
0.00421655
-0.030665
0.00412053
-0.0319526
0.00403068
-0.0331959
0.00394571
-0.0343967
0.00386418
-0.0355562
0.0037847
-0.0366751
0.0037062
-0.0377541
0.00362821
-0.0387937
0.00355112
-0.0397946
0.00347622
-0.0407582
0.0034056
-0.041686
0.00334188
-0.0425805
0.0032877
-0.0434441
0.00324502
-0.0442791
0.00321459
-0.0450872
0.00319577
-0.0458691
0.00318647
-0.0466244
0.00318342
-0.0473512
0.00318263
0.00318005
-0.0480462
-0.00165307
0.00400366
-0.00432235
0.00733657
-0.00710744
0.00839893
-0.00973344
0.00846751
-0.0121496
0.00819589
-0.0143645
0.00783963
-0.0163991
0.00748466
-0.0182751
0.00715429
-0.0200115
0.00685134
-0.0216241
0.00657332
-0.0231262
0.00631728
-0.0245286
0.00608083
-0.0258404
0.00586211
-0.0270692
0.0056596
-0.0282214
0.00547191
-0.0293025
0.00529761
-0.0303171
0.00513508
-0.031269
0.00498253
-0.0321613
0.00483798
-0.0329965
0.00469925
-0.0337761
0.00456418
-0.034501
0.00443094
-0.0351714
0.00429846
-0.0357872
0.00416668
-0.0363478
0.00403668
-0.036853
0.00391054
-0.0373023
0.00379108
-0.037696
0.00368126
-0.0380342
0.00358314
-0.0383169
0.00349721
-0.0385435
0.00342221
-0.0387122
0.00335513
-0.0388205
0.00329152
-0.038864
0.003226
0.00315312
-0.0388374
-0.00213136
0.00613502
-0.00516765
0.0103728
-0.00801182
0.0112431
-0.0104747
0.0109304
-0.0125896
0.0103108
-0.0144125
0.00966251
-0.0159927
0.00906483
-0.0173708
0.00853234
-0.0185786
0.00805906
-0.01964
0.00763475
-0.0205735
0.00725066
-0.0213931
0.00690041
-0.0221101
0.00657907
-0.0227334
0.00628284
-0.0232701
0.00600862
-0.0237263
0.00575367
-0.0241066
0.00551531
-0.0244151
0.0052909
-0.024655
0.00507779
-0.0248291
0.00487313
-0.024939
0.00467388
-0.0249856
0.00447732
-0.0249688
0.00428143
-0.0248876
0.00408531
-0.0247404
0.0038893
-0.0245249
0.0036949
-0.0242385
0.00350452
-0.0238785
0.00332117
-0.0234423
0.00314695
-0.0229272
0.00298202
-0.0223295
0.00282439
-0.0216446
0.00267011
-0.0208672
0.00251383
-0.0199907
0.00234926
0.00216996
-0.019008
-0.00261739
0.0087524
-0.00564905
0.0134045
-0.00791382
0.0135078
-0.00953371
0.0125503
-0.0107095
0.0114866
-0.0115547
0.0105077
-0.0121414
0.00965145
-0.0125242
0.00891512
-0.012743
0.00827791
-0.0128251
0.00771672
-0.0127892
0.00721473
-0.0126496
0.00676085
-0.012417
0.0063464
-0.0120992
0.00596494
-0.011702
0.00561142
-0.01123
0.00528162
-0.0106866
0.00497172
-0.010074
0.00467824
-0.00939452
0.00439808
-0.00864965
0.00412804
-0.00784056
0.00386453
-0.00696768
0.00360416
-0.00603083
0.0033443
-0.00502916
0.00308337
-0.00396095
0.00282085
-0.00282349
0.00255723
-0.00161268
0.00229356
-0.000323383
0.00203174
0.00105056
0.0017729
0.00251715
0.00151532
0.00408547
0.00125592
0.00576449
0.00099089
0.00756268
0.000715376
0.00948777
0.000423854
0.000110878
0.0115465
-0.00302216
0.0117745
-0.00504674
0.015429
-0.00545771
0.0139188
-0.00510949
0.012202
-0.00442568
0.0108027
-0.00352197
0.00960392
-0.00245066
0.00858012
-0.00125722
0.00772164
2.77538e-05
0.0069929
0.00138609
0.00635835
0.00280701
0.00579377
0.00428422
0.00528361
0.00581323
0.00481735
0.00739134
0.00438678
0.00901718
0.00398552
0.0106903
0.00360842
0.012411
0.00325097
0.0141797
0.00290935
0.0159971
0.00258056
0.0178636
0.0022614
0.01978
0.00194792
0.0217476
0.00163644
0.0237677
0.00132393
0.0258428
0.00100809
0.027976
0.000687395
0.030172
0.000361119
0.0324358
2.96047e-05
0.0347751
-0.000307656
0.0372006
-0.000652714
0.0397235
-0.0010077
0.0423547
-0.00137536
0.0451048
-0.00175929
0.047984
-0.00216401
0.0510025
-0.00259479
-0.00305744
0.0541707
-0.00212361
0.0138981
0.00028677
0.0130186
0.00423486
0.00997066
0.00813049
0.0083064
0.0118079
0.00712533
0.0153363
0.00607546
0.0187529
0.00516348
0.0220768
0.00439769
0.0253257
0.00374403
0.028516
0.00316796
0.031661
0.00264871
0.0347707
0.00217392
0.0378534
0.00173463
0.0409165
0.00132362
0.0439668
0.000935208
0.0470103
0.000564874
0.0500521
0.000209042
0.053097
-0.000135612
0.0561507
-0.000473215
0.0592199
-0.000807859
0.0623106
-0.00114287
0.0654282
-0.00148129
0.068578
-0.00182594
0.0717653
-0.00217935
0.0749962
-0.00254364
0.0782778
-0.0029206
0.0816191
-0.00331188
0.0850303
-0.00371898
0.0885213
-0.00414384
0.0921026
-0.00458911
0.0957853
-0.00505809
0.0995806
-0.00555476
0.1035
-0.00608378
0.107556
-0.00665041
-0.00726036
0.111759
0.01571
-0.00181184
0.0279368
0.000791816
0.0371944
0.000712995
0.0451107
0.000390158
0.052101
0.000135015
0.058381
-0.000204556
0.0641484
-0.000603918
0.0695461
-0.00100008
0.0746647
-0.00137454
0.0795636
-0.00173099
0.0842854
-0.00207319
0.088862
-0.00240262
0.0933175
-0.00272097
0.0976717
-0.0030306
0.101941
-0.003334
0.106139
-0.00363357
0.11028
-0.00393173
0.114375
-0.00423092
0.118436
-0.00453361
0.12247
-0.00484246
0.126488
-0.00516034
0.130496
-0.0054901
0.134505
-0.00583445
0.138521
-0.00619596
0.142555
-0.00657699
0.146614
-0.00697978
0.150708
-0.00740647
0.154848
-0.00785932
0.159045
-0.00834086
0.16331
-0.00885407
0.167655
-0.00940245
0.17209
-0.00999008
0.176628
-0.0106216
0.181279
-0.011302
-0.0120367
0.186055
0.116307
-0.00586777
0.123021
-0.00592253
0.129549
-0.00581477
0.135822
-0.00588326
0.141908
-0.00595047
0.147729
-0.00602549
0.153269
-0.00614386
0.158563
-0.0062948
0.163649
-0.00646039
0.168553
-0.00663439
0.173295
-0.00681599
0.177897
-0.00700455
0.182376
-0.00719952
0.186746
-0.00740116
0.191023
-0.00761034
0.195217
-0.00782832
0.199342
-0.00805654
0.203408
-0.00829673
0.207425
-0.00855081
0.211404
-0.00882094
0.215353
-0.00910945
0.219281
-0.00941875
0.223198
-0.00975126
0.227112
-0.0101094
0.23103
-0.0104954
0.234962
-0.0109116
0.238915
-0.0113604
0.2429
-0.0118441
0.246925
-0.0123656
0.250999
-0.0129278
0.25513
-0.0135342
0.259329
-0.0141887
0.263603
-0.0148956
0.26796
-0.0156595
-0.0164852
0.272409
0.264701
-0.00668147
0.26617
-0.00739155
0.268061
-0.00770596
0.270173
-0.00799482
0.272502
-0.00827936
0.275002
-0.00852597
0.277609
-0.00875067
0.280283
-0.0089688
0.283004
-0.00918089
0.285755
-0.00938581
0.288525
-0.00958564
0.291303
-0.00978334
0.294085
-0.00998138
0.296866
-0.0101821
0.299644
-0.0103879
0.302417
-0.0106014
0.305185
-0.0108251
0.30795
-0.0110617
0.310713
-0.0113138
0.313476
-0.0115841
0.316242
-0.0118754
0.319014
-0.0121904
0.321794
-0.0125318
0.324587
-0.0129022
0.327396
-0.0133041
0.330225
-0.0137402
0.333077
-0.0142128
0.335958
-0.0147247
0.33887
-0.0152786
0.34182
-0.0158775
0.344811
-0.0165247
0.347846
-0.0172238
0.350929
-0.0179786
0.354062
-0.018793
-0.0196711
0.357248
0.379875
-0.00718511
0.380478
-0.0079941
0.381292
-0.00851976
0.382228
-0.00893089
0.383253
-0.00930468
0.384361
-0.00963382
0.385532
-0.00992112
0.386745
-0.0101821
0.38799
-0.0104257
0.389259
-0.0106552
0.390547
-0.0108736
0.391849
-0.011085
0.39316
-0.011293
0.394479
-0.011501
0.395803
-0.0117122
0.397132
-0.0119298
0.398464
-0.0121569
0.399799
-0.0123965
0.401136
-0.0126517
0.402478
-0.0129255
0.403823
-0.0132207
0.405173
-0.0135401
0.406528
-0.0138867
0.407889
-0.0142629
0.409256
-0.0146715
0.410631
-0.0151149
0.412014
-0.0155956
0.413405
-0.0161162
0.414806
-0.0166792
0.416216
-0.0172874
0.417635
-0.0179437
0.419062
-0.018651
0.420496
-0.0194125
0.421934
-0.0202313
-0.0211103
0.423374
0.456254
-0.00725168
0.45628
-0.00802044
0.456372
-0.00861156
0.456522
-0.00908108
0.456706
-0.00948882
0.45692
-0.00984727
0.457157
-0.0101587
0.457409
-0.0104335
0.457665
-0.0106824
0.457922
-0.0109117
0.458174
-0.0111258
0.458418
-0.0113293
0.458652
-0.0115268
0.458874
-0.0117223
0.459081
-0.0119197
0.459274
-0.0121223
0.45945
-0.0123335
0.45961
-0.0125566
0.459753
-0.0127947
0.459879
-0.0130507
0.459986
-0.0133275
0.460073
-0.0136278
0.460141
-0.0139542
0.460187
-0.0143091
0.460211
-0.0146951
0.46021
-0.0151142
0.460183
-0.0155688
0.460128
-0.016061
0.460042
-0.0165929
0.459922
-0.0171669
0.459763
-0.0177851
0.459562
-0.0184498
0.459313
-0.0191631
0.459009
-0.0199271
-0.0207437
0.458642
0.492925
-0.00682562
0.492419
-0.00751404
0.491895
-0.00808752
0.491371
-0.00855748
0.490839
-0.00895705
0.490295
-0.0093031
0.489738
-0.00960116
0.489163
-0.00985895
0.488567
-0.0100861
0.487945
-0.0102903
0.487297
-0.0104771
0.486619
-0.0106515
0.48591
-0.0108182
0.48517
-0.0109817
0.484396
-0.0111457
0.483587
-0.0113138
0.482743
-0.0114893
0.481862
-0.0116753
0.480942
-0.0118748
0.479982
-0.0120904
0.478979
-0.0123246
0.477931
-0.0125799
0.476836
-0.0128586
0.475689
-0.0131627
0.474489
-0.0134942
0.473229
-0.0138549
0.471907
-0.0142465
0.470517
-0.0146708
0.469054
-0.0151292
0.46751
-0.0156233
0.46588
-0.0161545
0.464154
-0.0167243
0.462325
-0.0173337
0.460382
-0.0179838
-0.0186754
0.458314
0.48985
-0.00592969
0.488846
-0.00651056
0.487768
-0.00700972
0.486636
-0.00742509
0.485452
-0.00777298
0.484217
-0.00806783
0.482933
-0.0083172
0.481602
-0.00852781
0.480223
-0.00870768
0.478797
-0.0088642
0.477324
-0.00900323
0.475802
-0.0091297
0.474232
-0.0092481
0.472613
-0.00936253
0.470944
-0.00947662
0.469224
-0.00959363
0.467451
-0.00971652
0.465624
-0.00984798
0.463739
-0.00999049
0.461795
-0.0101463
0.459789
-0.0103176
0.457715
-0.0105062
0.45557
-0.0107137
0.453349
-0.0109419
0.451048
-0.0111921
0.448658
-0.0114656
0.446175
-0.0117635
0.443592
-0.0120867
0.440899
-0.0124363
0.438089
-0.012813
0.435152
-0.0132173
0.432078
-0.01365
0.428855
-0.0141111
0.425472
-0.0146007
-0.0151186
0.421916
0.447031
-0.00459741
0.445561
-0.00504114
0.443975
-0.00542316
0.442289
-0.00573945
0.440514
-0.00599817
0.438657
-0.00620992
0.436722
-0.00638224
0.434715
-0.00652116
0.432641
-0.00663312
0.430501
-0.00672449
0.428298
-0.00680061
0.426035
-0.0068659
0.423711
-0.00692425
0.421327
-0.00697913
0.418884
-0.00703359
0.416381
-0.00709029
0.413816
-0.00715159
0.411188
-0.00721956
0.408494
-0.00729608
0.40573
-0.00738277
0.402894
-0.00748108
0.39998
-0.00759227
0.396984
-0.00771745
0.3939
-0.00785756
0.390721
-0.00801339
0.387441
-0.00818558
0.384053
-0.00837466
0.380547
-0.008581
0.376916
-0.00880487
0.37315
-0.00904637
0.369238
-0.0093055
0.36517
-0.00958204
0.360935
-0.00987562
0.35652
-0.0101856
-0.010511
0.351913
0.36465
-0.00290689
0.362799
-0.00319004
0.360803
-0.00342734
0.35868
-0.00361649
0.356444
-0.00376235
0.354107
-0.00387253
0.351678
-0.00395345
0.349167
-0.00401028
0.346582
-0.00404802
0.343929
-0.00407159
0.341214
-0.0040852
0.338441
-0.00409226
0.335612
-0.00409561
0.332731
-0.00409774
0.329798
-0.00410072
0.326814
-0.00410633
0.323779
-0.00411602
0.32069
-0.00413103
0.317547
-0.00415239
0.314345
-0.00418096
0.311082
-0.00421743
0.307752
-0.00426237
0.304351
-0.00431619
0.300873
-0.00437921
0.297311
-0.00445164
0.293659
-0.00453356
0.28991
-0.00462497
0.286055
-0.00472576
0.282086
-0.00483574
0.277995
-0.00495459
0.273772
-0.00508192
0.269407
-0.00521719
0.264892
-0.00535973
0.260215
-0.00550872
-0.00566312
0.255368
0.244268
-0.00115341
0.242346
-0.00126827
0.240274
-0.00135523
0.238073
-0.00141503
0.235762
-0.00145169
0.23336
-0.00147051
0.230883
-0.00147597
0.228344
-0.00147147
0.225756
-0.00145997
0.223129
-0.00144414
0.22047
-0.00142614
0.217785
-0.00140759
0.21508
-0.00138968
0.212355
-0.00137337
0.209614
-0.00135936
0.206856
-0.00134819
0.204081
-0.00134022
0.201285
-0.0013357
0.198468
-0.00133478
0.195625
-0.00133755
0.192752
-0.00134403
0.189844
-0.0013542
0.186896
-0.00136799
0.183902
-0.00138528
0.180857
-0.00140594
0.177753
-0.00142979
0.174585
-0.00145661
0.171346
-0.00148619
0.168029
-0.00151825
0.164627
-0.00155249
0.161134
-0.00158858
0.157544
-0.00162616
0.153849
-0.00166479
0.150045
-0.00170402
-0.00174332
0.146126
0.0923293
0.0910611
0.0897059
0.0882909
0.0868392
0.0853687
0.0838928
0.0824214
0.0809614
0.0795173
0.0780913
0.0766837
0.0752941
0.0739208
0.0725615
0.0712133
0.0698732
0.0685376
0.0672029
0.0658654
0.0645214
0.0631673
0.0617994
0.0604143
0.0590084
0.0575788
0.0561223
0.0546363
0.0531182
0.0515658
0.0499774
0.0483514
0.0466868
0.044983
0.0432398
-0.0151996
0.00047631
-0.0156888
0.000489115
-0.0161903
0.000501542
-0.0167041
0.000513713
-0.0172304
0.000526276
-0.0177709
0.000540359
-0.0183286
0.00055751
-0.0189082
0.000579481
-0.0195164
0.000607946
0.000644205
-0.0201608
-0.0359157
0.00146178
-0.0369176
0.00149089
-0.0379357
0.00151959
-0.038971
0.00154885
-0.0400258
0.00158075
-0.0411041
0.00161836
-0.0422122
0.00166529
-0.0433582
0.00172505
-0.044551
0.00180038
0.00189264
-0.0457998
-0.047588
0.00251356
-0.048637
0.00253968
-0.0496812
0.00256354
-0.0507193
0.00258674
-0.0517513
0.00261243
-0.0527781
0.00264494
-0.0538019
0.00268885
-0.0548251
0.00274801
-0.0558492
0.00282439
0.00291732
-0.0568739
-0.0487051
0.00317224
-0.0493226
0.00315693
-0.0498929
0.00313346
-0.0504096
0.00310315
-0.0508667
0.00306918
-0.0512579
0.00303597
-0.0515773
0.00300807
-0.0518179
0.0029886
-0.0519713
0.00297788
0.00297241
-0.0520263
-0.0387335
0.00306809
-0.0385443
0.00296734
-0.0382601
0.00284887
-0.0378701
0.00271275
-0.0373624
0.00256118
-0.0367245
0.00239782
-0.035943
0.00222647
-0.0350039
0.00204945
-0.0338917
0.00186572
0.00166958
-0.0325888
-0.0179106
0.00197028
-0.0166894
0.00174575
-0.0153342
0.00149318
-0.0138332
0.00121132
-0.0121733
0.00090101
-0.0103402
0.000564385
-0.00831734
0.000203495
-0.00608611
-0.000181847
-0.0036245
-0.000595901
-0.00104767
-0.000907246
0.0137457
-0.000229345
0.0160939
-0.000602847
0.018601
-0.00101432
0.0212788
-0.00146681
0.0241417
-0.00196216
0.0272075
-0.0025017
0.0304977
-0.00308703
0.034037
-0.00372123
0.0378508
-0.0044099
-0.00516166
0.0419647
0.057499
-0.00355783
0.0609976
-0.00410169
0.0646775
-0.00469437
0.068551
-0.00534059
0.072633
-0.00604446
0.0769409
-0.0068098
0.0814944
-0.00764074
0.0863152
-0.00854229
0.0914262
-0.00952107
-0.0105855
0.09685
0.11612
-0.00791956
0.120652
-0.00863393
0.125367
-0.00940918
0.130277
-0.0102507
0.135396
-0.0111637
0.140739
-0.0121529
0.146322
-0.0132237
0.152161
-0.0143815
0.158273
-0.015633
-0.0169858
0.164673
0.190967
-0.0128314
0.196025
-0.0136917
0.201239
-0.014623
0.206618
-0.0156306
0.212174
-0.0167194
0.217915
-0.0178943
0.223851
-0.01916
0.229991
-0.0205215
0.236342
-0.021984
-0.0235533
0.24291
0.276955
-0.0173777
0.281605
-0.0183417
0.286364
-0.0193821
0.291236
-0.020503
0.296226
-0.0217086
0.301334
-0.0230026
0.306563
-0.0243886
0.311911
-0.0258698
0.317376
-0.0274495
-0.0291307
0.322954
0.360488
-0.0206169
0.36378
-0.0216341
0.367124
-0.0227263
0.370518
-0.0238966
0.373957
-0.0251476
0.377436
-0.0264816
0.380948
-0.0279003
0.384483
-0.029405
0.38803
-0.0309965
-0.032675
0.391575
0.424809
-0.0220525
0.426236
-0.0230604
0.427646
-0.0241361
0.42903
-0.0252813
0.43038
-0.026497
0.431682
-0.0277836
0.432923
-0.0291411
0.434087
-0.0305684
0.435154
-0.0320639
-0.0336251
0.436105
0.458204
-0.0216145
0.457685
-0.0225407
0.457072
-0.023523
0.456352
-0.0245613
0.455511
-0.0256553
0.454531
-0.0268035
0.453394
-0.0280038
0.452079
-0.0292533
0.450564
-0.0305483
-0.0318838
0.448823
0.456108
-0.0194086
0.453752
-0.0201835
0.451228
-0.0209994
0.448522
-0.0218549
0.445615
-0.022748
0.442488
-0.0236761
0.43912
-0.0246353
0.435488
-0.0256215
0.43157
-0.0266291
-0.0276519
0.427338
0.418171
-0.0156641
0.414224
-0.016236
0.410058
-0.0168326
0.405655
-0.0174518
0.400998
-0.0180906
0.396067
-0.0187453
0.390844
-0.0194119
0.385308
-0.0200851
0.379439
-0.0207592
-0.0214276
0.373215
0.3471
-0.0108507
0.342067
-0.0112029
0.336801
-0.0115657
0.331286
-0.0119364
0.325508
-0.0123122
0.319452
-0.0126896
0.313105
-0.0130646
0.306454
-0.0134328
0.299484
-0.0137892
-0.0141286
0.292186
0.250339
-0.00582172
0.24512
-0.00598309
0.2397
-0.00614553
0.234071
-0.00630714
0.228225
-0.00646575
0.222155
-0.006619
0.215856
-0.0067643
0.209322
-0.00689891
0.202553
-0.00701993
-0.0071244
0.19555
0.142087
-0.0017821
0.137924
-0.00181972
0.133634
-0.00185549
0.129216
-0.00188867
0.12467
-0.00191847
0.119995
-0.00194411
0.115197
-0.00196479
0.110278
-0.00197973
0.105247
-0.00198819
-0.00198949
0.100113
0.0414579
0.0396384
0.0377831
0.0358946
0.0339763
0.0320324
0.0300678
0.0280883
0.0261003
0.024111
-0.02085
0.000688907
-0.0215922
0.000742107
-0.0223957
0.000803342
-0.0232676
0.000871971
-0.0242149
0.000947321
-0.0252437
0.00102899
-0.0263603
0.0011168
-0.0275707
0.00121073
-0.0288808
0.00131039
-0.0302951
0.00141469
-0.0318158
0.00152103
-0.0334398
0.00162446
-0.0351564
0.00171711
-0.0369439
0.00178807
-0.0387673
0.00182408
-0.0405772
0.00181059
-0.0423108
0.00173442
-0.0438951
0.00158531
-0.045247
0.00135328
-0.0462685
0.00102291
-0.0468485
0.000581727
-0.0468804
3.36606e-05
-0.0462818
-0.000596636
-0.0449968
-0.00128308
-0.0429864
-0.00200837
-0.0402332
-0.0027512
-0.0367378
-0.0034932
-0.0325178
-0.00421777
-0.0276065
-0.00490885
-0.0220538
-0.00555006
-0.0159271
-0.00612393
-0.00929777
-0.00662681
-0.00223464
-0.0070606
0.00519581
-0.00742811
-0.00771954
0.0129176
-0.0471126
0.00200153
-0.0484958
0.00212515
-0.049953
0.00226047
-0.0514847
0.00240379
-0.0530882
0.00255114
-0.0547575
0.00269863
-0.0564825
0.00284228
-0.0582487
0.00297736
-0.060035
0.00309727
-0.0618125
0.0031929
-0.0635423
0.00325157
-0.0651731
0.00325613
-0.0666402
0.00318521
-0.0678658
0.00301485
-0.0687614
0.00272086
-0.0692298
0.00228052
-0.0691684
0.00167475
-0.0684738
0.00089284
-0.067054
-6.40615e-05
-0.0648501
-0.00117807
-0.0618313
-0.00243389
-0.0579759
-0.00381828
-0.0532599
-0.00530914
-0.0476642
-0.00687489
-0.0411988
-0.00846965
-0.0339006
-0.0100451
-0.0258169
-0.0115725
-0.0170018
-0.0130283
-0.00751732
-0.0143883
0.00257234
-0.0156344
0.0132044
-0.016751
0.0243025
-0.0177204
0.0357827
-0.0185368
0.0475587
-0.0192004
-0.0197116
0.0595541
-0.0578957
0.00302326
-0.0589067
0.00313618
-0.0598943
0.00324822
-0.0608409
0.00335042
-0.061723
0.0034334
-0.062512
0.00348776
-0.0631736
0.00350413
-0.0636679
0.00347206
-0.0639491
0.00337893
-0.0639649
0.00320933
-0.0636574
0.00294484
-0.0629626
0.00256227
-0.061811
0.00203472
-0.060129
0.00133415
-0.057844
0.000437336
-0.0548981
-0.000663608
-0.0512566
-0.00196476
-0.0469009
-0.00346049
-0.0418283
-0.00513396
-0.0360238
-0.00697976
-0.0294651
-0.00898968
-0.0221495
-0.0111308
-0.0140932
-0.0133622
-0.00533291
-0.0156314
0.00409013
-0.0178888
0.0141469
-0.0200983
0.0248005
-0.022223
0.0360001
-0.0242251
0.0476834
-0.0260691
0.0597784
-0.0277272
0.0722069
-0.0291773
0.0848904
-0.0304017
0.0977497
-0.031394
0.110709
-0.0321576
-0.0327022
0.123701
-0.0519677
0.0029647
-0.0517755
0.00294398
-0.0514245
0.00289727
-0.0508847
0.00281057
-0.0501212
0.00266979
-0.0490949
0.00246143
-0.0477636
0.00217285
-0.0460826
0.00179136
-0.0440055
0.00130226
-0.0414842
0.000688786
-0.0384724
-6.59782e-05
-0.0349334
-0.000975531
-0.0308369
-0.00206045
-0.0261571
-0.00334413
-0.0208787
-0.00483919
-0.0149884
-0.00655197
-0.00846909
-0.00848171
-0.00131429
-0.0106129
0.00648465
-0.0129307
0.0149277
-0.015421
0.0239969
-0.0180573
0.0336695
-0.020802
0.0439175
-0.0236088
0.0547117
-0.0264242
0.0660179
-0.0291935
0.0777875
-0.0318664
0.0899612
-0.0343952
0.102472
-0.0367343
0.115247
-0.0388432
0.12821
-0.0406892
0.141283
-0.0422483
0.154388
-0.0435057
0.167453
-0.0444584
0.180412
-0.0451149
-0.0454943
0.193205
-0.0310745
0.00145049
-0.0293239
0.0011933
-0.0273072
0.000880532
-0.024992
0.00049517
-0.0223437
2.12735e-05
-0.019328
-0.000554436
-0.0159122
-0.00124308
-0.0120644
-0.00205634
-0.00775544
-0.0030063
-0.00296143
-0.00410458
0.00233701
-0.00536348
0.00816429
-0.00680173
0.0145451
-0.00844011
0.0214945
-0.0102924
0.0290219
-0.0123654
0.0371308
-0.0146597
0.0458191
-0.017169
0.0550844
-0.0198773
0.0649168
-0.0227622
0.075294
-0.0257975
0.086185
-0.0289477
0.0975502
-0.0321667
0.109343
-0.0354007
0.12151
-0.0385909
0.133993
-0.0416761
0.146725
-0.0445976
0.159631
-0.0473005
0.172632
-0.0497346
0.185647
-0.0518575
0.198595
-0.0536366
0.211399
-0.0550506
0.223984
-0.0560907
0.236287
-0.056761
0.248252
-0.0570789
-0.057074
0.259832
0.00209368
-0.00155044
0.00540596
-0.00211905
0.00905469
-0.0027683
0.013063
-0.00351334
0.0174531
-0.00436891
0.0222468
-0.00534841
0.0274682
-0.00646458
0.0331414
-0.00772954
0.0392903
-0.00915516
0.0459388
-0.010753
0.0531098
-0.0125341
0.0608196
-0.0145111
0.0690763
-0.0166964
0.0778817
-0.0190971
0.087231
-0.0217141
0.0971131
-0.0245412
0.107509
-0.0275642
0.118393
-0.0307606
0.12973
-0.0340994
0.141476
-0.0375428
0.153573
-0.0410445
0.165957
-0.04455
0.178555
-0.0479985
0.19129
-0.0513255
0.20408
-0.0544657
0.21684
-0.0573572
0.229484
-0.0599432
0.241925
-0.0621751
0.254082
-0.0640141
0.265879
-0.0654336
0.277249
-0.0664205
0.288134
-0.0669756
0.298488
-0.0671142
0.308275
-0.0668654
-0.0662707
0.317472
0.0464022
-0.00598802
0.0511855
-0.00690239
0.0563359
-0.00791886
0.0618742
-0.00905161
0.0678197
-0.0103145
0.0741918
-0.0117206
0.081009
-0.0132818
0.0882886
-0.0150092
0.0960461
-0.0169127
0.104294
-0.019001
0.113042
-0.0212814
0.12229
-0.0237596
0.132033
-0.0264389
0.142254
-0.0293174
0.152927
-0.0323867
0.164017
-0.0356311
0.17548
-0.0390268
0.187262
-0.0425416
0.199298
-0.0461352
0.211516
-0.0497598
0.223832
-0.0533608
0.23616
-0.0568774
0.248407
-0.0602449
0.260479
-0.0633974
0.272284
-0.0662705
0.283733
-0.0688051
0.29474
-0.07095
0.305228
-0.0726637
0.315132
-0.0739174
0.324394
-0.0746956
0.332971
-0.0749975
0.340833
-0.0748373
0.347962
-0.0742432
0.354353
-0.0732568
-0.0719312
0.360014
0.102608
-0.0117459
0.108719
-0.0130137
0.115201
-0.0144011
0.12207
-0.0159202
0.129338
-0.0175825
0.137016
-0.0193986
0.145112
-0.0213776
0.15363
-0.0235272
0.16257
-0.0258527
0.171927
-0.0283576
0.181688
-0.0310424
0.191833
-0.0339046
0.202332
-0.0369376
0.213144
-0.0401294
0.22422
-0.0434615
0.235497
-0.0469082
0.246907
-0.0504363
0.258371
-0.0540049
0.269802
-0.0575663
0.28111
-0.0610666
0.292196
-0.0644471
0.302965
-0.0676456
0.313319
-0.0705987
0.323167
-0.0732448
0.332423
-0.0755264
0.341011
-0.0773932
0.348866
-0.0788048
0.355936
-0.0797329
0.36218
-0.0801622
0.367577
-0.080092
0.372116
-0.0795364
0.375802
-0.0785236
0.378653
-0.077095
0.3807
-0.0753037
-0.0732121
0.381981
0.171375
-0.0184481
0.17839
-0.0200293
0.185728
-0.0217383
0.193391
-0.023584
0.201383
-0.0255739
0.209699
-0.0277145
0.218331
-0.03001
0.227267
-0.0324625
0.236486
-0.0350715
0.245962
-0.0378332
0.25566
-0.0407406
0.265538
-0.0437824
0.275544
-0.0469429
0.285616
-0.0502008
0.295683
-0.053529
0.305669
-0.0568937
0.315488
-0.0602548
0.325051
-0.0635665
0.334262
-0.0667775
0.343029
-0.0698327
0.351257
-0.0726745
0.358856
-0.0752445
0.365744
-0.0774863
0.371847
-0.0793473
0.377102
-0.0807817
0.381462
-0.0817526
0.384892
-0.0822348
0.387374
-0.0822155
0.388908
-0.081696
0.389507
-0.0806914
0.389201
-0.0792309
0.388034
-0.0773563
0.386059
-0.0751204
0.38334
-0.0725852
-0.0698189
0.379946
0.249696
-0.0252351
0.256703
-0.0270354
0.263924
-0.0289593
0.271351
-0.0310114
0.278972
-0.0331945
0.286767
-0.0355097
0.294713
-0.0379557
0.302779
-0.0405286
0.310929
-0.0432211
0.319119
-0.0460228
0.327298
-0.0489192
0.335408
-0.0518919
0.343383
-0.0549178
0.351152
-0.0579687
0.358635
-0.0610115
0.365749
-0.064008
0.37241
-0.0669151
0.37853
-0.0696856
0.384022
-0.0722693
0.388804
-0.0746146
0.3928
-0.0766696
0.39594
-0.0783846
0.398168
-0.0797139
0.399439
-0.0806182
0.399724
-0.0810667
0.399011
-0.0810393
0.397304
-0.0805276
0.394624
-0.0795365
0.391012
-0.078084
0.386521
-0.076201
0.38122
-0.0739303
0.375189
-0.071325
0.368514
-0.0684461
0.361288
-0.0653602
-0.0621365
0.353605
0.328635
-0.0309161
0.334408
-0.032808
0.340256
-0.0348073
0.346159
-0.0369141
0.352091
-0.0391263
0.358021
-0.0414397
0.363913
-0.0438477
0.369726
-0.0463406
0.37541
-0.0489056
0.380914
-0.0515264
0.386179
-0.054183
0.391139
-0.0568516
0.395726
-0.0595042
0.399866
-0.062109
0.403486
-0.0646302
0.406506
-0.0670283
0.408853
-0.0692612
0.410452
-0.0712844
0.411236
-0.0730529
0.411144
-0.0745224
0.410126
-0.075651
0.408143
-0.0764014
0.405171
-0.0767421
0.401203
-0.0766502
0.396249
-0.0761123
0.390336
-0.0751265
0.383511
-0.0737026
0.375837
-0.0718626
0.367392
-0.0696402
0.358271
-0.0670797
0.348574
-0.0642343
0.338412
-0.0611637
0.327897
-0.0579316
0.31714
-0.0546033
-0.0512431
0.306246
0.395099
-0.0344399
0.398581
-0.0362899
0.401996
-0.038222
0.405314
-0.0402319
0.408501
-0.0423132
0.411519
-0.0444571
0.414324
-0.0466524
0.416869
-0.048885
0.419101
-0.0511377
0.420965
-0.0533901
0.422401
-0.0556188
0.423347
-0.0577969
0.423738
-0.0598947
0.423509
-0.0618795
0.422596
-0.0637164
0.420936
-0.0653684
0.418474
-0.0667978
0.415157
-0.067967
0.410944
-0.06884
0.405806
-0.0693838
0.399725
-0.0695701
0.392701
-0.0693769
0.384749
-0.06879
0.375903
-0.0678045
0.366216
-0.0664256
0.355758
-0.0646691
0.344617
-0.0625618
0.332895
-0.0601403
0.320704
-0.0574498
0.308166
-0.0545428