/*--------------------------------*- C++ -*----------------------------------*\
| =========                 |                                                 |
| \\      /  F ield         | OpenFOAM: The Open Source CFD Toolbox           |
|  \\    /   O peration     | Version:  2406                                  |
|   \\  /    A nd           | Website:  www.openfoam.com                      |
|    \\/     M anipulation  |                                                 |
\*---------------------------------------------------------------------------*/
FoamFile
{
    version     2.0;
    format      ascii;
    arch        "LSB;label=32;scalar=64";
    class       volScalarField;
    location    "84";
    object      p;
}
// * * * * * * * * * * * * * * * * * * * * * * * * * * * * * * * * * * * * * //

dimensions      [0 2 -2 0 0 0 0];

internalField   nonuniform List<scalar> 
1916
(
3.9417
3.94099
3.9397
3.93812
3.93637
3.93452
3.9326
3.93064
3.92865
3.92663
3.9246
3.92256
3.92052
3.91846
3.9164
3.91433
3.91227
3.9102
3.90812
3.90605
3.90398
3.90192
3.89986
3.8978
3.89576
3.89373
3.89173
3.88975
3.88781
3.88592
3.8841
3.88237
3.88076
3.8793
3.87804
3.87703
3.87634
3.87605
3.87623
3.87696
3.8783
3.88028
3.88285
3.88588
3.88913
3.89225
3.89423
3.94306
3.94144
3.93974
3.93809
3.93635
3.93449
3.93257
3.93061
3.92862
3.92661
3.92459
3.92255
3.9205
3.91845
3.91639
3.91433
3.91226
3.91019
3.90812
3.90605
3.90398
3.90191
3.89985
3.8978
3.89576
3.89373
3.89173
3.88975
3.88782
3.88594
3.88412
3.8824
3.8808
3.87936
3.87813
3.87717
3.87655
3.87635
3.87668
3.87761
3.87923
3.88156
3.88455
3.88803
3.8917
3.89528
3.89754
3.94385
3.94169
3.9397
3.93803
3.93631
3.93445
3.93252
3.93057
3.92859
3.92659
3.92456
3.92253
3.92049
3.91843
3.91638
3.91431
3.91225
3.91018
3.90811
3.90603
3.90396
3.90189
3.89983
3.89777
3.89572
3.89368
3.89166
3.88967
3.8877
3.88578
3.88392
3.88214
3.88047
3.87893
3.87758
3.87648
3.87571
3.87534
3.87551
3.87634
3.87794
3.88043
3.8838
3.88793
3.89244
3.897
3.89938
3.94435
3.94195
3.93974
3.93801
3.93628
3.93441
3.93248
3.93052
3.92855
3.92655
3.92453
3.9225
3.92046
3.91841
3.91635
3.91429
3.91222
3.91015
3.90808
3.906
3.90392
3.90184
3.89977
3.89769
3.89561
3.89354
3.89148
3.88942
3.88738
3.88535
3.88335
3.88139
3.87948
3.87763
3.87588
3.87428
3.87287
3.87175
3.87102
3.87083
3.87139
3.87292
3.8756
3.87954
3.88433
3.88944
3.8902
3.94473
3.94223
3.93985
3.93803
3.93628
3.93439
3.93244
3.93048
3.9285
3.92651
3.92449
3.92247
3.92043
3.91838
3.91632
3.91426
3.91219
3.91011
3.90803
3.90595
3.90386
3.90176
3.89966
3.89755
3.89544
3.89331
3.89117
3.88902
3.88684
3.88464
3.8824
3.88012
3.87778
3.87539
3.87291
3.87035
3.86771
3.86499
3.86224
3.85954
3.85706
3.85504
3.8538
3.85373
3.85438
3.85522
3.84604
3.94503
3.94247
3.93997
3.93807
3.93629
3.93438
3.93241
3.93044
3.92846
3.92646
3.92445
3.92243
3.92039
3.91834
3.91628
3.91422
3.91215
3.91007
3.90798
3.90588
3.90378
3.90166
3.89953
3.89738
3.89521
3.89301
3.89077
3.88848
3.88612
3.88368
3.88113
3.87842
3.87551
3.87234
3.86883
3.86488
3.86036
3.85514
3.84904
3.84187
3.83343
3.82352
3.81188
3.79838
3.78069
3.75625
3.69152
3.94525
3.94266
3.94009
3.93813
3.93631
3.93438
3.9324
3.93041
3.92843
3.92643
3.92441
3.92239
3.92035
3.9183
3.91624
3.91418
3.9121
3.91001
3.90792
3.90581
3.90368
3.90154
3.89938
3.89718
3.89495
3.89267
3.89032
3.88788
3.88533
3.88262
3.8797
3.8765
3.87292
3.86885
3.86411
3.85847
3.85163
3.84319
3.83257
3.81901
3.8014
3.77817
3.74665
3.70354
3.63748
3.54341
3.23452
3.94541
3.9428
3.94018
3.93818
3.93633
3.93439
3.93239
3.93039
3.9284
3.9264
3.92438
3.92235
3.92032
3.91827
3.91621
3.91414
3.91206
3.90997
3.90786
3.90574
3.90359
3.90143
3.89923
3.89699
3.89471
3.89235
3.88989
3.88731
3.88457
3.8816
3.87833
3.87465
3.87043
3.86546
3.85948
3.85212
3.84286
3.83097
3.81536
3.79443
3.76566
3.72494
3.66421
3.56902
3.38922
3.03029
1.84202
3.94551
3.94289
3.94025
3.93822
3.93635
3.9344
3.93238
3.93038
3.92838
3.92637
3.92436
3.92233
3.92029
3.91824
3.91618
3.9141
3.91202
3.90992
3.90781
3.90568
3.90352
3.90134
3.89911
3.89684
3.89451
3.89209
3.88955
3.88686
3.88396
3.88079
3.87724
3.87318
3.86844
3.86275
3.85576
3.84699
3.8357
3.82087
3.80093
3.77348
3.73463
3.67788
3.59097
3.45172
3.20715
2.77777
1.98825
3.94556
3.94294
3.94028
3.93823
3.93636
3.9344
3.93238
3.93037
3.92837
3.92636
3.92434
3.92231
3.92027
3.91822
3.91616
3.91408
3.912
3.9099
3.90778
3.90564
3.90348
3.90128
3.89904
3.89675
3.89439
3.89194
3.88935
3.8866
3.88362
3.88033
3.87662
3.87235
3.86732
3.86122
3.85367
3.84408
3.83164
3.81511
3.79266
3.76142
3.71682
3.65137
3.55235
3.3988
3.15618
2.7743
2.21279
3.94555
3.94293
3.94028
3.93823
3.93636
3.93439
3.93237
3.93036
3.92836
3.92635
3.92434
3.92231
3.92027
3.91822
3.91615
3.91407
3.91199
3.90989
3.90777
3.90563
3.90346
3.90126
3.89903
3.89674
3.89437
3.89191
3.88933
3.88657
3.88359
3.88029
3.87658
3.87231
3.86727
3.86116
3.8536
3.844
3.83154
3.81498
3.79249
3.76119
3.71649
3.65087
3.55153
3.39738
3.15369
2.76981
2.20556
3.9455
3.94288
3.94024
3.9382
3.93634
3.93438
3.93237
3.93036
3.92836
3.92636
3.92434
3.92231
3.92027
3.91822
3.91615
3.91408
3.91199
3.9099
3.90778
3.90564
3.90348
3.90129
3.89907
3.89679
3.89445
3.89202
3.88948
3.88678
3.88387
3.88069
3.87713
3.87306
3.86829
3.86258
3.85557
3.84675
3.83542
3.82051
3.80047
3.77285
3.73374
3.67654
3.5888
3.44792
3.19981
2.76272
1.95756
3.94539
3.94278
3.94016
3.93816
3.93631
3.93437
3.93237
3.93037
3.92838
3.92637
3.92435
3.92233
3.92029
3.91824
3.91617
3.9141
3.91201
3.90992
3.90781
3.90568
3.90353
3.90136
3.89916
3.89691
3.89461
3.89224
3.88978
3.88718
3.88442
3.88144
3.87815
3.87445
3.8702
3.8652
3.85918
3.85176
3.84243
3.83044
3.81469
3.79355
3.76446
3.72322
3.66158
3.56472
3.3809
3.01258
1.78415
3.94522
3.94263
3.94006
3.9381
3.93628
3.93436
3.93237
3.93038
3.92839
3.92639
3.92438
3.92235
3.92031
3.91826
3.9162
3.91412
3.91204
3.90995
3.90785
3.90573
3.9036
3.90145
3.89928
3.89707
3.89483
3.89253
3.89017
3.88771
3.88514
3.88241
3.87946
3.87623
3.87263
3.86851
3.86372
3.85802
3.8511
3.84255
3.83179
3.81804
3.80015
3.77651
3.74435
3.70028
3.63253
3.53629
3.21755
3.945
3.94244
3.93994
3.93804
3.93626
3.93435
3.93238
3.9304
3.92842
3.92643
3.92441
3.92238
3.92034
3.91829
3.91623
3.91416
3.91208
3.90999
3.9079
3.90579
3.90368
3.90155
3.89941
3.89725
3.89506
3.89284
3.89059
3.88828
3.8859
3.88343
3.88085
3.87811
3.87516
3.87194
3.86838
3.86437
3.85978
3.85446
3.84824
3.84092
3.83228
3.82212
3.81013
3.79619
3.77787
3.75261
3.68565
3.9447
3.94219
3.93981
3.93799
3.93624
3.93435
3.9324
3.93044
3.92846
3.92646
3.92445
3.92242
3.92037
3.91832
3.91626
3.91419
3.91211
3.91003
3.90794
3.90585
3.90375
3.90164
3.89953
3.8974
3.89527
3.89313
3.89097
3.88879
3.88659
3.88436
3.88209
3.87977
3.8774
3.87496
3.87243
3.86981
3.8671
3.8643
3.86147
3.85867
3.85607
3.85391
3.85253
3.85232
3.85283
3.85353
3.844
3.94431
3.94191
3.9397
3.93797
3.93625
3.93438
3.93244
3.93048
3.9285
3.9265
3.92448
3.92245
3.9204
3.91835
3.91629
3.91422
3.91214
3.91006
3.90798
3.90589
3.9038
3.90171
3.89962
3.89753
3.89544
3.89335
3.89126
3.88918
3.88711
3.88506
3.88303
3.88103
3.87907
3.87719
3.87539
3.87373
3.87227
3.87108
3.87029
3.87004
3.87054
3.872
3.87465
3.87857
3.88336
3.88849
3.8892
3.94382
3.94165
3.93966
3.93799
3.93627
3.93441
3.93248
3.93053
3.92854
3.92654
3.92451
3.92248
3.92043
3.91837
3.91631
3.91424
3.91216
3.91008
3.908
3.90592
3.90384
3.90176
3.89968
3.8976
3.89554
3.89348
3.89144
3.88942
3.88743
3.88548
3.88359
3.88177
3.88006
3.87848
3.87709
3.87594
3.87512
3.8747
3.87483
3.87561
3.87717
3.87963
3.883
3.88714
3.89168
3.89628
3.89867
3.94302
3.9414
3.9397
3.93805
3.93631
3.93445
3.93252
3.93056
3.92857
3.92656
3.92454
3.92249
3.92044
3.91838
3.91632
3.91425
3.91217
3.9101
3.90802
3.90594
3.90386
3.90178
3.8997
3.89764
3.89558
3.89353
3.89151
3.88951
3.88754
3.88563
3.88379
3.88203
3.8804
3.87892
3.87764
3.87664
3.87597
3.87573
3.87601
3.87691
3.8785
3.88081
3.88379
3.88728
3.89097
3.89458
3.89686
3.94166
3.94095
3.93966
3.93808
3.93633
3.93448
3.93256
3.93059
3.9286
3.92658
3.92455
3.92251
3.92046
3.9184
3.91633
3.91426
3.91218
3.9101
3.90802
3.90594
3.90386
3.90178
3.89971
3.89764
3.89558
3.89353
3.8915
3.8895
3.88754
3.88562
3.88377
3.88201
3.88036
3.87886
3.87756
3.87651
3.87577
3.87544
3.87557
3.87626
3.87758
3.87953
3.88209
3.88512
3.88838
3.89152
3.89351
-0.662557
-0.629603
-0.208528
-0.146286
-0.223582
-0.255972
0.738205
0.180113
0.0725609
-0.0265458
-0.149709
-0.21827
1.33633
0.537996
0.152454
-0.0074696
-0.131906
-0.225979
1.32181
0.513763
0.118719
-0.0536303
-0.196739
-0.313571
0.673765
0.0903886
-0.0357933
-0.164305
-0.335445
-0.466559
-0.827473
-0.817707
-0.38681
-0.347175
-0.485965
-0.601998
-0.131849
-0.132546
-0.132758
-0.132243
-0.13117
-0.129626
-0.12765
-0.125283
-0.122565
-0.119542
-0.116259
-0.11276
-0.109089
-0.105287
-0.101395
-0.0974534
-0.0934996
-0.0895698
-0.0856964
-0.0819074
-0.0782253
-0.0746669
-0.0712431
-0.0679594
-0.0648166
-0.0618109
-0.0589355
-0.05618
-0.0535319
-0.0509762
-0.0484958
-0.0460715
-0.0436819
-0.0413033
-0.03891
-0.0364741
-0.0339653
-0.0313531
-0.0286099
-0.0257137
-0.0226468
-0.0193954
-0.0159599
-0.0123633
-0.00864427
-0.00494742
-0.00161624
-0.130816
-0.131536
-0.131746
-0.131269
-0.130297
-0.128871
-0.127009
-0.124742
-0.122113
-0.119169
-0.115959
-0.112529
-0.108921
-0.105178
-0.10134
-0.097445
-0.0935312
-0.0896341
-0.0857856
-0.082013
-0.0783392
-0.074781
-0.0713496
-0.0680514
-0.0648872
-0.0618545
-0.0589465
-0.056154
-0.0534647
-0.050865
-0.0483388
-0.0458685
-0.0434341
-0.0410143
-0.0385865
-0.0361277
-0.0336106
-0.0310039
-0.0282795
-0.0254232
-0.0224199
-0.019225
-0.0158054
-0.0122254
-0.0085621
-0.00484259
-0.00145052
-0.131275
-0.131906
-0.132016
-0.131472
-0.130485
-0.129055
-0.127185
-0.124907
-0.122268
-0.119319
-0.116108
-0.112683
-0.109083
-0.105349
-0.101517
-0.0976259
-0.093709
-0.0898009
-0.0859334
-0.0821348
-0.0784288
-0.0748337
-0.0713617
-0.0680201
-0.0648107
-0.0617312
-0.058776
-0.0559364
-0.053202
-0.0505598
-0.0479962
-0.0454952
-0.043039
-0.0406092
-0.0381882
-0.0357576
-0.0332906
-0.0307496
-0.0281022
-0.0253418
-0.0224516
-0.0193458
-0.0159614
-0.0124036
-0.00874645
-0.00490471
-0.00130087
-0.135285
-0.135335
-0.134915
-0.133968
-0.132647
-0.130908
-0.128757
-0.126232
-0.123384
-0.120263
-0.116916
-0.11338
-0.109692
-0.105884
-0.101987
-0.0980323
-0.0940492
-0.0900688
-0.0861235
-0.0822429
-0.0784534
-0.0747756
-0.0712227
-0.0678032
-0.0645198
-0.0613719
-0.0583551
-0.0554618
-0.052683
-0.0500079
-0.0474255
-0.0449219
-0.0424824
-0.0400924
-0.0377381
-0.0354058
-0.0330675
-0.0306764
-0.0281906
-0.0255992
-0.0228799
-0.0199273
-0.0166531
-0.013119
-0.00930779
-0.00516931
-0.00122836
-0.145332
-0.142874
-0.140546
-0.138469
-0.136348
-0.133959
-0.131264
-0.128292
-0.125083
-0.121672
-0.118094
-0.114375
-0.110539
-0.106606
-0.1026
-0.09854
-0.0944519
-0.0903615
-0.0863006
-0.0823007
-0.0783905
-0.0745933
-0.0709242
-0.0673944
-0.0640096
-0.0607726
-0.0576807
-0.0547285
-0.0519078
-0.0492115
-0.0466308
-0.0441559
-0.0417745
-0.0394761
-0.0372488
-0.0350804
-0.0329429
-0.0307837
-0.0285474
-0.0262045
-0.0237155
-0.0209688
-0.0178534
-0.0143448
-0.0103296
-0.00577516
-0.00137829
-0.168199
-0.154263
-0.146286
-0.142368
-0.139326
-0.13627
-0.13309
-0.129753
-0.126255
-0.122615
-0.118854
-0.114991
-0.11104
-0.107013
-0.102924
-0.098792
-0.0946302
-0.0904596
-0.0863075
-0.0822032
-0.078177
-0.0742582
-0.0704699
-0.0668262
-0.06334
-0.0600166
-0.0568553
-0.0538524
-0.0510029
-0.0483017
-0.0457447
-0.0433244
-0.0410329
-0.0388621
-0.0368021
-0.0348373
-0.0329409
-0.0310597
-0.029126
-0.0270805
-0.0248538
-0.0223236
-0.0193605
-0.0158808
-0.0117041
-0.00673083
-0.00174097
-0.209995
-0.16372
-0.145376
-0.141576
-0.138805
-0.135586
-0.13245
-0.129251
-0.125834
-0.122222
-0.118467
-0.114598
-0.110634
-0.106594
-0.102501
-0.0983706
-0.0942101
-0.0900341
-0.0858686
-0.0817413
-0.077682
-0.0737233
-0.0698895
-0.0661951
-0.0626562
-0.0592826
-0.0560774
-0.0530435
-0.0501823
-0.0474923
-0.0449735
-0.0426225
-0.0404362
-0.0384069
-0.0365233
-0.0347649
-0.0331025
-0.0314824
-0.0298308
-0.0280628
-0.0260763
-0.023737
-0.0209021
-0.0174516
-0.0131689
-0.00783204
-0.00216303
-0.219672
-0.166615
-0.146905
-0.144352
-0.141647
-0.137477
-0.133638
-0.130077
-0.126345
-0.122398
-0.118334
-0.114202
-0.110023
-0.105816
-0.101603
-0.0973969
-0.0932094
-0.0890524
-0.0849364
-0.0808735
-0.0768859
-0.0730021
-0.0692314
-0.0655769
-0.062058
-0.0586977
-0.0555075
-0.0524959
-0.0496629
-0.0470113
-0.0445424
-0.0422581
-0.0401572
-0.0382353
-0.0364797
-0.0348682
-0.0333665
-0.0319196
-0.0304521
-0.0288644
-0.0270332
-0.0248116
-0.0220432
-0.0185713
-0.0141864
-0.0086861
-0.00247194
-0.209429
-0.167126
-0.145472
-0.141862
-0.140487
-0.137443
-0.134248
-0.131256
-0.127935
-0.124095
-0.119878
-0.11544
-0.110866
-0.106226
-0.101581
-0.0969879
-0.0924869
-0.0881023
-0.0838461
-0.079725
-0.075746
-0.0719153
-0.0682323
-0.0646968
-0.0613119
-0.0580821
-0.05501
-0.0520945
-0.0493419
-0.0467608
-0.0443568
-0.0421343
-0.0400946
-0.0382348
-0.0365429
-0.0349959
-0.0335575
-0.032175
-0.0307747
-0.0292536
-0.0274764
-0.0252886
-0.022524
-0.0190181
-0.0146024
-0.00923942
-0.00255016
-0.258608
-0.24814
-0.232692
-0.224911
-0.218042
-0.207786
-0.195846
-0.184072
-0.172579
-0.16112
-0.149828
-0.138977
-0.12874
-0.119204
-0.110426
-0.102443
-0.0952651
-0.0888684
-0.0832003
-0.0781838
-0.0737259
-0.0697249
-0.0660815
-0.0627105
-0.0595505
-0.0565612
-0.0537193
-0.0510141
-0.0484466
-0.046019
-0.0437365
-0.0416076
-0.0396389
-0.0378323
-0.0361804
-0.0346637
-0.0332475
-0.0318797
-0.0304832
-0.0289554
-0.0271663
-0.0249675
-0.0221987
-0.0187163
-0.0143473
-0.00928496
-0.00208566
-0.366226
-0.363511
-0.347192
-0.338046
-0.329785
-0.316312
-0.29942
-0.281642
-0.263199
-0.243731
-0.223474
-0.202987
-0.182758
-0.163179
-0.144628
-0.127476
-0.112052
-0.0985922
-0.0872086
-0.0778643
-0.0703847
-0.064495
-0.0598721
-0.0561975
-0.0531931
-0.0506375
-0.0483679
-0.0462742
-0.0442886
-0.0423783
-0.0405374
-0.0387758
-0.0371072
-0.0355421
-0.0340819
-0.0327156
-0.0314202
-0.0301516
-0.0288334
-0.0273643
-0.0256235
-0.0234797
-0.0207911
-0.0174662
-0.0133004
-0.0088524
-0.00119486
-0.514409
-0.484446
-0.455561
-0.447213
-0.44013
-0.426305
-0.409171
-0.391002
-0.371079
-0.348569
-0.323542
-0.296452
-0.267748
-0.237926
-0.207647
-0.177758
-0.149226
-0.123016
-0.0999476
-0.0805588
-0.0650396
-0.0532388
-0.0447351
-0.0389426
-0.035219
-0.0329544
-0.0316279
-0.0308361
-0.0302966
-0.0298369
-0.0293681
-0.0288562
-0.0282985
-0.0277056
-0.0270882
-0.0264535
-0.0258009
-0.0251042
-0.0242806
-0.0232277
-0.021855
-0.0200721
-0.0177728
-0.0149361
-0.0113298
-0.00787916
-0.000242352
-0.64466
-0.57396
-0.535988
-0.532071
-0.527213
-0.514846
-0.500248
-0.48492
-0.46738
-0.446517
-0.422042
-0.39385
-0.361812
-0.325967
-0.286726
-0.244989
-0.202149
-0.159976
-0.120363
-0.0850186
-0.05521
-0.0315978
-0.0142067
-0.00251457
0.00437291
0.00752524
0.00801208
0.00677904
0.00457735
0.00194916
-0.000749915
-0.00330962
-0.00562263
-0.00764989
-0.00938949
-0.0108554
-0.0120714
-0.01304
-0.0136963
-0.0139552
-0.0137712
-0.0131079
-0.0119147
-0.0102251
-0.00785606
-0.00580481
0.00040206
-0.663012
-0.581089
-0.547113
-0.543086
-0.540285
-0.534433
-0.527755
-0.520084
-0.510045
-0.496676
-0.479348
-0.457315
-0.429688
-0.395665
-0.35482
-0.307402
-0.25457
-0.198419
-0.141741
-0.0875922
-0.0388296
0.00232243
0.0345672
0.0576167
0.0720601
0.0791138
0.0803249
0.0772995
0.071495
0.0641065
0.0560329
0.0478972
0.0400954
0.0328515
0.0262696
0.020386
0.0152041
0.0106897
0.00683244
0.00366614
0.00119515
-0.000592577
-0.00170783
-0.00221561
-0.00209307
-0.00193305
0.000592801
-0.586207
-0.562878
-0.549824
-0.544703
-0.541224
-0.53752
-0.533449
-0.528425
-0.521742
-0.512742
-0.50065
-0.484393
-0.462547
-0.433499
-0.395733
-0.348302
-0.291354
-0.226454
-0.15648
-0.0852612
-0.017036
0.0442087
0.0953822
0.134664
0.161585
0.176862
0.182084
0.179305
0.170677
0.15818
0.143471
0.127829
0.112171
0.0971075
0.0830084
0.0700713
0.0583927
0.0479932
0.0388122
0.0307898
0.0238848
0.0180516
0.0132112
0.0093054
0.00608285
0.00372876
0.000593127
-0.550142
-0.546301
-0.543196
-0.540916
-0.538805
-0.53615
-0.53257
-0.527779
-0.521538
-0.513568
-0.503277
-0.489676
-0.471256
-0.445992
-0.411615
-0.366151
-0.308618
-0.23961
-0.161402
-0.0777942
0.00630563
0.0856495
0.155534
0.212452
0.254442
0.281166
0.2937
0.294098
0.284906
0.26875
0.248041
0.224798
0.200599
0.176592
0.153558
0.131985
0.112148
0.0941882
0.0781008
0.0637985
0.0511973
0.0402117
0.0306993
0.0225997
0.0153896
0.00998492
0.000834254
-0.533217
-0.533368
-0.533354
-0.532913
-0.531971
-0.530184
-0.527257
-0.522922
-0.516958
-0.50907
-0.498736
-0.485131
-0.467185
-0.443051
-0.410196
-0.366063
-0.30898
-0.238737
-0.156675
-0.0660318
0.0282131
0.120231
0.204347
0.275799
0.331273
0.369284
0.390113
0.39542
0.387763
0.370107
0.345397
0.316267
0.284896
0.252971
0.221715
0.191957
0.16421
0.138763
0.115728
0.0950982
0.0767978
0.0607041
0.0466159
0.0344464
0.0235032
0.015066
0.00140271
-0.525771
-0.526717
-0.527195
-0.526941
-0.526006
-0.524129
-0.521043
-0.516479
-0.510148
-0.501703
-0.490671
-0.47636
-0.457652
-0.432762
-0.399264
-0.354358
-0.296376
-0.225362
-0.142136
-0.0489383
0.0496099
0.147711
0.239428
0.31933
0.383227
0.428833
0.455771
0.465219
0.459527
0.441724
0.414998
0.382334
0.346303
0.308977
0.271918
0.236229
0.202634
0.171564
0.143245
0.117773
0.0951095
0.0751205
0.0575695
0.0423366
0.0287077
0.0179422
0.00212253
-0.524691
-0.525765
-0.526258
-0.525877
-0.524686
-0.522474
-0.518968
-0.513857
-0.506774
-0.497242
-0.484646
-0.468195
-0.446833
-0.419147
-0.383303
-0.337134
-0.27862
-0.206781
-0.12262
-0.0287671
0.0703963
0.169397
0.262905
0.345433
0.412323
0.460915
0.490391
0.501613
0.496804
0.478948
0.451267
0.416852
0.378437
0.338272
0.298095
0.259162
0.222317
0.188117
0.156886
0.128743
0.103665
0.0815208
0.0620841
0.0451891
0.0302553
0.0181363
0.00289217
-0.526376
-0.52747
-0.528052
-0.527726
-0.526527
-0.524289
-0.520742
-0.515549
-0.508279
-0.498357
-0.485009
-0.467232
-0.443772
-0.413146
-0.373735
-0.324005
-0.262865
-0.189993
-0.105926
-0.0126488
0.0858464
0.184308
0.27698
0.358368
0.424411
0.472919
0.502606
0.513907
0.509073
0.491066
0.46306
0.42813
0.389017
0.347993
0.306831
0.266838
0.228911
0.193568
0.161122
0.131789
0.105621
0.0825219
0.0622857
0.0446942
0.0293359
0.0163625
0.00326043
)
;

boundaryField
{
    inlet
    {
        type            zeroGradient;
    }
    outlet
    {
        type            fixedValue;
        value           uniform 0;
    }
    upperWall
    {
        type            zeroGradient;
    }
    lowerWall
    {
        type            zeroGradient;
    }
    frontAndBack
    {
        type            empty;
    }
}


// ************************************************************************* //
