/*--------------------------------*- C++ -*----------------------------------*\
| =========                 |                                                 |
| \\      /  F ield         | OpenFOAM: The Open Source CFD Toolbox           |
|  \\    /   O peration     | Version:  2406                                  |
|   \\  /    A nd           | Website:  www.openfoam.com                      |
|    \\/     M anipulation  |                                                 |
\*---------------------------------------------------------------------------*/
FoamFile
{
    version     2.0;
    format      ascii;
    arch        "LSB;label=32;scalar=64";
    class       volVectorField;
    location    "84";
    object      U;
}
// * * * * * * * * * * * * * * * * * * * * * * * * * * * * * * * * * * * * * //

dimensions      [0 1 -1 0 0 0 0];

internalField   nonuniform List<vector> 
1916
(
(0.098302 -0.000949941 0)
(0.1002 -0.000958607 0)
(0.101757 -0.000543716 0)
(0.102822 -0.000304301 0)
(0.103548 -0.000193458 0)
(0.104076 -0.000126334 0)
(0.104467 -8.25759e-05 0)
(0.104759 -5.68969e-05 0)
(0.104982 -4.20087e-05 0)
(0.105159 -3.23613e-05 0)
(0.105302 -2.54824e-05 0)
(0.10542 -2.03692e-05 0)
(0.105517 -1.63853e-05 0)
(0.105598 -1.30858e-05 0)
(0.105665 -1.01971e-05 0)
(0.105719 -7.5322e-06 0)
(0.105762 -4.89763e-06 0)
(0.105794 -2.09367e-06 0)
(0.105815 1.08499e-06 0)
(0.105823 4.84781e-06 0)
(0.105816 9.44407e-06 0)
(0.105791 1.51936e-05 0)
(0.105745 2.25481e-05 0)
(0.105672 3.20953e-05 0)
(0.105563 4.45948e-05 0)
(0.105408 6.10133e-05 0)
(0.105193 8.26111e-05 0)
(0.104899 0.000111016 0)
(0.104501 0.000148329 0)
(0.103966 0.000197208 0)
(0.10325 0.000260955 0)
(0.102299 0.000343538 0)
(0.101039 0.00044956 0)
(0.0993805 0.000584025 0)
(0.0972102 0.000751845 0)
(0.0943907 0.000956883 0)
(0.0907609 0.00120036 0)
(0.0861398 0.00147844 0)
(0.0803392 0.00177902 0)
(0.0731868 0.00207791 0)
(0.064564 0.00233563 0)
(0.0544646 0.00249535 0)
(0.0430647 0.00248673 0)
(0.0308019 0.00223502 0)
(0.0185186 0.00167263 0)
(0.00798266 0.000532576 0)
(0.000352193 -0.000265643 0)
(0.276253 -0.00143266 0)
(0.27645 -0.0022408 0)
(0.277048 -0.00188767 0)
(0.277586 -0.00141288 0)
(0.278158 -0.00106525 0)
(0.278741 -0.000807394 0)
(0.279264 -0.000611406 0)
(0.279709 -0.000469602 0)
(0.280084 -0.000369752 0)
(0.280402 -0.000297598 0)
(0.280673 -0.000243187 0)
(0.280903 -0.000200827 0)
(0.281099 -0.000166884 0)
(0.281267 -0.000138695 0)
(0.281409 -0.000114277 0)
(0.281528 -9.21675e-05 0)
(0.281625 -7.11296e-05 0)
(0.281702 -4.99618e-05 0)
(0.281756 -2.73686e-05 0)
(0.281788 -1.92044e-06 0)
(0.281792 2.80532e-05 0)
(0.281765 6.459e-05 0)
(0.281699 0.000110338 0)
(0.281585 0.000168749 0)
(0.281408 0.000244362 0)
(0.28115 0.000343114 0)
(0.280787 0.000472797 0)
(0.280284 0.00064359 0)
(0.279598 0.000868766 0)
(0.278669 0.00116549 0)
(0.277419 0.00155577 0)
(0.275744 0.0020674 0)
(0.273509 0.00273486 0)
(0.270535 0.00359974 0)
(0.266594 0.00471037 0)
(0.261392 0.00611961 0)
(0.254559 0.00787967 0)
(0.245641 0.010032 0)
(0.234096 0.0125901 0)
(0.219305 0.0155124 0)
(0.20062 0.0186652 0)
(0.177457 0.0217766 0)
(0.149452 0.0243997 0)
(0.116707 0.0258799 0)
(0.0800839 0.0253294 0)
(0.0428016 0.0209788 0)
(0.00725612 0.0117132 0)
(0.436511 -0.000789554 0)
(0.436465 -0.00157981 0)
(0.436435 -0.0016839 0)
(0.43624 -0.00155128 0)
(0.436217 -0.00138366 0)
(0.436387 -0.00120356 0)
(0.436635 -0.0010212 0)
(0.436895 -0.000856945 0)
(0.437151 -0.000719876 0)
(0.437396 -0.000607461 0)
(0.437623 -0.00051451 0)
(0.43783 -0.000436954 0)
(0.438015 -0.000371491 0)
(0.43818 -0.000315066 0)
(0.438325 -0.000264964 0)
(0.43845 -0.000218893 0)
(0.438556 -0.000174756 0)
(0.438642 -0.000130379 0)
(0.438706 -8.33354e-05 0)
(0.438748 -3.08539e-05 0)
(0.438762 3.03509e-05 0)
(0.438745 0.00010435 0)
(0.438688 0.000196378 0)
(0.438582 0.000313281 0)
(0.438413 0.000464073 0)
(0.438162 0.000660628 0)
(0.437804 0.000918588 0)
(0.437305 0.00125855 0)
(0.436619 0.00170761 0)
(0.435686 0.00230129 0)
(0.434422 0.00308586 0)
(0.432718 0.00412118 0)
(0.430426 0.00548381 0)
(0.42735 0.00727016 0)
(0.423227 0.0095992 0)
(0.417705 0.0126134 0)
(0.410321 0.0164758 0)
(0.400462 0.0213597 0)
(0.387332 0.0274252 0)
(0.369911 0.0347736 0)
(0.346928 0.0433705 0)
(0.31688 0.0529232 0)
(0.278111 0.0627333 0)
(0.229111 0.0714976 0)
(0.168743 0.0771801 0)
(0.0993146 0.0748612 0)
(0.0209904 0.0524297 0)
(0.576715 -0.000420517 0)
(0.576787 -0.00101985 0)
(0.576756 -0.00126624 0)
(0.57639 -0.00130837 0)
(0.576083 -0.00127687 0)
(0.575953 -0.00120423 0)
(0.575922 -0.00110056 0)
(0.575934 -0.000985011 0)
(0.575976 -0.000873003 0)
(0.576044 -0.000770062 0)
(0.576125 -0.000676737 0)
(0.576213 -0.000592641 0)
(0.5763 -0.000516938 0)
(0.576386 -0.000448101 0)
(0.576466 -0.000384202 0)
(0.576539 -0.00032324 0)
(0.576602 -0.000263099 0)
(0.576655 -0.000201298 0)
(0.576696 -0.000134805 0)
(0.576721 -5.99192e-05 0)
(0.576728 2.79002e-05 0)
(0.576712 0.000134375 0)
(0.576668 0.000266919 0)
(0.576586 0.0004353 0)
(0.576457 0.000652457 0)
(0.576267 0.000935536 0)
(0.575994 0.00130726 0)
(0.575615 0.00179774 0)
(0.575092 0.00244688 0)
(0.574377 0.00330748 0)
(0.573405 0.00444926 0)
(0.572086 0.00596388 0)
(0.570299 0.00797118 0)
(0.567874 0.0106267 0)
(0.564579 0.01413 0)
(0.560093 0.0187338 0)
(0.553963 0.0247509 0)
(0.545559 0.0325571 0)
(0.533994 0.0425811 0)
(0.51802 0.0552701 0)
(0.495891 0.0710115 0)
(0.465209 0.0899658 0)
(0.422723 0.111816 0)
(0.364418 0.135254 0)
(0.28508 0.157643 0)
(0.182594 0.170056 0)
(0.0457613 0.13851 0)
(0.696829 -0.000258903 0)
(0.696973 -0.00068969 0)
(0.697046 -0.000930059 0)
(0.696734 -0.00102152 0)
(0.696388 -0.00104375 0)
(0.696162 -0.0010272 0)
(0.69601 -0.00097881 0)
(0.695886 -0.000910337 0)
(0.695789 -0.000834602 0)
(0.695719 -0.00075851 0)
(0.695673 -0.000684484 0)
(0.695643 -0.000613551 0)
(0.695624 -0.000546094 0)
(0.695614 -0.000481626 0)
(0.69561 -0.000418981 0)
(0.695609 -0.000356645 0)
(0.69561 -0.00029279 0)
(0.695609 -0.000225029 0)
(0.695606 -0.000150202 0)
(0.695599 -6.42211e-05 0)
(0.695585 3.81005e-05 0)
(0.695561 0.000163421 0)
(0.695524 0.000320456 0)
(0.69547 0.000520771 0)
(0.695392 0.000779786 0)
(0.695284 0.00111806 0)
(0.695134 0.001563 0)
(0.694928 0.00215114 0)
(0.694648 0.00293122 0)
(0.694266 0.00396829 0)
(0.693745 0.0053492 0)
(0.693035 0.00718974 0)
(0.69206 0.00964411 0)
(0.690716 0.0129172 0)
(0.688849 0.0172803 0)
(0.686232 0.0230913 0)
(0.682528 0.0308187 0)
(0.677227 0.0410697 0)
(0.66955 0.0546187 0)
(0.658297 0.0724268 0)
(0.641598 0.0956385 0)
(0.61657 0.125486 0)
(0.578642 0.163131 0)
(0.52121 0.208926 0)
(0.433166 0.262363 0)
(0.303813 0.313881 0)
(0.0914199 0.301038 0)
(0.796901 -0.000170139 0)
(0.797073 -0.000472366 0)
(0.797217 -0.000669682 0)
(0.796979 -0.000767497 0)
(0.796661 -0.000808954 0)
(0.796427 -0.00081684 0)
(0.796247 -0.00079718 0)
(0.79608 -0.000757505 0)
(0.795927 -0.000707378 0)
(0.795794 -0.000653127 0)
(0.79568 -0.000597564 0)
(0.795581 -0.000542035 0)
(0.795495 -0.000487199 0)
(0.795421 -0.000432915 0)
(0.795356 -0.000378327 0)
(0.795298 -0.000322159 0)
(0.795248 -0.000262761 0)
(0.795203 -0.000197892 0)
(0.795163 -0.000124467 0)
(0.795127 -3.83881e-05 0)
(0.795096 6.56523e-05 0)
(0.795067 0.000194533 0)
(0.795042 0.000357309 0)
(0.795019 0.000566042 0)
(0.795 0.00083689 0)
(0.794984 0.0011915 0)
(0.794972 0.00165885 0)
(0.794964 0.00227778 0)
(0.79496 0.00310045 0)
(0.794959 0.00419694 0)
(0.794961 0.00566174 0)
(0.79496 0.00762232 0)
(0.794946 0.0102511 0)
(0.794898 0.0137816 0)
(0.794775 0.0185311 0)
(0.794502 0.0249317 0)
(0.793939 0.0335732 0)
(0.792836 0.0452633 0)
(0.790738 0.0611101 0)
(0.78684 0.0826321 0)
(0.779682 0.111917 0)
(0.766735 0.151757 0)
(0.743188 0.206006 0)
(0.701515 0.278886 0)
(0.625233 0.377412 0)
(0.496447 0.494535 0)
(0.185293 0.562994 0)
(0.876947 -0.00011298 0)
(0.877129 -0.000320625 0)
(0.87731 -0.000469562 0)
(0.877126 -0.000554856 0)
(0.876843 -0.000597954 0)
(0.876621 -0.00061376 0)
(0.876442 -0.000607406 0)
(0.876267 -0.000584037 0)
(0.876098 -0.000550378 0)
(0.875942 -0.000511502 0)
(0.875801 -0.000470041 0)
(0.875673 -0.000427342 0)
(0.875556 -0.000384086 0)
(0.87545 -0.000340252 0)
(0.875355 -0.000295168 0)
(0.875269 -0.000247744 0)
(0.875191 -0.000196519 0)
(0.875123 -0.000139491 0)
(0.875065 -7.38689e-05 0)
(0.875017 4.10356e-06 0)
(0.874982 9.93321e-05 0)
(0.87496 0.000218203 0)
(0.874956 0.000369135 0)
(0.874973 0.000563358 0)
(0.875018 0.000815951 0)
(0.875099 0.00114717 0)
(0.875228 0.00158424 0)
(0.87542 0.00216379 0)
(0.875694 0.00293525 0)
(0.876077 0.00396547 0)
(0.876605 0.00534524 0)
(0.877322 0.00719831 0)
(0.878287 0.00969414 0)
(0.879576 0.013066 0)
(0.881279 0.0176372 0)
(0.883505 0.0238591 0)
(0.886377 0.032368 0)
(0.890013 0.0440703 0)
(0.894486 0.0602745 0)
(0.899756 0.0828936 0)
(0.90543 0.114796 0)
(0.910601 0.160286 0)
(0.912056 0.226475 0)
(0.906046 0.323914 0)
(0.868155 0.478004 0)
(0.81205 0.734734 0)
(0.307368 1.08085 0)
(0.936977 -7.21129e-05 0)
(0.93716 -0.000207114 0)
(0.937361 -0.000309245 0)
(0.937212 -0.000372617 0)
(0.936955 -0.000407388 0)
(0.936746 -0.000422314 0)
(0.936573 -0.000421096 0)
(0.9364 -0.000407117 0)
(0.936227 -0.000384741 0)
(0.936063 -0.000357546 0)
(0.935913 -0.000327607 0)
(0.935774 -0.000296058 0)
(0.935645 -0.000263479 0)
(0.935527 -0.000229895 0)
(0.93542 -0.000194815 0)
(0.935323 -0.000157391 0)
(0.935237 -0.000116464 0)
(0.935162 -7.04304e-05 0)
(0.9351 -1.70489e-05 0)
(0.935054 4.67164e-05 0)
(0.935027 0.000124851 0)
(0.935021 0.000222554 0)
(0.935045 0.000346676 0)
(0.935105 0.000506361 0)
(0.935215 0.000713891 0)
(0.935388 0.000985794 0)
(0.935647 0.00134434 0)
(0.936018 0.00181957 0)
(0.936541 0.00245217 0)
(0.937266 0.00329743 0)
(0.938262 0.00443091 0)
(0.93962 0.00595635 0)
(0.941465 0.00801719 0)
(0.943962 0.0108133 0)
(0.947334 0.0146258 0)
(0.951881 0.0198545 0)
(0.958002 0.0270755 0)
(0.966233 0.037132 0)
(0.977286 0.0512802 0)
(0.992133 0.0714282 0)
(1.01199 0.100555 0)
(1.03894 0.143396 0)
(1.07441 0.207985 0)
(1.12938 0.307584 0)
(1.19487 0.46922 0)
(1.4129 0.728438 0)
(1.51696 1.26093 0)
(0.976996 -3.97633e-05 0)
(0.977178 -0.000114818 0)
(0.977388 -0.000172989 0)
(0.97726 -0.000210381 0)
(0.977019 -0.000231415 0)
(0.97682 -0.000240498 0)
(0.976652 -0.000239751 0)
(0.976482 -0.000231088 0)
(0.976309 -0.00021694 0)
(0.976143 -0.000199397 0)
(0.97599 -0.000179752 0)
(0.975847 -0.000158736 0)
(0.975714 -0.000136717 0)
(0.975592 -0.00011371 0)
(0.975482 -8.93972e-05 0)
(0.975383 -6.3222e-05 0)
(0.975295 -3.44187e-05 0)
(0.975222 -1.92873e-06 0)
(0.975163 3.57246e-05 0)
(0.975124 8.05421e-05 0)
(0.975108 0.000135154 0)
(0.975121 0.000202988 0)
(0.975171 0.000288559 0)
(0.975269 0.000397882 0)
(0.975431 0.000539029 0)
(0.975678 0.000722866 0)
(0.976038 0.000964041 0)
(0.976549 0.00128235 0)
(0.977261 0.00170464 0)
(0.978245 0.00226753 0)
(0.979594 0.00302121 0)
(0.981437 0.00403498 0)
(0.983949 0.00540522 0)
(0.987367 0.00726733 0)
(0.992021 0.00981354 0)
(0.998366 0.0133205 0)
(1.00704 0.018192 0)
(1.01894 0.0250282 0)
(1.03535 0.034736 0)
(1.05815 0.0487143 0)
(1.09009 0.0691399 0)
(1.13573 0.0995054 0)
(1.20122 0.145061 0)
(1.3022 0.214507 0)
(1.44753 0.317349 0)
(1.70377 0.455363 0)
(2.05256 0.682409 0)
(0.997004 -1.15698e-05 0)
(0.997186 -3.32963e-05 0)
(0.9974 -4.97234e-05 0)
(0.997282 -5.96474e-05 0)
(0.99705 -6.42717e-05 0)
(0.996856 -6.48707e-05 0)
(0.996691 -6.21007e-05 0)
(0.996522 -5.65562e-05 0)
(0.99635 -4.89934e-05 0)
(0.996184 -4.00699e-05 5.91737e-34)
(0.99603 -3.01923e-05 0)
(0.995886 -1.95756e-05 0)
(0.995753 -8.30801e-06 0)
(0.995631 3.64466e-06 0)
(0.99552 1.64317e-05 0)
(0.995422 3.02915e-05 5.90208e-34)
(0.995337 4.55427e-05 0)
(0.995266 6.26108e-05 0)
(0.995212 8.20705e-05 0)
(0.99518 0.000104685 0)
(0.995173 0.000131444 0)
(0.995199 0.000163628 0)
(0.995266 0.000202902 0)
(0.995388 0.000251468 -5.87512e-34)
(0.995582 0.000312259 0)
(0.995872 0.000389197 0)
(0.99629 0.000487549 0)
(0.996878 0.000614411 0)
(0.997697 0.000779393 0)
(0.998824 0.000995582 0)
(1.00037 0.00128093 0)
(1.00248 0.00166025 0)
(1.00535 0.00216815 0)
(1.00928 0.0028534 0)
(1.01464 0.00378555 0)
(1.02197 0.00506529 0)
(1.03206 0.00684057 0)
(1.04601 0.00933275 0)
(1.06543 0.012878 0)
(1.0927 0.0179969 0)
(1.13137 0.025486 0)
(1.18684 0.036606 -4.73849e-34)
(1.26692 0.052951 0)
(1.38307 0.0769741 0)
(1.55029 0.107991 0)
(1.77723 0.140417 0)
(2.09948 0.166764 0)
(0.997004 1.53404e-05 0)
(0.997186 4.48206e-05 0)
(0.9974 6.92795e-05 0)
(0.997282 8.71225e-05 0)
(0.997051 9.96485e-05 0)
(0.996857 0.000108298 0)
(0.996693 0.000113804 0)
(0.996525 0.000116844 0)
(0.996354 0.000118261 0)
(0.996189 0.000118802 -5.91719e-34)
(0.996036 0.000118974 0)
(0.995893 0.00011911 0)
(0.995762 0.000119423 0)
(0.995641 0.000120005 0)
(0.995533 0.000120838 0)
(0.995437 0.000121834 -5.90171e-34)
(0.995354 0.000122844 0)
(0.995286 0.000123629 0)
(0.995235 0.000123814 0)
(0.995206 0.000122853 0)
(0.995202 0.000119997 0)
(0.995232 0.00011424 0)
(0.995304 0.00010422 0)
(0.995431 8.80831e-05 5.8756e-34)
(0.99563 6.32879e-05 0)
(0.995926 2.63624e-05 0)
(0.996351 -2.74371e-05 0)
(0.996947 -0.000104585 0)
(0.997774 -0.000213943 0)
(0.998911 -0.000367677 0)
(1.00047 -0.000582579 0)
(1.00259 -0.000881958 0)
(1.00548 -0.00129842 0)
(1.00942 -0.001878 0)
(1.0148 -0.00268641 0)
(1.02217 -0.00381871 0)
(1.03229 -0.00541451 0)
(1.04628 -0.00768226 0)
(1.06576 -0.0109376 0)
(1.09312 -0.0156678 0)
(1.13193 -0.0226122 0)
(1.18762 -0.0329334 4.74107e-34)
(1.26808 -0.0480448 0)
(1.38484 -0.0700658 0)
(1.55317 -0.0977394 0)
(1.78139 -0.124095 0)
(2.10626 -0.140813 0)
(0.976996 4.34348e-05 0)
(0.977178 0.00012604 0)
(0.977389 0.000192037 0)
(0.977262 0.000237137 0)
(0.977022 0.000265855 0)
(0.976825 0.000282762 0)
(0.976659 0.000290053 0)
(0.976491 0.000289721 0)
(0.97632 0.000284286 0)
(0.976158 0.000275921 0)
(0.976008 0.000266022 0)
(0.975869 0.000255429 0)
(0.97574 0.000244635 0)
(0.975624 0.000233774 0)
(0.975519 0.000222658 0)
(0.975426 0.000210876 0)
(0.975346 0.000197829 0)
(0.97528 0.000182635 0)
(0.975231 0.000164012 0)
(0.975201 0.000140168 0)
(0.975196 0.000108709 0)
(0.975221 6.64638e-05 0)
(0.975284 9.21607e-06 0)
(0.975397 -6.87225e-05 0)
(0.975575 -0.000175049 0)
(0.97584 -0.000320207 0)
(0.97622 -0.000518351 0)
(0.976753 -0.000788704 0)
(0.977491 -0.00115743 0)
(0.978504 -0.00166031 0)
(0.979886 -0.00234651 0)
(0.981767 -0.00328402 0)
(0.984321 -0.00456754 0)
(0.987791 -0.00633019 0)
(0.992507 -0.00876111 0)
(0.998928 -0.0121325 0)
(1.0077 -0.0168422 0)
(1.01972 -0.0234808 0)
(1.0363 -0.0329416 0)
(1.05935 -0.0466021 0)
(1.09166 -0.0666056 0)
(1.13791 -0.0963946 0)
(1.20438 -0.141123 0)
(1.30713 -0.209363 0)
(1.45558 -0.310295 0)
(1.7175 -0.444484 0)
(2.07707 -0.666293 0)
(0.936977 7.55876e-05 0)
(0.937161 0.000217736 0)
(0.937362 0.000327284 0)
(0.937215 0.000397947 0)
(0.93696 0.000439971 0)
(0.936754 0.000462269 0)
(0.936584 0.000468615 0)
(0.936414 0.000462467 0)
(0.936245 0.000448272 0)
(0.936087 0.00042969 0)
(0.935943 0.000408892 0)
(0.93581 0.000387115 0)
(0.935689 0.000365054 0)
(0.935579 0.000342845 0)
(0.935482 0.000320127 0)
(0.935395 0.000296183 0)
(0.93532 0.000270013 0)
(0.935258 0.000240174 0)
(0.935211 0.00020461 0)
(0.935181 0.000160475 0)
(0.935171 0.000104008 0)
(0.935185 3.02453e-05 0)
(0.93523 -6.73893e-05 0)
(0.935315 -0.000197746 0)
(0.935451 -0.000372766 0)
(0.935654 -0.000608606 0)
(0.935946 -0.000927097 0)
(0.936355 -0.0013578 0)
(0.936919 -0.00194083 0)
(0.937691 -0.00273082 0)
(0.938739 -0.0038025 0)
(0.940158 -0.0052587 0)
(0.942073 -0.00724168 0)
(0.944652 -0.00994987 0)
(0.948121 -0.0136625 0)
(0.952785 -0.0187772 0)
(0.959052 -0.0258672 0)
(0.967471 -0.0357721 0)
(0.978774 -0.0497443 0)
(0.993964 -0.0696884 0)
(1.01431 -0.0985827 0)
(1.042 -0.141173 0)
(1.07859 -0.205534 0)
(1.13565 -0.305029 0)
(1.20406 -0.467072 0)
(1.43162 -0.727125 0)
(1.54478 -1.26905 0)
(0.876947 0.000116164 0)
(0.877129 0.000330362 0)
(0.877312 0.00048611 0)
(0.87713 0.000578075 0)
(0.876849 0.000627785 0)
(0.876631 0.000650297 0)
(0.876456 0.000650804 0)
(0.876287 0.000634528 0)
(0.876124 0.000608263 0)
(0.875974 0.000577167 0)
(0.875842 0.000543952 0)
(0.875723 0.000510067 0)
(0.875616 0.000476283 0)
(0.875522 0.000442696 0)
(0.875439 0.000408738 0)
(0.875367 0.000373456 0)
(0.875306 0.000335514 0)
(0.875255 0.00029307 0)
(0.875216 0.000243477 0)
(0.875191 0.000183174 0)
(0.875179 0.00010743 0)
(0.875184 1.00919e-05 0)
(0.87521 -0.000117044 0)
(0.87526 -0.000284932 0)
(0.875341 -0.000508386 0)
(0.875463 -0.000807327 0)
(0.875637 -0.00120866 0)
(0.875879 -0.00174861 0)
(0.876209 -0.0024762 0)
(0.876656 -0.00345781 0)
(0.877254 -0.00478376 0)
(0.878052 -0.00657725 0)
(0.87911 -0.00900722 0)
(0.880505 -0.0123064 0)
(0.882333 -0.0167978 0)
(0.884709 -0.0229325 0)
(0.887761 -0.0313476 0)
(0.89162 -0.0429514 0)
(0.896377 -0.0590574 0)
(0.902017 -0.0815892 0)
(0.908183 -0.113439 0)
(0.914029 -0.158956 0)
(0.916384 -0.225362 0)
(0.911691 -0.323383 0)
(0.875068 -0.479063 0)
(0.822049 -0.739678 0)
(0.31033 -1.09738 0)
(0.796901 0.000172944 0)
(0.797074 0.000480953 0)
(0.797219 0.000684287 0)
(0.796984 0.00078796 0)
(0.79667 0.000835191 0)
(0.79644 0.000848907 0)
(0.796265 0.000835193 0)
(0.796105 0.000801644 0)
(0.795959 0.000757888 0)
(0.795835 0.00071033 0)
(0.795731 0.000661855 0)
(0.795644 0.000613892 0)
(0.795571 0.000567179 0)
(0.79551 0.000521675 0)
(0.795461 0.000476623 0)
(0.795422 0.000430863 0)
(0.795391 0.000382851 0)
(0.795368 0.000330479 0)
(0.795352 0.000270789 0)
(0.795344 0.000199846 0)
(0.795342 0.000112494 0)
(0.795347 2.04416e-06 0)
(0.795358 -0.000140376 0)
(0.795376 -0.000326611 0)
(0.795402 -0.000572608 0)
(0.795436 -0.000899755 0)
(0.795479 -0.0013368 0)
(0.795533 -0.00192231 0)
(0.795597 -0.00270819 0)
(0.795674 -0.00376428 0)
(0.795762 -0.00518486 0)
(0.795858 -0.00709729 0)
(0.795954 -0.00967403 0)
(0.796031 -0.013149 0)
(0.796053 -0.0178402 0)
(0.795948 -0.0241814 0)
(0.795583 -0.0327657 0)
(0.794714 -0.0444061 0)
(0.792901 -0.0602208 0)
(0.78935 -0.0817453 0)
(0.782617 -0.111097 0)
(0.77019 -0.151119 0)
(0.747251 -0.205757 0)
(0.706268 -0.279349 0)
(0.630552 -0.379203 0)
(0.5022 -0.498244 0)
(0.188428 -0.569775 0)
(0.696829 0.000261249 0)
(0.696974 0.000696888 0)
(0.697049 0.000942314 0)
(0.69674 0.00103864 0)
(0.696398 0.00106562 0)
(0.696177 0.00105382 0)
(0.696031 0.00101028 0)
(0.695916 0.000946759 0)
(0.695827 0.000876172 0)
(0.695768 0.00080546 0)
(0.695734 0.000737142 0)
(0.695717 0.000672269 0)
(0.695713 0.000611333 0)
(0.69572 0.000553886 0)
(0.695734 0.000498897 0)
(0.695754 0.00044489 0)
(0.695778 0.00039018 0)
(0.695803 0.000332421 0)
(0.695828 0.000268624 0)
(0.695852 0.000194756 0)
(0.695873 0.000105833 0)
(0.695887 -4.74354e-06 0)
(0.695892 -0.000145462 0)
(0.695885 -0.00032782 0)
(0.695859 -0.000566989 0)
(0.695808 -0.000883455 0)
(0.695721 -0.00130437 0)
(0.695586 -0.00186621 0)
(0.695384 -0.00261752 0)
(0.695089 -0.0036234 0)
(0.694666 -0.00497063 0)
(0.694063 -0.00677534 0)
(0.69321 -0.00919209 0)
(0.692003 -0.0124268 0)
(0.690289 -0.0167523 0)
(0.687847 -0.0225292 0)
(0.684342 -0.03023 0)
(0.679268 -0.0404691 0)
(0.671851 -0.0540317 0)
(0.660894 -0.0718954 0)
(0.644524 -0.0952302 0)
(0.619848 -0.125304 0)
(0.582257 -0.163333 0)
(0.52508 -0.209724 0)
(0.437021 -0.264058 0)
(0.307147 -0.316792 0)
(0.0927549 -0.305173 0)
(0.576716 0.000422335 0)
(0.576788 0.00102546 0)
(0.576759 0.00127578 0)
(0.576396 0.00132161 0)
(0.576094 0.00129368 0)
(0.57597 0.00122458 0)
(0.575946 0.00112447 0)
(0.575967 0.00101256 0)
(0.576019 0.000904295 0)
(0.576098 0.000805281 0)
(0.576193 0.000716089 0)
(0.576295 0.000636399 0)
(0.576399 0.000565401 0)
(0.576503 0.000501665 0)
(0.576603 0.000443298 0)
(0.576698 0.000388397 0)
(0.576787 0.000334871 0)
(0.576868 0.000280353 0)
(0.576939 0.000221847 0)
(0.576998 0.000155785 0)
(0.577042 7.76719e-05 0)
(0.577067 -1.80707e-05 0)
(0.577068 -0.00013881 0)
(0.577037 -0.000294161 0)
(0.576963 -0.000497014 0)
(0.576834 -0.000764366 0)
(0.57663 -0.00111892 0)
(0.576325 -0.00159067 0)
(0.575884 -0.0022196 0)
(0.575261 -0.00305852 0)
(0.574391 -0.00417742 0)
(0.573185 -0.0056683 0)
(0.571522 -0.0076518 0)
(0.569235 -0.0102845 0)
(0.566093 -0.0137679 0)
(0.561774 -0.0183574 0)
(0.555829 -0.0243702 0)
(0.547627 -0.032188 0)
(0.536277 -0.0422487 0)
(0.520528 -0.0550115 0)
(0.498621 -0.0708801 0)
(0.468135 -0.0900338 0)
(0.425771 -0.112175 0)
(0.367449 -0.136004 0)
(0.287835 -0.15888 0)
(0.184694 -0.171808 0)
(0.0464368 -0.140433 0)
(0.436511 0.000790804 0)
(0.436466 0.00158368 0)
(0.436438 0.00169043 0)
(0.436247 0.00156023 0)
(0.436228 0.00139487 0)
(0.436405 0.00121698 0)
(0.436661 0.00103683 0)
(0.43693 0.000874807 0)
(0.437196 0.000740024 0)
(0.437452 0.000630009 0)
(0.437693 0.000539572 0)
(0.437914 0.0004647 0)
(0.438116 0.000402094 0)
(0.438299 0.000348781 0)
(0.438464 0.000302052 0)
(0.438612 0.000259694 0)
(0.438742 0.000219603 0)
(0.438855 0.000179698 0)
(0.43895 0.000137552 0)
(0.439024 9.04983e-05 0)
(0.439076 3.52459e-05 0)
(0.439098 -3.21575e-05 0)
(0.439086 -0.000116957 0)
(0.439029 -0.000225877 0)
(0.438913 -0.000367953 0)
(0.438722 -0.000554945 0)
(0.43843 -0.000802554 0)
(0.438003 -0.00113131 0)
(0.437397 -0.00156847 0)
(0.436551 -0.00214959 0)
(0.435383 -0.0029213 0)
(0.433785 -0.0039438 0)
(0.431608 -0.0052944 0)
(0.428658 -0.00707046 0)
(0.42467 -0.0093926 0)
(0.419293 -0.0124054 0)
(0.412061 -0.0162751 0)
(0.402359 -0.0211791 0)
(0.389385 -0.0272831 0)
(0.372107 -0.0346948 0)
(0.349238 -0.0433868 0)
(0.31925 -0.0530717 0)
(0.280451 -0.0630517 0)
(0.231285 -0.072013 0)
(0.170559 -0.0779014 0)
(0.100553 -0.0757492 0)
(0.0213229 -0.0532591 0)
(0.276253 0.00143336 0)
(0.276451 0.00224298 0)
(0.277051 0.00189116 0)
(0.277592 0.00141743 0)
(0.278169 0.00107078 0)
(0.278757 0.000813867 0)
(0.279287 0.000618837 0)
(0.27974 0.00047798 0)
(0.280123 0.000379124 0)
(0.280452 0.00030799 0)
(0.280734 0.000254681 0)
(0.280977 0.000213463 0)
(0.281187 0.000180779 0)
(0.281369 0.000153925 0)
(0.281528 0.000131006 0)
(0.281666 0.000110505 0)
(0.281784 9.12751e-05 0)
(0.281883 7.20589e-05 0)
(0.281962 5.16686e-05 0)
(0.282021 2.86126e-05 0)
(0.282055 1.31616e-06 0)
(0.282061 -3.23453e-05 0)
(0.282031 -7.4886e-05 0)
(0.281956 -0.000129832 0)
(0.281823 -0.000201604 0)
(0.281614 -0.000296246 0)
(0.281304 -0.000421451 0)
(0.280859 -0.000587549 0)
(0.280237 -0.000807765 0)
(0.279378 -0.0010995 0)
(0.278204 -0.00148483 0)
(0.276612 -0.00199197 0)
(0.274465 -0.00265571 0)
(0.271586 -0.00351841 0)
(0.267744 -0.00462915 0)
(0.262643 -0.0060421 0)
(0.255912 -0.00781087 0)
(0.247091 -0.00997889 0)
(0.235628 -0.0125615 0)
(0.220898 -0.0155192 0)
(0.202237 -0.0187192 0)
(0.179044 -0.0218885 0)
(0.150935 -0.0245756 0)
(0.117996 -0.0261169 0)
(0.0810789 -0.025615 0)
(0.0434171 -0.0212819 0)
(0.00739158 -0.0119587 0)
(0.098302 0.00095017 0)
(0.100201 0.000959178 0)
(0.101759 0.000544492 0)
(0.102826 0.000305217 0)
(0.103554 0.00019449 0)
(0.104086 0.000127473 0)
(0.10448 8.38199e-05 0)
(0.104776 5.82468e-05 0)
(0.105004 4.34734e-05 0)
(0.105186 3.3946e-05 0)
(0.105335 2.71958e-05 0)
(0.105459 2.22177e-05 0)
(0.105563 1.83854e-05 0)
(0.105651 1.52507e-05 0)
(0.105726 1.2545e-05 0)
(0.10579 1.00776e-05 0)
(0.105843 7.66731e-06 0)
(0.105886 5.1151e-06 0)
(0.105918 2.2267e-06 0)
(0.10594 -1.21215e-06 0)
(0.105947 -5.45814e-06 0)
(0.105939 -1.08429e-05 0)
(0.105911 -1.77949e-05 0)
(0.105857 -2.68972e-05 0)
(0.105769 -3.89056e-05 0)
(0.105638 -5.48008e-05 0)
(0.105448 -7.58494e-05 0)
(0.105182 -0.0001037 0)
(0.104815 -0.000140471 0)
(0.104312 -0.000188854 0)
(0.103632 -0.000252192 0)
(0.102718 -0.000334526 0)
(0.101498 -0.000440551 0)
(0.0998806 -0.000575404 0)
(0.0977514 -0.000744164 0)
(0.0949716 -0.000950892 0)
(0.0913775 -0.00119702 0)
(0.0867853 -0.0014789 0)
(0.0810027 -0.00178451 0)
(0.0738522 -0.00208954 0)
(0.0652104 -0.00235406 0)
(0.055066 -0.00252038 0)
(0.0435923 -0.00251686 0)
(0.0312279 -0.00226717 0)
(0.0188206 -0.00170344 0)
(0.00815302 -0.000557108 0)
(0.000382681 0.000242605 0)
(1.77401 0.885168 0)
(1.4569 0.420778 0)
(1.07629 0.157844 0)
(0.933045 0.0424975 0)
(0.911091 -0.00318458 0)
(0.878351 -0.034951 0)
(2.48457 0.545621 0)
(2.63404 0.341288 0)
(2.6108 0.230143 0)
(2.55993 0.172572 0)
(2.51389 0.134808 0)
(2.45659 0.111635 0)
(2.4733 0.112213 0)
(2.75385 0.0652156 0)
(2.89711 0.0586092 0)
(2.96016 0.0677536 0)
(2.99131 0.079429 0)
(2.99971 0.0956086 0)
(2.48212 -0.0683078 0)
(2.76365 0.00268011 0)
(2.9092 0.0368659 0)
(2.97801 0.0598822 0)
(3.02214 0.0872971 0)
(3.05028 0.120682 0)
(2.5217 -0.508452 0)
(2.69072 -0.279094 0)
(2.70138 -0.146685 0)
(2.69953 -0.0688635 0)
(2.71256 -0.0045839 0)
(2.72496 0.0558081 0)
(1.8289 -0.892863 0)
(1.54902 -0.425451 0)
(1.21249 -0.156479 0)
(1.11976 -0.0288765 0)
(1.17083 0.0346786 0)
(1.23115 0.0922702 0)
(-0.000936659 0.000809415 0)
(-0.00744423 0.00180679 0)
(-0.0163419 0.00209578 0)
(-0.0255165 0.00196282 0)
(-0.0338316 0.00175434 0)
(-0.0411429 0.00154294 0)
(-0.0475133 0.00134536 0)
(-0.0530193 0.00116638 0)
(-0.057731 0.00100657 0)
(-0.0617121 0.000865095 0)
(-0.0650187 0.000739788 0)
(-0.0676998 0.000627549 0)
(-0.0697975 0.000524807 0)
(-0.0713501 0.000428797 0)
(-0.0723947 0.000337729 0)
(-0.0729703 0.000250874 0)
(-0.0731211 0.000168454 0)
(-0.0728985 9.18676e-05 0)
(-0.072364 2.23695e-05 0)
(-0.0715842 -3.88712e-05 0)
(-0.0706288 -9.09777e-05 0)
(-0.0695679 -0.000133592 0)
(-0.0684684 -0.000166902 0)
(-0.067392 -0.000191194 0)
(-0.0663939 -0.000207231 0)
(-0.0655224 -0.000215666 0)
(-0.0648186 -0.000217173 0)
(-0.064317 -0.000212008 0)
(-0.064046 -0.000200208 0)
(-0.0640281 -0.000181287 0)
(-0.0642808 -0.000154669 0)
(-0.0648174 -0.000119347 0)
(-0.0656452 -7.48298e-05 0)
(-0.0667652 -2.01559e-05 0)
(-0.0681713 4.54764e-05 0)
(-0.0698476 0.000121604 0)
(-0.071764 0.000203205 0)
(-0.0738716 0.000281571 0)
(-0.0761039 0.000350483 0)
(-0.0783846 0.000407744 0)
(-0.0806242 0.000439441 0)
(-0.0827023 0.000412161 0)
(-0.0844737 0.000321106 0)
(-0.0857873 0.000221923 0)
(-0.0864785 9.94932e-05 0)
(-0.0867551 -0.000120474 0)
(-0.0869348 -0.000143701 0)
(-0.00365345 0.00863783 0)
(-0.0224874 0.016507 0)
(-0.0446773 0.0183319 0)
(-0.0662754 0.0172899 0)
(-0.0854329 0.0154281 0)
(-0.10203 0.0134749 0)
(-0.116265 0.0116293 0)
(-0.128373 0.00992935 0)
(-0.138576 0.00837218 0)
(-0.147068 0.0069459 0)
(-0.154018 0.00563707 0)
(-0.159571 0.00443265 0)
(-0.163855 0.00332299 0)
(-0.166986 0.00230259 0)
(-0.169075 0.001372 0)
(-0.170235 0.000535571 0)
(-0.170586 -0.000196647 0)
(-0.170257 -0.000811711 0)
(-0.169382 -0.00129918 0)
(-0.168103 -0.00165327 0)
(-0.166566 -0.00187324 0)
(-0.164911 -0.00196389 0)
(-0.163271 -0.00193435 0)
(-0.161763 -0.00179672 0)
(-0.160494 -0.00156461 0)
(-0.159555 -0.00125209 0)
(-0.159022 -0.000872934 0)
(-0.158956 -0.000440014 0)
(-0.159405 3.47391e-05 0)
(-0.160404 0.000540276 0)
(-0.161978 0.00106734 0)
(-0.164136 0.00160547 0)
(-0.166872 0.00214265 0)
(-0.170166 0.00266483 0)
(-0.173974 0.00315535 0)
(-0.178231 0.00359228 0)
(-0.18284 0.00394745 0)
(-0.187671 0.00418935 0)
(-0.192568 0.00429151 0)
(-0.197357 0.00422929 0)
(-0.201845 0.00397093 0)
(-0.205825 0.00348447 0)
(-0.209148 0.00277145 0)
(-0.211719 0.00187407 0)
(-0.21335 0.000907333 0)
(-0.214461 0.00033127 0)
(-0.216187 0.000515388 0)
(-0.00656702 0.0253898 0)
(-0.0364899 0.0429931 0)
(-0.0678235 0.0451637 0)
(-0.0965242 0.0415506 0)
(-0.121234 0.0365404 0)
(-0.142321 0.0315721 0)
(-0.160274 0.0270243 0)
(-0.175533 0.0229446 0)
(-0.188463 0.01929 0)
(-0.199354 0.0160014 0)
(-0.208431 0.0130236 0)
(-0.215872 0.0103117 0)
(-0.221823 0.00783405 0)
(-0.226415 0.00557405 0)
(-0.229769 0.00352872 0)
(-0.232011 0.00170704 0)
(-0.233274 0.000126788 0)
(-0.23371 -0.00118899 0)
(-0.233473 -0.00222217 0)
(-0.232733 -0.0029603 0)
(-0.231668 -0.00340343 0)
(-0.230451 -0.00356286 0)
(-0.229248 -0.0034588 0)
(-0.22821 -0.00311728 0)
(-0.227473 -0.00256725 0)
(-0.227154 -0.00183901 0)
(-0.227348 -0.000962148 0)
(-0.228134 3.39237e-05 0)
(-0.229566 0.00112109 0)
(-0.231684 0.00227606 0)
(-0.23451 0.00347402 0)
(-0.238044 0.00468669 0)
(-0.242265 0.00588211 0)
(-0.247127 0.00702196 0)
(-0.252557 0.00806083 0)
(-0.258453 0.00894299 0)
(-0.26468 0.00960433 0)
(-0.271061 0.00997869 0)
(-0.277401 0.0100102 0)
(-0.2835 0.00965578 0)
(-0.289144 0.00888613 0)
(-0.294116 0.00770867 0)
(-0.298294 0.00620359 0)
(-0.301643 0.00452764 0)
(-0.303966 0.00294471 0)
(-0.305452 0.00192704 0)
(-0.308104 0.00205257 0)
(-0.00936293 0.0508006 0)
(-0.0471531 0.0779385 0)
(-0.080991 0.0774941 0)
(-0.109536 0.0694069 0)
(-0.133367 0.0602302 0)
(-0.153615 0.0516999 0)
(-0.171042 0.0441706 0)
(-0.186219 0.0375845 0)
(-0.199546 0.0317823 0)
(-0.211286 0.0266104 0)
(-0.221609 0.0219453 0)
(-0.230625 0.0176967 0)
(-0.238409 0.0138053 0)
(-0.245017 0.0102423 0)
(-0.250504 0.00700319 0)
(-0.254932 0.00410667 0)
(-0.258377 0.0015858 0)
(-0.260943 -0.000518437 0)
(-0.262763 -0.00217438 0)
(-0.263977 -0.00336 0)
(-0.264746 -0.00406959 0)
(-0.265242 -0.00431645 0)
(-0.265636 -0.00413054 0)
(-0.266091 -0.00355291 0)
(-0.266757 -0.00262992 0)
(-0.267762 -0.0014121 0)
(-0.269213 4.70832e-05 0)
(-0.271193 0.00169325 0)
(-0.27376 0.00348052 0)
(-0.276954 0.00536433 0)
(-0.28079 0.00729563 0)
(-0.285258 0.00922295 0)
(-0.290326 0.0110873 0)
(-0.295936 0.0128221 0)
(-0.302003 0.0143501 0)
(-0.308421 0.0155853 0)
(-0.31505 0.016434 0)
(-0.321722 0.0168064 0)
(-0.328253 0.0166265 0)
(-0.334469 0.0158471 0)
(-0.340189 0.0144599 0)
(-0.345226 0.012514 0)
(-0.349475 0.0101363 0)
(-0.352878 0.00755355 0)
(-0.355166 0.00510759 0)
(-0.356312 0.00331745 0)
(-0.358563 0.00308545 0)
(-0.0119457 0.0843031 0)
(-0.0501621 0.114012 0)
(-0.0742804 0.105739 0)
(-0.0916229 0.0922124 0)
(-0.1064 0.0794647 0)
(-0.119951 0.0683545 0)
(-0.132775 0.0589422 0)
(-0.145224 0.0509335 0)
(-0.157465 0.0439681 0)
(-0.169514 0.0377654 0)
(-0.181305 0.0321289 0)
(-0.192731 0.0269245 0)
(-0.203668 0.0220725 0)
(-0.213986 0.0175385 0)
(-0.223568 0.0133269 0)
(-0.232311 0.00947158 0)
(-0.240145 0.00603519 0)
(-0.247042 0.00309076 0)
(-0.253029 0.000703508 0)