/*--------------------------------*- C++ -*----------------------------------*\
| =========                 |                                                 |
| \\      /  F ield         | OpenFOAM: The Open Source CFD Toolbox           |
|  \\    /   O peration     | Version:  2406                                  |
|   \\  /    A nd           | Website:  www.openfoam.com                      |
|    \\/     M anipulation  |                                                 |
\*---------------------------------------------------------------------------*/
FoamFile
{
    version     2.0;
    format      ascii;
    arch        "LSB;label=32;scalar=64";
    class       volScalarField;
    location    "83";
    object      p;
}
// * * * * * * * * * * * * * * * * * * * * * * * * * * * * * * * * * * * * * //

dimensions      [0 2 -2 0 0 0 0];

internalField   nonuniform List<scalar> 
1916
(
15.8431
15.8379
15.8313
15.8244
15.8171
15.8095
15.8018
15.7939
15.786
15.778
15.77
15.762
15.754
15.7459
15.7379
15.7298
15.7217
15.7136
15.7055
15.6975
15.6894
15.6813
15.6733
15.6653
15.6574
15.6495
15.6417
15.634
15.6265
15.6192
15.6121
15.6054
15.5992
15.5936
15.5887
15.5849
15.5823
15.5812
15.5821
15.585
15.5904
15.5983
15.6085
15.6205
15.6333
15.6455
15.6531
15.8466
15.839
15.8313
15.8243
15.817
15.8094
15.8017
15.7938
15.7859
15.778
15.77
15.762
15.754
15.7459
15.7378
15.7298
15.7217
15.7136
15.7055
15.6974
15.6894
15.6813
15.6733
15.6653
15.6574
15.6495
15.6417
15.634
15.6265
15.6192
15.6122
15.6055
15.5994
15.5938
15.5891
15.5854
15.5831
15.5824
15.5838
15.5876
15.5941
15.6033
15.6151
15.6288
15.6433
15.6573
15.6659
15.8486
15.8396
15.8311
15.8241
15.8169
15.8093
15.8016
15.7937
15.7859
15.7779
15.7699
15.7619
15.7539
15.7459
15.7378
15.7297
15.7216
15.7136
15.7055
15.6974
15.6893
15.6813
15.6732
15.6652
15.6572
15.6493
15.6415
15.6337
15.6261
15.6186
15.6114
15.6045
15.598
15.5921
15.5869
15.5827
15.5798
15.5784
15.5792
15.5826
15.589
15.5989
15.6122
15.6285
15.6463
15.6643
15.673
15.8499
15.8403
15.8312
15.824
15.8169
15.8093
15.8015
15.7936
15.7858
15.7778
15.7699
15.7619
15.7538
15.7458
15.7377
15.7297
15.7216
15.7135
15.7054
15.6973
15.6892
15.6811
15.673
15.6649
15.6568
15.6488
15.6407
15.6327
15.6248
15.6169
15.6091
15.6015
15.5941
15.5869
15.5801
15.5739
15.5685
15.5641
15.5613
15.5607
15.563
15.5691
15.5798
15.5954
15.6145
15.6348
15.6366
15.8508
15.841
15.8314
15.824
15.8168
15.8092
15.8014
15.7935
15.7856
15.7777
15.7698
15.7618
15.7537
15.7457
15.7376
15.7296
15.7215
15.7133
15.7052
15.6971
15.6889
15.6808
15.6726
15.6644
15.6561
15.6478
15.6395
15.6311
15.6226
15.614
15.6053
15.5964
15.5873
15.578
15.5683
15.5582
15.5479
15.5372
15.5263
15.5157
15.5059
15.4979
15.493
15.4929
15.4956
15.4995
15.4609
15.8516
15.8416
15.8317
15.824
15.8168
15.8092
15.8013
15.7934
15.7855
15.7776
15.7697
15.7617
15.7536
15.7456
15.7375
15.7294
15.7213
15.7132
15.705
15.6968
15.6886
15.6803
15.672
15.6637
15.6552
15.6466
15.6379
15.629
15.6198
15.6102
15.6002
15.5896
15.5782
15.5658
15.5519
15.5364
15.5185
15.4979
15.4737
15.4452
15.4116
15.3722
15.3259
15.2723
15.2019
15.1056
14.843
15.8521
15.8421
15.832
15.8241
15.8169
15.8092
15.8012
15.7933
15.7854
15.7775
15.7695
15.7616
15.7535
15.7455
15.7374
15.7293
15.7212
15.713
15.7048
15.6966
15.6883
15.6799
15.6714
15.6629
15.6542
15.6453
15.6361
15.6266
15.6166
15.606
15.5945
15.582
15.5679
15.5518
15.5331
15.5108
15.4836
15.4501
15.4078
15.3539
15.2837
15.1911
15.0654
14.8937
14.63
14.2583
13.0161
15.8525
15.8424
15.8322
15.8243
15.8169
15.8092
15.8012
15.7933
15.7854
15.7774
15.7694
15.7615
15.7534
15.7454
15.7373
15.7291
15.721
15.7128
15.7046
15.6963
15.6879
15.6795
15.6709
15.6621
15.6532
15.644
15.6344
15.6243
15.6135
15.6019
15.589
15.5746
15.5579
15.5383
15.5146
15.4854
15.4486
15.4013
15.3391
15.2557
15.1409
14.9786
14.7363
14.3569
13.6392
12.2118
7.47335
15.8528
15.8427
15.8324
15.8243
15.8169
15.8092
15.8012
15.7932
15.7853
15.7774
15.7694
15.7614
15.7533
15.7453
15.7372
15.729
15.7209
15.7127
15.7044
15.6961
15.6876
15.6791
15.6704
15.6615
15.6524
15.643
15.633
15.6225
15.6111
15.5987
15.5847
15.5687
15.55
15.5274
15.4997
15.4649
15.42
15.3609
15.2814
15.172
15.0169
14.7904
14.4435
13.8877
12.9109
11.1967
8.04517
15.8529
15.8428
15.8324
15.8244
15.817
15.8092
15.8012
15.7932
15.7853
15.7773
15.7693
15.7613
15.7533
15.7452
15.7371
15.729
15.7208
15.7126
15.7043
15.6959
15.6875
15.6789
15.6701
15.6612
15.652
15.6424
15.6322
15.6215
15.6098
15.5968
15.5822
15.5654
15.5455
15.5213
15.4914
15.4533
15.4037
15.3379
15.2484
15.1238
14.9457
14.6844
14.2889
13.6755
12.7063
11.1806
8.93871
15.8529
15.8428
15.8324
15.8243
15.8169
15.8092
15.8011
15.7932
15.7852
15.7773
15.7693
15.7613
15.7533
15.7452
15.7371
15.7289
15.7208
15.7125
15.7042
15.6959
15.6874
15.6788
15.6701
15.6611
15.6519
15.6423
15.6321
15.6213
15.6096
15.5967
15.5821
15.5652
15.5453
15.5211
15.4911
15.4529
15.4033
15.3374
15.2477
15.1228
14.9444
14.6823
14.2855
13.6697
12.6961
11.1623
8.90935
15.8527
15.8426
15.8323
15.8243
15.8169
15.8091
15.8011
15.7932
15.7852
15.7773
15.7693
15.7613
15.7533
15.7452
15.7371
15.7289
15.7208
15.7126
15.7043
15.6959
15.6875
15.6789
15.6702
15.6613
15.6522
15.6427
15.6327
15.6222
15.6108
15.5983
15.5842
15.5682
15.5494
15.5268
15.4989
15.4639
15.4188
15.3595
15.2796
15.1694
15.0133
14.785
14.4346
13.8722
12.881
11.1353
7.92011
15.8524
15.8424
15.8321
15.8242
15.8168
15.8091
15.8011
15.7932
15.7853
15.7773
15.7693
15.7613
15.7533
15.7452
15.7371
15.729
15.7208
15.7126
15.7044
15.6961
15.6877
15.6792
15.6706
15.6618
15.6528
15.6436
15.6339
15.6238
15.613
15.6012
15.5883
15.5738
15.557
15.5372
15.5134
15.4839
15.4469
15.3991
15.3364
15.2521
15.1361
14.9716
14.7255
14.3394
13.6053
12.1396
7.23764
15.852
15.842
15.8319
15.824
15.8168
15.8091
15.8011
15.7932
15.7853
15.7774
15.7694
15.7614
15.7534
15.7453
15.7372
15.7291
15.7209
15.7127
15.7045
15.6963
15.6879
15.6795
15.671
15.6624
15.6537
15.6447
15.6355
15.6259
15.6158
15.6051
15.5936
15.5809
15.5667
15.5505
15.5315
15.5089
15.4815
15.4475
15.4047
15.3499
15.2786
15.1843
15.056
14.8805
14.6098
14.2293
12.9468
15.8514
15.8415
15.8316
15.8239
15.8167
15.809
15.8011
15.7933
15.7854
15.7775
15.7695
15.7615
15.7534
15.7454
15.7373
15.7292
15.721
15.7129
15.7047
15.6965
15.6882
15.6799
15.6715
15.6631
15.6546
15.646
15.6372
15.6281
15.6189
15.6092
15.5991
15.5884
15.5768
15.5642
15.5501
15.5343
15.5161
15.4951
15.4704
15.4413
15.4069
15.3665
15.3188
15.2633
15.1904
15.0908
14.8191
15.8507
15.8409
15.8313
15.8238
15.8167
15.8091
15.8012
15.7933
15.7855
15.7775
15.7696
15.7616
15.7535
15.7455
15.7374
15.7293
15.7211
15.713
15.7049
15.6967
15.6885
15.6803
15.672
15.6637
15.6554
15.6471
15.6387
15.6302
15.6216
15.6129
15.6041
15.595
15.5858
15.5762
15.5663
15.5561
15.5454
15.5344
15.5232
15.5121
15.5018
15.4933
15.4879
15.4871
15.4893
15.4927
15.4526
15.8497
15.8401
15.831
15.8238
15.8167
15.8091
15.8013
15.7935
15.7856
15.7776
15.7697
15.7616
15.7536
15.7455
15.7375
15.7294
15.7212
15.7131
15.705
15.6968
15.6887
15.6805
15.6724
15.6642
15.6561
15.648
15.6398
15.6317
15.6237
15.6157
15.6078
15.6
15.5924
15.5851
15.5781
15.5717
15.566
15.5614
15.5584
15.5575
15.5595
15.5654
15.5759
15.5915
15.6105
15.631
15.6326
15.8484
15.8395
15.831
15.8239
15.8168
15.8092
15.8014
15.7936
15.7857
15.7777
15.7697
15.7617
15.7537
15.7456
15.7375
15.7294
15.7213
15.7132
15.7051
15.6969
15.6888
15.6807
15.6726
15.6645
15.6565
15.6485
15.6405
15.6327
15.625
15.6174
15.6101
15.603
15.5964
15.5903
15.5849
15.5805
15.5774
15.5759
15.5764
15.5796
15.5859
15.5956
15.609
15.6253
15.6432
15.6614
15.6701
15.8464
15.8389
15.8312
15.8241
15.8169
15.8093
15.8015
15.7937
15.7858
15.7778
15.7698
15.7618
15.7537
15.7456
15.7375
15.7294
15.7213
15.7132
15.7051
15.697
15.6889
15.6808
15.6727
15.6646
15.6566
15.6487
15.6408
15.633
15.6254
15.618
15.6108
15.604
15.5977
15.592
15.5871
15.5833
15.5808
15.5799
15.5811
15.5848
15.5911
15.6003
15.6121
15.6258
15.6404
15.6545
15.6631
15.8429
15.8377
15.8312
15.8242
15.8169
15.8094
15.8016
15.7937
15.7858
15.7778
15.7698
15.7618
15.7537
15.7457
15.7376
15.7295
15.7214
15.7132
15.7051
15.697
15.6889
15.6808
15.6727
15.6646
15.6566
15.6487
15.6408
15.633
15.6254
15.6179
15.6108
15.6039
15.5976
15.5918
15.5868
15.5827
15.58
15.5788
15.5794
15.5822
15.5875
15.5953
15.6054
15.6174
15.6303
15.6425
15.6501
-2.52781
-2.41346
-0.751977
-0.518758
-0.838403
-0.976901
3.04527
0.801359
0.358352
-0.0476762
-0.547019
-0.824764
5.43693
2.23797
0.68447
0.0352355
-0.469355
-0.850866
5.37823
2.14047
0.549364
-0.149079
-0.728044
-1.20046
2.78297
0.436896
-0.0803022
-0.603473
-1.2941
-1.82
-3.20027
-3.1801
-1.47649
-1.33219
-1.89775
-2.36855
-0.490033
-0.492682
-0.493589
-0.491807
-0.487954
-0.482354
-0.475159
-0.466509
-0.456564
-0.445492
-0.433463
-0.420645
-0.407201
-0.393288
-0.379055
-0.364648
-0.350206
-0.335859
-0.321723
-0.307895
-0.294452
-0.28145
-0.268923
-0.256885
-0.245334
-0.234252
-0.22361
-0.213368
-0.203476
-0.193881
-0.184518
-0.175319
-0.166209
-0.157105
-0.14792
-0.138559
-0.128918
-0.118894
-0.108402
-0.0973791
-0.0857778
-0.0735609
-0.060747
-0.0474255
-0.0337004
-0.0200269
-0.00699128
-0.486128
-0.488859
-0.489761
-0.488119
-0.484642
-0.479488
-0.472716
-0.464441
-0.454823
-0.444041
-0.432278
-0.419707
-0.406491
-0.392789
-0.378749
-0.364514
-0.35022
-0.335995
-0.321953
-0.308192
-0.294788
-0.281799
-0.269258
-0.257183
-0.245573
-0.234413
-0.223672
-0.213315
-0.203295
-0.193559
-0.184046
-0.174692
-0.165425
-0.156171
-0.146854
-0.137398
-0.127711
-0.117686
-0.107233
-0.0963316
-0.0849594
-0.0729538
-0.0601625
-0.0468348
-0.0332883
-0.0195679
-0.00701649
-0.487679
-0.490075
-0.490629
-0.488749
-0.485233
-0.480077
-0.473282
-0.464967
-0.455308
-0.444499
-0.432726
-0.420167
-0.406977
-0.393307
-0.379296
-0.36508
-0.350783
-0.33653
-0.322435
-0.308598
-0.295099
-0.282
-0.269337
-0.25713
-0.24538
-0.234072
-0.22318
-0.21267
-0.202498
-0.192616
-0.182969
-0.173496
-0.164134
-0.154818
-0.145495
-0.136112
-0.126577
-0.116751
-0.10653
-0.0959366
-0.0849626
-0.0732709
-0.0605485
-0.0472249
-0.033749
-0.0197359
-0.00662302
-0.502482
-0.502733
-0.501371
-0.498021
-0.493282
-0.486988
-0.479143
-0.469896
-0.45944
-0.447971
-0.435665
-0.422679
-0.409148
-0.395195
-0.380939
-0.36649
-0.351956
-0.337449
-0.323087
-0.308976
-0.295205
-0.281839
-0.268918
-0.256464
-0.244478
-0.232952
-0.221863
-0.211178
-0.200856
-0.190858
-0.181133
-0.17163
-0.162293
-0.153073
-0.143942
-0.134867
-0.125755
-0.116423
-0.106722
-0.0966752
-0.0862765
-0.0751235
-0.0627922
-0.049541
-0.0354957
-0.0204687
-0.00623891
-0.53994
-0.530999
-0.522621
-0.515087
-0.507364
-0.498622
-0.488715
-0.477758
-0.465909
-0.453317
-0.440115
-0.426413
-0.412305
-0.39787
-0.383191
-0.368346
-0.353423
-0.338522
-0.323756
-0.309237
-0.29506
-0.281296
-0.26799
-0.255172
-0.242853
-0.231035
-0.219699
-0.208813
-0.198341
-0.188255
-0.17851
-0.169072
-0.159892
-0.15094
-0.142204
-0.133664
-0.125227
-0.116688
-0.107833
-0.0986133
-0.0889843
-0.0785681
-0.0668849
-0.0537799
-0.0388984
-0.0222955
-0.00650292
-0.625776
-0.574239
-0.544765
-0.530276
-0.519042
-0.507747
-0.495959
-0.483572
-0.470589
-0.457088
-0.44316
-0.42888
-0.414304
-0.399486
-0.384484
-0.369356
-0.354154
-0.33896
-0.323871
-0.308986
-0.29441
-0.280236
-0.266532
-0.253338
-0.240689
-0.228589
-0.21702
-0.205953
-0.195366
-0.185235
-0.175531
-0.166231
-0.15731
-0.148749
-0.140543
-0.132677
-0.125061
-0.117497
-0.109722
-0.101558
-0.0928468
-0.0832156
-0.0721579
-0.0592044
-0.0436108
-0.0253801
-0.00743775
-0.786654
-0.611576
-0.54193
-0.527542
-0.51726
-0.505324
-0.493691
-0.481818
-0.46913
-0.455725
-0.44181
-0.4275
-0.412874
-0.398011
-0.383
-0.367876
-0.35266
-0.337441
-0.322313
-0.307362
-0.2927
-0.278426
-0.264601
-0.251257
-0.238447
-0.226181
-0.214461
-0.203283
-0.19264
-0.182517
-0.172909
-0.163807
-0.155206
-0.147095
-0.139464
-0.132285
-0.125472
-0.118851
-0.112144
-0.105048
-0.0972376
-0.0882898
-0.0776781
-0.0647861
-0.0487422
-0.0291347
-0.00846564
-0.835918
-0.62743
-0.549888
-0.539987
-0.529744
-0.513828
-0.499233
-0.485775
-0.471716
-0.456888
-0.441676
-0.426272
-0.410752
-0.395191
-0.379668
-0.364229
-0.348919
-0.333792
-0.318878
-0.30421
-0.289857
-0.275893
-0.26231
-0.249118
-0.236398
-0.224209
-0.212569
-0.201483
-0.190929
-0.180914
-0.171445
-0.162536
-0.1542
-0.146441
-0.139254
-0.132596
-0.126379
-0.120432
-0.114473
-0.108122
-0.100933
-0.0924081
-0.0819754
-0.0689525
-0.0525887
-0.0323807
-0.00920703
-0.791078
-0.622993
-0.538219
-0.525413
-0.52118
-0.510167
-0.49855
-0.487782
-0.47577
-0.461773
-0.446354
-0.430111
-0.413382
-0.396417
-0.379456
-0.362701
-0.346305
-0.330365
-0.314932
-0.300033
-0.285695
-0.271928
-0.258705
-0.24601
-0.233834
-0.222164
-0.210964
-0.200223
-0.189965
-0.180215
-0.170985
-0.162298
-0.15417
-0.14662
-0.139653
-0.13322
-0.127233
-0.121514
-0.115794
-0.109694
-0.102732
-0.0943414
-0.0838838
-0.0707213
-0.054229
-0.0342719
-0.00960825
-0.98529
-0.946247
-0.886931
-0.857688
-0.831509
-0.791557
-0.74485
-0.69885
-0.654048
-0.60949
-0.56572
-0.523831
-0.484513
-0.448096
-0.414776
-0.384665
-0.357765
-0.333964
-0.313045
-0.294696
-0.27853
-0.264123
-0.251058
-0.238985
-0.227645
-0.216863
-0.20653
-0.196595
-0.187036
-0.17785
-0.169055
-0.160701
-0.152829
-0.145476
-0.138654
-0.132326
-0.126406
-0.120719
-0.115009
-0.108897
-0.101896
-0.0934407
-0.0829191
-0.0698036
-0.0534552
-0.034555
-0.00796928
-1.41496
-1.40711
-1.34483
-1.31066
-1.27928
-1.22675
-1.1605
-1.09075
-1.01841
-0.942077
-0.862696
-0.782495
-0.703426
-0.62703
-0.55476
-0.488037
-0.428126
-0.375965
-0.332013
-0.29615
-0.267692
-0.245545
-0.228412
-0.215005
-0.204194
-0.195065
-0.18694
-0.179349
-0.172003
-0.164773
-0.157647
-0.150671
-0.143914
-0.137446
-0.13131
-0.125507
-0.119991
-0.114624
-0.109157
-0.103217
-0.0963512
-0.0880736
-0.0778321
-0.0652827
-0.049645
-0.0330665
-0.00450024
-2.01002
-1.88975
-1.77626
-1.74523
-1.71887
-1.66543
-1.59879
-1.52815
-1.45068
-1.36307
-1.26561
-1.16009
-1.04827
-0.932023
-0.813821
-0.696866
-0.584876
-0.481657
-0.390539
-0.313811
-0.252386
-0.205797
-0.172445
-0.150012
-0.135902
-0.127619
-0.123015
-0.120423
-0.118687
-0.117106
-0.115321
-0.113197
-0.110733
-0.108003
-0.105093
-0.102076
-0.0989866
-0.0957796
-0.0921941
-0.0878321
-0.0823461
-0.0754098
-0.0666123
-0.0558912
-0.0423145
-0.0296065
-0.000574974
-2.53458
-2.25375
-2.10305
-2.08764
-2.06913
-2.02125
-1.96465
-1.90536
-1.8376
-1.75703
-1.66256
-1.55379
-1.43015
-1.29161
-1.13947
-0.976865
-0.808935
-0.642477
-0.485022
-0.343607
-0.223636
-0.128143
-0.057565
-0.0100334
0.0179427
0.0306666
0.0325082
0.0273633
0.0183402
0.00769029
-0.00310818
-0.0131881
-0.0221248
-0.029787
-0.0362111
-0.0415034
-0.0457895
-0.0491593
-0.0514209
-0.0522127
-0.0513663
-0.048775
-0.0442566
-0.0379801
-0.0291486
-0.0219828
0.0022766
-2.58653
-2.27333
-2.14294
-2.12768
-2.11753
-2.09582
-2.0711
-2.04267
-2.00527
-1.95522
-1.89017
-1.80731
-1.70314
-1.57429
-1.4186
-1.23629
-1.03113
-0.810775
-0.586004
-0.369096
-0.171893
-0.00395669
0.128784
0.224539
0.285238
0.315555
0.321688
0.310211
0.287164
0.257541
0.22511
0.192481
0.1613
0.132476
0.106411
0.0832028
0.0628131
0.0450857
0.029939
0.0174634
0.00765925
0.00044606
-0.00423733
-0.00669483
-0.00671911
-0.00709106
0.00334875
-2.28825
-2.20105
-2.15235
-2.13328
-2.12049
-2.10694
-2.09219
-2.074
-2.04967
-2.01682
-1.9726
-1.91308
-1.83284
-1.72547
-1.58452
-1.40525
-1.18695
-0.934592
-0.658767
-0.374405
-0.098647
0.151801
0.36347
0.527929
0.642345
0.708938
0.733778
0.725115
0.691798
0.642073
0.582901
0.519683
0.456295
0.395304
0.338252
0.285945
0.23874
0.196731
0.159676
0.127259
0.0992807
0.075523
0.0556596
0.0394176
0.0259149
0.0154571
0.00352279
-2.15145
-2.13739
-2.1263
-2.11821
-2.11077
-2.10136
-2.08849
-2.07112
-2.04833
-2.01919
-1.98172
-1.9324
-1.86577
-1.77403
-1.64792
-1.47859
-1.26057
-0.994513
-0.688135
-0.355681
-0.0165333
0.307719
0.597019
0.835837
1.01485
1.13148
1.18928
1.19621
1.16254
1.09913
1.01608
0.921928
0.823382
0.725333
0.631104
0.542775
0.461508
0.387902
0.321973
0.263346
0.211632
0.166457
0.127239
0.0937121
0.0638554
0.0410309
0.00452445
-2.08769
-2.08832
-2.08862
-2.08736
-2.0843
-2.07815
-2.06782
-2.05226
-2.03062
-2.00187
-1.96423
-1.91475
-1.84964
-1.7622
-1.64233
-1.47913
-1.26419
-0.994843
-0.674854
-0.315622
0.0636439
0.439269
0.787352
1.08725
1.32388
1.48962
1.58438
1.61416
1.58901
1.52106
1.42259
1.30471
1.17669
1.04576
0.917156
0.794462
0.679902
0.574733
0.479474
0.394123
0.318362
0.25169
0.193284
0.142782
0.0974152
0.0621789
0.00675974
-2.06001
-2.06358
-2.06561
-2.06496
-2.06184
-2.05528
-2.04428
-2.02782
-2.00482
-1.97399
-1.93363
-1.88133
-1.81315
-1.72254
-1.59998
-1.43384
-1.21517
-0.942693
-0.618541
-0.249809
0.146215
0.54625
0.925522
1.26084
1.53343
1.73213
1.854
1.90279
1.88748
1.82029
1.71445
1.58254
1.43548
1.28214
1.12925
0.981591
0.842326
0.713353
0.595675
0.48973
0.395427
0.312239
0.239202
0.175824
0.119195
0.074392
0.00954286
-2.05631
-2.06039
-2.06247
-2.06136
-2.05732
-2.04955
-2.03702
-2.0186
-1.99291
-1.95818
-1.91211
-1.85172
-1.77308
-1.67085
-1.5379
-1.36537
-1.1442
-0.868669
-0.540436
-0.16862
0.230154
0.633752
1.01997
1.3662
1.65153
1.86326
1.99654
2.05359
2.04277
1.97608
1.86684
1.72803
1.57125
1.40613
1.24016
1.0788
0.925752
0.783461
0.653391
0.536098
0.431537
0.339204
0.258183
0.18781
0.125683
0.0753796
0.0124696
-2.06275
-2.06693
-2.06935
-2.06849
-2.06446
-2.05667
-2.0441
-2.02551
-1.99932
-1.96339
-1.91481
-1.84975
-1.76336
-1.64976
-1.50237
-1.31461
-1.08123
-0.799764
-0.471227
-0.101974
0.293637
0.694813
1.07783
1.41933
1.70048
1.91126
2.04561
2.10316
2.09242
2.02536
1.91507
1.77442
1.61503
1.44661
1.27676
1.11114
0.95368
0.806702
0.671606
0.54936
0.44024
0.343892
0.2595
0.186181
0.122237
0.0682968
0.0140326
)
;

boundaryField
{
    inlet
    {
        type            zeroGradient;
    }
    outlet
    {
        type            fixedValue;
        value           uniform 0;
    }
    upperWall
    {
        type            zeroGradient;
    }
    lowerWall
    {
        type            zeroGradient;
    }
    frontAndBack
    {
        type            empty;
    }
}


// ************************************************************************* //
