/*--------------------------------*- C++ -*----------------------------------*\
| =========                 |                                                 |
| \\      /  F ield         | OpenFOAM: The Open Source CFD Toolbox           |
|  \\    /   O peration     | Version:  2406                                  |
|   \\  /    A nd           | Website:  www.openfoam.com                      |
|    \\/     M anipulation  |                                                 |
\*---------------------------------------------------------------------------*/
FoamFile
{
    version     2.0;
    format      ascii;
    arch        "LSB;label=32;scalar=64";
    class       surfaceScalarField;
    location    "83";
    object      phi;
}
// * * * * * * * * * * * * * * * * * * * * * * * * * * * * * * * * * * * * * //

dimensions      [0 3 -1 0 0 0 0];

oriented        oriented;

internalField   nonuniform List<scalar> 
3698
(
0.0197291
-0.000229067
0.0199616
-0.000232489
0.0201142
-0.000152532
0.0202163
-0.000102041
0.0202907
-7.42823e-05
0.0203454
-5.46883e-05
0.0203855
-4.00288e-05
0.0204156
-2.99624e-05
0.0204389
-2.32415e-05
0.0204574
-1.84943e-05
0.0204724
-1.4913e-05
0.0204846
-1.21089e-05
0.0204945
-9.83699e-06
0.0205024
-7.90518e-06
0.0205086
-6.16665e-06
0.0205132
-4.51668e-06
0.0205162
-2.86084e-06
0.0205173
-1.09853e-06
0.0205165
8.91238e-07
0.0205133
3.24491e-06
0.0205073
6.12946e-06
0.0204976
9.75159e-06
0.0204833
1.43843e-05
0.020463
2.03838e-05
0.0204349
2.82252e-05
0.0203965
3.85289e-05
0.0203445
5.2111e-05
0.0202746
7.00309e-05
0.020181
9.36657e-05
0.0200564
0.000124782
0.0198909
0.000165628
0.019672
0.000219008
0.0193838
0.000288348
0.0190063
0.000377683
0.018515
0.000491551
0.0178805
0.000634654
0.0170695
0.000811197
0.0160459
0.00102372
0.0147749
0.00127125
0.0132284
0.00154665
0.0113954
0.00183322
0.00929477
0.00210082
0.00699148
0.00230344
0.00461437
0.00237729
0.0023802
0.00223439
0.000712194
0.00166838
0.000712274
0.0554042
-0.000133183
0.0554091
-0.000237277
0.0554729
-0.000216253
0.0555478
-0.000176782
0.0556205
-0.000146803
0.055687
-0.000121144
0.0557452
-9.8102e-05
0.0557947
-7.92914e-05
0.0558364
-6.4818e-05
0.0558716
-5.35456e-05
0.0559012
-4.44659e-05
0.0559262
-3.69824e-05
0.0559472
-3.06768e-05
0.0559646
-2.51762e-05
0.0559787
-2.01595e-05
0.0559897
-1.53618e-05
0.0559975
-1.05397e-05
0.0560019
-5.42635e-06
0.0560027
2.93817e-07
0.0559991
7.00117e-06
0.0559902
1.51583e-05
0.0559748
2.53483e-05
0.055951
3.83263e-05
0.0559165
5.50896e-05
0.055868
7.69567e-05
0.0558011
0.000105672
0.0557099
0.000143532
0.0555866
0.000193557
0.0554208
0.000259705
0.0551988
0.000347134
0.0549022
0.000462518
0.0545071
0.000614409
0.0539822
0.000813605
0.0532867
0.00107348
0.0523685
0.00141016
0.0511612
0.00184231
0.0495825
0.00239025
0.0475328
0.00307376
0.0448966
0.00390789
0.041548
0.00489564
0.0373652
0.00601647
0.0322567
0.00720973
0.026204
0.00835655
0.0193232
0.0092584
0.0119349
0.00962338
0.00481976
0.00878418
0.00553219
0.087439
-7.21093e-05
0.0873693
-0.000167538
0.0873393
-0.000186113
0.0873374
-0.000174766
0.0873515
-0.000160823
0.0873759
-0.000145415
0.0874056
-0.000127748
0.0874367
-0.0001103
0.0874669
-9.48686e-05
0.087495
-8.15589e-05
0.0875206
-6.99546e-05
0.0875434
-5.97465e-05
0.0875635
-5.0673e-05
0.0875809
-4.24175e-05
0.0875955
-3.46375e-05
0.0876072
-2.70071e-05
0.087616
-1.91951e-05
0.0876215
-1.08148e-05
0.0876233
-1.38394e-06
0.0876207
9.69715e-06
0.0876128
2.3177e-05
0.0875983
4.00061e-05
0.0875753
6.14242e-05
0.0875415
8.90684e-05
0.0874935
0.000125114
0.0874269
0.000172448
0.0873357
0.000234897
0.087212
0.000317519
0.0870449
0.000427001
0.0868201
0.000572148
0.0865184
0.000764516
0.0861139
0.00101917
0.0855721
0.00135562
0.0848471
0.00179882
0.0838773
0.00238024
0.0825812
0.00313872
0.080851
0.00412076
0.0785456
0.00537947
0.075483
0.00697083
0.0714339
0.00894508
0.0661203
0.0113304
0.0592276
0.0141026
0.0504398
0.0171445
0.0395244
0.0201741
0.0264465
0.0227018
0.011897
0.0233347
0.0174292
0.115471
-4.27068e-05
0.115414
-0.000111001
0.115368
-0.000139512
0.115336
-0.00014333
0.115316
-0.000140514
0.115305
-0.000134549
0.115303
-0.000124844
0.115305
-0.000113039
0.115312
-0.000101117
0.11532
-8.9833e-05
0.115329
-7.92305e-05
0.115339
-6.92736e-05
0.115348
-5.99031e-05
0.115357
-5.09441e-05
0.115365
-4.21302e-05
0.115371
-3.31597e-05
0.115375
-2.3692e-05
0.115378
-1.32937e-05
0.115378
-1.39381e-06
0.115375
1.27481e-05
0.115368
3.00758e-05
0.115357
5.18054e-05
0.115339
7.95308e-05
0.115312
0.00011537
0.115276
0.000162148
0.115225
0.000223631
0.115155
0.000304832
0.11506
0.000412427
0.114932
0.000555291
0.114759
0.000745226
0.114526
0.000997894
0.114211
0.00133404
0.113786
0.00178103
0.11321
0.00237483
0.112429
0.00316234
0.111363
0.00420421
0.109906
0.00557783
0.107906
0.00738011
0.105148
0.00972881
0.101334
0.0127601
0.0960451
0.0166191
0.0887174
0.0214304
0.0786087
0.0272534
0.0648349
0.0339481
0.0464178
0.0411196
0.022971
0.0467818
0.0404008
0.139484
-2.69842e-05
0.139448
-7.43589e-05
0.139409
-0.000100965
0.139376
-0.000110165
0.139348
-0.000112272
0.139325
-0.000111014
0.139306
-0.000106311
0.139292
-9.90382e-05
0.139282
-9.07216e-05
0.139274
-8.22134e-05
0.139269
-7.37362e-05
0.139265
-6.53553e-05
0.139262
-5.70897e-05
0.13926
-4.88411e-05
0.139259
-4.03983e-05
0.139257
-3.14896e-05
0.139255
-2.17861e-05
0.139253
-1.08512e-05
0.13925
1.91328e-06
0.139245
1.73028e-05
0.139239
3.63506e-05
0.139231
6.03981e-05
0.139219
9.12141e-05
0.139203
0.000131156
0.139182
0.000183384
0.139154
0.000252122
0.139116
0.000343028
0.139065
0.000463664
0.138996
0.000624156
0.138903
0.00083807
0.138778
0.0011236
0.138607
0.00150514
0.138373
0.00201543
0.138049
0.00269842
0.137599
0.00361303
0.136965
0.00483826
0.136063
0.00647981
0.134765
0.00867867
0.132872
0.0116219
0.130078
0.0155544
0.125904
0.0207932
0.119608
0.0277267
0.110033
0.0368288
0.0954724
0.0485087
0.0732937
0.0632984
0.0404204
0.0796574
0.0808214
0.159491
-1.76569e-05
0.159467
-5.02424e-05
0.159437
-7.15006e-05
0.159408
-8.13099e-05
0.159381
-8.51008e-05
0.159356
-8.57612e-05
0.159334
-8.35752e-05
0.159314
-7.90559e-05
0.159296
-7.32579e-05
0.159281
-6.69236e-05
0.159268
-6.03295e-05
0.159256
-5.35732e-05
0.159246
-4.66894e-05
0.159237
-3.96077e-05
0.159228
-3.21501e-05
0.159221
-2.40708e-05
0.159214
-1.50629e-05
0.159208
-4.71309e-06
0.159203
7.55227e-06
0.159198
2.25069e-05
0.159193
4.11631e-05
0.159189
6.48427e-05
0.159185
9.52905e-05
0.159181
0.000134839
0.159178
0.000186619
0.159175
0.000254837
0.159173
0.000345137
0.159172
0.000465106
0.159171
0.000624951
0.159171
0.000838441
0.159171
0.0011242
0.159169
0.00150749
0.159162
0.00202266
0.159144
0.00271667
0.159103
0.00365391
0.159018
0.0049232
0.15885
0.00664782
0.158529
0.00900003
0.157929
0.0122227
0.156823
0.0166601
0.154808
0.0228087
0.151161
0.0313731
0.144563
0.0434268
0.132758
0.0603136
0.111241
0.0848175
0.0719901
0.118908
0.152812
0.175494
-1.1466e-05
0.175477
-3.31534e-05
0.175454
-4.85015e-05
0.175429
-5.66814e-05
0.175405
-6.04208e-05
0.175381
-6.15864e-05
0.175358
-6.05464e-05
0.175336
-5.76439e-05
0.175317
-5.35669e-05
0.175299
-4.88751e-05
0.175282
-4.3825e-05
0.175267
-3.85188e-05
0.175254
-3.29905e-05
0.175241
-2.71876e-05
0.17523
-2.09656e-05
0.17522
-1.41177e-05
0.175212
-6.37999e-06
0.175204
2.60328e-06
0.175199
1.33281e-05
0.175195
2.64666e-05
0.175193
4.29033e-05
0.175194
6.37943e-05
0.175199
9.06675e-05
0.175209
0.000125565
0.175224
0.000171233
0.175248
0.000231368
0.175282
0.000310946
0.175331
0.000416674
0.175398
0.000557618
0.175491
0.000746072
0.175616
0.000998781
0.175785
0.00133866
0.176011
0.00179723
0.17631
0.00241815
0.176701
0.0032624
0.177209
0.00441592
0.177855
0.00600125
0.17866
0.00819548
0.179624
0.0112588
0.180705
0.0155799
0.181756
0.0217578
0.182403
0.0307259
0.181728
0.0441023
0.177524
0.0645175
0.163678
0.0986632
0.124531
0.158056
0.277343
0.187495
-6.85803e-06
0.187482
-1.99797e-05
0.187464
-2.9657e-05
0.187442
-3.51773e-05
0.18742
-3.78477e-05
0.187397
-3.87174e-05
0.187374
-3.80717e-05
0.187353
-3.61346e-05
0.187333
-3.33163e-05
0.187314
-2.99774e-05
0.187296
-2.63059e-05
0.18728
-2.23823e-05
0.187266
-1.82319e-05
0.187252
-1.38163e-05
0.187241
-9.03132e-06
0.18723
-3.72448e-06
0.187222
2.30031e-06
0.187215
9.30807e-06
0.187211
1.7667e-05
0.187209
2.78772e-05
0.187212
4.05978e-05
0.187219
5.66906e-05
0.187233
7.72932e-05
0.187254
0.000103926
0.187287
0.000138633
0.187334
0.000184168
0.187401
0.000244246
0.187494
0.000323882
0.187622
0.000429878
0.187797
0.000571492
0.188034
0.000761395
0.188356
0.00101704
0.188791
0.00136263
0.189377
0.00183202
0.190167
0.0024731
0.191228
0.00335436
0.192655
0.00457523
0.194568
0.00628239
0.197131
0.00869619
0.200556
0.0121545
0.205128
0.0171857
0.211215
0.0246393
0.219431
0.0358871
0.23074
0.0532077
0.249599
0.0798051
0.289862
0.117792
0.17441
0.392794
0.195496
-3.05236e-06
0.195485
-8.91984e-06
0.195469
-1.32543e-05
0.195449
-1.56779e-05
0.195428
-1.67193e-05
0.195407
-1.68364e-05
0.195385
-1.61723e-05
0.195364
-1.48363e-05
0.195343
-1.30164e-05
0.195324
-1.08835e-05
0.195307
-8.53106e-06
0.19529
-5.99853e-06
0.195275
-3.29397e-06
0.195262
-3.92263e-07
0.19525
2.76658e-06
0.19524
6.26894e-06
0.195233
1.02266e-05
0.195227
1.47882e-05
0.195225
2.0158e-05
0.195226
2.6611e-05
0.195232
3.45084e-05
0.195245
4.43206e-05
0.195265
5.66669e-05
0.195297
7.23715e-05
0.195343
9.25403e-05
0.195409
0.000118661
0.195501
0.000152737
0.195627
0.000197477
0.195801
0.000256555
0.196037
0.000334979
0.196359
0.000439624
0.196796
0.000579987
0.19739
0.000769303
0.198196
0.0010262
0.199292
0.00137719
0.200786
0.00186055
0.202829
0.00253233
0.205636
0.00347605
0.209514
0.00481798
0.214916
0.00675242
0.222526
0.00957551
0.233416
0.0137498
0.249429
0.0198744
0.273781
0.0288561
0.312724
0.0408611
0.375383
0.0551323
0.0800611
0.469732
0.199497
4.03104e-07
0.199487
1.19662e-06
0.199471
2.00178e-06
0.199453
2.81902e-06
0.199433
3.64156e-06
0.199411
4.47813e-06
0.19939
5.33815e-06
0.199369
6.22985e-06
0.199349
7.16167e-06
0.19933
8.14251e-06
0.199312
9.18225e-06
0.199296
1.0293e-05
0.199281
1.14873e-05
0.199268
1.27784e-05
0.199257
1.41796e-05
0.199247
1.57062e-05
0.19924
1.73757e-05
0.199236
1.92076e-05
0.199235
2.1222e-05
0.199238
2.34413e-05
0.199247
2.58897e-05
0.199263
2.85955e-05
0.199288
3.15895e-05
0.199326
3.49074e-05
0.19938
3.85886e-05
0.199456
4.26793e-05
0.199561
4.72324e-05
0.199707
5.23115e-05
0.199905
5.79927e-05
0.200176
6.43707e-05
0.200544
7.15638e-05
0.201045
7.97267e-05
0.201725
8.90647e-05
0.202652
9.98603e-05
0.203917
0.000112513
0.20565
0.000127604
0.208036
0.000146008
0.211343
0.000169075
0.215962
0.000198963
0.222476
0.000239215
0.231756
0.000295865
0.245126
0.000379341
0.264493
0.000507998
0.292633
0.000715623
0.332446
0.00104766
0.385946
0.00163184
0.00248659
0.463519
0.199497
3.84942e-06
0.199487
1.12813e-05
0.199471
1.72053e-05
0.199453
2.1242e-05
0.199433
2.39062e-05
0.199412
2.5673e-05
0.19939
2.67042e-05
0.19937
2.71255e-05
0.19935
2.7142e-05
0.199331
2.69415e-05
0.199314
2.6637e-05
0.199298
2.62917e-05
0.199283
2.59392e-05
0.199271
2.558e-05
0.19926
2.51805e-05
0.199251
2.4684e-05
0.199244
2.40136e-05
0.19924
2.30583e-05
0.19924
2.16545e-05
0.199244
1.95706e-05
0.199253
1.64937e-05
0.19927
1.20075e-05
0.199296
5.55415e-06
0.199335
-3.62177e-06
0.19939
-1.65482e-05
0.199468
-3.46236e-05
0.199575
-5.97493e-05
0.199722
-9.45115e-05
0.199922
-0.000142437
0.200195
-0.000208357
0.200566
-0.00029892
0.201069
-0.000423338
0.201753
-0.000594465
0.202683
-0.000830414
0.203953
-0.00115698
0.205692
-0.00161141
0.208086
-0.00224824
0.211404
-0.00314868
0.216039
-0.0044354
0.222575
-0.00629698
0.231891
-0.00901992
0.245322
-0.0130509
0.264788
-0.018958
0.293098
-0.027595
0.333168
-0.0390223
0.386992
-0.0521935
-0.0756732
0.465151
0.195496
7.62236e-06
0.195485
2.22476e-05
0.195469
3.34517e-05
0.19545
4.05204e-05
0.195429
4.47466e-05
0.195408
4.71963e-05
0.195386
4.81728e-05
0.195366
4.79155e-05
0.195346
4.6851e-05
0.195328
4.53565e-05
0.195311
4.36397e-05
0.195295
4.18028e-05
0.195281
3.98954e-05
0.195269
3.7903e-05
0.195259
3.57478e-05
0.19525
3.33059e-05
0.195244
3.04146e-05
0.19524
2.68437e-05
0.195239
2.22639e-05
0.195243
1.62156e-05
0.195251
8.08676e-06
0.195266
-2.93413e-06
0.19529
-1.79264e-05
0.195325
-3.83471e-05
0.195375
-6.61676e-05
0.195444
-0.000104062
0.19554
-0.000155649
0.195672
-0.000225839
0.195851
-0.000321302
0.196094
-0.000451147
0.196423
-0.000627857
0.196868
-0.000868656
0.197471
-0.00119746
0.198289
-0.00164774
0.199399
-0.00226688
0.20091
-0.0031227
0.202976
-0.00431369
0.205813
-0.00598525
0.209733
-0.00835592
0.215198
-0.0117611
0.222904
-0.0167259
0.23395
-0.0240963
0.25023
-0.0352383
0.275066
-0.0524307
0.314899
-0.078857
0.379173
-0.116467
-0.172853
0.476353
0.187495
1.21797e-05
0.187483
3.52662e-05
0.187464
5.20384e-05
0.187443
6.16603e-05
0.187421
6.68452e-05
0.187399
6.94753e-05
0.187377
6.99363e-05
0.187356
6.85856e-05
0.187337
6.61269e-05
0.187319
6.31353e-05
0.187303
5.98859e-05
0.187289
5.65001e-05
0.187276
5.3035e-05
0.187264
4.946e-05
0.187254
4.56558e-05
0.187246
4.14415e-05
0.18724
3.65842e-05
0.187236
3.07591e-05
0.187235
2.35066e-05
0.187237
1.41913e-05
0.187243
1.97202e-06
0.187255
-1.42625e-05
0.187273
-3.59874e-05
0.1873
-6.519e-05
0.187338
-0.000104552
0.187392
-0.000157701
0.187466
-0.000229533
0.187567
-0.000326669
0.187704
-0.000458072
0.187889
-0.000635926
0.188138
-0.000876843
0.188473
-0.00120359
0.188924
-0.00164751
0.189528
-0.00225209
0.190339
-0.00307806
0.191428
-0.00421114
0.192888
-0.00577366
0.194846
-0.00794261
0.197468
-0.0109784
0.200978
-0.0152706
0.205673
-0.0214211
0.211947
-0.0303697
0.220462
-0.0437532
0.232268
-0.064237
0.252077
-0.0986651
0.294379
-0.15877
-0.281048
0.402573
0.175494
1.82976e-05
0.175477
5.21432e-05
0.175455
7.46832e-05
0.17543
8.57878e-05
0.175406
9.08709e-05
0.175383
9.28372e-05
0.175361
9.19847e-05
0.175341
8.88418e-05
0.175323
8.44742e-05
0.175306
7.96429e-05
0.175292
7.4637e-05
0.175279
6.95753e-05
0.175267
6.45068e-05
0.175257
5.93872e-05
0.175249
5.40554e-05
0.175242
4.82957e-05
0.175237
4.18208e-05
0.175234
3.42516e-05
0.175232
2.5038e-05
0.175233
1.34477e-05
0.175237
-1.50307e-06
0.175244
-2.10876e-05
0.175255
-4.70168e-05
0.175271
-8.15668e-05
0.175295
-0.000127827
0.175327
-0.000189936
0.175371
-0.00027349
0.175431
-0.000386
0.17551
-0.000537615
0.175617
-0.000742024
0.175758
-0.00101779
0.175944
-0.00139011
0.17619
-0.0018933
0.176513
-0.00257428
0.176932
-0.00349751
0.177473
-0.00475198
0.178161
-0.00646138
0.179017
-0.00879879
0.180048
-0.0120087
0.181216
-0.0164383
0.182385
-0.0225898
0.183193
-0.0311777
0.182736
-0.0432964
0.178816
-0.0603165
0.165258
-0.0851069
0.126177
-0.119688
-0.15487
0.159491
2.75362e-05
0.159467
7.59938e-05
0.159438
0.000103705
0.15941
0.000114014
0.159384
0.00011722
0.159359
0.000117068
0.159338
0.000113489
0.15932
0.00010737
0.159304
0.000100252
0.159291
9.29982e-05
0.159279
8.58471e-05
0.15927
7.8876e-05
0.159263
7.21218e-05
0.159257
6.55021e-05
0.159252
5.88282e-05
0.159248
5.18462e-05
0.159246
4.42508e-05
0.159245
3.56249e-05
0.159245
2.53994e-05
0.159245
1.28031e-05
0.159247
-3.16252e-06
0.15925
-2.38116e-05
0.159254
-5.08743e-05
0.159259
-8.66775e-05
0.159266
-0.000134335
0.159274
-0.000198038
0.159284
-0.000283396
0.159296
-0.000397936
0.15931
-0.000551743
0.159327
-0.00075836
0.159345
-0.00103596
0.159364
-0.00140896
0.159381
-0.00191016
0.159391
-0.00258363
0.159382
-0.00348856
0.159335
-0.0047044
0.159211
-0.00633762
0.158943
-0.00853052
0.158407
-0.0114723
0.15738
-0.0154114
0.155461
-0.0206704
0.15193
-0.0276468
0.145462
-0.0368286
0.133789
-0.0486428
0.112341
-0.0636582
0.0729999
-0.0803468
-0.0818702
0.139484
4.31511e-05
0.139448
0.000112325
0.13941
0.000141731
0.139378
0.000146436
0.139351
0.000144491
0.139328
0.000139392
0.139311
0.000130566
0.139299
0.000119654
0.139291
0.000108659
0.139286
9.83398e-05
0.139283
8.87599e-05
0.139282
7.98824e-05
0.139282
7.16732e-05
0.139284
6.3959e-05
0.139286
5.65049e-05
0.139289
4.90087e-05
0.139293
4.11623e-05
0.139296
3.25315e-05
0.139299
2.25844e-05
0.139301
1.05821e-05
0.139302
-4.37491e-06
0.139302
-2.3502e-05
0.1393
-4.83455e-05
0.139294
-8.10227e-05
0.139284
-0.000124306
0.139268
-0.000181962
0.139244
-0.000258955
0.139208
-0.000361966
0.139157
-0.000499836
0.139083
-0.000684399
0.138978
-0.000931318
0.138831
-0.00126143
0.138623
-0.00170221
0.13833
-0.00228985
0.137913
-0.00307159
0.137317
-0.00410867
0.136459
-0.00547935
0.135211
-0.00728188
0.133375
-0.00963605
0.130644
-0.012681
0.12654
-0.016566
0.120315
-0.0214213
0.1108
-0.0273131
0.0962644
-0.0341073
0.0740223
-0.0414154
0.0409199
-0.0472436
-0.0409501
0.115471
7.24336e-05
0.115415
0.000168515
0.115369
0.000187741
0.115338
0.000177032
0.115319
0.000163698
0.11531
0.000148896
0.115308
0.000131828
0.115313
0.000114997
0.115322
0.000100189
0.115333
8.754e-05
0.115345
7.66199e-05
0.115358
6.71491e-05
0.115371
5.88494e-05
0.115383
5.14433e-05
0.115395
4.45714e-05
0.115406
3.79497e-05
0.115416
3.12235e-05
0.115425
2.40535e-05
0.115432
1.59331e-05
0.115436
6.31736e-06
0.115437
-5.56892e-06
0.115435
-2.06183e-05
0.115427
-4.01005e-05
0.115411
-6.55907e-05
0.115386
-9.92977e-05
0.115349
-0.000144045
0.115294
-0.000203701
0.115215
-0.000283271
0.115105
-0.000389501
0.114952
-0.000531168
0.114741
-0.000719932
0.11445
-0.000970893
0.114052
-0.00130376
0.113506
-0.00174365
0.112757
-0.00232245
0.111728
-0.00307945
0.110311
-0.00406197
0.108353
-0.00532413
0.105641
-0.0069234
0.101872
-0.00891188
0.0966262
-0.01132
0.0893312
-0.0141261
0.0792328
-0.0172144
0.0654283
-0.0203025
0.0469111
-0.0228975
0.0232626
-0.0235941
-0.0176873
0.0874391
0.000133377
0.0873698
0.000237882
0.0873404
0.000217255
0.0873393
0.000178148
0.0873546
0.000148513
0.0873804
0.000123185
0.0874119
0.000100475
0.0874449
8.19922e-05
0.0874774
6.78606e-05
0.0875081
5.69371e-05
0.0875365
4.82316e-05
0.0875626
4.11357e-05
0.0875863
3.52532e-05
0.0876077
3.02005e-05
0.0876267
2.56828e-05
0.0876433
2.14198e-05
0.0876574
1.7196e-05
0.0876688
1.27276e-05
0.0876772
7.731e-06
0.0876818
1.80793e-06
0.0876818
-5.47027e-06
0.087676
-1.47075e-05
0.0876627
-2.66228e-05
0.0876395
-4.22355e-05
0.0876032
-6.28276e-05
0.0875495
-9.01704e-05
0.0874725
-0.000126529
0.0873644
-0.000174963
0.0872145
-0.00023941
0.0870086
-0.00032509
0.0867276
-0.000438688
0.0863458
-0.000588868
0.0858288
-0.000786504
0.0851306
-0.00104518
0.0841896
-0.00138123
0.082924
-0.0018137
0.0812256
-0.00236333
0.0789521
-0.00305055
0.0759201
-0.00389112
0.0718973
-0.00488884
0.0666014
-0.00602391
0.0597116
-0.00723595
0.050903
-0.00840554
0.0399329
-0.00933194
0.0267565
-0.00972013
0.0120595
-0.00889597
-0.00562771
0.0554043
0.00022914
0.0554095
0.000232734
0.0554739
0.00015292
0.0555496
0.000102546
0.0556233
7.48971e-05
0.0556911
5.54096e-05
0.0557508
4.08544e-05
0.055802
3.08912e-05
0.0558457
2.42765e-05
0.0558831
1.96407e-05
0.0559152
1.6177e-05
0.0559429
1.34964e-05
0.0559669
1.13565e-05
0.0559876
9.56743e-06
0.0560054
7.98587e-06
0.0560204
6.50805e-06
0.0560326
5.04252e-06
0.056042
3.49045e-06
0.0560481
1.73397e-06
0.0560504
-3.64914e-07
0.056048
-2.97031e-06
0.0560397
-6.28601e-06
0.0560238
-1.05812e-05
0.0559979
-1.62119e-05
0.0559588
-2.36505e-05
0.0559024
-3.35195e-05
0.0558226
-4.66359e-05
0.0557119
-6.4066e-05
0.0555599
-8.71946e-05
0.0553529
-0.000117805
0.0550725
-0.000158167
0.054695
-0.000211122
0.0541889
-0.000280143
0.0535133
-0.000369343
0.0526156
-0.000483352
0.0514291
-0.000627
0.0498705
-0.000804646
0.0478392
-0.001019
0.0452175
-0.00126927
0.0418773
-0.00154842
0.0376934
-0.00183976
0.0325707
-0.00211292
0.0264868
-0.00232131
0.0195555
-0.00240011
0.0120968
-0.00226051
0.00489592
-0.00169409
-0.000731666
0.0197292
0.0199619
0.0201148
0.0202174
0.0202923
0.0203477
0.0203886
0.0204195
0.0204438
0.0204634
0.0204796
0.0204931
0.0205045
0.0205141
0.0205221
0.0205286
0.0205337
0.0205372
0.0205389
0.0205386
0.0205357
0.0205294
0.0205188
0.0205026
0.020479
0.0204455
0.0203989
0.0203349
0.0202477
0.02013
0.0199718
0.0197608
0.0194807
0.0191113
0.018628
0.0180011
0.0171964
0.0161775
0.0149082
0.0133599
0.0115201
0.00940726
0.00708601
0.00468599
0.00242563
0.000731666
0.285482
0.107312
0.233596
0.0518861
0.204493
0.0291017
0.187359
0.0171341
0.176812
0.0105448
0.00619984
0.170612
0.509066
0.0679778
0.5189
0.0420523
0.517326
0.0306756
0.50933
0.0251288
0.498197
0.0216789
0.0208699
0.483527
0.52737
0.00412724
0.562786
0.00663641
0.583861
0.00960043
0.596023
0.0129663
0.60068
0.0170222
0.0220848
0.599466
0.529315
-0.0600361
0.564903
-0.0289516
0.58673
-0.0122272
0.600828
-0.00113192
0.608797
0.00905414
0.0187581
0.612125
0.518615
-0.102298
0.533685
-0.0440218
0.540712
-0.0192548
0.54388
-0.00430013
0.546064
0.00687164
0.0177837
0.547039
0.300275
0.256253
0.236998
0.232698
0.23957
0.257354
-0.000668919
0.000668259
-0.0021715
0.00150124
-0.00389967
0.00172753
-0.00553787
0.00163835
-0.00700434
0.00146728
-0.00829131
0.00128818
-0.00940888
0.001119
-0.0103701
0.000962737
-0.0111875
0.000819001
-0.0118728
0.00068676
-0.0124362
0.000564787
-0.0128866
0.000451795
-0.0132321
0.000346727
-0.01348
0.000249013
-0.0136377
0.000158669
-0.013713
7.62082e-05
-0.0137149
2.71351e-06
-0.0136541
-6.01471e-05
-0.0135424
-0.00011115
-0.0133925
-0.000149544
-0.0132171
-0.000175135
-0.0130288
-0.000188272
-0.0128393
-0.000189764
-0.012659
-0.000180665
-0.0124974
-0.000162234
-0.0123623
-0.000135767
-0.0122605
-0.000102583
-0.0121974
-6.38348e-05
-0.0121777
-2.06194e-05
-0.0122046
2.61298e-05
-0.0122808
7.54304e-05
-0.0124079
0.000126356
-0.0125863
0.000177759
-0.0128154
0.000228505
-0.0130932
0.000277152
-0.0134155
0.000321646
-0.0137748
0.000358761
-0.0141601
0.000384717
-0.0145577
0.000397128
-0.0149536
0.000395121
-0.0153302
0.000376143
-0.0156636
0.000332112
-0.0159278
0.00025958
-0.0161071
0.000171207
-0.0162006
8.59963e-05
-0.0162748
6.48992e-05
0.000108866
-0.00234431
0.00301095
-0.00636839
0.00552157
-0.0106142
0.00597205
-0.0145366
0.0055617
-0.017994
0.00492704
-0.0209834
0.00428094
-0.0235408
0.00368019
-0.0257085
0.00313431
-0.0275258
0.00264027
-0.0290278
0.00219248
-0.0302447
0.00178521
-0.031203
0.00141336
-0.0319266
0.00107326
-0.0324377
0.000762766
-0.0327584
0.000481804
-0.0329119
0.000231619
-0.0329224
1.49605e-05
-0.0328163
-0.000165006
-0.0326205
-0.00030582
-0.0323632
-0.000406246
-0.0320716
-0.000466558
-0.0317716
-0.000488582
-0.0314871
-0.000475173
-0.0312391
-0.000429936
-0.031046
-0.000356909
-0.0309233
-0.000260326
-0.0308836
-0.000144347
-0.0309367
-1.28871e-05
-0.0310899
0.000130464
-0.0313483
0.000282377
-0.0317144
0.000439588
-0.0321883
0.000598428
-0.0327668
0.000754807
-0.0334436
0.000903867
-0.0342079
0.00103998
-0.0350437
0.00115594
-0.0359292
0.00124293
-0.0368372
0.00129151
-0.0377361
0.00129438
-0.0385898
0.00124706
-0.0393614
0.00114512
-0.0400205
0.000986133
-0.0405503
0.000778972
-0.0409453
0.000548674
-0.0412201
0.000340864
-0.0414112
0.00024819
0.000292847
-0.00400147
0.00701012
-0.0100302
0.0115471
-0.0159008
0.0118418
-0.0210995
0.0107614
-0.0255799
0.00940985
-0.0294062
0.00811049
-0.0326632
0.00694081
-0.0354284
0.0059033
-0.0377654
0.00498102
-0.0397246
0.00415518
-0.0413458
0.00340958
-0.0426611
0.00273169
-0.0436981
0.00211277
-0.0444814
0.00154856
-0.045036
0.00103829
-0.0453875
0.000584892
-0.0455644
0.000193164
-0.0455971
-0.000131212
-0.045518
-0.000384254
-0.0453604
-0.000563429
-0.045158
-0.00066901
-0.0449431
-0.000703972
-0.0447459
-0.000673397
-0.0445933
-0.000583793
-0.0445092
-0.000442615
-0.0445133
-0.000257916
-0.0446219
-3.76488e-05
-0.044847
0.000210287
-0.0451972
0.000478777
-0.0456778
0.000761192
-0.0462907
0.00105078
-0.0470336
0.00133998
-0.0479004
0.00162036
-0.0488798
0.00188211
-0.0499549
0.00211392
-0.0511027
0.00230255
-0.0522942
0.00243322
-0.0534949
0.00249099
-0.0546662
0.00246399
-0.055766
0.00234468
-0.0567549
0.00213144
-0.0576054
0.00183147
-0.0583052
0.00146779
-0.0588512
0.00108232
-0.0592576
0.000738547
-0.0595466
0.000530597
0.00057163
-0.00538576
0.012394
-0.0124447
0.0186023
-0.0186052
0.0180013
-0.0237713
0.0159287
-0.0281432
0.0137842
-0.0318828
0.0118533
-0.0351171
0.0101788
-0.0379416
0.00873155
-0.0404215
0.00746467
-0.0426001
0.00633736
-0.044506
0.00531877
-0.0461584
0.00438713
-0.0475714
0.00352859
-0.048757
0.00273661
-0.0497274
0.00201082
-0.0504972
0.0013565
-0.0510857
0.000783135
-0.051517
0.000301104
-0.0518187
-8.18297e-05
-0.0520209
-0.000360955
-0.0521555
-0.000534625
-0.0522552
-0.000605007
-0.0523517
-0.000577994
-0.0524746
-0.000462222
-0.0526503
-0.000268408
-0.052901
-8.81749e-06
-0.0532445
0.000304045
-0.0536935
0.000657649
-0.0542571
0.00104071
-0.0549402
0.00144275
-0.0557433
0.00185242
-0.0566627
0.00225831
-0.0576904
0.00264703
-0.0588133
0.00300424
-0.0600132
0.0033128
-0.0612663
0.00355471
-0.0625443
0.0037101
-0.0638148
0.00376064
-0.0650427
0.00369024
-0.0661901
0.00349025
-0.0672228
0.00316132
-0.0681153
0.00271925
-0.068851
0.00219551
-0.0694187
0.00164112
-0.069818
0.00112797
-0.0700584
0.000771543
0.000790674
-0.00619839
0.0185902
-0.0122457
0.0246465
-0.0164187
0.0221735
-0.0197066
0.0192179
-0.0226119
0.0166922
-0.025298
0.0145428
-0.0278529
0.0127377
-0.0303316
0.0112143
-0.0327542
0.00989132
-0.0351176
0.00870458
-0.037407
0.00761175
-0.039602
0.00658522
-0.0416797
0.00560934
-0.0436182
0.00467765
-0.0453974
0.00379232
-0.0470022
0.00296296
-0.0484254
0.0022078
-0.0496698
0.00154637
-0.0507462
0.000995173
-0.051673
0.000566028
-0.0524739
0.00026609
-0.053176
9.66176e-05
-0.0538085
5.37546e-05
-0.054402
0.000130378
-0.0549862
0.000314687
-0.0555862
0.000590014
-0.0562225
0.000939188
-0.0569112
0.00134488
-0.057663
0.0017913
-0.0584844
0.00226257
-0.0593765
0.00274362
-0.0603379
0.00321835
-0.0613619
0.00367041
-0.0624396
0.0040808
-0.0635571
0.00442952
-0.064698
0.00469421
-0.0658421
0.00485322
-0.0669683
0.00488504
-0.0680517
0.00477194
-0.0690664
0.00450219
-0.069985
0.00407713
-0.0707838
0.00351315
-0.0714404
0.00284532
-0.0719392
0.00213051
-0.0722629
0.00145271
-0.0724212
0.000931809
0.000926017
-0.00471547
0.0233029
-0.00458562
0.0245133
-0.00304307
0.0206308
-0.00226934
0.0184459
-0.00245282
0.0168786
-0.00339735
0.015491
-0.00497522
0.0143196
-0.00709107
0.0133344
-0.0096464
0.0124507
-0.0125416
0.0116038
-0.0156826
0.0107563
-0.018981
0.00988716
-0.0223546
0.00898607
-0.0257266
0.00805269
-0.0290266
0.00709466
-0.0321897
0.00612827
-0.0351639
0.00518355
-0.0379123
0.00429607
-0.0404128
0.00349661
-0.0426569
0.00281058
-0.0446497
0.0022591
-0.0464082
0.0018548
-0.0479575
0.00160257
-0.0493297
0.00150177
-0.0505596
0.00154366
-0.0516802
0.00170954
-0.0527201
0.0019778
-0.0537026
0.00232603
-0.0546455
0.00273282
-0.0555613
0.00317713
-0.0564583
0.0036393
-0.0573405
0.00409968
-0.05821
0.00453894
-0.0590658
0.00493592
-0.059906
0.00526874
-0.0607266
0.00551375
-0.0615232
0.00564846
-0.0622904
0.00565055
-0.0630219
0.00550114
-0.0637081
0.00518568
-0.0643361
0.00470214
-0.0648888
0.00406171
-0.0653462
0.00329742
-0.065688
0.00246913
-0.0659009
0.00166375
-0.0659701
0.00100357
0.000961088
0.0190054
0.00429572
0.0332693
0.0102491
0.0415476
0.0123535
0.0462112
0.013784
0.0481832
0.014909
0.048051
0.0156258
0.0462974
0.0160761
0.0432741
0.0163608
0.0392463
0.0164816
0.0344362
0.0164169
0.0290402
0.0161555
0.0232353
0.0156951
0.0171836
0.0150411
0.0110321
0.0142074
0.00491254
0.0132174
-0.0010628
0.0121066
-0.00680002
0.0109234
-0.0122129
0.00971137
-0.0172276
0.00851337
-0.0217942
0.00737884
-0.0258874
0.00635327
-0.0295038
0.00547158
-0.0326577
0.00475633
-0.0353828
0.0042265
-0.0377272
0.00388705
-0.0397383
0.00371979
-0.0414609
0.00369898
-0.0429344
0.00379866
-0.0441941
0.00399092
-0.0452674
0.00424976
-0.0461783
0.00454886
-0.0469443
0.00486543
-0.0475821
0.00517575
-0.0481046
0.00545839
-0.0485261
0.0056892
-0.0488591
0.00584631
-0.0491186
0.00590605
-0.0493182
0.00584878
-0.0494745
0.00565414
-0.0495996
0.00530852
-0.049705
0.00480344
-0.0497918
0.00414679
-0.0498596
0.00335922
-0.0498966
0.00249703
-0.0498916
0.00165223
-0.04983
0.000932664
0.000769261
0.169381
0.0055278
0.17048
0.009151
0.170215
0.0126198
0.168223
0.0157773
0.164418
0.0187151
0.158782
0.0212635
0.151524
0.0233363
0.142929
0.0249575
0.133261
0.0261513
0.122762
0.026918
0.111661
0.0272583
0.100176
0.0271827
0.088508
0.0267109
0.0768474
0.0258703
0.0653696
0.0246975
0.0542386
0.0232399
0.0436098
0.0215549
0.0336171
0.0197067
0.0243655
0.0177676
0.0159303
0.0158164
0.00835296
0.0139326
0.00163528
0.0121905
-0.00425141
0.0106438
-0.00934023
0.0093153
-0.0136696
0.00821627
-0.0172988
0.00734794
-0.0202965
0.00669598
-0.0227339
0.00623431
-0.0246759
0.00593183
-0.0261822
0.00575422
-0.0273032
0.00566896
-0.0280843
0.00564479
-0.0285635
0.00565441
-0.0287777
0.00567108
-0.0287598
0.00567067
-0.0285446
0.00562892
-0.0281648
0.00552455
-0.0276567
0.00533699
-0.0270552
0.00504951
-0.0263986
0.00464698
-0.0257204
0.00412277
-0.025056
0.00347793
-0.0244351
0.00273046
-0.0238786
0.00192482
-0.0233893
0.00113663
-0.022983
0.000503695
8.27409e-05
0.46603
0.023026
0.447937
0.0272452
0.428916
0.0316412
0.409043
0.0356516
0.388415
0.0393438
0.36705
0.0426295
0.345019
0.0453687
0.322461
0.0475164
0.299545
0.0490684
0.276453
0.0500112
0.25338
0.0503324
0.230529
0.0500352
0.208102
0.0491391
0.186297
0.0476772
0.165299
0.0456967
0.145282
0.0432591
0.126398
0.0404404
0.108778
0.0373286
0.0925248
0.034023
0.0777121
0.0306309
0.0643852
0.027261
0.0525611
0.0240159
0.0422241
0.0209816
0.033318
0.0182218
0.0257554
0.0157788
0.0194307
0.013672
0.0142285
0.0118969
0.0100317
0.0104295
0.00672873
0.00923274
0.00421779
0.00826315
0.00240845
0.00747616
0.00122142
0.00683008
0.000586466
0.00628762
0.000440223
0.00581589
0.000723041
0.00538605
0.00137734
0.00497267
0.00234525
0.00455378
0.00356796
0.00411085
0.00498503
0.00362811
0.00653681
0.00309156
0.00816443
0.00249261
0.00980805
0.00183217
0.0114064
0.00112322
0.0129043
0.000403446
0.0142927
-0.000282062
0.015551
-0.000779016
-0.00149918
0.594215
0.0282792
0.58646
0.0350015
0.576594
0.0415074
0.56453
0.0477175
0.550223
0.0536509
0.533681
0.059172
0.514912
0.0641391