/*--------------------------------*- C++ -*----------------------------------*\
| =========                 |                                                 |
| \\      /  F ield         | OpenFOAM: The Open Source CFD Toolbox           |
|  \\    /   O peration     | Version:  2406                                  |
|   \\  /    A nd           | Website:  www.openfoam.com                      |
|    \\/     M anipulation  |                                                 |
\*---------------------------------------------------------------------------*/
FoamFile
{
    version     2.0;
    format      ascii;
    arch        "LSB;label=32;scalar=64";
    class       volVectorField;
    location    "83";
    object      U;
}
// * * * * * * * * * * * * * * * * * * * * * * * * * * * * * * * * * * * * * //

dimensions      [0 1 -1 0 0 0 0];

internalField   nonuniform List<vector> 
1916
(
(0.195111 -0.00118815 0)
(0.198341 -0.00113267 0)
(0.200528 -0.00059852 0)
(0.201742 -0.000329976 0)
(0.202569 -0.000218065 0)
(0.203204 -0.000143653 0)
(0.203676 -9.10534e-05 0)
(0.204022 -6.08557e-05 0)
(0.204283 -4.44315e-05 0)
(0.20449 -3.39182e-05 0)
(0.204655 -2.6203e-05 0)
(0.20479 -2.03447e-05 0)
(0.204899 -1.56639e-05 0)
(0.204988 -1.16065e-05 0)
(0.205059 -7.84853e-06 0)
(0.205113 -4.17496e-06 0)
(0.20515 -3.03367e-07 0)
(0.205171 4.10157e-06 0)
(0.205174 9.39011e-06 0)
(0.205155 1.59037e-05 0)
(0.20511 2.40799e-05 0)
(0.205033 3.45247e-05 0)
(0.204916 4.80914e-05 0)
(0.204746 6.58895e-05 0)
(0.204508 8.93579e-05 0)
(0.204181 0.000120328 0)
(0.203737 0.000161177 0)
(0.203138 0.000214975 0)
(0.202335 0.000285681 0)
(0.201262 0.000378295 0)
(0.199834 0.000499019 0)
(0.197943 0.000655281 0)
(0.195446 0.00085563 0)
(0.192166 0.00110926 0)
(0.18788 0.001425 0)
(0.182322 0.00180942 0)
(0.175176 0.00226374 0)
(0.166092 0.00277913 0)
(0.154706 0.00333063 0)
(0.140691 0.00387006 0)
(0.12383 0.00432024 0)
(0.10413 0.00457165 0)
(0.0819649 0.00449068 0)
(0.0582351 0.00393675 0)
(0.0346484 0.00278768 0)
(0.0146997 0.000528229 0)
(0.000333041 -0.000828257 0)
(0.552615 -0.00187807 0)
(0.553396 -0.00291204 0)
(0.554536 -0.00236335 0)
(0.555183 -0.00170863 0)
(0.555824 -0.00128002 0)
(0.556531 -0.000973849 0)
(0.557179 -0.0007344 0)
(0.55772 -0.000558792 0)
(0.558171 -0.000436482 0)
(0.558553 -0.000348859 0)
(0.558875 -0.000282397 0)
(0.559147 -0.000229997 0)
(0.559376 -0.000187317 0)
(0.559567 -0.000150945 0)
(0.559724 -0.000118218 0)
(0.559849 -8.71312e-05 0)
(0.559943 -5.59059e-05 0)
(0.560005 -2.26408e-05 0)
(0.560032 1.48775e-05 0)
(0.56002 5.92165e-05 0)
(0.55996 0.000113491 0)
(0.559842 0.000181622 0)
(0.559651 0.000268741 0)
(0.559366 0.000381598 0)
(0.558959 0.000529122 0)
(0.558393 0.000723048 0)
(0.557618 0.000978796 0)
(0.556566 0.00131653 0)
(0.555149 0.00176253 0)
(0.553246 0.0023508 0)
(0.5507 0.00312487 0)
(0.547305 0.00413971 0)
(0.542788 0.00546337 0)
(0.536793 0.00717784 0)
(0.528863 0.00937806 0)
(0.518411 0.0121674 0)
(0.5047 0.0156471 0)
(0.486823 0.0198958 0)
(0.463703 0.0249352 0)
(0.434116 0.0306753 0)
(0.396784 0.0368411 0)
(0.350567 0.0428792 0)
(0.294785 0.0478859 0)
(0.229724 0.0505441 0)
(0.157217 0.0491112 0)
(0.0838496 0.0401889 0)
(0.0135539 0.0221578 0)
(0.873132 -0.00102155 0)
(0.873421 -0.00203234 0)
(0.873714 -0.0021066 0)
(0.873467 -0.00188951 0)
(0.873379 -0.00167206 0)
(0.873584 -0.00145595 0)
(0.873897 -0.00123308 0)
(0.874215 -0.00102928 0)
(0.874521 -0.0008597 0)
(0.874813 -0.000721042 0)
(0.875083 -0.000605665 0)
(0.875326 -0.000508208 0)
(0.875541 -0.000424602 0)
(0.875728 -0.000350807 0)
(0.875888 -0.000283017 0)
(0.87602 -0.000217928 0)
(0.876123 -0.000152405 0)
(0.876195 -8.29368e-05 0)
(0.876233 -5.30632e-06 0)
(0.876231 8.55625e-05 0)
(0.876181 0.000195863 0)
(0.876073 0.000333404 0)
(0.87589 0.000508351 0)
(0.875613 0.000734139 0)
(0.875213 0.00102858 0)
(0.874652 0.00141524 0)
(0.873879 0.00192522 0)
(0.872826 0.00259951 0)
(0.871401 0.00349203 0)
(0.869481 0.00467346 0)
(0.866901 0.00623591 0)
(0.863439 0.00829844 0)
(0.858802 0.0110132 0)
(0.852593 0.0145719 0)
(0.844286 0.0192105 0)
(0.83318 0.0252113 0)
(0.818344 0.0328969 0)
(0.798555 0.0426084 0)
(0.772219 0.0546585 0)
(0.737298 0.0692391 0)
(0.691259 0.0862662 0)
(0.631107 0.105132 0)
(0.553561 0.124407 0)
(0.45566 0.141443 0)
(0.335232 0.152198 0)
(0.197261 0.147035 0)
(0.040446 0.102447 0)
(1.1535 -0.000541054 0)
(1.15385 -0.00130924 0)
(1.15411 -0.00159007 0)
(1.15365 -0.00160319 0)
(1.15321 -0.00154677 0)
(1.15305 -0.00145512 0)
(1.15302 -0.00132606 0)
(1.15303 -0.00118063 0)
(1.15308 -0.00104013 0)
(1.15315 -0.000911482 0)
(1.15324 -0.00079418 0)
(1.15334 -0.0006871 0)
(1.15344 -0.000588987 0)
(1.15353 -0.000497531 0)
(1.15361 -0.000409672 0)
(1.15368 -0.000322208 0)
(1.15373 -0.000231696 0)
(1.15377 -0.000133903 0)
(1.15379 -2.33595e-05 0)
(1.15377 0.000106872 0)
(1.15373 0.000265498 0)
(1.15364 0.00046362 0)
(1.15349 0.000715739 0)
(1.15328 0.00104109 0)
(1.15297 0.0014653 0)
(1.15254 0.00202246 0)
(1.15195 0.00275781 0)
(1.15114 0.00373138 0)
(1.15005 0.00502272 0)
(1.14858 0.0067371 0)
(1.14659 0.0090135 0)
(1.14391 0.0120346 0)
(1.14029 0.0160393 0)
(1.1354 0.0213372 0)
(1.12877 0.028326 0)
(1.11975 0.0375082 0)
(1.10744 0.0495061 0)
(1.09058 0.0650655 0)
(1.0674 0.0850361 0)
(1.03539 0.1103 0)
(0.99107 0.141615 0)
(0.929639 0.179272 0)
(0.844592 0.222595 0)
(0.727935 0.26889 0)
(0.569245 0.312897 0)
(0.364929 0.336967 0)
(0.0895827 0.27367 0)
(1.39371 -0.000331605 0)
(1.39411 -0.000882562 0)
(1.39447 -0.00116841 0)
(1.39408 -0.00125438 0)
(1.3936 -0.00126434 0)
(1.39331 -0.00123774 0)
(1.39314 -0.00117422 0)
(1.39299 -0.00108509 0)
(1.39286 -0.000987327 0)
(1.39277 -0.000889765 0)
(1.39271 -0.000794469 0)
(1.39267 -0.000701961 0)
(1.39263 -0.000612295 0)
(1.39261 -0.000524304 0)
(1.39259 -0.000435711 0)
(1.39258 -0.000343711 0)
(1.39256 -0.000244998 0)
(1.39254 -0.000135218 0)
(1.39252 -8.43105e-06 0)
(1.39248 0.000143228 0)
(1.39243 0.000329887 0)
(1.39236 0.000564623 0)
(1.39226 0.000864613 0)
(1.39212 0.00125273 0)
(1.39194 0.00175959 0)
(1.3917 0.00242612 0)
(1.39138 0.00330693 0)
(1.39094 0.00447492 0)
(1.39036 0.00602732 0)
(1.38957 0.00809394 0)
(1.38851 0.010848 0)
(1.38706 0.0145204 0)
(1.38509 0.0194188 0)
(1.38238 0.0259515 0)
(1.37862 0.0346596 0)
(1.37336 0.0462561 0)
(1.36593 0.0616743 0)
(1.35531 0.0821233 0)
(1.33993 0.109145 0)
(1.3174 0.144648 0)
(1.28397 0.190906 0)
(1.23388 0.250353 0)
(1.15796 0.325277 0)
(1.04305 0.416282 0)
(0.866753 0.522386 0)
(0.60875 0.624751 0)
(0.180774 0.598983 0)
(1.59385 -0.000216528 0)
(1.59425 -0.000600976 0)
(1.59468 -0.000838617 0)
(1.59439 -0.000941284 0)
(1.59394 -0.000978023 0)
(1.59364 -0.000980441 0)
(1.59343 -0.00095103 0)
(1.59324 -0.000896469 0)
(1.59305 -0.000829051 0)
(1.59288 -0.000756883 0)
(1.59274 -0.000682817 0)
(1.59261 -0.000607851 0)
(1.5925 -0.000532333 0)
(1.59241 -0.00045548 0)
(1.59232 -0.000375363 0)
(1.59225 -0.00028939 0)
(1.59218 -0.000194383 0)
(1.59211 -8.60802e-05 0)
(1.59205 4.14499e-05 0)
(1.592 0.000196217 0)
(1.59195 0.00038869 0)
(1.59191 0.000632488 0)
(1.59187 0.000945548 0)
(1.59183 0.00135181 0)
(1.5918 0.0018834 0)
(1.59177 0.00258344 0)
(1.59175 0.00350975 0)
(1.59173 0.00473985 0)
(1.59173 0.0063778 0)
(1.59172 0.00856352 0)
(1.59173 0.0114855 0)
(1.59172 0.015398 0)
(1.59169 0.0206451 0)
(1.5916 0.0276925 0)
(1.59135 0.037173 0)
(1.5908 0.0499481 0)
(1.58967 0.067194 0)
(1.58746 0.0905205 0)
(1.58326 0.122136 0)
(1.57545 0.165066 0)
(1.56112 0.223471 0)
(1.53521 0.302903 0)
(1.48806 0.411053 0)
(1.40473 0.556224 0)
(1.25188 0.752583 0)
(0.996054 0.985585 0)
(0.370183 1.12203 0)
(1.75394 -0.000142689 0)
(1.75434 -0.000405024 0)
(1.7548 -0.000584859 0)
(1.75458 -0.000677791 0)
(1.75418 -0.000719693 0)
(1.75389 -0.000732043 0)
(1.75368 -0.000718624 0)
(1.75347 -0.000683978 0)
(1.75326 -0.000636514 0)
(1.75307 -0.000582655 0)
(1.7529 -0.00052523 0)
(1.75274 -0.000465382 0)
(1.7526 -0.000403524 0)
(1.75247 -0.000339066 0)
(1.75236 -0.000270376 0)
(1.75225 -0.000195147 0)
(1.75216 -0.00011049 0)
(1.75208 -1.25262e-05 0)
(1.75201 0.000104161 0)
(1.75196 0.000246947 0)
(1.75194 0.000425546 0)
(1.75193 0.00065264 0)
(1.75196 0.000944949 0)
(1.75203 0.0013248 0)
(1.75215 0.0018222 0)
(1.75234 0.00247752 0)
(1.75263 0.00334508 0)
(1.75303 0.004498 0)
(1.7536 0.00603494 0)
(1.75439 0.00808933 0)
(1.75547 0.0108424 0)
(1.75692 0.0145409 0)
(1.75887 0.0195231 0)
(1.76146 0.0262543 0)
(1.76488 0.0353794 0)
(1.76935 0.0477986 0)
(1.7751 0.0647812 0)
(1.78237 0.0881346 0)
(1.79132 0.120469 0)
(1.80184 0.165598 0)
(1.81316 0.229243 0)
(1.82347 0.319978 0)
(1.82625 0.452008 0)
(1.81435 0.646234 0)
(1.73744 0.953491 0)
(1.62915 1.46566 0)
(0.607228 2.16129 0)
(1.87399 -9.02015e-05 0)
(1.87438 -0.000259217 0)
(1.87486 -0.000381899 0)
(1.87469 -0.00045138 0)
(1.87432 -0.000485656 0)
(1.87405 -0.000497712 0)
(1.87385 -0.000490831 0)
(1.87364 -0.000468067 0)
(1.87343 -0.000434758 0)
(1.87323 -0.000395364 0)
(1.87305 -0.000352156 0)
(1.87288 -0.000306161 0)
(1.87273 -0.00025775 0)
(1.87259 -0.000206493 0)
(1.87246 -0.000151126 0)
(1.87235 -8.98127e-05 0)
(1.87226 -2.02173e-05 0)
(1.87218 6.07934e-05 0)
(1.87212 0.000157592 0)
(1.87209 0.00027615 0)
(1.8721 0.000424368 0)
(1.87214 0.000612577 0)
(1.87224 0.000854404 0)
(1.87242 0.00116804 0)
(1.87268 0.00157792 0)
(1.87307 0.00211701 0)
(1.87363 0.00282973 0)
(1.87442 0.00377605 0)
(1.8755 0.00503718 0)
(1.87699 0.00672351 0)
(1.87901 0.00898578 0)
(1.88176 0.012031 0)
(1.88548 0.0161454 0)
(1.89051 0.0217277 0)
(1.89728 0.0293388 0)
(1.90639 0.039776 0)
(1.91864 0.0541891 0)
(1.93511 0.0742599 0)
(1.9572 0.102495 0)
(1.98687 0.142701 0)
(2.02651 0.200824 0)
(2.08031 0.286311 0)
(2.15094 0.415211 0)
(2.26091 0.613954 0)
(2.38983 0.936651 0)
(2.82823 1.45344 0)
(3.02961 2.52242 0)
(1.95403 -4.88987e-05 0)
(1.95441 -0.000141309 0)
(1.95489 -0.000209899 0)
(1.95475 -0.000249805 0)
(1.9544 -0.00026938 0)
(1.95414 -0.000275313 0)
(1.95395 -0.0002696 0)
(1.95375 -0.000253994 0)
(1.95354 -0.000231427 0)
(1.95333 -0.000204464 0)
(1.95315 -0.000174518 0)
(1.95298 -0.000142252 0)
(1.95282 -0.000107885 0)
(1.95268 -7.11133e-05 0)
(1.95256 -3.10994e-05 0)
(1.95245 1.33776e-05 0)
(1.95236 6.38805e-05 0)
(1.95229 0.000122495 0)
(1.95225 0.000192112 0)
(1.95224 0.000276674 0)
(1.95228 0.000381397 0)
(1.95237 0.000513101 0)
(1.95253 0.000680769 0)
(1.95279 0.00089637 0)
(1.95317 0.00117598 0)
(1.95372 0.00154126 0)
(1.95449 0.00202143 0)
(1.95556 0.00265601 0)
(1.95703 0.00349861 0)
(1.95904 0.00462229 0)
(1.96179 0.00612724 0)
(1.96551 0.00815172 0)
(1.97057 0.0108881 0)
(1.97745 0.0146064 0)
(1.98678 0.0196904 0)
(1.9995 0.0266918 0)
(2.01686 0.0364166 0)
(2.04066 0.0500626 0)
(2.07345 0.0694398 0)
(2.11901 0.0973422 0)
(2.18279 0.138117 0)
(2.27395 0.198752 0)
(2.40463 0.289725 0)
(2.60638 0.4285 0)
(2.89611 0.634118 0)
(3.40831 0.909461 0)
(4.10484 1.36591 0)
(1.99404 -1.30738e-05 0)
(1.99442 -3.76397e-05 0)
(1.99491 -5.47697e-05 0)
(1.99478 -6.27761e-05 0)
(1.99444 -6.41279e-05 0)
(1.99419 -6.08126e-05 0)
(1.994 -5.34225e-05 0)
(1.9938 -4.24814e-05 0)
(1.99359 -2.88763e-05 0)
(1.99339 -1.3389e-05 1.20284e-33)
(1.99321 3.56434e-06 0)
(1.99304 2.18286e-05 0)
(1.99288 4.14126e-05 0)
(1.99274 6.25048e-05 0)
(1.99262 8.54776e-05 0)
(1.99252 0.00011085 1.1995e-33)
(1.99243 0.000139274 0)
(1.99238 0.000171599 0)
(1.99235 0.000208958 0)
(1.99236 0.000252859 0)
(1.99241 0.000305271 0)
(1.99253 0.00036874 0)
(1.99273 0.00044659 0)
(1.99304 0.000543208 -1.1939e-33)
(1.99349 0.000664438 0)
(1.99412 0.000818106 0)
(1.99502 0.00101472 0)
(1.99625 0.00126846 0)
(1.99794 0.00159851 0)
(2.00024 0.002031 0)
(2.00338 0.00260178 0)
(2.00764 0.00336037 0)
(2.01344 0.00437586 0)
(2.02132 0.00574557 0)
(2.03207 0.00760837 0)
(2.04677 0.0101652 0)
(2.06696 0.0137115 0)
(2.09486 0.0186893 0)
(2.13367 0.02577 0)
(2.18816 0.0359949 0)
(2.26539 0.0509556 0)
(2.37619 0.0731824 -9.61998e-34)
(2.53613 0.105855 0)
(2.76809 0.153934 0)
(3.10215 0.216037 0)
(3.55512 0.280848 0)
(4.19857 0.333759 0)
(1.99404 2.10333e-05 0)
(1.99442 6.14497e-05 0)
(1.99491 9.46826e-05 0)
(1.99478 0.000119032 0)
(1.99444 0.000136831 0)
(1.99419 0.000150242 0)
(1.994 0.000160046 0)
(1.9938 0.000166932 0)
(1.9936 0.000171959 0)
(1.9934 0.000176079 -1.2028e-33)
(1.99322 0.000179908 0)
(1.99305 0.00018384 0)
(1.9929 0.000188128 0)
(1.99276 0.000192842 0)
(1.99265 0.000197876 0)
(1.99255 0.000203015 -1.19945e-33)
(1.99247 0.000207954 0)
(1.99242 0.000212234 0)
(1.99239 0.000215133 0)
(1.99241 0.000215583 0)
(1.99247 0.000212104 0)
(1.9926 0.000202702 0)
(1.99281 0.000184677 0)
(1.99313 0.00015435 1.19401e-33)
(1.99359 0.000106673 0)
(1.99424 3.47337e-05 0)
(1.99514 -7.09208e-05 0)
(1.99639 -0.000223201 0)
(1.99809 -0.000439781 0)
(2.00042 -0.000744925 0)
(2.00358 -0.00117212 0)
(2.00787 -0.00176783 0)
(2.01369 -0.00259708 0)
(2.02161 -0.00375164 0)
(2.03241 -0.00536253 0)
(2.04716 -0.0076193 0)
(2.06742 -0.0108003 0)
(2.09541 -0.0153214 0)
(2.13434 -0.0218122 0)
(2.18902 -0.0312459 0)
(2.26654 -0.0450977 0)
(2.37779 -0.065698 9.62537e-34)
(2.5385 -0.095858 0)
(2.7717 -0.139856 0)
(3.10803 -0.195147 0)
(3.56359 -0.247574 0)
(4.21234 -0.280855 0)
(1.95403 5.66522e-05 0)
(1.95441 0.000164494 0)
(1.95489 0.000248767 0)
(1.95475 0.000304584 0)
(1.95441 0.000340159 0)
(1.95415 0.00036235 0)
(1.95396 0.00037334 0)
(1.95376 0.000375041 0)
(1.95356 0.000370555 0)
(1.95336 0.000362613 0)
(1.95319 0.000352824 0)
(1.95303 0.00034208 0)
(1.95288 0.000330854 0)
(1.95275 0.00031909 0)
(1.95263 0.000306216 0)
(1.95254 0.000291303 0)
(1.95246 0.00027313 0)
(1.95241 0.000249982 0)
(1.95239 0.000219368 0)
(1.9524 0.000177768 0)
(1.95246 0.000120443 0)
(1.95257 4.11009e-05 0)
(1.95276 -6.86387e-05 0)
(1.95305 -0.000220077 0)
(1.95346 -0.000428529 0)
(1.95405 -0.000714797 0)
(1.95486 -0.00110711 0)
(1.95598 -0.00164381 0)
(1.9575 -0.00237713 0)
(1.95957 -0.00337844 0)
(1.96238 -0.00474584 0)
(1.96619 -0.00661495 0)
(1.97134 -0.00917467 0)
(1.97831 -0.0126905 0)
(1.98778 -0.0175397 0)
(2.00065 -0.0242654 0)
(2.0182 -0.0336608 0)
(2.04226 -0.0469046 0)
(2.07541 -0.065779 0)
(2.12147 -0.0930349 0)
(2.18601 -0.13295 0)
(2.27838 -0.192412 0)
(2.41106 -0.281701 0)
(2.61645 -0.418018 0)
(2.91252 -0.619756 0)
(3.43631 -0.88728 0)
(4.15484 -1.33306 0)
(1.87399 9.75453e-05 0)
(1.87438 0.000281162 0)
(1.87486 0.000418697 0)
(1.8747 0.00050323 0)
(1.87433 0.000552617 0)
(1.87406 0.000580003 0)
(1.87387 0.00058885 0)
(1.87367 0.000582362 0)
(1.87347 0.000566038 0)
(1.87328 0.000544499 0)
(1.87311 0.000520206 0)
(1.87296 0.000494394 0)
(1.87282 0.000467673 0)
(1.87269 0.000439845 0)
(1.87259 0.000409903 0)
(1.8725 0.000376284 0)
(1.87243 0.000336975 0)
(1.87238 0.00028918 0)
(1.87235 0.000228903 0)
(1.87235 0.000150564 0)
(1.87239 4.67122e-05 0)
(1.87248 -9.25012e-05 0)
(1.87262 -0.000280144 0)
(1.87285 -0.000533805 0)
(1.87317 -0.000877244 0)
(1.87362 -0.00134265 0)
(1.87425 -0.00197358 0)
(1.87511 -0.00282902 0)
(1.87628 -0.00398901 0)
(1.87786 -0.0055626 0)
(1.87999 -0.00769892 0)
(1.88287 -0.0106031 0)
(1.88673 -0.0145589 0)
(1.89192 -0.0199621 0)
(1.89888 -0.0273699 0)
(1.90824 -0.0375752 0)
(1.92079 -0.0517216 0)
(1.93764 -0.0714841 0)
(1.96024 -0.0993612 0)
(1.99061 -0.139153 0)
(2.03125 -0.196803 0)
(2.08657 -0.281781 0)
(2.15948 -0.410217 0)
(2.27372 -0.608751 0)
(2.40856 -0.932289 0)
(2.86645 -1.45074 0)
(3.08637 -2.539 0)
(1.75394 0.000149426 0)
(1.75434 0.000425139 0)
(1.7548 0.000618596 0)
(1.75459 0.000725311 0)
(1.75419 0.000781001 0)
(1.75391 0.000807307 0)
(1.75371 0.00080817 0)
(1.75351 0.000788277 0)
(1.75332 0.000756175 0)
(1.75314 0.000718454 0)
(1.75298 0.000678102 0)
(1.75285 0.000636465 0)
(1.75273 0.00059415 0)
(1.75262 0.000550801 0)
(1.75253 0.000505001 0)
(1.75245 0.000454723 0)
(1.75239 0.000397336 0)
(1.75235 0.00032929 0)
(1.75232 0.000245468 0)
(1.75232 0.000138884 0)
(1.75234 1.91763e-07 0)
(1.75239 -0.000182823 0)
(1.75248 -0.00042644 0)
(1.75262 -0.00075243 0)
(1.75281 -0.00119026 0)
(1.75309 -0.00177963 0)
(1.75347 -0.00257419 0)
(1.75398 -0.00364627 0)
(1.75466 -0.0050937 0)
(1.75558 -0.00704896 0)
(1.7568 -0.00969227 0)
(1.75842 -0.0132694 0)
(1.76056 -0.0181175 0)
(1.76337 -0.0247007 0)
(1.76704 -0.0336633 0)
(1.77181 -0.0459053 0)
(1.77793 -0.0626971 0)
(1.78566 -0.0858503 0)
(1.79518 -0.117985 0)
(1.80647 -0.162937 0)
(1.81879 -0.226476 0)
(1.83048 -0.317268 0)
(1.83509 -0.449744 0)
(1.82589 -0.645157 0)
(1.75155 -0.955661 0)
(1.64961 -1.47575 0)
(0.613225 -2.19513 0)
(1.59385 0.000222473 0)
(1.59426 0.000618709 0)
(1.59468 0.000868367 0)
(1.5944 0.000983149 0)
(1.59396 0.00103194 0)
(1.59367 0.00104651 0)
(1.59347 0.00102949 0)
(1.59329 0.000987692 0)
(1.59311 0.000933523 0)
(1.59297 0.000875251 0)
(1.59284 0.00081587 0)
(1.59274 0.000756548 0)
(1.59266 0.000697796 0)
(1.59259 0.000639034 0)
(1.59254 0.000578537 0)
(1.5925 0.000513955 0)
(1.59247 0.000442329 0)
(1.59245 0.000359667 0)
(1.59244 0.000260298 0)
(1.59245 0.000136542 0)
(1.59246 -2.17479e-05 0)
(1.59248 -0.000227807 0)
(1.59252 -0.000499206 0)
(1.59256 -0.000859449 0)
(1.59262 -0.00134023 0)
(1.5927 -0.00198416 0)
(1.59279 -0.00284858 0)
(1.5929 -0.00401044 0)
(1.59304 -0.00557333 0)
(1.59319 -0.00767663 0)
(1.59337 -0.0105085 0)
(1.59357 -0.014323 0)
(1.59376 -0.0194641 0)
(1.59392 -0.0263985 0)
(1.59397 -0.0357605 0)
(1.59376 -0.048415 0)
(1.59304 -0.0655447 0)
(1.59131 -0.0887706 0)
(1.58769 -0.120322 0)
(1.58059 -0.163258 0)
(1.56713 -0.221802 0)
(1.54228 -0.301607 0)
(1.49637 -0.410553 0)
(1.41445 -0.557181 0)
(1.26276 -0.75626 0)
(1.00783 -0.993175 0)
(0.376621 -1.13585 0)
(1.39371 0.000336592 0)
(1.39411 0.000897422 0)
(1.39447 0.00119335 0)
(1.3941 0.00128938 0)
(1.39362 0.00130928 0)
(1.39334 0.00129263 0)
(1.39318 0.00123921 0)
(1.39305 0.0011604 0)
(1.39294 0.00107335 0)
(1.39287 0.000986973 0)
(1.39284 0.000903506 0)
(1.39282 0.000823541 0)
(1.39282 0.00074733 0)
(1.39283 0.000673806 0)
(1.39285 0.000600955 0)
(1.39288 0.000526079 0)
(1.39291 0.000446137 0)
(1.39294 0.000356881 0)
(1.39297 0.000252692 0)
(1.393 0.000125855 0)
(1.39302 -3.3373e-05 0)
(1.39303 -0.00023791 0)
(1.39302 -0.000504518 0)
(1.39298 -0.0008559 0)
(1.39291 -0.0013222 0)
(1.39278 -0.00194416 0)
(1.39259 -0.00277592 0)
(1.3923 -0.00389023 0)
(1.39187 -0.00538396 0)
(1.39126 -0.00738697 0)
(1.3904 -0.0100724 0)
(1.38918 -0.0136719 0)
(1.38745 -0.0184937 0)
(1.38502 -0.0249485 0)
(1.38158 -0.0335802 0)
(1.37668 -0.0451075 0)
(1.36966 -0.0604724 0)
(1.3595 -0.0808981 0)
(1.34465 -0.107948 0)
(1.32272 -0.143566 0)
(1.28997 -0.190078 0)
(1.2406 -0.24999 0)
(1.16537 -0.3257 0)
(1.05098 -0.417925 0)
(0.87465 -0.525861 0)
(0.615581 -0.630709 0)
(0.183486 -0.607443 0)
(1.1535 0.000544931 0)
(1.15386 0.00132082 0)
(1.15411 0.00160945 0)
(1.15366 0.00163026 0)
(1.15324 0.00158132 0)
(1.15308 0.00149709 0)
(1.15307 0.00137547 0)
(1.1531 0.00123763 0)
(1.15317 0.00110492 0)
(1.15327 0.000984434 0)
(1.15338 0.000875705 0)
(1.15351 0.000777735 0)
(1.15364 0.000689329 0)
(1.15377 0.000608361 0)
(1.15389 0.000531873 0)
(1.15401 0.000456852 0)
(1.15412 0.000379919 0)
(1.15421 0.000297042 0)
(1.15429 0.000202855 0)
(1.15435 9.06801e-05 0)
(1.15438 -4.80726e-05 0)
(1.15437 -0.000224236 0)
(1.15432 -0.000452205 0)
(1.15421 -0.000750931 0)
(1.15401 -0.00114592 0)
(1.15371 -0.00167098 0)
(1.15326 -0.00237129 0)
(1.15261 -0.00330669 0)
(1.15169 -0.00455683 0)
(1.1504 -0.00622707 0)
(1.14863 -0.00845694 0)
(1.14618 -0.0114299 0)
(1.14281 -0.0153862 0)
(1.1382 -0.020638 0)
(1.13188 -0.0275866 0)
(1.12321 -0.0367403 0)
(1.11128 -0.0487301 0)
(1.09484 -0.0643142 0)
(1.07209 -0.0843608 0)
(1.04055 -0.109777 0)
(0.996679 -0.141353 0)
(0.935646 -0.17942 0)
(0.850851 -0.223339 0)
(0.734155 -0.270431 0)
(0.574894 -0.315432 0)
(0.369239 -0.340546 0)
(0.0909521 -0.277584 0)
(0.873132 0.00102422 0)
(0.873423 0.00204032 0)
(0.873721 0.00211984 0)
(0.873481 0.00190778 0)
(0.873404 0.00169509 0)
(0.873621 0.00148363 0)
(0.87395 0.00126537 0)
(0.874287 0.00106623 0)
(0.874614 0.000901401 0)
(0.87493 0.000767713 0)
(0.875228 0.000657543 0)
(0.875501 0.00056562 0)
(0.87575 0.00048789 0)
(0.875975 0.000420472 0)
(0.876177 0.000359599 0)
(0.876355 0.00030211 0)
(0.87651 0.000244868 0)
(0.876638 0.000184527 0)
(0.876738 0.000116897 0)
(0.876804 3.71073e-05 0)
(0.87683 -6.10215e-05 0)
(0.876805 -0.000185096 0)
(0.876714 -0.000345284 0)
(0.876537 -0.000554804 0)
(0.876248 -0.000831483 0)
(0.87581 -0.00119868 0)
(0.875173 -0.00168758 0)
(0.874269 -0.0023391 0)
(0.873007 -0.00320743 0)
(0.871267 -0.0043634 0)
(0.868885 -0.00589981 0)
(0.86564 -0.00793643 0)
(0.86124 -0.010627 0)
(0.855289 -0.0141651 0)
(0.84726 -0.0187901 0)
(0.836451 -0.0247887 0)
(0.821928 -0.0324898 0)
(0.80246 -0.0422433 0)
(0.776442 -0.0543729 0)
(0.741814 -0.0690837 0)
(0.696007 -0.0863061 0)
(0.635977 -0.105442 0)
(0.558365 -0.125065 0)
(0.460119 -0.142501 0)
(0.338952 -0.153672 0)
(0.199798 -0.148841 0)
(0.0411134 -0.104128 0)
(0.552615 0.00187956 0)
(0.553398 0.00291644 0)
(0.554542 0.00237039 0)
(0.555196 0.00171793 0)
(0.555846 0.00129141 0)
(0.556565 0.00098725 0)
(0.557227 0.000749802 0)
(0.557784 0.000576165 0)
(0.558254 0.000455898 0)
(0.558656 0.000370379 0)
(0.559002 0.00030617 0)
(0.5593 0.00025611 0)
(0.559557 0.000215975 0)
(0.55978 0.00018232 0)
(0.559972 0.000152624 0)
(0.560135 0.000124809 0)
(0.560272 9.7239e-05 0)
(0.56038 6.79385e-05 0)
(0.560458 3.48697e-05 0)
(0.560502 -4.63898e-06 0)
(0.560504 -5.35256e-05 0)
(0.560454 -0.000115812 0)
(0.560337 -0.000196428 0)
(0.560134 -0.00030225 0)
(0.559818 -0.00044201 0)
(0.559352 -0.000627612 0)
(0.558686 -0.000874325 0)
(0.557754 -0.00120258 0)
(0.556468 -0.00163861 0)
(0.554709 -0.00221685 0)
(0.55232 -0.00298104 0)
(0.549094 -0.00398696 0)
(0.544758 -0.00530333 0)
(0.538957 -0.00701367 0)
(0.531229 -0.00921449 0)
(0.520985 -0.0120118 0)
(0.507481 -0.0155098 0)
(0.4898 -0.019791 0)
(0.466849 -0.0248809 0)
(0.437384 -0.0306936 0)
(0.400097 -0.0369555 0)
(0.353814 -0.043111 0)
(0.297815 -0.048247 0)
(0.232353 -0.0510271 0)
(0.159241 -0.0496889 0)
(0.0850995 -0.0407967 0)
(0.0138202 -0.0226473 0)
(0.195111 0.0011886 0)
(0.198342 0.00113378 0)
(0.200532 0.000600006 0)
(0.20175 0.000331704 0)
(0.202582 0.000220014 0)
(0.203223 0.000145807 0)
(0.203703 9.34067e-05 0)
(0.204057 6.34096e-05 0)
(0.204327 4.72134e-05 0)
(0.204544 3.69443e-05 0)
(0.204722 2.94861e-05 0)
(0.204869 2.38929e-05 0)
(0.204992 1.95104e-05 0)
(0.205097 1.57784e-05 0)
(0.205184 1.23775e-05 0)
(0.205257 9.08329e-06 0)
(0.205315 5.64158e-06 0)
(0.205358 1.72474e-06 0)
(0.205385 -3.00361e-06 0)
(0.205393 -8.9139e-06 0)
(0.205377 -1.64401e-05 0)
(0.205333 -2.61872e-05 0)
(0.205251 -3.89819e-05 0)
(0.205121 -5.59366e-05 0)
(0.204926 -7.84795e-05 0)
(0.204646 -0.000108465 0)
(0.204254 -0.000148288 0)
(0.203711 -0.00020106 0)
(0.202969 -0.000270778 0)
(0.201962 -0.000362513 0)
(0.200606 -0.000482549 0)
(0.19879 -0.000638451 0)
(0.196373 -0.000838951 0)
(0.193174 -0.0010935 0)
(0.188971 -0.00141125 0)
(0.183491 -0.00179917 0)
(0.176416 -0.00225885 0)
(0.167389 -0.00278182 0)
(0.156037 -0.00334323 0)
(0.142024 -0.0038946 0)
(0.125122 -0.00435785 0)
(0.105329 -0.00462165 0)
(0.0830139 -0.00454982 0)
(0.0590786 -0.00399867 0)
(0.0352436 -0.0028456 0)
(0.0150344 -0.000571909 0)
(0.000389564 0.00078614 0)
(3.5432 1.77233 0)
(2.90592 0.843429 0)
(2.13663 0.316311 0)
(1.8431 0.084681 0)
(1.79496 -0.00723571 0)
(1.72446 -0.0698621 0)
(4.97058 1.09706 0)
(5.27276 0.691471 0)
(5.22838 0.470367 0)
(5.12755 0.35534 0)
(5.03575 0.279334 0)
(4.92093 0.23202 0)
(4.94641 0.225041 0)
(5.50971 0.13113 0)
(5.79939 0.117993 0)
(5.92852 0.136412 0)
(5.99338 0.159852 0)
(6.01239 0.1923 0)
(4.96422 -0.135521 0)
(5.52927 0.00729095 0)
(5.82322 0.0765166 0)
(5.96346 0.12329 0)
(6.05405 0.178717 0)
(6.11253 0.245776 0)
(5.04629 -1.02121 0)
(5.38833 -0.564507 0)
(5.41319 -0.300113 0)
(5.4126 -0.14411 0)
(5.4414 -0.0146532 0)
(5.46826 0.107496 0)
(3.65517 -1.78817 0)
(3.09396 -0.853393 0)
(2.41472 -0.314395 0)
(2.22376 -0.0581764 0)
(2.32369 0.0699377 0)
(2.44213 0.184447 0)
(-0.00153452 0.00130575 0)
(-0.0135801 0.00314577 0)
(-0.0302378 0.00369462 0)
(-0.047485 0.0034557 0)
(-0.0631294 0.00307974 0)
(-0.0768858 0.00269728 0)
(-0.0888718 0.00233685 0)
(-0.0992296 0.0020079 0)
(-0.108091 0.0017134 0)
(-0.115579 0.00145377 0)
(-0.1218 0.00122664 0)
(-0.126851 0.00102726 0)
(-0.130815 0.00084962 0)
(-0.133767 0.000688747 0)
(-0.135779 0.000541047 0)
(-0.136926 0.000404384 0)
(-0.137291 0.000278066 0)
(-0.136972 0.000164102 0)
(-0.136083 6.3988e-05 0)
(-0.134746 -2.09715e-05 0)
(-0.133092 -8.99757e-05 0)
(-0.131247 -0.000143281 0)
(-0.129333 -0.000182063 0)
(-0.127461 -0.000207712 0)
(-0.125732 -0.000222247 0)
(-0.124231 -0.000227595 0)
(-0.123033 -0.000225512 0)
(-0.122197 -0.000216838 0)
(-0.121774 -0.000202006 0)
(-0.121803 -0.000180403 0)
(-0.122315 -0.000152096 0)
(-0.123329 -0.000115438 0)
(-0.124857 -6.8919e-05 0)
(-0.126898 -9.2567e-06 0)
(-0.12944 6.79183e-05 0)
(-0.132455 0.000164593 0)
(-0.135885 0.000273118 0)
(-0.139634 0.000378655 0)
(-0.143578 0.000473917 0)
(-0.147581 0.000563664 0)
(-0.151489 0.000625819 0)
(-0.155095 0.000583954 0)
(-0.158146 0.000416649 0)
(-0.160391 0.000248533 0)
(-0.161643 9.88362e-05 0)
(-0.162629 -5.78928e-05 0)
(-0.163214 0.000230586 0)
(-0.00657028 0.0158254 0)
(-0.0424873 0.0310653 0)
(-0.0851482 0.0347503 0)
(-0.126811 0.0328618 0)
(-0.163847 0.0293685 0)
(-0.195984 0.0256828 0)
(-0.223588 0.0221893 0)
(-0.247096 0.0189631 0)
(-0.266924 0.0160023 0)
(-0.283442 0.0132879 0)
(-0.296974 0.0107969 0)
(-0.307799 0.00850581 0)
(-0.316163 0.00639693 0)
(-0.322295 0.00445972 0)
(-0.32641 0.00269537 0)
(-0.328733 0.00111258 0)
(-0.329498 -0.000269213 0)
(-0.328963 -0.00142544 0)
(-0.32739 -0.00233804 0)
(-0.325059 -0.0029972 0)
(-0.32225 -0.00340344 0)
(-0.319231 -0.00356733 0)
(-0.316252 -0.0035068 0)
(-0.313539 -0.00324491 0)
(-0.31129 -0.00280757 0)
(-0.309674 -0.00222165 0)
(-0.308831 -0.00151346 0)
(-0.308874 -0.000707306 0)
(-0.309888 0.000174931 0)
(-0.311935 0.00111182 0)
(-0.315052 0.00208467 0)
(-0.319253 0.0030729 0)
(-0.324523 0.00405359 0)
(-0.330816 0.0050007 0)
(-0.338048 0.00588341 0)
(-0.346091 0.00665936 0)
(-0.354758 0.00727316 0)
(-0.363793 0.00766383 0)
(-0.372893 0.00778598 0)
(-0.381738 0.00760269 0)
(-0.389976 0.00706289 0)
(-0.39723 0.00611264 0)
(-0.403231 0.00478259 0)
(-0.407832 0.0031985 0)
(-0.410881 0.00164665 0)
(-0.41411 0.00118139 0)
(-0.414798 0.00156106 0)
(-0.0120549 0.0475168 0)
(-0.0699124 0.0821058 0)
(-0.130857 0.0867219 0)
(-0.186851 0.0799672 0)
(-0.235152 0.0704232 0)
(-0.276429 0.0609096 0)
(-0.311605 0.0521735 0)
(-0.341525 0.0443189 0)
(-0.366891 0.0372742 0)
(-0.388265 0.0309339 0)
(-0.406088 0.0251968 0)
(-0.420709 0.0199787 0)
(-0.432419 0.0152194 0)
(-0.441473 0.0108869 0)
(-0.448112 0.00697563 0)
(-0.452586 0.00350416 0)
(-0.455162 0.000507972 0)
(-0.45614 -0.00196998 0)
(-0.455831 -0.00389995 0)
(-0.454567 -0.00526497 0)
(-0.452686 -0.00607013 0)
(-0.450522 -0.0063416 0)
(-0.448389 -0.00612043 0)
(-0.446576 -0.00545744 0)
(-0.445337 -0.00440926 0)
(-0.44489 -0.00303513 0)
(-0.445415 -0.00139288 0)
(-0.447055 0.000462045 0)
(-0.449912 0.0024763 0)
(-0.454055 0.0046045 0)
(-0.459521 0.00680035 0)
(-0.466309 0.00901164 0)
(-0.474375 0.0111797 0)
(-0.483633 0.0132352 0)
(-0.493946 0.0150946 0)
(-0.505124 0.0166533 0)
(-0.516905 0.0177885 0)
(-0.528951 0.0183758 0)
(-0.540886 0.0183173 0)
(-0.552339 0.0175443 0)
(-0.562917 0.0160144 0)
(-0.572207 0.0137547 0)
(-0.579969 0.0109471 0)
(-0.586164 0.00794502 0)
(-0.59056 0.0053029 0)
(-0.594274 0.00392637 0)
(-0.597719 0.00449029 0)
(-0.0173898 0.0961074 0)
(-0.0912159 0.15013 0)
(-0.157769 0.149993 0)
(-0.214167 0.134636 0)
(-0.261358 0.117001 0)
(-0.301499 0.100534 0)
(-0.336058 0.0859536 0)
(-0.366141 0.0731724 0)
(-0.392529 0.0618998 0)
(-0.41574 0.0518504 0)
(-0.436116 0.0427916 0)
(-0.453882 0.0345514 0)
(-0.469192 0.0270153 0)
(-0.48217 0.0201273 0)
(-0.49293 0.0138795 0)
(-0.501601 0.00831124 0)
(-0.508348 0.00348968 0)
(-0.513387 -0.000509303 0)
(-0.516987 -0.0036321 0)
(-0.519433 -0.00584957 0)
(-0.521037 -0.0071617 0)
(-0.522128 -0.00760076 0)
(-0.523031 -0.00722663 0)
(-0.524056 -0.00611831 0)
(-0.525486 -0.00436681 0)
(-0.527566 -0.00207148 0)
(-0.530496 0.000664915 0)
(-0.534428 0.00373925 0)
(-0.53947 0.007063 0)
(-0.545694 0.0105534 0)
(-0.553127 0.0141206 0)
(-0.561753 0.0176698 0)
(-0.57151 0.0210924 0)
(-0.582291 0.0242662 0)
(-0.593947 0.0270453 0)
(-0.606277 0.0292674 0)
(-0.619019 0.0307522 0)
(-0.631844 0.0313296 0)
(-0.644401 0.0308614 0)
(-0.65636 0.0292725 0)
(-0.66738 0.0265644 0)
(-0.677095 0.0228517 0)
(-0.68528 0.0183983 0)
(-0.691817 0.013682 0)
(-0.696289 0.00943551 0)
(-0.699318 0.00671512 0)
(-0.702755 0.00708895 0)
(-0.02245 0.160865 0)
(-0.0980936 0.221208 0)
(-0.146735 0.206143 0)
(-0.182152 0.180166 0)
(-0.212352 0.155464 0)
(-0.239946 0.133842 0)
(-0.265925 0.115459 0)
(-0.290988 0.099777 0)
(-0.315476 0.0861178 0)
(-0.339437 0.0739521 0)
(-0.36276 0.0629056 0)
(-0.385253 0.0527218 0)
(-0.40669 0.0432474 0)
(-0.42684 0.0344146 0)
(-0.445485 0.0262322 0)
(-0.462446 0.0187716 0)
(-0.477605 0.0121616 0)
(-0.490935 0.00653812 0)
(-0.502507 0.00201102 0)
(-0.512473 -0.00135025 0)
(-0.521048 -0.0035149 0)
(-0.528496 -0.0044961 0)
(-0.535091 -0.00434818 0)
(-0.541142 -0.00315699 0)
(-0.546957 -0.00104197 0)
(-0.55282 0.00184642 0)
(-0.558953 0.0053598 0)
(-0.565539 0.00934939 0)
(-0.572715 0.0136838 0)
(-0.580567 0.0182303 0)
(-0.589133 0.0228568 0)
(-0.598408 0.027424 0)
(-0.608349 0.0317807 0)
(-0.618875 0.0357559 0)
(-0.629877 0.0391596 0)
(-0.641215 0.0417848 0)
(-0.652707 0.0434184 0)
(-0.66412 0.0438561 0)
(-0.67521 0.0429283 0)
(-0.685751 0.040542 0)
(-0.695502 0.0367201 0)
(-0.704178 0.0316266 0)
(-0.711561 0.0255819 0)
(-0.717428 0.0191302 0)
(-0.72117 0.0130961 0)
(-0.723204 0.00869687 0)
(-0.725827 0.00873002 0)
(-0.013454 0.21979 0)
(-0.0537535 0.263401 0)
(-0.0406202 0.226571 0)
(-0.0252 0.197156 0)
(-0.0216867 0.173378 0)
(-0.027572 0.152891 0)
(-0.0403693 0.136022 0)
(-0.0590269 0.122022 0)
(-0.0826147 0.109797 0)