/*--------------------------------*- C++ -*----------------------------------*\
| =========                 |                                                 |
| \\      /  F ield         | OpenFOAM: The Open Source CFD Toolbox           |
|  \\    /   O peration     | Version:  2406                                  |
|   \\  /    A nd           | Website:  www.openfoam.com                      |
|    \\/     M anipulation  |                                                 |
\*---------------------------------------------------------------------------*/
FoamFile
{
    version     2.0;
    format      ascii;
    arch        "LSB;label=32;scalar=64";
    class       volScalarField;
    location    "867";
    object      p;
}
// * * * * * * * * * * * * * * * * * * * * * * * * * * * * * * * * * * * * * //

dimensions      [0 2 -2 0 0 0 0];

internalField   nonuniform List<scalar> 
190000
(
0.00394922
0.00522908
0.00551871
0.0052511
0.00476709
0.00417619
0.00352289
0.00283226
0.00211821
0.00138829
0.000646778
-0.000103748
-0.000861685
-0.00162599
-0.00239596
-0.00317111
-0.0039511
-0.00473568
-0.00552469
-0.006318
-0.00711552
-0.0079172
-0.008723
-0.00953291
-0.0103469
-0.011165
-0.0119873
-0.0128137
-0.0136444
-0.0144792
-0.0153184
-0.0161619
-0.0170098
-0.0178621
-0.018719
-0.0195805
-0.0204467
-0.0213177
-0.0221935
-0.0230743
-0.0239601
-0.024851
-0.0257473
-0.0266488
-0.0275559
-0.0284685
-0.0293869
-0.0303111
-0.0312414
-0.0321778
-0.0331204
-0.0340696
-0.0350253
-0.0359879
-0.0369574
-0.0379342
-0.0389183
-0.03991
-0.0409095
-0.0419171
-0.0429329
-0.0439574
-0.0449907
-0.0460331
-0.047085
-0.0481467
-0.0492186
-0.0503009
-0.0513941
-0.0524987
-0.053615
-0.0547436
-0.055885
-0.0570396
-0.0582082
-0.0593913
-0.0605897
-0.0618039
-0.0630348
-0.0642833
-0.06555
-0.0668361
-0.0681423
-0.0694696
-0.0708189
-0.072191
-0.0735865
-0.0750058
-0.0764489
-0.0779152
-0.0794038
-0.0809131
-0.0824427
-0.0839965
-0.0855945
-0.087312
-0.0893085
-0.091614
-0.0942831
-0.10456
0.00589478
0.00585055
0.0056401
0.00523792
0.00471365
0.00411305
0.00346203
0.00277705
0.00206866
0.00134344
0.000605559
-0.000142273
-0.000898271
-0.00166123
-0.0024303
-0.00320491
-0.00398464
-0.00476917
-0.00555831
-0.00635188
-0.00714979
-0.00795194
-0.0087583
-0.00956883
-0.0103835
-0.0112024
-0.0120254
-0.0128527
-0.0136842
-0.01452
-0.0153601
-0.0162045
-0.0170534
-0.0179068
-0.0187648
-0.0196275
-0.0204948
-0.021367
-0.022244
-0.023126
-0.0240131
-0.0249054
-0.025803
-0.026706
-0.0276146
-0.0285287
-0.0294487
-0.0303746
-0.0313065
-0.0322446
-0.0331891
-0.0341401
-0.0350978
-0.0360624
-0.037034
-0.038013
-0.0389994
-0.0399934
-0.0409954
-0.0420056
-0.0430242
-0.0440515
-0.0450878
-0.0461335
-0.0471887
-0.0482539
-0.0493294
-0.0504156
-0.051513
-0.052622
-0.053743
-0.0548767
-0.0560234
-0.0571839
-0.0583587
-0.0595485
-0.0607542
-0.0619764
-0.063216
-0.0644741
-0.0657516
-0.0670496
-0.0683693
-0.069712
-0.0710792
-0.0724722
-0.0738929
-0.075343
-0.0768249
-0.0783412
-0.0798959
-0.0814954
-0.0831503
-0.0848807
-0.0867268
-0.0887717
-0.0911537
-0.0940684
-0.0982996
-0.107042
0.00693072
0.00631044
0.00578755
0.00526993
0.00469857
0.00407793
0.00342024
0.00273453
0.00202755
0.00130427
0.000568234
-0.000178081
-0.000932931
-0.00169508
-0.00246365
-0.00323801
-0.00401768
-0.00480234
-0.00559174
-0.00638569
-0.00718407
-0.00798679
-0.00879378
-0.00960501
-0.0104205
-0.0112401
-0.012064
-0.0128922
-0.0137246
-0.0145613
-0.0154024
-0.0162479
-0.0170979
-0.0179524
-0.0188115
-0.0196753
-0.0205438
-0.0214172
-0.0222955
-0.0231789
-0.0240673
-0.024961
-0.0258601
-0.0267645
-0.0276746
-0.0285903
-0.0295119
-0.0304394
-0.0313731
-0.032313
-0.0332594
-0.0342123
-0.035172
-0.0361387
-0.0371125
-0.0380936
-0.0390823
-0.0400788
-0.0410834
-0.0420962
-0.0431176
-0.0441478
-0.0451872
-0.046236
-0.0472946
-0.0483633
-0.0494426
-0.0505328
-0.0516343
-0.0527478
-0.0538736
-0.0550122
-0.0561644
-0.0573306
-0.0585117
-0.0597083
-0.0609213
-0.0621515
-0.0633999
-0.0646677
-0.0659559
-0.0672659
-0.0685992
-0.0699575
-0.0713427
-0.072757
-0.074203
-0.0756841
-0.0772045
-0.0787698
-0.0803879
-0.0820706
-0.0838358
-0.0857121
-0.0877457
-0.0900108
-0.0926142
-0.0957014
-0.0996051
-0.105006
0.0074129
0.0066152
0.00595025
0.00535063
0.00473109
0.00408255
0.00340973
0.00271624
0.00200539
0.00128028
0.000543434
-0.000203214
-0.000958211
-0.00172047
-0.00248918
-0.00326373
-0.00404367
-0.00482867
-0.00561848
-0.0064129
-0.00721181
-0.00801511
-0.00882272
-0.00963462
-0.0104508
-0.0112712
-0.0120958
-0.0129248
-0.013758
-0.0145956
-0.0154376
-0.016284
-0.0171349
-0.0179904
-0.0188505
-0.0197153
-0.0205849
-0.0214593
-0.0223387
-0.0232232
-0.0241128
-0.0250077
-0.025908
-0.0268137
-0.027725
-0.0286421
-0.0295651
-0.030494
-0.0314292
-0.0323706
-0.0333185
-0.0342731
-0.0352344
-0.0362028
-0.0371784
-0.0381615
-0.0391521
-0.0401507
-0.0411573
-0.0421723
-0.043196
-0.0442286
-0.0452705
-0.0463219
-0.0473833
-0.0484549
-0.0495372
-0.0506307
-0.0517357
-0.0528527
-0.0539823
-0.0551251
-0.0562816
-0.0574525
-0.0586386
-0.0598406
-0.0610594
-0.062296
-0.0635514
-0.0648268
-0.0661235
-0.067443
-0.068787
-0.0701574
-0.0715566
-0.0729873
-0.0744527
-0.075957
-0.0775054
-0.0791047
-0.0807642
-0.0824966
-0.0843198
-0.0862586
-0.0883478
-0.0906336
-0.0931689
-0.0959983
-0.0991601
-0.102654
0.00770457
0.00683471
0.00609603
0.00544038
0.00478116
0.0041062
0.00341675
0.00271303
0.00199594
0.00126702
0.000527806
-0.000220356
-0.000976377
-0.00173939
-0.00250871
-0.0032838
-0.00406426
-0.00484978
-0.00564012
-0.00643511
-0.00723459
-0.0080385
-0.00884674
-0.00965929
-0.0104761
-0.0112972
-0.0121226
-0.0129523
-0.0137863
-0.0146247
-0.0154675
-0.0163147
-0.0171665
-0.0180228
-0.0188838
-0.0197495
-0.02062
-0.0214954
-0.0223758
-0.0232613
-0.0241519
-0.0250478
-0.0259492
-0.026856
-0.0277685
-0.0286867
-0.0296109
-0.0305411
-0.0314775
-0.0324202
-0.0333695
-0.0343254
-0.0352882
-0.0362581
-0.0372353
-0.0382199
-0.0392122
-0.0402124
-0.0412209
-0.0422377
-0.0432633
-0.0442979
-0.0453419
-0.0463955
-0.0474591
-0.0485331
-0.049618
-0.050714
-0.0518218
-0.0529417
-0.0540744
-0.0552205
-0.0563804
-0.057555
-0.0587451
-0.0599513
-0.0611746
-0.0624161
-0.0636768
-0.0649579
-0.066261
-0.0675875
-0.0689393
-0.0703185
-0.0717276
-0.0731694
-0.0746476
-0.0761665
-0.0777313
-0.0793489
-0.0810278
-0.0827788
-0.0846153
-0.0865538
-0.0886128
-0.09081
-0.0931535
-0.095624
-0.0981557
-0.100598
0.00790146
0.00699795
0.0062173
0.00552441
0.00483539
0.00413849
0.00343377
0.00271969
0.00199564
0.00126203
0.00051964
-0.000230728
-0.000988334
-0.00175254
-0.0025228
-0.00329869
-0.00407986
-0.00486603
-0.005657
-0.00645259
-0.0072527
-0.00805722
-0.00886609
-0.00967929
-0.0104968
-0.0113185
-0.0121446
-0.012975
-0.0138097
-0.0146488
-0.0154923
-0.0163403
-0.0171928
-0.0180499
-0.0189117
-0.0197782
-0.0206495
-0.0215258
-0.022407
-0.0232934
-0.0241849
-0.0250818
-0.025984
-0.0268918
-0.0278053
-0.0287245
-0.0296497
-0.0305809
-0.0315184
-0.0324623
-0.0334127
-0.0343698
-0.0353338
-0.0363049
-0.0372833
-0.0382692
-0.0392629
-0.0402646
-0.0412744
-0.0422928
-0.0433199
-0.0443561
-0.0454018
-0.0464571
-0.0475225
-0.0485984
-0.0496851
-0.0507832
-0.0518931
-0.0530152
-0.0541502
-0.0552987
-0.0564612
-0.0576384
-0.0588312
-0.0600404
-0.0612668
-0.0625116
-0.0637758
-0.0650607
-0.0663677
-0.0676984
-0.0690548
-0.0704388
-0.071853
-0.0733002
-0.0747838
-0.0763079
-0.0778771
-0.0794971
-0.0811745
-0.0829166
-0.0847311
-0.0866253
-0.0886031
-0.0906611
-0.0927795
-0.0949093
-0.0969569
-0.0987631
0.0080399
0.00712195
0.00631757
0.00560047
0.00488977
0.00417534
0.00345742
0.00273372
0.00200273
0.00126416
0.000518203
-0.000234761
-0.000994296
-0.00175998
-0.00253141
-0.00330827
-0.00409028
-0.0048772
-0.00566885
-0.0064651
-0.00726583
-0.00807097
-0.00888046
-0.00969426
-0.0105124
-0.0113347
-0.0121614
-0.0129924
-0.0138278
-0.0146675
-0.0155117
-0.0163603
-0.0172135
-0.0180713
-0.0189338
-0.019801
-0.020673
-0.02155
-0.022432
-0.023319
-0.0242113
-0.0251089
-0.026012
-0.0269206
-0.0278348
-0.0287549
-0.0296809
-0.030613
-0.0315513
-0.032496
-0.0334473
-0.0344054
-0.0353703
-0.0363424
-0.0373218
-0.0383087
-0.0393034
-0.0403061
-0.0413171
-0.0423365
-0.0433648
-0.0444022
-0.045449
-0.0465055
-0.0475722
-0.0486493
-0.0497374
-0.0508368
-0.051948
-0.0530716
-0.054208
-0.0553578
-0.0565218
-0.0577006
-0.0588949
-0.0601055
-0.0613335
-0.0625797
-0.0638454
-0.0651317
-0.0664399
-0.0677718
-0.069129
-0.0705135
-0.0719276
-0.0733738
-0.074855
-0.0763746
-0.0779362
-0.0795437
-0.081201
-0.0829117
-0.0846778
-0.0864985
-0.0883671
-0.0902666
-0.0921635
-0.0939994
-0.095683
-0.0970842
0.00814393
0.00722045
0.00640249
0.00566967
0.00494326
0.00421502
0.00348598
0.00275367
0.00201615
0.00127266
0.000523019
-0.000232721
-0.000994378
-0.00176171
-0.00253447
-0.00331241
-0.00409533
-0.00488306
-0.00567544
-0.00647235
-0.00727371
-0.00807945
-0.00888952
-0.00970389
-0.0105226
-0.0113455
-0.0121727
-0.0130043
-0.0138402
-0.0146805
-0.0155252
-0.0163744
-0.0172282
-0.0180865
-0.0189496
-0.0198173
-0.02069
-0.0215675
-0.0224501
-0.0233377
-0.0242306
-0.0251288
-0.0260325
-0.0269417
-0.0278565
-0.0287772
-0.0297038
-0.0306366
-0.0315755
-0.0325209
-0.0334728
-0.0344315
-0.0353971
-0.0363699
-0.0373499
-0.0383375
-0.0393329
-0.0403363
-0.0413479
-0.042368
-0.043397
-0.044435
-0.0454825
-0.0465397
-0.047607
-0.0486847
-0.0497734
-0.0508734
-0.0519852
-0.0531092
-0.0542461
-0.0553964
-0.0565606
-0.0577396
-0.058934
-0.0601446
-0.0613723
-0.0626181
-0.063883
-0.0651681
-0.0664748
-0.0678044
-0.0691585
-0.0705389
-0.0719475
-0.0733863
-0.0748575
-0.0763635
-0.0779065
-0.0794885
-0.0811108
-0.0827733
-0.0844732
-0.0862037
-0.0879511
-0.0896915
-0.0913867
-0.0929797
-0.0943925
-0.0955279
0.00822851
0.00730325
0.00647711
0.00573395
0.00499611
0.00425703
0.00351872
0.00277887
0.00203534
0.00128716
0.000533875
-0.000224696
-0.000988565
-0.00175765
-0.00253181
-0.00331091
-0.00409481
-0.00488337
-0.00567648
-0.00647406
-0.00727603
-0.00808234
-0.00889296
-0.00970785
-0.010527
-0.0113505
-0.0121782
-0.0130102
-0.0138466
-0.0146873
-0.0155325
-0.0163822
-0.0172364
-0.0180952
-0.0189587
-0.0198269
-0.0207
-0.0215779
-0.0224609
-0.023349
-0.0242423
-0.025141
-0.026045
-0.0269546
-0.0278699
-0.028791
-0.029718
-0.0306511
-0.0315905
-0.0325363
-0.0334886
-0.0344476
-0.0354136
-0.0363866
-0.037367
-0.0383549
-0.0393506
-0.0403542
-0.0413661
-0.0423864
-0.0434155
-0.0444537
-0.0455013
-0.0465585
-0.0476258
-0.0487036
-0.0497921
-0.0508919
-0.0520033
-0.0531269
-0.0542632
-0.0554128
-0.0565761
-0.057754
-0.058947
-0.0601559
-0.0613815
-0.0626247
-0.0638865
-0.0651678
-0.0664699
-0.0677938
-0.069141
-0.0705128
-0.0719106
-0.0733359
-0.0747901
-0.0762743
-0.0777896
-0.0793358
-0.0809119
-0.0825148
-0.0841381
-0.085771
-0.087396
-0.0889868
-0.0905056
-0.0919019
-0.0931128
-0.0940676
0.00830249
0.00737691
0.00654553
0.00579543
0.00504921
0.00430156
0.00355555
0.00280914
0.00206019
0.00130761
0.000550794
-0.000210586
-0.000976696
-0.00174758
-0.0025232
-0.0033035
-0.00408839
-0.0048778
-0.00567166
-0.00646989
-0.00727245
-0.0080793
-0.00889041
-0.00970577
-0.0105254
-0.0113492
-0.0121774
-0.0130098
-0.0138465
-0.0146876
-0.0155332
-0.0163832
-0.0172377
-0.0180968
-0.0189606
-0.0198292
-0.0207025
-0.0215808
-0.0224641
-0.0233524
-0.024246
-0.0251448
-0.0260491
-0.0269589
-0.0278744
-0.0287957
-0.0297229
-0.0306561
-0.0315956
-0.0325415
-0.0334938
-0.0344529
-0.0354189
-0.036392
-0.0373723
-0.0383601
-0.0393557
-0.0403591
-0.0413708
-0.0423909
-0.0434197
-0.0444574
-0.0455045
-0.0465612
-0.0476278
-0.0487047
-0.0497923
-0.050891
-0.0520013
-0.0531234
-0.0542581
-0.0554057
-0.0565669
-0.0577421
-0.0589322
-0.0601376
-0.0613593
-0.0625978
-0.0638541
-0.0651291
-0.0664235
-0.0677385
-0.0690749
-0.0704338
-0.071816
-0.0732223
-0.0746533
-0.0761091
-0.0775892
-0.079092
-0.0806143
-0.0821508
-0.0836928
-0.0852271
-0.0867349
-0.0881901
-0.089558
-0.0907958
-0.0918542
-0.092682
0.00837138
0.00744595
0.00661091
0.00585609
0.00510362
0.00434917
0.00359674
0.00284465
0.00209082
0.00133415
0.000573971
-0.000190154
-0.000958496
-0.00173119
-0.0025083
-0.00328982
-0.00407573
-0.00486601
-0.00566059
-0.00645946
-0.00726258
-0.00806993
-0.00888149
-0.00969725
-0.0105172
-0.0113414
-0.0121699
-0.0130026
-0.0138396
-0.014681
-0.0155268
-0.016377
-0.0172317
-0.0180911
-0.018955
-0.0198237
-0.0206972
-0.0215756
-0.022459
-0.0233474
-0.024241
-0.0251399
-0.0260442
-0.026954
-0.0278695
-0.0287907
-0.0297178
-0.0306509
-0.0315902
-0.0325359
-0.033488
-0.0344469
-0.0354125
-0.0363852
-0.0373651
-0.0383525
-0.0393475
-0.0403503
-0.0413612
-0.0423805
-0.0434084
-0.0444452
-0.0454912
-0.0465466
-0.0476118
-0.0486872
-0.0497731
-0.0508698
-0.0519779
-0.0530976
-0.0542295
-0.055374
-0.0565316
-0.0577029
-0.0588884
-0.0600887
-0.0613044
-0.0625362
-0.0637847
-0.0650506
-0.0663346
-0.0676374
-0.0689595
-0.0703016
-0.0716638
-0.0730465
-0.0744493
-0.0758713
-0.0773108
-0.0787649
-0.0802289
-0.081696
-0.0831559
-0.0845948
-0.0859938
-0.0873284
-0.0885683
-0.0896782
-0.0906197
-0.0913555
0.00843876
0.00751352
0.00667571
0.00591758
0.00516042
0.00440049
0.0036427
0.00288569
0.00212749
0.00136706
0.000603695
-0.000163084
-0.000933623
-0.00170813
-0.00248673
-0.00326949
-0.00405643
-0.00484757
-0.00564288
-0.00644237
-0.00724601
-0.00805381
-0.00886577
-0.00968188
-0.0105022
-0.0113266
-0.0121553
-0.0129882
-0.0138254
-0.014667
-0.0155129
-0.0163632
-0.017218
-0.0180774
-0.0189414
-0.0198101
-0.0206835
-0.0215619
-0.0224452
-0.0233335
-0.024227
-0.0251257
-0.0260298
-0.0269394
-0.0278546
-0.0287754
-0.0297022
-0.0306349
-0.0315738
-0.032519
-0.0334705
-0.0344288
-0.0353937
-0.0363657
-0.0373448
-0.0383312
-0.0393252
-0.0403269
-0.0413367
-0.0423546
-0.0433811
-0.0444163
-0.0454605
-0.046514
-0.0475771
-0.0486501
-0.0497334
-0.0508273
-0.0519321
-0.0530484
-0.0541763
-0.0553165
-0.0564692
-0.0576351
-0.0588145
-0.0600079
-0.0612158
-0.0624388
-0.0636773
-0.0649318
-0.0662027
-0.0674903
-0.068795
-0.0701168
-0.0714555
-0.0728106
-0.0741812
-0.0755654
-0.0769606
-0.0783629
-0.0797666
-0.0811637
-0.0825438
-0.0838926
-0.0851924
-0.0864212
-0.087553
-0.0885589
-0.0894092
-0.0900763
0.00850708
0.00758191
0.00674183
0.00598134
0.00522057
0.00445621
0.00369392
0.00293264
0.00217054
0.00140665
0.000640302
-0.000129022
-0.000901704
-0.001678
-0.0024581
-0.0032421
-0.00403007
-0.00482206
-0.00561809
-0.00641817
-0.00722231
-0.00803053
-0.00884283
-0.00965923
-0.0104797
-0.0113044
-0.0121332
-0.0129663
-0.0138035
-0.0146451
-0.015491
-0.0163413
-0.0171961
-0.0180553
-0.0189192
-0.0197878
-0.020661
-0.0215391
-0.0224222
-0.0233102
-0.0242033
-0.0251017
-0.0260054
-0.0269145
-0.0278291
-0.0287494
-0.0296756
-0.0306076
-0.0315457
-0.0324901
-0.0334408
-0.034398
-0.0353619
-0.0363327
-0.0373106
-0.0382956
-0.0392882
-0.0402883
-0.0412963
-0.0423124
-0.0433368
-0.0443698
-0.0454116
-0.0464625
-0.0475227
-0.0485926
-0.0496724
-0.0507626
-0.0518633
-0.0529749
-0.0540978
-0.0552324
-0.056379
-0.057538
-0.0587097
-0.0598946
-0.061093
-0.0623052
-0.0635316
-0.0647723
-0.0660277
-0.0672976
-0.0685821
-0.0698807
-0.0711929
-0.0725174
-0.0738528
-0.0751966
-0.0765453
-0.0778944
-0.0792374
-0.0805662
-0.08187
-0.0831353
-0.0843459
-0.0854823
-0.0865225
-0.0874433
-0.0882213
-0.088836
0.00857807
0.00765281
0.00681073
0.00604851
0.00528495
0.00451696
0.00375085
0.00298587
0.00222031
0.00145327
0.000684134
-8.76079e-05
-0.00086236
-0.00164042
-0.00242199
-0.00320722
-0.00399622
-0.00478906
-0.00558579
-0.00638644
-0.00719106
-0.00799965
-0.00881225
-0.00962887
-0.0104496
-0.0112743
-0.0121032
-0.0129362
-0.0137735
-0.014615
-0.0154608
-0.0163109
-0.0171655
-0.0180245
-0.0188881
-0.0197563
-0.0206293
-0.021507
-0.0223895
-0.0232771
-0.0241696
-0.0250674
-0.0259704
-0.0268788
-0.0277927
-0.0287121
-0.0296373
-0.0305684
-0.0315054
-0.0324486
-0.0333981
-0.034354
-0.0353165
-0.0362857
-0.0372619
-0.0382452
-0.0392358
-0.0402339
-0.0412396
-0.0422533
-0.0432751
-0.0443052
-0.0453439
-0.0463914
-0.047448
-0.048514
-0.0495895
-0.0506749
-0.0517705
-0.0528765
-0.0539933
-0.0551211
-0.0562603
-0.057411
-0.0585736
-0.0597484
-0.0609355
-0.0621352
-0.0633475
-0.0645726
-0.0658102
-0.0670602
-0.0683221
-0.0695952
-0.0708785
-0.0721703
-0.0734685
-0.0747702
-0.0760715
-0.0773672
-0.0786507
-0.0799138
-0.081146
-0.0823349
-0.0834656
-0.0845215
-0.085484
-0.0863343
-0.0870542
-0.087628
0.00865301
0.00772748
0.00688358
0.00612005
0.00535431
0.00458331
0.00381397
0.00304578
0.00227714
0.00150723
0.00073552
-3.8501e-05
-0.000815236
-0.00159499
-0.00237801
-0.00316446
-0.00395447
-0.00474814
-0.00554556
-0.00634676
-0.00715181
-0.00796074
-0.00877358
-0.00959038
-0.0104112
-0.011236
-0.0120648
-0.0128978
-0.0137349
-0.0145762
-0.0154217
-0.0162716
-0.0171258
-0.0179845
-0.0188476
-0.0197154
-0.0205877
-0.0214648
-0.0223468
-0.0232336
-0.0241254
-0.0250223
-0.0259244
-0.0268319
-0.0277447
-0.028663
-0.029587
-0.0305168
-0.0314525
-0.0323942
-0.033342
-0.0342962
-0.0352569
-0.0362242
-0.0371983
-0.0381793
-0.0391675
-0.0401629
-0.0411659
-0.0421766
-0.0431951
-0.0442218
-0.0452567
-0.0463002
-0.0473524
-0.0484136
-0.049484
-0.0505638
-0.0516533
-0.0527527
-0.0538623
-0.0549822
-0.0561126
-0.0572538
-0.058406
-0.0595692
-0.0607435
-0.061929
-0.0631256
-0.0643331
-0.0655511
-0.0667793
-0.0680168
-0.0692626
-0.0705153
-0.0717728
-0.0730327
-0.0742917
-0.0755454
-0.0767887
-0.0780147
-0.0792155
-0.0803813
-0.0815005
-0.0825602
-0.0835458
-0.0844421
-0.0852336
-0.085906
-0.0864472
0.00873285
0.00780693
0.00696131
0.00619677
0.00542928
0.00465577
0.00388367
0.0031127
0.00234133
0.00156885
0.000794762
1.86111e-05
-0.000760002
-0.00154139
-0.00232581
-0.00311344
-0.00390444
-0.00469893
-0.00549701
-0.00629874
-0.00710418
-0.0079134
-0.00872644
-0.00954334
-0.0103641
-0.0111889
-0.0120176
-0.0128504
-0.0136873
-0.0145283
-0.0153735
-0.0162229
-0.0170767
-0.0179348
-0.0187974
-0.0196644
-0.0205361
-0.0214124
-0.0222935
-0.0231794
-0.0240702
-0.0249661
-0.0258671
-0.0267732
-0.0276848
-0.0286017
-0.0295242
-0.0304524
-0.0313863
-0.0323262
-0.0332721
-0.0342242
-0.0351827
-0.0361476
-0.0371191
-0.0380974
-0.0390827
-0.0400751
-0.0410747
-0.0420818
-0.0430965
-0.0441191
-0.0451496
-0.0461883
-0.0472354
-0.0482911
-0.0493555
-0.0504289
-0.0515114
-0.0526032
-0.0537044
-0.0548153
-0.0559359
-0.0570664
-0.0582068
-0.059357
-0.0605172
-0.061687
-0.0628664
-0.0640548
-0.0652518
-0.0664567
-0.0676684
-0.0688855
-0.0701064
-0.0713288
-0.0725499
-0.0737661
-0.0749731
-0.0761654
-0.0773366
-0.078479
-0.0795834
-0.0806396
-0.0816361
-0.0825604
-0.0833999
-0.0841418
-0.0847749
-0.0852898
0.00881836
0.00789192
0.00704466
0.00627932
0.00551043
0.00473481
0.00396035
0.00318696
0.00241318
0.00163838
0.000862128
8.40044e-05
-0.000696372
-0.00147931
-0.00226506
-0.00305383
-0.00384579
-0.00464107
-0.00543977
-0.00624199
-0.0070478
-0.00785727
-0.00867045
-0.0094874
-0.0103082
-0.0111328
-0.0119613
-0.0127938
-0.0136304
-0.0144709
-0.0153156
-0.0161645
-0.0170177
-0.0178751
-0.0187369
-0.0196031
-0.0204739
-0.0213493
-0.0222293
-0.0231141
-0.0240037
-0.0248983
-0.0257978
-0.0267025
-0.0276125
-0.0285277
-0.0294484
-0.0303747
-0.0313066
-0.0322443
-0.0331879
-0.0341376
-0.0350934
-0.0360555
-0.0370241
-0.0379992
-0.0389811
-0.0399698
-0.0409656
-0.0419686
-0.0429789
-0.0439967
-0.0450222
-0.0460554
-0.0470967
-0.0481461
-0.0492037
-0.0502698
-0.0513444
-0.0524276
-0.0535196
-0.0546205
-0.0557302
-0.0568488
-0.0579763
-0.0591124
-0.0602572
-0.0614101
-0.062571
-0.0637391
-0.0649138
-0.0660942
-0.0672789
-0.0684665
-0.069655
-0.0708419
-0.0720243
-0.0731984
-0.0743599
-0.0755034
-0.0766227
-0.0777105
-0.0787587
-0.0797579
-0.0806981
-0.0815688
-0.0823592
-0.0830591
-0.0836593
-0.0841525
0.00891013
0.00798309
0.00713426
0.00636826
0.00559823
0.00482081
0.00404433
0.00326884
0.00249294
0.00171606
0.00093785
0.000157916
-0.000624096
-0.00140849
-0.0021955
-0.00298535
-0.00377822
-0.00457424
-0.00537353
-0.0061762
-0.00698233
-0.00779199
-0.00860526
-0.00942219
-0.0102428
-0.0110673
-0.0118955
-0.0127277
-0.0135637
-0.0144038
-0.0152479
-0.0160961
-0.0169484
-0.017805
-0.0186659
-0.0195312
-0.0204008
-0.021275
-0.0221538
-0.0230373
-0.0239254
-0.0248185
-0.0257164
-0.0266194
-0.0275275
-0.0284408
-0.0293594
-0.0302834
-0.0312129
-0.0321481
-0.0330891
-0.0340359
-0.0349887
-0.0359476
-0.0369127
-0.0378843
-0.0388623
-0.0398469
-0.0408383
-0.0418366
-0.0428419
-0.0438544
-0.0448741
-0.0459013
-0.046936
-0.0479784
-0.0490285
-0.0500864
-0.0511523
-0.0522262
-0.053308
-0.0543979
-0.0554957
-0.0566015
-0.057715
-0.058836
-0.0599642
-0.0610992
-0.0622405
-0.0633874
-0.0645389
-0.0656939
-0.066851
-0.0680086
-0.0691644
-0.0703159
-0.0714601
-0.0725931
-0.0737106
-0.0748076
-0.0758781
-0.0769154
-0.0779121
-0.0788598
-0.07975
-0.0805735
-0.0813214
-0.0819853
-0.0825577
-0.0830329
0.00900865
0.00808095
0.00723059
0.00646404
0.00569308
0.00491414
0.00413591
0.00335859
0.00258082
0.0018021
0.00102212
0.000240544
-0.00054297
-0.0013287
-0.0021169
-0.00290776
-0.00370147
-0.00449818
-0.00529801
-0.00610108
-0.00690747
-0.00771728
-0.00853058
-0.00934743
-0.0101679
-0.010992
-0.0118199
-0.0126516
-0.0134871
-0.0143265
-0.0151698
-0.0160172
-0.0168687
-0.0177243
-0.0185841
-0.0194482
-0.0203166
-0.0211894
-0.0220668
-0.0229486
-0.0238352
-0.0247264
-0.0256225
-0.0265235
-0.0274294
-0.0283405
-0.0292567
-0.0301782
-0.031105
-0.0320374
-0.0329753
-0.0339189
-0.0348683
-0.0358236
-0.0367849
-0.0377523
-0.038726
-0.039706
-0.0406925
-0.0416856
-0.0426854
-0.0436919
-0.0447054
-0.0457258
-0.0467533
-0.0477879
-0.0488298
-0.0498789
-0.0509352
-0.0519989
-0.0530698
-0.0541478
-0.0552329
-0.0563249
-0.0574235
-0.0585285
-0.0596393
-0.0607555
-0.0618764
-0.0630012
-0.0641288
-0.065258
-0.0663871
-0.0675145
-0.0686378
-0.0697543
-0.0708611
-0.0719543
-0.0730299
-0.0740828
-0.0751076
-0.0760982
-0.0770478
-0.0779491
-0.0787945
-0.0795764
-0.0802873
-0.0809201
-0.0814688
-0.0819288
0.0091143
0.00818591
0.00733407
0.00656706
0.00579533
0.00501506
0.00423532
0.00345642
0.00267702
0.00189666
0.00111511
0.000332048
-0.00045283
-0.00123979
-0.00202906
-0.00282085
-0.00361534
-0.00441267
-0.00521298
-0.00601639
-0.006823
-0.00763289
-0.00844615
-0.00926285
-0.010083
-0.0109068
-0.0117342
-0.0125653
-0.0134001
-0.0142388
-0.0150813
-0.0159277
-0.0167781
-0.0176326
-0.0184912
-0.0193539
-0.0202209
-0.0210922
-0.0219679
-0.022848
-0.0237326
-0.0246219
-0.0255158
-0.0264145
-0.0273181
-0.0282266
-0.0291401
-0.0300588
-0.0309826
-0.0319118
-0.0328463
-0.0337863
-0.0347319
-0.0356832
-0.0366403
-0.0376032
-0.0385721
-0.039547
-0.0405281
-0.0415155
-0.0425092
-0.0435092
-0.0445158
-0.0455289
-0.0465485
-0.0475748
-0.0486077
-0.0496473
-0.0506934
-0.0517461
-0.0528053
-0.0538707
-0.0549423
-0.0560197
-0.0571027
-0.0581909
-0.0592836
-0.0603803
-0.0614802
-0.0625824
-0.0636857
-0.0647887
-0.0658898
-0.066987
-0.0680781
-0.0691605
-0.0702309
-0.0712859
-0.0723215
-0.0733329
-0.0743151
-0.0752625
-0.0761691
-0.0770284
-0.0778339
-0.078579
-0.0792574
-0.0798632
-0.0803915
-0.0808384
0.00922741
0.00829829
0.00744502
0.00667761
0.00590524
0.00512383
0.00434278
0.0035625
0.00278168
0.00199989
0.00121694
0.00043255
-0.000353552
-0.00114162
-0.00193186
-0.00272449
-0.00351967
-0.00431755
-0.00511828
-0.00592196
-0.00672871
-0.00753862
-0.00835176
-0.00916823
-0.00998809
-0.0108114
-0.0116382
-0.0124687
-0.0133027
-0.0141405
-0.014982
-0.0158274
-0.0166766
-0.0175298
-0.0183869
-0.0192481
-0.0201135
-0.0209831
-0.0218569
-0.022735
-0.0236176
-0.0245046
-0.0253962
-0.0262924
-0.0271933
-0.028099
-0.0290095
-0.029925
-0.0308455
-0.0317712
-0.032702
-0.0336381
-0.0345795
-0.0355264
-0.0364788
-0.0374368
-0.0384004
-0.0393699
-0.0403451
-0.0413262
-0.0423133
-0.0433064
-0.0443055
-0.0453106
-0.0463219
-0.0473392
-0.0483626
-0.0493919
-0.0504272
-0.0514683
-0.052515
-0.0535672
-0.0546246
-0.0556869
-0.0567536
-0.0578243
-0.0588984
-0.0599751
-0.0610535
-0.0621328
-0.0632115
-0.0642882
-0.0653614
-0.0664289
-0.0674885
-0.0685375
-0.0695729
-0.0705914
-0.0715889
-0.0725613
-0.0735039
-0.0744116
-0.0752789
-0.0761002
-0.0768699
-0.0775823
-0.078232
-0.0788141
-0.0793247
-0.0797605
0.0093482
0.00841835
0.0075637
0.00679595
0.00602304
0.00524065
0.00445846
0.00367699
0.00289492
0.00211187
0.00132769
0.000542137
-0.000245048
-0.00103409
-0.0018252
-0.00261856
-0.00341435
-0.0042127
-0.00501376
-0.00581764
-0.00662446
-0.00743431
-0.00824727
-0.00906343
-0.00988286
-0.0107056
-0.0115318
-0.0123615
-0.0131946
-0.0140314
-0.0148718
-0.0157159
-0.0165638
-0.0174156
-0.0182712
-0.0191307
-0.0199943
-0.0208619
-0.0217337
-0.0226097
-0.0234899
-0.0243745
-0.0252634
-0.0261569
-0.0270549
-0.0279575
-0.0288648
-0.0297768
-0.0306937
-0.0316155
-0.0325422
-0.033474
-0.0344109
-0.035353
-0.0363004
-0.037253
-0.038211
-0.0391745
-0.0401434
-0.0411179
-0.0420979
-0.0430834
-0.0440746
-0.0450713
-0.0460736
-0.0470814
-0.0480946
-0.0491132
-0.0501371
-0.051166
-0.0521997
-0.0532381
-0.0542807
-0.0553273
-0.0563772
-0.05743
-0.0584849
-0.0595413
-0.0605981
-0.0616541
-0.0627083
-0.063759
-0.0648044
-0.0658427
-0.0668715
-0.0678883
-0.0688901
-0.0698737
-0.0708354
-0.0717712
-0.0726769
-0.0735479
-0.0743794
-0.0751663
-0.0759038
-0.076587
-0.0772113
-0.0777726
-0.0782677
-0.0786938
0.00947689
0.0085463
0.00769031
0.00692225
0.0061489
0.00536565
0.00458247
0.00379997
0.00301682
0.00223269
0.00144744
0.00066086
-0.000127272
-0.00091717
-0.00170903
-0.00250302
-0.00329931
-0.00409804
-0.00489935
-0.00570336
-0.00651016
-0.00731987
-0.00813256
-0.00894833
-0.00976724
-0.0105894
-0.0114148
-0.0122436
-0.0130757
-0.0139114
-0.0147506
-0.0155934
-0.0164398
-0.0172899
-0.0181438
-0.0190015
-0.0198631
-0.0207286
-0.0215982
-0.0224717
-0.0233495
-0.0242313
-0.0251175
-0.0260079
-0.0269028
-0.027802
-0.0287058
-0.0296141
-0.030527
-0.0314446
-0.032367
-0.0332942
-0.0342262
-0.0351632
-0.0361051
-0.037052
-0.038004
-0.0389611
-0.0399233
-0.0408906
-0.041863
-0.0428406
-0.0438234
-0.0448112
-0.045804
-0.0468018
-0.0478044
-0.0488117
-0.0498236
-0.0508398
-0.0518601
-0.0528841
-0.0539116
-0.0549419
-0.0559747
-0.0570092
-0.0580448
-0.0590805
-0.0601155
-0.0611485
-0.0621781
-0.063203
-0.0642213
-0.065231
-0.06623
-0.0672157
-0.0681853
-0.0691357
-0.0700636
-0.0709652
-0.0718367
-0.0726739
-0.0734726
-0.0742283
-0.0749367
-0.0755937
-0.0761954
-0.0767384
-0.0772198
-0.0776374
0.00961359
0.00868227
0.007825
0.00705667
0.00628294
0.00549894
0.0047149
0.00393151
0.00314744
0.00236236
0.00157619
0.000788736
-2.08124e-07
-0.000790836
-0.00158332
-0.00237784
-0.00317454
-0.00397355
-0.00477502
-0.00557905
-0.00638576
-0.00719524
-0.00800758
-0.00882287
-0.00964117
-0.0104626
-0.0112871
-0.0121149
-0.012946
-0.0137804
-0.0146182
-0.0154595
-0.0163043
-0.0171527
-0.0180047
-0.0188604
-0.0197199
-0.0205831
-0.0214502
-0.0223212
-0.0231962
-0.0240752
-0.0249583
-0.0258455
-0.0267369
-0.0276326
-0.0285325
-0.0294368
-0.0303455
-0.0312587
-0.0321764
-0.0330986
-0.0340255
-0.0349569
-0.0358931
-0.0368339
-0.0377795
-0.0387298
-0.0396848
-0.0406446
-0.0416091
-0.0425783
-0.0435522
-0.0445306
-0.0455135
-0.0465008
-0.0474924
-0.048488
-0.0494875
-0.0504906
-0.051497
-0.0525063
-0.0535181
-0.054532
-0.0555473
-0.0565633
-0.0575794
-0.0585945
-0.0596076
-0.0606176
-0.0616231
-0.0626225
-0.0636142
-0.0645962
-0.0655663
-0.0665221
-0.067461
-0.06838
-0.0692761
-0.0701457
-0.0709854
-0.0717915
-0.0725601
-0.0732874
-0.0739696
-0.0746031
-0.0751846
-0.0757111
-0.0761804
-0.0765906
0.00975841
0.00882636
0.00796785
0.00719928
0.00642524
0.00564059
0.0048558
0.00407164
0.00328678
0.0025009
0.00171394
0.000925747
0.00013612
-0.000655114
-0.00144812
-0.00224305
-0.00304004
-0.00383925
-0.00464078
-0.00544475
-0.00625127
-0.00706043
-0.00787232
-0.00868703
-0.00950463
-0.0103252
-0.0111488
-0.0119755
-0.0128053
-0.0136384
-0.0144748
-0.0153144
-0.0161575
-0.017004
-0.017854
-0.0187075
-0.0195646
-0.0204254
-0.0212899
-0.0221581
-0.0230302
-0.0239061
-0.0247859
-0.0256696
-0.0265574
-0.0274492
-0.0283451
-0.0292451
-0.0301493
-0.0310578
-0.0319705
-0.0328875
-0.0338088
-0.0347344
-0.0356645
-0.0365989
-0.0375377
-0.0384809
-0.0394284
-0.0403803
-0.0413365
-0.0422969
-0.0432615
-0.0442301
-0.0452028
-0.0461792
-0.0471593
-0.0481429
-0.0491296
-0.0501192
-0.0511113
-0.0521056
-0.0531016
-0.0540987
-0.0550964
-0.0560938
-0.0570902
-0.0580847
-0.0590761
-0.0600634
-0.061045
-0.0620196
-0.0629854
-0.0639405
-0.0648828
-0.06581
-0.0667196
-0.067609
-0.068475
-0.0693148
-0.070125
-0.0709024
-0.0716434
-0.0723448
-0.0730031
-0.0736154
-0.0741787
-0.0746907
-0.0751492
-0.0755528
0.00991136
0.00897861
0.00811891
0.00735012
0.00657583
0.00579061
0.00500517
0.00422036
0.00343483
0.00264827
0.00186066
0.00107184
0.000281658
-0.000510062
-0.00130347
-0.0020987
-0.00289589
-0.00369518
-0.00449667
-0.00530048
-0.00610672
-0.00691547
-0.00772682
-0.00854086
-0.00935766
-0.0101773
-0.0109998
-0.0118253
-0.0126538
-0.0134854
-0.0143202
-0.0151581
-0.0159993
-0.0168437
-0.0176916
-0.0185428
-0.0193974
-0.0202556
-0.0211173
-0.0219825
-0.0228514
-0.023724
-0.0246003
-0.0254804
-0.0263643
-0.027252
-0.0281436
-0.0290391
-0.0299386
-0.030842
-0.0317494
-0.0326609
-0.0335764
-0.034496
-0.0354196
-0.0363472
-0.0372789
-0.0382147
-0.0391543
-0.040098
-0.0410455
-0.0419968
-0.0429518
-0.0439103
-0.0448723
-0.0458376
-0.0468059
-0.047777
-0.0487507
-0.0497265
-0.0507042
-0.0516832
-0.0526631
-0.0536434
-0.0546233
-0.055602
-0.0565789
-0.0575529
-0.0585229
-0.0594877
-0.060446
-0.0613963
-0.0623369
-0.063266
-0.0641816
-0.0650815
-0.0659633
-0.0668246
-0.0676625
-0.0684744
-0.0692572
-0.070008
-0.0707237
-0.0714014
-0.0720381
-0.0726312
-0.0731782
-0.0736769
-0.0741258
-0.0745235
0.0100725
0.00913901
0.00827817
0.00750919
0.00673468
0.00594897
0.00516298
0.00437762
0.00359152
0.0028044
0.00201625
0.00122694
0.000436314
-0.000355776
-0.00114947
-0.00194489
-0.00274218
-0.00354144
-0.0043428
-0.00514636
-0.00595221
-0.00676045
-0.00757117
-0.00838443
-0.00920033
-0.0100189
-0.0108403
-0.0116645
-0.0124915
-0.0133215
-0.0141545
-0.0149906
-0.0158298
-0.0166721
-0.0175176