/*--------------------------------*- C++ -*----------------------------------*\
| =========                 |                                                 |
| \\      /  F ield         | OpenFOAM: The Open Source CFD Toolbox           |
|  \\    /   O peration     | Version:  2406                                  |
|   \\  /    A nd           | Website:  www.openfoam.com                      |
|    \\/     M anipulation  |                                                 |
\*---------------------------------------------------------------------------*/
FoamFile
{
    version     2.0;
    format      ascii;
    arch        "LSB;label=32;scalar=64";
    class       volScalarField;
    location    "83";
    object      p;
}
// * * * * * * * * * * * * * * * * * * * * * * * * * * * * * * * * * * * * * //

dimensions      [0 2 -2 0 0 0 0];

internalField   nonuniform List<scalar> 
1916
(
3.91846
3.91797
3.9169
3.91553
3.914
3.91236
3.91065
3.9089
3.90711
3.90531
3.90348
3.90165
3.89981
3.89796
3.8961
3.89424
3.89238
3.89051
3.88864
3.88678
3.88491
3.88305
3.88119
3.87934
3.8775
3.87568
3.87387
3.87209
3.87036
3.86867
3.86704
3.86551
3.86408
3.86281
3.86172
3.86088
3.86035
3.86019
3.86048
3.86128
3.86266
3.86464
3.86716
3.87009
3.8732
3.87613
3.87794
3.91978
3.9184
3.91695
3.91551
3.91397
3.91233
3.91062
3.90887
3.90709
3.90529
3.90347
3.90164
3.8998
3.89795
3.89609
3.89423
3.89237
3.8905
3.88864
3.88677
3.88491
3.88304
3.88119
3.87934
3.8775
3.87567
3.87387
3.8721
3.87036
3.86867
3.86705
3.86552
3.86411
3.86285
3.86179
3.86099
3.86051
3.86044
3.86086
3.86185
3.86349
3.86578
3.86869
3.87204
3.87555
3.87892
3.88099
3.92057
3.91865
3.9169
3.91545
3.91393
3.91229
3.91057
3.90883
3.90705
3.90526
3.90344
3.90162
3.89978
3.89793
3.89608
3.89422
3.89236
3.89049
3.88862
3.88676
3.88489
3.88302
3.88116
3.8793
3.87746
3.87562
3.8738
3.872
3.87024
3.86851
3.86685
3.86525
3.86376
3.8624
3.86122
3.86027
3.85963
3.85938
3.85964
3.86051
3.86212
3.86455
3.86782
3.87181
3.87615
3.88049
3.88272
3.92107
3.91892
3.91695
3.91543
3.91391
3.91225
3.91052
3.90878
3.90701
3.90522
3.90341
3.90159
3.89975
3.89791
3.89605
3.8942
3.89233
3.89047
3.8886
3.88672
3.88485
3.88297
3.8811
3.87922
3.87735
3.87548
3.87361
3.87175
3.86991
3.86808
3.86627
3.86449
3.86276
3.86108
3.8595
3.85804
3.85677
3.85576
3.85511
3.85497
3.85554
3.85702
3.85961
3.86343
3.8681
3.87307
3.87386
3.92145
3.9192
3.91706
3.91545
3.9139
3.91222
3.91048
3.90873
3.90696
3.90518
3.90337
3.90155
3.89972
3.89787
3.89602
3.89416
3.8923
3.89043
3.88855
3.88667
3.88478
3.88289
3.88099
3.87908
3.87717
3.87524
3.8733
3.87134
3.86936
3.86735
3.8653
3.8632
3.86105
3.85882
3.85651
3.8541
3.85159
3.84899
3.84633
3.8437
3.84124
3.83921
3.83791
3.83778
3.83842
3.83934
3.83073
3.92176
3.91945
3.91719
3.91549
3.91391
3.91222
3.91045
3.90869
3.90692
3.90513
3.90332
3.90151
3.89967
3.89783
3.89598
3.89412
3.89225
3.89038
3.88849
3.8866
3.8847
3.88278
3.88085
3.8789
3.87693
3.87493
3.87289
3.8708
3.86864
3.86639
3.86402
3.86149
3.85876
3.85577
3.85242
3.84862
3.84426
3.83917
3.83318
3.8261
3.81772
3.80786
3.79625
3.78279
3.76519
3.74115
3.67755
3.92198
3.91964
3.91731
3.91555
3.91394
3.91222
3.91044
3.90866
3.90688
3.90509
3.90328
3.90147
3.89963
3.89779
3.89594
3.89407
3.8922
3.89032
3.88843
3.88652
3.8846
3.88266
3.8807
3.8787
3.87667
3.87459
3.87244
3.87019
3.86783
3.86531
3.86258
3.85956
3.85617
3.85227
3.8477
3.84223
3.83555
3.82725
3.81677
3.80335
3.78588
3.76281
3.73146
3.68866
3.62286
3.53092
3.22309
3.92215
3.91979
3.91741
3.91561
3.91396
3.91222
3.91043
3.90864
3.90686
3.90506
3.90325
3.90143
3.8996
3.89776
3.8959
3.89403
3.89216
3.89027
3.88837
3.88645
3.88451
3.88254
3.88055
3.87851
3.87642
3.87426
3.872
3.86962
3.86706
3.86428
3.8612
3.85771
3.85367
3.84888
3.84308
3.83589
3.82681
3.81508
3.79965
3.77893
3.75039
3.71
3.64971
3.55544
3.37676
3.02259
1.84044
3.92225
3.91988
3.91748
3.91565
3.91398
3.91223
3.91042
3.90863
3.90684
3.90504
3.90323
3.9014
3.89957
3.89773
3.89587
3.894
3.89212
3.89023
3.88832
3.88639
3.88444
3.88245
3.88043
3.87836
3.87622
3.874
3.87166
3.86916
3.86646
3.86347
3.86011
3.85624
3.85168
3.84617
3.83937
3.83077
3.81967
3.80503
3.7853
3.7581
3.71956
3.66325
3.57696
3.43879
3.19591
2.77019
1.98949
3.9223
3.91993
3.91751
3.91567
3.91399
3.91223
3.91042
3.90862
3.90682
3.90502
3.90321
3.90139
3.89956
3.89771
3.89585
3.89398
3.8921
3.8902
3.88829
3.88635
3.88439
3.88239
3.88036
3.87826
3.8761
3.87384
3.87146
3.8689
3.86611
3.86301
3.85949
3.85541
3.85055
3.84464
3.83727
3.82787
3.81562
3.7993
3.77708
3.74611
3.70186
3.63687
3.53853
3.38606
3.14538
2.76679
2.21256
3.9223
3.91992
3.91751
3.91566
3.91399
3.91223
3.91042
3.90861
3.90682
3.90502
3.9032
3.90138
3.89955
3.8977
3.89584
3.89397
3.89209
3.89019
3.88828
3.88634
3.88438
3.88238
3.88034
3.87825
3.87608
3.87382
3.87143
3.86887
3.86608
3.86297
3.85945
3.85536
3.8505
3.84458
3.8372
3.82779
3.81552
3.79917
3.77691
3.74588
3.70152
3.63636
3.53769
3.3846
3.14282
2.76217
2.20518
3.92224
3.91987
3.91747
3.91564
3.91397
3.91222
3.91041
3.90861
3.90682
3.90502
3.90321
3.90139
3.89955
3.89771
3.89585
3.89397
3.89209
3.8902
3.88829
3.88635
3.8844
3.88241
3.88038
3.8783
3.87616
3.87393
3.87158
3.86908
3.86636
3.86337
3.86
3.85611
3.85153
3.846
3.83917
3.83053
3.81938
3.80467
3.78483
3.75747
3.71865
3.66187
3.57472
3.43487
3.18834
2.75465
1.95797
3.92213
3.91977
3.91739
3.91559
3.91394
3.9122
3.91041
3.90862
3.90683
3.90503
3.90322
3.9014
3.89957
3.89772
3.89586
3.89399
3.89211
3.89022
3.88832
3.88639
3.88445
3.88247
3.88047
3.87842
3.87633
3.87415
3.87188
3.86949
3.86692
3.86412
3.86102
3.8575
3.85343
3.84861
3.84277
3.83553
3.82637
3.81454
3.79897
3.77803
3.74916
3.70823
3.64699
3.55101
3.36817
3.00433
1.7807
3.92196
3.91961
3.91729
3.91553
3.91391
3.91219
3.91041
3.90863
3.90685
3.90506
3.90325
3.90143
3.89959
3.89775
3.89589
3.89402
3.89215
3.89026
3.88836
3.88645
3.88451
3.88256
3.88059
3.87859
3.87654
3.87445
3.87228
3.87002
3.86764
3.8651
3.86234
3.85929
3.85587
3.85193
3.8473
3.84176
3.835
3.8266
3.81598
3.80236
3.7846
3.7611
3.72909
3.6853
3.61774
3.52356
3.20556
3.92172
3.91941
3.91716
3.91546
3.91388
3.91218
3.91042
3.90865
3.90688
3.90509
3.90328
3.90146
3.89962
3.89778
3.89592
3.89405
3.89218
3.8903
3.88841
3.88651
3.88459
3.88267
3.88072
3.87876
3.87678
3.87476
3.8727
3.87059
3.86841
3.86613
3.86373
3.86117
3.85841
3.85536
3.85196
3.8481
3.84366
3.83847
3.83236
3.82512
3.81654
3.80642
3.79446
3.78055
3.76229
3.73739
3.67152
3.92142
3.91916
3.91702
3.91541
3.91386
3.91218
3.91044
3.90869
3.90692
3.90513
3.90332
3.90149
3.89966
3.89781
3.89595
3.89409
3.89222
3.89034
3.88846
3.88656
3.88467
3.88276
3.88085
3.87893
3.877
3.87505
3.87309
3.87111
3.8691
3.86706
3.86498
3.86285
3.86066
3.85839
3.85602
3.85356
3.85098
3.8483
3.84554
3.8428
3.84022
3.83806
3.83662
3.83634
3.83683
3.83762
3.82866
3.92103
3.91888
3.91691
3.91539
3.91387
3.91221
3.91048
3.90873
3.90696
3.90517
3.90336
3.90153
3.89969
3.89784
3.89598
3.89412
3.89225
3.89037
3.88849
3.88661
3.88472
3.88284
3.88095
3.87905
3.87716
3.87527
3.87339
3.87151
3.86963
3.86777
3.86593
3.86412
3.86235
3.86063
3.859
3.85749
3.85616
3.85508
3.85437
3.85417
3.85467
3.85609
3.85864
3.86244
3.86712
3.87211
3.87285
3.92053
3.91861
3.91686
3.9154
3.91389
3.91224
3.91053
3.90878
3.907
3.90521
3.90339
3.90156
3.89971
3.89786
3.896
3.89414
3.89227
3.8904
3.88852
3.88664
3.88476
3.88288
3.88101
3.87913
3.87727
3.87541
3.87357
3.87175
3.86996
3.8682
3.8665
3.86488
3.86335
3.86194
3.86072
3.85972
3.85903
3.85874
3.85894
3.85977
3.86134
3.86375
3.86702
3.87102
3.87539
3.87977
3.882
3.91973
3.91836
3.9169
3.91547
3.91393
3.91228
3.91057
3.90882
3.90704
3.90523
3.90341
3.90158
3.89973
3.89788
3.89602
3.89415
3.89228
3.89041
3.88853
3.88666
3.88478
3.8829
3.88103
3.87917
3.87731
3.87546
3.87364
3.87184
3.87008
3.86836
3.86671
3.86515
3.8637
3.8624
3.8613
3.86045
3.85993
3.85981
3.86019
3.86115
3.86275
3.86503
3.86793
3.87129
3.87482
3.87822
3.88031
3.91842
3.91793
3.91686
3.91549
3.91396
3.91232
3.91061
3.90885
3.90706
3.90525
3.90343
3.90159
3.89975
3.89789
3.89603
3.89416
3.89229
3.89042
3.88854
3.88666
3.88478
3.88291
3.88104
3.87917
3.87731
3.87547
3.87364
3.87184
3.87008
3.86836
3.8667
3.86513
3.86367
3.86236
3.86123
3.86035
3.85977
3.85957
3.85981
3.86059
3.86194
3.86389
3.8664
3.86933
3.87245
3.8754
3.87723
-0.668795
-0.628489
-0.193027
-0.121621
-0.195723
-0.225267
0.747029
0.197178
0.0971198
0.00137912
-0.121142
-0.188393
1.34579
0.553168
0.171347
0.0155805
-0.105289
-0.197222
1.33098
0.528618
0.137577
-0.0301501
-0.169187
-0.283229
0.680999
0.106101
-0.0111546
-0.134591
-0.303694
-0.431864
-0.83988
-0.822978
-0.374629
-0.322951
-0.456748
-0.566941
-0.11003
-0.110633
-0.11085
-0.110478
-0.109649
-0.108427
-0.106841
-0.104923
-0.102708
-0.100237
-0.0975534
-0.094699
-0.0917152
-0.088641
-0.0855135
-0.082367
-0.0792329
-0.0761396
-0.0731109
-0.0701657
-0.0673177
-0.0645752
-0.0619418
-0.0594162
-0.0569937
-0.0546658
-0.0524216
-0.0502483
-0.0481315
-0.0460555
-0.0440039
-0.0419591
-0.0399033
-0.0378184
-0.0356859
-0.0334873
-0.0312036
-0.0288175
-0.0263165
-0.0236954
-0.0209511
-0.0180845
-0.0151085
-0.0120457
-0.00890622
-0.00571285
-0.00218652
-0.109137
-0.109769
-0.109991
-0.109658
-0.10892
-0.107804
-0.106317
-0.104484
-0.102341
-0.0999324
-0.0973027
-0.0944963
-0.0915553
-0.0885195
-0.085426
-0.082309
-0.0791997
-0.0761267
-0.0731137
-0.0701796
-0.0673383
-0.0645987
-0.061964
-0.0594338
-0.0570032
-0.0546644
-0.0524065
-0.0502169
-0.0480815
-0.0459854
-0.0439121
-0.0418449
-0.0397662
-0.0376589
-0.0355064
-0.0332936
-0.0310037
-0.0286174
-0.0261217
-0.0235211
-0.020821
-0.0179918
-0.0150073
-0.0119373
-0.00884078
-0.00566884
-0.00249615
-0.109504
-0.110071
-0.11022
-0.109843
-0.109104
-0.107989
-0.106495
-0.104647
-0.102486
-0.100058
-0.0974112
-0.0945917
-0.0916411
-0.0885986
-0.0854998
-0.0823782
-0.0792624
-0.0761796
-0.073154
-0.0702053
-0.067348
-0.0645912
-0.0619386
-0.0593898
-0.0569403
-0.0545821
-0.0523044
-0.050095
-0.0479407
-0.0458264
-0.0437368
-0.0416557
-0.0395658
-0.0374518
-0.0353011
-0.0331031
-0.030841
-0.0284879
-0.0260278
-0.0234788
-0.0208496
-0.0180678
-0.0150742
-0.0119949
-0.00892269
-0.00571174
-0.00255688
-0.112931
-0.113016
-0.112733
-0.112029
-0.111015
-0.10964
-0.1079
-0.105827
-0.103467
-0.100868
-0.0980765
-0.0951363
-0.0920856
-0.0889587
-0.0857877
-0.0826011
-0.0794244
-0.0762823
-0.0731994
-0.0701972
-0.0672906
-0.0644895
-0.0617972
-0.0592129
-0.0567325
-0.0543481
-0.0520491
-0.0498234
-0.0476579
-0.0455379
-0.0434494
-0.0413765
-0.0393028
-0.0372148
-0.0351046
-0.032966
-0.0307813
-0.0285143
-0.0261405
-0.0236795
-0.0211416
-0.0184385
-0.0154938
-0.012408
-0.00919641
-0.00578206
-0.002517
-0.121642
-0.11959
-0.117689
-0.116029
-0.114331
-0.112391
-0.110168
-0.107688
-0.104989
-0.10211
-0.0990876
-0.0959574
-0.0927497
-0.0894898
-0.0862033
-0.0829124
-0.0796396
-0.0764077
-0.0732408
-0.0701596
-0.0671799
-0.0643117
-0.0615577
-0.0589192
-0.0563927
-0.0539726
-0.051647
-0.0494048
-0.0472322
-0.0451157
-0.0430423
-0.0409978
-0.0389665
-0.0369376
-0.0349058
-0.0328692
-0.0308096
-0.0286854
-0.0264597
-0.0241371
-0.0217189
-0.0191251
-0.0162759
-0.0131869
-0.00976248
-0.0059994
-0.00247553
-0.141594
-0.129594
-0.122824
-0.11958
-0.117081
-0.114552
-0.111892
-0.109076
-0.106104
-0.103
-0.0997924
-0.0965085
-0.0931715
-0.0898034
-0.0864254
-0.0830563
-0.0797116
-0.0764118
-0.0731778
-0.0700263
-0.066976
-0.0640392
-0.0612222
-0.0585289
-0.0559596
-0.0535077
-0.0511619
-0.0489093
-0.046738
-0.0446342
-0.0425872
-0.040584
-0.0386131
-0.0366665
-0.0347414
-0.032834
-0.0309291
-0.0289856
-0.0269581
-0.0248215
-0.0225522
-0.0200734
-0.0173022
-0.0141932
-0.0105747
-0.00643409
-0.0024439
-0.178297
-0.137551
-0.121814
-0.118821
-0.116599
-0.113945
-0.111344
-0.108661
-0.105763
-0.102681
-0.0994735
-0.0961768
-0.0928215
-0.0894372
-0.0860512
-0.082675
-0.0793173
-0.0760061
-0.0727632
-0.0696042
-0.0665511
-0.0636142
-0.0607938
-0.0580931
-0.0555164
-0.0530566
-0.0507059
-0.0484545
-0.046294
-0.0442137
-0.0422045
-0.0402557
-0.0383585
-0.0365078
-0.0346998
-0.0329256
-0.0311737
-0.0294095
-0.027583
-0.0256415
-0.0235265
-0.0211517
-0.0184289
-0.0152841
-0.011531
-0.00703413
-0.00234274
-0.188381
-0.140411
-0.123828
-0.122116
-0.119852
-0.116235
-0.112934
-0.109858
-0.106604
-0.103153
-0.0996063
-0.0960184
-0.0924189
-0.0888368
-0.0852995
-0.0818253
-0.07843
-0.0751327
-0.0719432
-0.068863
-0.0658966
-0.06304
-0.0602804
-0.0576291
-0.0550955
-0.0526767
-0.0503685
-0.0481614
-0.0460438
-0.044009
-0.0420463
-0.040149
-0.0383123
-0.0365372
-0.0348206
-0.0331528
-0.0315196
-0.0298866
-0.0282042
-0.0264051
-0.0244076
-0.0221166
-0.0194282
-0.016237
-0.0123721
-0.00762906
-0.00223337
-0.179621
-0.140769
-0.121817
-0.119026
-0.117914
-0.115286
-0.112606
-0.110133
-0.107361
-0.104127
-0.10057
-0.0968321
-0.0929985
-0.0891332
-0.0852958
-0.0815372
-0.0778983
-0.0744095
-0.0710872
-0.0679365
-0.0649575
-0.0621433
-0.0594811
-0.0569631
-0.0545734
-0.0522893
-0.0500934
-0.0479783
-0.0459446
-0.0439874
-0.0420907
-0.0402444
-0.0384514
-0.0367203
-0.0350467
-0.0334212
-0.0318271
-0.0302335
-0.0285981
-0.0268572
-0.0249182
-0.0226686
-0.0199829
-0.0167307
-0.0127606
-0.00795437
-0.00225375
-0.229615
-0.220938
-0.207642
-0.201137
-0.194999
-0.185453
-0.174247
-0.16315
-0.152294
-0.141484
-0.130873
-0.12074
-0.111265
-0.102534
-0.0945975
-0.0874839
-0.0811983
-0.0757203
-0.0710008
-0.0669621
-0.063503
-0.0605077
-0.0578638
-0.0554755
-0.0532685
-0.051188
-0.0491986
-0.0472773
-0.045408
-0.0435791
-0.0417833
-0.040021
-0.0382966
-0.0366161
-0.0349791
-0.0333818
-0.0318073
-0.0302263
-0.0285952
-0.0268476
-0.0248926
-0.0226198
-0.0199042
-0.0166246
-0.0126393
-0.00809332
-0.0020037
-0.334897
-0.333694
-0.319808
-0.312352
-0.30521
-0.292867
-0.27718
-0.260563
-0.243229
-0.224866
-0.205728
-0.18637
-0.167268
-0.148795
-0.131297
-0.115117
-0.100572
-0.0879131
-0.0772839
-0.0686828
-0.0619614
-0.056858
-0.0530537
-0.0502232
-0.0480708
-0.0463499
-0.0448703
-0.0434971
-0.0421462
-0.0407754
-0.0393688
-0.0379257
-0.0364556
-0.0349718
-0.0334852
-0.032001
-0.0305118
-0.0289959
-0.0274128
-0.0256973
-0.0237655
-0.0215202
-0.0188502
-0.0156784
-0.0118263
-0.00777026
-0.00121057
-0.477798
-0.451127
-0.426019
-0.419422
-0.413298
-0.400678
-0.384998
-0.368368
-0.350074
-0.329338
-0.306241
-0.281212
-0.254648
-0.226953
-0.19866
-0.170481
-0.14328
-0.117991
-0.0954799
-0.0763932
-0.0610496
-0.0494169
-0.0411588
-0.0357281
-0.0324766
-0.0307578
-0.0300029
-0.0297653
-0.0297313
-0.029703
-0.0295689
-0.0292783
-0.0288228
-0.028217
-0.027482
-0.0266407
-0.0257099
-0.0246887
-0.0235454
-0.0222085
-0.0206018
-0.018664
-0.0163177
-0.0135577
-0.0101682
-0.00701927
-0.000257686
-0.604502
-0.53973
-0.506708
-0.504401
-0.500347
-0.489123
-0.475889
-0.462039
-0.446187
-0.427338
-0.405276
-0.379922
-0.351111
-0.318751
-0.283005
-0.244447
-0.20415
-0.16366
-0.124816
-0.0894412
-0.0590326
-0.0345355
-0.0162403
-0.00381749
0.00353001
0.00686182
0.00729653
0.00585674
0.00337564
0.000469508
-0.00244809
-0.00512942
-0.00745112
-0.00937444
-0.0109064
-0.0120761
-0.0129262
-0.0134989
-0.0137858
-0.0137152
-0.0132375
-0.0123457
-0.0110225
-0.00932943
-0.00706783
-0.00529528
0.000535243
-0.620466
-0.546846
-0.517001
-0.514099
-0.512033
-0.507184
-0.501712
-0.495431
-0.487094
-0.475877
-0.46129
-0.442723
-0.419352
-0.3903
-0.354848
-0.312736
-0.264512
-0.211731
-0.15686
-0.102922
-0.0529993
-0.00973706
0.0250601
0.0506357
0.0672391
0.0759063
0.0781529
0.0756623
0.0700266
0.0625884
0.0543764
0.0461109
0.0382484
0.0310405
0.0245957
0.0189401
0.0140517
0.00987989
0.00636914
0.0035166
0.00133056
-0.000226984
-0.00119756
-0.00168255
-0.00160763
-0.00176727
0.000966551
-0.551171
-0.530938
-0.519734
-0.515451
-0.512652
-0.509727
-0.506603
-0.50275
-0.497548
-0.490497
-0.48101
-0.468277
-0.4511
-0.427946
-0.397083
-0.356979
-0.306926
-0.247589
-0.181168
-0.11114
-0.0417749
0.0225226
0.0779721
0.121988
0.153429
0.17253
0.180637
0.179776
0.172224
0.160158
0.145454
0.129583
0.113611
0.0982446
0.0839061
0.0708115
0.0590503
0.0486346
0.0394977
0.0315373
0.0246848
0.0188685
0.0139931
0.00996319
0.00659918
0.00380536
0.00118155
-0.519246
-0.516095
-0.513623
-0.511896
-0.510372
-0.508437
-0.505748
-0.502068
-0.497192
-0.49095
-0.483004
-0.472678
-0.458859
-0.439773
-0.413084
-0.376262
-0.327339
-0.265767
-0.192854
-0.1117
-0.0269372
0.055922
0.131452
0.1952
0.244232
0.277388
0.295198
0.299478
0.292784
0.277927
0.257593
0.234093
0.209255
0.184424
0.160513
0.138089
0.117467
0.0987947
0.0820942
0.0672642
0.0541703
0.0427048
0.0327199
0.024128
0.0164684
0.0103974
0.00158127
-0.504348
-0.504584
-0.504755
-0.504631
-0.504138
-0.502981
-0.500912
-0.497693
-0.493127
-0.487023
-0.479062
-0.468694
-0.455204
-0.437174
-0.412153
-0.377194
-0.329546
-0.267798
-0.192216
-0.105008
-0.01059
0.085121
0.175785
0.255662
0.320294
0.367098
0.395544
0.406815
0.403291
0.388046
0.364309
0.335066
0.302833
0.269588
0.236774
0.205377
0.176004
0.149001
0.124512
0.102535
0.0829739
0.0657087
0.0505374
0.0373576
0.0255104
0.016091
0.00226293
-0.497956
-0.498833
-0.499383
-0.499389
-0.49888
-0.497634
-0.495427
-0.492035
-0.487217
-0.480707
-0.472176
-0.461171
-0.446944
-0.428119
-0.402443
-0.366847
-0.318277
-0.255784
-0.179338
-0.0900015
0.00844057
0.110262
0.208961
0.298223
0.372618
0.42858
0.464787
0.481764
0.481516
0.467084
0.441917
0.409364
0.372387
0.333406
0.294275
0.256314
0.220393
0.187041
0.156528
0.128956
0.104324
0.0825208
0.0633185
0.0465892
0.0316197
0.0195874
0.00299349
-0.497129
-0.498094
-0.498639
-0.498527
-0.497803
-0.496286
-0.493746
-0.489933
-0.484554
-0.477233
-0.467479
-0.454662
-0.437944
-0.416152
-0.387621
-0.350065
-0.300793
-0.237638
-0.160063
-0.0697755
0.0295141
0.132333
0.232799
0.324983
0.402877
0.462514
0.50206
0.521558
0.522819
0.508826
0.483033
0.448884
0.409507
0.367529
0.325007
0.283449
0.243866
0.206906
0.172977
0.142262
0.114776
0.0904157
0.0689634
0.0502588
0.0336973
0.0201866
0.00362516
-0.49862
-0.499588
-0.500206
-0.500147
-0.499432
-0.497923
-0.495398
-0.49159
-0.486163
-0.478659
-0.468448
-0.454679
-0.436238
-0.411729
-0.3795
-0.337752
-0.284842
-0.219652
-0.141847
-0.0522745
0.046141
0.148333
0.248135
0.339186
0.415832
0.475042
0.514979
0.534671
0.535976
0.521904
0.495857
0.461252
0.421221
0.378415
0.334924
0.2923
0.25163
0.213554
0.178403
0.146407
0.117692
0.0922196
0.0698116
0.0502616
0.033139
0.0186392
0.00401032
)
;

boundaryField
{
    inlet
    {
        type            zeroGradient;
    }
    outlet
    {
        type            fixedValue;
        value           uniform 0;
    }
    upperWall
    {
        type            zeroGradient;
    }
    lowerWall
    {
        type            zeroGradient;
    }
    frontAndBack
    {
        type            empty;
    }
}


// ************************************************************************* //
