/*--------------------------------*- C++ -*----------------------------------*\
| =========                 |                                                 |
| \\      /  F ield         | OpenFOAM: The Open Source CFD Toolbox           |
|  \\    /   O peration     | Version:  2406                                  |
|   \\  /    A nd           | Website:  www.openfoam.com                      |
|    \\/     M anipulation  |                                                 |
\*---------------------------------------------------------------------------*/
FoamFile
{
    version     2.0;
    format      ascii;
    arch        "LSB;label=32;scalar=64";
    class       volVectorField;
    location    "83";
    object      U;
}
// * * * * * * * * * * * * * * * * * * * * * * * * * * * * * * * * * * * * * //

dimensions      [0 1 -1 0 0 0 0];

internalField   nonuniform List<vector> 
1916
(
(0.0984373 -0.00100657 0)
(0.100336 -0.00104398 0)
(0.101964 -0.000604617 0)
(0.103123 -0.000339874 0)
(0.103919 -0.000215482 0)
(0.104498 -0.000141172 0)
(0.104929 -9.28037e-05 0)
(0.105252 -6.41395e-05 0)
(0.1055 -4.74214e-05 0)
(0.105697 -3.66012e-05 0)
(0.105857 -2.88936e-05 0)
(0.105988 -2.31607e-05 0)
(0.106097 -1.86981e-05 0)
(0.106188 -1.5007e-05 0)
(0.106264 -1.17837e-05 0)
(0.106326 -8.82255e-06 0)
(0.106375 -5.91142e-06 0)
(0.106413 -2.82029e-06 0)
(0.106437 6.82067e-07 0)
(0.106448 4.8259e-06 0)
(0.106444 9.86945e-06 0)
(0.10642 1.61452e-05 0)
(0.106374 2.41265e-05 0)
(0.106298 3.44481e-05 0)
(0.106185 4.79288e-05 0)
(0.106024 6.56091e-05 0)
(0.1058 8.88277e-05 0)
(0.105493 0.000119307 0)
(0.105077 0.000159261 0)
(0.104518 0.000211482 0)
(0.103771 0.000279427 0)
(0.10278 0.000367243 0)
(0.10147 0.00047969 0)
(0.099748 0.000621897 0)
(0.0974992 0.000798792 0)
(0.0945839 0.00101407 0)
(0.0908395 0.00126847 0)
(0.0860849 0.00155722 0)
(0.080134 0.0018667 0)
(0.0728202 0.00217053 0)
(0.0640365 0.0024264 0)
(0.0537956 0.00257417 0)
(0.0423032 0.00253998 0)
(0.0300446 0.00224464 0)
(0.0179199 0.00162045 0)
(0.00768637 0.00043026 0)
(0.000311992 -0.000324938 0)
(0.276303 -0.00146086 0)
(0.276386 -0.00233237 0)
(0.276929 -0.00200565 0)
(0.277473 -0.00152462 0)
(0.27807 -0.00115974 0)
(0.278682 -0.000884594 0)
(0.279238 -0.000673667 0)
(0.279715 -0.000519664 0)
(0.28012 -0.000410383 0)
(0.280466 -0.000331105 0)
(0.280761 -0.000271238 0)
(0.281014 -0.000224587 0)
(0.28123 -0.000187205 0)
(0.281415 -0.000156179 0)
(0.281573 -0.000129345 0)
(0.281706 -0.000105098 0)
(0.281816 -8.21222e-05 0)
(0.281903 -5.9131e-05 0)
(0.281967 -3.47562e-05 0)
(0.282006 -7.46359e-06 0)
(0.282017 2.44965e-05 0)
(0.281994 6.32598e-05 0)
(0.281931 0.000111554 0)
(0.281818 0.000172959 0)
(0.281639 0.000252154 0)
(0.281378 0.000355282 0)
(0.281008 0.000490354 0)
(0.280495 0.000667838 0)
(0.279794 0.000901319 0)
(0.278844 0.00120835 0)
(0.277568 0.00161134 0)
(0.275859 0.00213855 0)
(0.27358 0.00282487 0)
(0.270552 0.00371227 0)
(0.266545 0.00484919 0)
(0.261262 0.00628819 0)
(0.254332 0.00808038 0)
(0.2453 0.0102649 0)
(0.233623 0.012851 0)
(0.218686 0.0157902 0)
(0.199848 0.0189376 0)
(0.176541 0.0220043 0)
(0.148435 0.0245189 0)
(0.115702 0.0257986 0)
(0.0793084 0.0249739 0)
(0.0424936 0.0204689 0)
(0.00733166 0.0115334 0)
(0.436564 -0.000795061 0)
(0.436454 -0.00160965 0)
(0.436367 -0.00173864 0)
(0.43614 -0.00162098 0)
(0.436092 -0.00145967 0)
(0.436244 -0.00128057 0)
(0.436484 -0.00109537 0)
(0.436743 -0.000925705 0)
(0.437003 -0.000782181 0)
(0.437255 -0.000663283 0)
(0.437492 -0.000564228 0)
(0.437709 -0.000481092 0)
(0.437905 -0.000410629 0)
(0.43808 -0.000349749 0)
(0.438236 -0.000295638 0)
(0.438371 -0.000245894 0)
(0.438486 -0.000198343 0)
(0.43858 -0.000150737 0)
(0.438653 -0.000100547 0)
(0.438702 -4.48711e-05 0)
(0.438722 1.97114e-05 0)
(0.43871 9.74004e-05 0)
(0.438657 0.000193557 0)
(0.438554 0.000315181 0)
(0.438386 0.00047148 0)
(0.438135 0.000674576 0)
(0.437775 0.000940415 0)
(0.437272 0.00128995 0)
(0.43658 0.00175067 0)
(0.435638 0.00235853 0)
(0.434363 0.00316031 0)
(0.432644 0.00421635 0)
(0.430335 0.00560369 0)
(0.427237 0.00741912 0)
(0.423089 0.00978174 0)
(0.41754 0.0128337 0)
(0.410125 0.0167368 0)
(0.400233 0.0216619 0)
(0.38707 0.0277641 0)
(0.369615 0.035136 0)
(0.346601 0.0437285 0)
(0.31653 0.053223 0)
(0.27776 0.0628783 0)
(0.228818 0.0713292 0)
(0.168659 0.0765506 0)
(0.09962 0.0740273 0)
(0.0215095 0.0525328 0)
(0.576765 -0.000423949 0)
(0.576794 -0.00103502 0)
(0.57673 -0.00129649 0)
(0.576348 -0.00134973 0)
(0.576022 -0.00132454 0)
(0.57587 -0.00125578 0)
(0.575818 -0.00115428 0)
(0.575813 -0.00103909 0)
(0.575842 -0.000925994 0)
(0.575898 -0.000821044 0)
(0.575971 -0.000725122 0)
(0.576053 -0.000638049 0)
(0.576136 -0.00055918 0)
(0.576219 -0.000487118 0)
(0.576298 -0.000419971 0)
(0.57637 -0.000355734 0)
(0.576434 -0.000292295 0)
(0.576488 -0.000227179 0)
(0.576529 -0.00015731 0)
(0.576556 -7.88884e-05 0)
(0.576564 1.27568e-05 0)
(0.576549 0.000123481 0)
(0.576506 0.000260826 0)
(0.576425 0.0004347 0)
(0.576297 0.000658219 0)
(0.576106 0.000948767 0)
(0.575834 0.00132935 0)
(0.575454 0.00183042 0)
(0.57493 0.00249223 0)
(0.574214 0.00336795 0)
(0.573242 0.00452768 0)
(0.571923 0.0060634 0)
(0.570137 0.00809522 0)
(0.567716 0.0107787 0)
(0.56443 0.0143132 0)
(0.559957 0.0189505 0)
(0.553851 0.025002 0)
(0.545482 0.0328401 0)
(0.533967 0.0428886 0)
(0.518065 0.0555856 0)
(0.496032 0.071304 0)
(0.465477 0.0901774 0)
(0.423147 0.111844 0)
(0.365036 0.13491 0)
(0.285979 0.156719 0)
(0.183849 0.168958 0)
(0.0470818 0.139515 0)
(0.696874 -0.000262029 0)
(0.696984 -0.000700642 0)
(0.697031 -0.000951273 0)
(0.696714 -0.00105054 0)
(0.69636 -0.00107674 0)
(0.696121 -0.00106232 0)
(0.695954 -0.00101536 0)
(0.695818 -0.000947526 0)
(0.695707 -0.000871668 0)
(0.695624 -0.000794935 0)
(0.695566 -0.000719911 0)
(0.695524 -0.000647688 0)
(0.695495 -0.00057871 0)
(0.695475 -0.00051255 0)
(0.695463 -0.00044804 0)
(0.695454 -0.000383639 0)
(0.695447 -0.000317511 0)
(0.695441 -0.000247289 0)
(0.695432 -0.000169795 0)
(0.69542 -8.08725e-05 0)
(0.695402 2.47831e-05 0)
(0.695375 0.000153955 0)
(0.695335 0.000315474 0)
(0.695277 0.00052102 0)
(0.695197 0.000786152 0)
(0.695087 0.00113161 0)
(0.694936 0.00158503 0)
(0.69473 0.00218319 0)
(0.69445 0.00297509 0)
(0.694071 0.00402604 0)
(0.693555 0.00542301 0)
(0.692851 0.00728188 0)
(0.691888 0.00975672 0)
(0.69056 0.013052 0)
(0.688716 0.0174381 0)
(0.686133 0.0232712 0)
(0.682476 0.0310173 0)
(0.67724 0.0412791 0)
(0.669652 0.0548248 0)
(0.658521 0.072605 0)
(0.641984 0.0957498 0)
(0.61717 0.125465 0)
(0.57951 0.162879 0)
(0.522412 0.208253 0)
(0.434751 0.261062 0)
(0.30576 0.31266 0)
(0.09379 0.304557 0)
(0.796943 -0.000172664 0)
(0.797085 -0.000480332 0)
(0.797205 -0.000684934 0)
(0.796964 -0.000788826 0)
(0.796643 -0.000833487 0)
(0.7964 -0.000842819 0)
(0.796211 -0.000823874 0)
(0.796036 -0.000784311 0)
(0.795873 -0.000733721 0)
(0.795731 -0.000678638 0)
(0.795608 -0.000622046 0)
(0.7955 -0.000565358 0)
(0.795405 -0.000509277 0)
(0.795321 -0.000453688 0)
(0.795247 -0.000397717 0)
(0.795181 -0.00034003 0)
(0.795122 -0.000278944 0)
(0.795069 -0.000212209 0)
(0.795022 -0.000136726 0)
(0.79498 -4.83272e-05 0)
(0.794942 5.84045e-05 0)
(0.794907 0.000190473 0)
(0.794877 0.000357043 0)
(0.79485 0.000570276 0)
(0.794826 0.000846434 0)
(0.794808 0.00120729 0)
(0.794794 0.00168199 0)
(0.794785 0.00230956 0)
(0.794783 0.00314227 0)
(0.794786 0.00425033 0)
(0.794794 0.00572819 0)
(0.794802 0.00770314 0)
(0.794803 0.0103471 0)
(0.794774 0.0138928 0)
(0.794679 0.0186559 0)
(0.794443 0.0250661 0)
(0.793929 0.0337094 0)
(0.792891 0.0453877 0)
(0.79088 0.0612006 0)
(0.787098 0.0826533 0)
(0.780092 0.111816 0)
(0.767355 0.151449 0)
(0.744078 0.205386 0)
(0.702809 0.277714 0)
(0.627044 0.375534 0)
(0.499443 0.491813 0)
(0.191274 0.5671 0)
(0.876987 -0.000114865 0)
(0.877141 -0.000326319 0)
(0.877299 -0.000480402 0)
(0.877114 -0.000570308 0)
(0.876828 -0.000616035 0)
(0.876599 -0.000632987 0)
(0.876412 -0.000627061 0)
(0.876231 -0.000603598 0)
(0.876055 -0.000569353 0)
(0.875892 -0.00052954 0)
(0.875744 -0.000486945 0)
(0.875609 -0.000442999 0)
(0.875485 -0.000398441 0)
(0.875373 -0.000353283 0)
(0.87527 -0.000306848 0)
(0.875177 -0.000257999 0)
(0.875094 -0.000205241 0)
(0.875019 -0.000146557 0)
(0.874954 -7.91444e-05 0)
(0.874901 8.06602e-07 0)
(0.87486 9.8297e-05 0)
(0.874833 0.000219825 0)
(0.874824 0.000373909 0)
(0.874838 0.000571864 0)
(0.87488 0.000828846 0)
(0.874959 0.0011652 0)
(0.875088 0.00160826 0)
(0.87528 0.00219476 0)
(0.875557 0.00297418 0)
(0.875945 0.00401339 0)
(0.87648 0.00540303 0)
(0.877209 0.00726651 0)
(0.87819 0.00977263 0)
(0.879498 0.0131536 0)
(0.881227 0.0177307 0)
(0.883486 0.0239527 0)
(0.886399 0.0324514 0)
(0.890084 0.0441263 0)
(0.894616 0.0602759 0)
(0.89996 0.082797 0)
(0.905719 0.114537 0)
(0.911019 0.15975 0)
(0.912581 0.225526 0)
(0.90698 0.322166 0)
(0.868675 0.475132 0)
(0.81566 0.729972 0)
(0.304733 1.0932 0)
(0.937016 -7.33744e-05 0)
(0.937173 -0.000210888 0)
(0.93735 -0.000316418 0)
(0.9372 -0.000382941 0)
(0.936942 -0.00041959 0)
(0.936727 -0.00043533 0)
(0.936546 -0.000434359 0)
(0.936367 -0.000420232 0)
(0.936187 -0.000397333 0)
(0.936018 -0.000369319 0)
(0.935861 -0.000338371 0)
(0.935716 -0.000305698 0)
(0.935582 -0.00027193 0)
(0.935458 -0.000237128 0)
(0.935346 -0.000200803 0)
(0.935244 -0.000162079 0)
(0.935153 -0.00011977 0)
(0.935073 -7.2265e-05 0)
(0.935007 -1.73154e-05 0)
(0.934956 4.8148e-05 0)
(0.934925 0.000128179 0)
(0.934916 0.00022806 0)
(0.934937 0.000354722 0)
(0.934996 0.000517372 0)
(0.935104 0.000728344 0)
(0.935277 0.00100423 0)
(0.935537 0.00136734 0)
(0.935912 0.0018478 0)
(0.93644 0.00248629 0)
(0.937172 0.00333807 0)
(0.938177 0.0044785 0)
(0.939548 0.00601097 0)
(0.941409 0.00807827 0)
(0.943926 0.0108792 0)
(0.947321 0.0146931 0)
(0.951893 0.0199172 0)
(0.958042 0.0271236 0)
(0.966302 0.037149 0)
(0.977379 0.0512403 0)
(0.992243 0.0712904 0)
(1.01208 0.100257 0)
(1.03902 0.142834 0)
(1.07426 0.20702 0)
(1.12943 0.305892 0)
(1.193 0.466743 0)
(1.41456 0.722314 0)
(1.51232 1.26497 0)
(0.977033 -4.04246e-05 0)
(0.97719 -0.000116857 0)
(0.977378 -0.000176918 0)
(0.977249 -0.000216055 0)
(0.977008 -0.000238105 0)
(0.976803 -0.000247573 0)
(0.976627 -0.00024685 0)
(0.976451 -0.00023796 0)
(0.976271 -0.00022335 0)
(0.9761 -0.00020515 0)
(0.97594 -0.000184715 0)
(0.975791 -0.000162824 0)
(0.975653 -0.000139878 0)
(0.975526 -0.000115915 0)
(0.975411 -9.06185e-05 0)
(0.975307 -6.34176e-05 0)
(0.975216 -3.35292e-05 0)
(0.975138 1.10623e-07 0)
(0.975077 3.89817e-05 0)
(0.975035 8.51028e-05 0)
(0.975016 0.000141144 0)
(0.975027 0.000210586 0)
(0.975076 0.000297993 0)
(0.975174 0.00040942 0)
(0.975337 0.00055297 0)
(0.975585 0.000739542 0)
(0.975948 0.000983813 0)
(0.976463 0.0013056 0)
(0.977183 0.00173176 0)
(0.978176 0.00229885 0)
(0.979537 0.00305693 0)
(0.981394 0.00407503 0)
(0.983922 0.00544907 0)
(0.987359 0.00731367 0)
(0.992033 0.0098599 0)
(0.998399 0.0133625 0)
(1.00709 0.0182226 0)
(1.019 0.025036 0)
(1.0354 0.0347033 0)
(1.05818 0.0486147 0)
(1.09003 0.0689322 0)
(1.13555 0.0991377 0)
(1.2007 0.144437 0)
(1.30143 0.213515 0)
(1.44556 0.316011 0)
(1.70135 0.451877 0)
(2.04787 0.680668 0)
(0.997041 -1.16509e-05 0)
(0.997198 -3.37057e-05 0)
(0.99739 -5.06491e-05 0)
(0.997271 -6.09677e-05 0)
(0.997038 -6.56941e-05 0)
(0.996839 -6.61717e-05 0)
(0.996667 -6.31486e-05 0)
(0.996492 -5.72581e-05 0)
(0.996313 -4.92635e-05 0)
(0.996141 -3.9837e-05 6.07083e-34)
(0.995981 -2.94076e-05 0)
(0.995832 -1.82075e-05 0)
(0.995693 -6.33497e-06 0)
(0.995566 6.23789e-06 0)
(0.995451 1.96598e-05 0)
(0.995349 3.41747e-05 6.05724e-34)
(0.99526 5.01082e-05 0)
(0.995185 6.78905e-05 0)
(0.995129 8.80998e-05 0)
(0.995094 0.000111506 0)
(0.995085 0.000139115 0)
(0.99511 0.000172224 0)
(0.995177 0.00021252 0)
(0.995299 0.000262218 -6.03201e-34)
(0.995495 0.000324266 0)
(0.995788 0.000402598 0)
(0.99621 0.000502491 0)
(0.996805 0.000631052 0)
(0.997631 0.00079789 0)
(0.998769 0.00101608 0)
(1.00033 0.00130353 0)
(1.00245 0.00168496 0)
(1.00534 0.00219483 0)
(1.00929 0.00288165 0)
(1.01466 0.0038146 0)
(1.02202 0.00509376 0)
(1.03212 0.00686617 0)
(1.04607 0.00935188 0)
(1.06547 0.0128851 0)
(1.09269 0.0179845 0)
(1.13125 0.0254419 0)
(1.18653 0.0365218 -4.85142e-34)
(1.26628 0.052797 0)
(1.38184 0.0767496 0)
(1.54823 0.107654 0)
(1.77325 0.139568 0)
(2.09278 0.16544 0)
(0.997041 1.58296e-05 0)
(0.997198 4.59994e-05 0)
(0.997391 7.127e-05 0)
(0.997272 9.0044e-05 0)
(0.997039 0.000103393 0)
(0.99684 0.00011269 0)
(0.996669 0.000118738 0)
(0.996495 0.000122251 0)
(0.996317 0.000124075 0)
(0.996147 0.000124965 -6.07062e-34)
(0.995988 0.000125444 0)
(0.99584 0.000125859 0)
(0.995703 0.000126437 0)
(0.995577 0.000127278 0)
(0.995464 0.000128368 0)
(0.995364 0.000129612 -6.05682e-34)
(0.995278 0.000130861 0)
(0.995206 0.000131879 0)
(0.995153 0.000132297 0)
(0.995121 0.000131567 0)
(0.995116 0.00012893 0)
(0.995145 0.000123364 0)
(0.995217 0.000113498 0)
(0.995344 9.74685e-05 6.03251e-34)
(0.995546 7.27304e-05 0)
(0.995845 3.58061e-05 0)
(0.996274 -1.80511e-05 0)
(0.996877 -9.53172e-05 0)
(0.997712 -0.000204842 0)
(0.99886 -0.00035876 0)
(1.00043 -0.000573795 0)
(1.00257 -0.000873136 0)
(1.00547 -0.00128919 0)
(1.00944 -0.00186765 0)
(1.01483 -0.00267374 0)
(1.02222 -0.00380175 0)
(1.03235 -0.0053901 0)
(1.04635 -0.00764554 0)
(1.06581 -0.0108811 0)
(1.09313 -0.015581 0)
(1.13183 -0.0224782 0)
(1.18734 -0.0327357 4.85421e-34)
(1.26749 -0.04774 0)
(1.38367 -0.0696251 0)
(1.55121 -0.0970829 0)
(1.77753 -0.122713 0)
(2.09973 -0.138673 0)
(0.977033 4.44959e-05 0)
(0.977191 0.000128826 0)
(0.977379 0.000196996 0)
(0.977251 0.000244364 0)
(0.977011 0.000274805 0)
(0.976807 0.000292849 0)
(0.976634 0.00030094 0)
(0.97646 0.000301183 0)
(0.976283 0.000296106 0)
(0.976115 0.000287919 0)
(0.975959 0.000278067 0)
(0.975815 0.000267442 0)
(0.975681 0.00025657 0)
(0.97556 0.000245611 0)
(0.975451 0.000234381 0)
(0.975354 0.000222455 0)
(0.97527 0.000209221 0)
(0.975201 0.000193803 0)
(0.975148 0.000174921 0)
(0.975116 0.000150772 0)
(0.975109 0.000118925 0)
(0.975133 7.61642e-05 0)
(0.975195 1.82271e-05 0)
(0.975309 -6.06034e-05 0)
(0.975488 -0.000168052 0)
(0.975756 -0.000314585 0)
(0.97614 -0.000514382 0)
(0.976679 -0.000786679 0)
(0.977425 -0.00115763 0)
(0.978448 -0.00166296 0)
(0.979842 -0.00235167 0)
(0.981739 -0.00329145 0)
(0.984311 -0.0045765 0)
(0.987802 -0.00633912 0)
(0.99254 -0.00876717 0)
(0.998984 -0.0121309 0)
(1.00777 -0.016825 0)
(1.01981 -0.0234358 0)
(1.0364 -0.0328495 0)
(1.05942 -0.0464347 0)
(1.09166 -0.0663183 0)
(1.13779 -0.0959309 0)
(1.20396 -0.140379 0)
(1.30654 -0.208212 0)
(1.45389 -0.30875 0)
(1.71551 -0.440625 0)
(2.0732 -0.664027 0)
(0.937016 7.72323e-05 0)
(0.937173 0.000222214 0)
(0.937352 0.000335419 0)
(0.937204 0.000409729 0)
(0.936947 0.000454306 0)
(0.936735 0.000478139 0)
(0.936558 0.000485475 0)
(0.936382 0.000479944 0)
(0.936207 0.000466008 0)
(0.936043 0.000447401 0)
(0.935893 0.000426393 0)
(0.935755 0.000404293 0)
(0.935629 0.00038185 0)
(0.935514 0.000359241 0)
(0.935411 0.000336103 0)
(0.935321 0.000311698 0)
(0.935242 0.000284999 0)
(0.935176 0.00025457 0)
(0.935124 0.000218349 0)
(0.935091 0.000173466 0)
(0.935078 0.000116092 0)
(0.93509 4.11898e-05 0)
(0.935134 -5.7895e-05 0)
(0.935218 -0.000190063 0)
(0.935354 -0.000367309 0)
(0.935558 -0.000605836 0)
(0.935853 -0.000927537 0)
(0.936266 -0.00136202 0)
(0.936837 -0.0019494 0)
(0.937618 -0.00274426 0)
(0.938678 -0.00382115 0)
(0.940112 -0.0052825 0)
(0.942045 -0.00726991 0)
(0.944646 -0.00998069 0)
(0.948142 -0.0136924 0)
(0.952836 -0.0187997 0)
(0.959136 -0.0258718 0)
(0.967589 -0.035742 0)
(0.978924 -0.049653 0)
(0.994142 -0.0694942 0)
(1.01449 -0.0982227 0)
(1.0422 -0.140543 0)
(1.07858 -0.204495 0)
(1.13593 -0.30326 0)
(1.20248 -0.464549 0)
(1.434 -0.720899 0)
(1.54108 -1.27339 0)
(0.876987 0.000118407 0)
(0.877142 0.000336695 0)
(0.877301 0.000497811 0)
(0.877118 0.000594846 0)
(0.876835 0.000647814 0)
(0.87661 0.000672141 0)
(0.876428 0.00067377 0)
(0.876252 0.000658109 0)
(0.876082 0.000631984 0)
(0.875927 0.000600683 0)
(0.875788 0.000567074 0)
(0.875663 0.00053268 0)
(0.87555 0.000498341 0)
(0.875449 0.000464178 0)
(0.875361 0.000429631 0)
(0.875283 0.000393692 0)
(0.875216 0.000355009 0)
(0.87516 0.000311718 0)
(0.875116 0.000261179 0)
(0.875086 0.000199766 0)
(0.87507 0.000122678 0)
(0.875072 2.36351e-05 0)
(0.875094 -0.00010564 0)
(0.875142 -0.000276202 0)
(0.875223 -0.000502919 0)
(0.875344 -0.000805819 0)
(0.87552 -0.00121188 0)
(0.875764 -0.00175746 0)
(0.8761 -0.00249163 0)
(0.876554 -0.00348076 0)
(0.877163 -0.00481503 0)
(0.877975 -0.0066173 0)
(0.879052 -0.00905584 0)
(0.880471 -0.0123623 0)
(0.882329 -0.0168577 0)
(0.884742 -0.0229906 0)
(0.88784 -0.0313934 0)
(0.891756 -0.0429679 0)
(0.896583 -0.0590175 0)
(0.902309 -0.0814501 0)
(0.908576 -0.113137 0)
(0.914574 -0.158381 0)
(0.917065 -0.224384 0)
(0.912837 -0.321627 0)
(0.87583 -0.476247 0)
(0.826068 -0.735066 0)
(0.307761 -1.11053 0)
(0.796943 0.000175793 0)
(0.797086 0.000489468 0)
(0.797207 0.000700268 0)
(0.79697 0.000810426 0)
(0.796653 0.000861428 0)
(0.796415 0.000877192 0)
(0.796231 0.000864814 0)
(0.796063 0.000832012 0)
(0.795908 0.000788441 0)
(0.795775 0.000740702 0)
(0.795663 0.000691854 0)
(0.795567 0.000643386 0)
(0.795486 0.000596089 0)
(0.795417 0.000549941 0)
(0.79536 0.000504176 0)
(0.795314 0.000457577 0)
(0.795276 0.000408578 0)
(0.795246 0.000355058 0)
(0.795225 0.000294055 0)
(0.795211 0.000221562 0)
(0.795205 0.00013233 0)
(0.795205 1.95391e-05 0)
(0.795213 -0.000125777 0)
(0.795229 -0.000315572 0)
(0.795253 -0.000565881 0)
(0.795287 -0.000898239 0)
(0.795331 -0.00134153 0)
(0.795387 -0.00193452 0)
(0.795456 -0.00272923 0)
(0.79554 -0.00379563 0)
(0.795637 -0.00522797 0)
(0.795747 -0.00715345 0)
(0.795861 -0.00974405 0)
(0.795963 -0.0132328 0)
(0.796017 -0.0179364 0)
(0.795955 -0.0242861 0)
(0.795646 -0.0328713 0)
(0.794851 -0.0444996 0)
(0.793134 -0.0602808 0)
(0.789711 -0.081738 0)
(0.783145 -0.110973 0)
(0.770946 -0.150797 0)
(0.748299 -0.20514 0)
(0.707747 -0.278211 0)
(0.632571 -0.377419 0)
(0.505415 -0.495679 0)
(0.194625 -0.574139 0)
(0.696875 0.000264657 0)
(0.696985 0.000708278 0)
(0.697035 0.000964094 0)
(0.696721 0.00106858 0)
(0.696371 0.00110002 0)
(0.696137 0.00109088 0)
(0.695978 0.00104928 0)
(0.695849 0.000986949 0)
(0.695748 0.000916773 0)
(0.695677 0.000845974 0)
(0.695631 0.000777196 0)
(0.695604 0.000711593 0)
(0.695591 0.000649674 0)
(0.695589 0.000591097 0)
(0.695596 0.000534786 0)
(0.69561 0.000479298 0)
(0.695628 0.000422885 0)
(0.695648 0.000363282 0)
(0.69567 0.000297422 0)
(0.695691 0.000221278 0)
(0.69571 0.000129679 0)
(0.695723 1.59878e-05 0)
(0.695728 -0.000128482 0)
(0.69572 -0.000315255 0)
(0.695694 -0.000559729 0)
(0.695644 -0.000882481 0)
(0.69556 -0.00131098 0)
(0.695428 -0.00188187 0)
(0.69523 -0.00264404 0)
(0.694941 -0.00366275 0)
(0.694527 -0.00502506 0)
(0.693936 -0.00684708 0)
(0.693099 -0.00928337 0)
(0.691913 -0.0125394 0)
(0.690229 -0.0168872 0)
(0.687827 -0.0226858 0)
(0.684377 -0.0304055 0)
(0.679377 -0.0406564 0)
(0.672059 -0.0542178 0)
(0.661234 -0.0720577 0)
(0.645038 -0.0953328 0)
(0.62059 -0.125287 0)
(0.583281 -0.163103 0)
(0.526448 -0.2091 0)
(0.438772 -0.262844 0)
(0.309229 -0.315707 0)
(0.0951892 -0.308915 0)
(0.576765 0.000425996 0)
(0.576796 0.00104093 0)
(0.576734 0.00130642 0)
(0.576355 0.00136365 0)
(0.576035 0.00134242 0)
(0.575888 0.00127761 0)
(0.575845 0.0011801 0)
(0.575849 0.00106896 0)
(0.575888 0.000960032 0)
(0.575957 0.00085942 0)
(0.576044 0.000768056 0)
(0.576141 0.000685802 0)
(0.576243 0.000612063 0)
(0.576345 0.000545508 0)
(0.576446 0.000484324 0)
(0.576543 0.000426574 0)
(0.576633 0.000370209 0)
(0.576717 0.000312823 0)
(0.576791 0.000251428 0)
(0.576854 0.000182317 0)
(0.576902 0.000100916 0)
(0.576931 1.46758e-06 0)
(0.576935 -0.000123474 0)
(0.576908 -0.000283716 0)
(0.576838 -0.000492277 0)
(0.576712 -0.00076644 0)
(0.576512 -0.00112914 0)
(0.57621 -0.00161077 0)
(0.575773 -0.00225162 0)
(0.575154 -0.00310495 0)
(0.574288 -0.00424108 0)
(0.573087 -0.00575244 0)
(0.571431 -0.00775988 0)
(0.569154 -0.0104202 0)
(0.566027 -0.0139346 0)
(0.561729 -0.018558 0)
(0.555815 -0.024606 0)
(0.547656 -0.0324577 0)
(0.536366 -0.0425459 0)
(0.520698 -0.0553218 0)
(0.498897 -0.0711749 0)
(0.468546 -0.0902588 0)
(0.426343 -0.112232 0)
(0.368214 -0.135707 0)
(0.288866 -0.158023 0)
(0.18605 -0.170792 0)
(0.0478034 -0.141534 0)
(0.436564 0.000796468 0)
(0.436455 0.00161368 0)
(0.436371 0.00174538 0)
(0.436148 0.00163035 0)
(0.436105 0.0014716 0)
(0.436264 0.001295 0)
(0.436512 0.00111229 0)
(0.436781 0.000945138 0)
(0.437052 0.00080418 0)
(0.437316 0.000687942 0)
(0.437567 0.000591681 0)
(0.4378 0.000511489 0)
(0.438015 0.000444159 0)
(0.43821 0.000386646 0)
(0.438387 0.000336192 0)
(0.438546 0.000290431 0)
(0.438688 0.000247229 0)
(0.438812 0.00020438 0)
(0.438917 0.000159416 0)
(0.439001 0.000109485 0)
(0.439061 5.12251e-05 0)
(0.439092 -1.95118e-05 0)
(0.439087 -0.000108032 0)
(0.439036 -0.000221284 0)
(0.438925 -0.000368425 0)
(0.438737 -0.000561537 0)
(0.438447 -0.000816551 0)
(0.438021 -0.00115444 0)
(0.437413 -0.00160278 0)
(0.436563 -0.00219767 0)
(0.435389 -0.00298617 0)
(0.433782 -0.0040291 0)
(0.431593 -0.00540421 0)
(0.428628 -0.00720938 0)
(0.424622 -0.00956537 0)
(0.419224 -0.0126166 0)
(0.411969 -0.0165283 0)
(0.402241 -0.0214757 0)
(0.389239 -0.0276195 0)
(0.371934 -0.0350594 0)
(0.349039 -0.0437534 0)
(0.31903 -0.0533882 0)
(0.280226 -0.063223 0)
(0.231107 -0.0718803 0)
(0.170569 -0.0773139 0)
(0.10092 -0.074959 0)
(0.021866 -0.053407 0)
(0.276303 0.00146162 0)
(0.276387 0.00233448 0)
(0.276933 0.00200915 0)
(0.27748 0.00152938 0)
(0.278082 0.00116567 0)
(0.2787 0.000891651 0)
(0.279263 0.000681826 0)
(0.279749 0.000528917 0)
(0.280164 0.000420741 0)
(0.280521 0.000342613 0)
(0.280828 0.000283951 0)
(0.281095 0.000238574 0)
(0.281326 0.000202547 0)
(0.281528 0.00017299 0)
(0.281704 0.000147757 0)
(0.281857 0.000125268 0)
(0.281989 0.000104213 0)
(0.282101 8.33383e-05 0)
(0.282192 6.1294e-05 0)
(0.28226 3.65858e-05 0)
(0.282303 7.45587e-06 0)
(0.282316 -2.82184e-05 0)
(0.282293 -7.31467e-05 0)
(0.282222 -0.000130866 0)
(0.282091 -0.00020605 0)
(0.281881 -0.000304826 0)
(0.281568 -0.000435238 0)
(0.281117 -0.000607784 0)
(0.280484 -0.000836139 0)
(0.279609 -0.00113798 0)
(0.278414 -0.00153593 0)
(0.276792 -0.00205856 0)
(0.274607 -0.00274125 0)
(0.271679 -0.00362665 0)
(0.267776 -0.00476412 0)
(0.2626 -0.00620751 0)
(0.255777 -0.00800955 0)
(0.246845 -0.0102114 0)
(0.235254 -0.0128244 0)
(0.220379 -0.0158019 0)
(0.201564 -0.019 0)
(0.178222 -0.0221284 0)
(0.150002 -0.0247106 0)
(0.11706 -0.0260536 0)
(0.0803523 -0.0252772 0)
(0.0431368 -0.0207868 0)
(0.00747549 -0.0117904 0)
(0.0984373 0.00100679 0)
(0.100336 0.00104454 0)
(0.101966 0.000605405 0)
(0.103127 0.000340801 0)
(0.103926 0.000216529 0)
(0.104508 0.000142343 0)
(0.104943 9.4103e-05 0)
(0.10527 6.55662e-05 0)
(0.105524 4.8985e-05 0)
(0.105727 3.831e-05 0)
(0.105893 3.07558e-05 0)
(0.106031 2.5182e-05 0)
(0.106148 2.08949e-05 0)
(0.106248 1.73937e-05 0)
(0.106332 1.43763e-05 0)
(0.106404 1.16344e-05 0)
(0.106465 8.96981e-06 0)
(0.106514 6.15898e-06 0)
(0.106552 2.98205e-06 0)
(0.106578 -7.95937e-07 0)
(0.10659 -5.44772e-06 0)
(0.106584 -1.1324e-05 0)
(0.106557 -1.88773e-05 0)
(0.106502 -2.873e-05 0)
(0.106412 -4.16945e-05 0)
(0.106276 -5.88237e-05 0)
(0.10608 -8.14673e-05 0)
(0.105803 -0.000111372 0)
(0.10542 -0.000150775 0)
(0.104896 -0.000202508 0)
(0.104188 -0.000270078 0)
(0.103237 -0.000357705 0)
(0.101969 -0.000470257 0)
(0.10029 -0.000613001 0)
(0.0980847 -0.000791049 0)
(0.0952109 -0.0010083 0)
(0.0915036 -0.00126573 0)
(0.0867783 -0.00155876 0)
(0.0808447 -0.00187382 0)
(0.0735309 -0.00218439 0)
(0.0647244 -0.00244763 0)
(0.054433 -0.00260242 0)
(0.0428597 -0.00257347 0)
(0.030491 -0.00227989 0)
(0.0182341 -0.00165358 0)
(0.00786238 -0.000455917 0)
(0.000343485 0.00030123 0)
(1.78136 0.898322 0)
(1.46824 0.436391 0)
(1.07876 0.170023 0)
(0.927218 0.0498117 0)
(0.902525 0.000248921 0)
(0.869058 -0.0325391 0)
(2.48278 0.546599 0)
(2.63558 0.343246 0)
(2.61412 0.233304 0)
(2.56454 0.177131 0)
(2.51977 0.140195 0)
(2.46359 0.117539 0)
(2.46488 0.109867 0)
(2.7455 0.0623673 0)
(2.8896 0.0564462 0)
(2.95366 0.0666628 0)
(2.98611 0.0790413 0)
(2.99629 0.0956426 0)
(2.47382 -0.0645702 0)
(2.75512 0.00758032 0)
(2.90096 0.0415354 0)
(2.97001 0.0636356 0)
(3.01469 0.0902075 0)
(3.04387 0.122729 0)
(2.52088 -0.507721 0)
(2.69331 -0.277767 0)
(2.70632 -0.145493 0)
(2.70686 -0.0686693 0)
(2.72228 -0.00530989 0)
(2.7365 0.054016 0)
(1.8383 -0.90626 0)
(1.56444 -0.441447 0)
(1.22175 -0.169545 0)
(1.12295 -0.0374729 0)
(1.17321 0.0302918 0)
(1.23552 0.0892073 0)
(-0.000894302 0.000772426 0)
(-0.00699356 0.00170861 0)
(-0.0153115 0.00198776 0)
(-0.0238941 0.00187413 0)
(-0.03169 0.00168165 0)
(-0.0385549 0.00147542 0)
(-0.0445322 0.00127111 0)
(-0.0496797 0.00107557 0)
(-0.0540557 0.000892878 0)
(-0.0577186 0.000726081 0)
(-0.0607253 0.000576735 0)
(-0.0631299 0.000444832 0)
(-0.0649825 0.000329411 0)
(-0.0663303 0.000229292 0)
(-0.0672193 0.00014344 0)
(-0.0676961 7.10014e-05 0)
(-0.0678101 1.14197e-05 0)
(-0.0676146 -3.49307e-05 0)
(-0.0671698 -6.78004e-05 0)
(-0.0665385 -8.75568e-05 0)
(-0.065784 -9.49906e-05 0)
(-0.0649677 -9.13369e-05 0)
(-0.0641471 -7.84228e-05 0)
(-0.0633746 -5.80451e-05 0)
(-0.0626961 -3.23509e-05 0)
(-0.0621507 -3.39592e-06 0)
(-0.0617704 2.68086e-05 0)
(-0.0615801 5.68015e-05 0)
(-0.0615987 8.54351e-05 0)
(-0.0618392 0.000112012 0)
(-0.0623091 0.000135856 0)
(-0.0630103 0.000156755 0)
(-0.0639386 0.000174662 0)
(-0.0650836 0.000190822 0)
(-0.0664294 0.000207256 0)
(-0.0679521 0.000225652 0)
(-0.0696151 0.000244009 0)
(-0.0713664 0.000257441 0)
(-0.0731428 0.000266141 0)
(-0.0748824 0.000277014 0)
(-0.0765231 0.000282517 0)
(-0.0779886 0.00024761 0)
(-0.0792021 0.000169415 0)
(-0.080125 0.000117433 0)
(-0.0808705 0.000128015 0)
(-0.0819705 0.000320187 0)
(-0.0825963 0.00068383 0)
(-0.00349543 0.00814093 0)
(-0.0211488 0.0153856 0)
(-0.0419331 0.0170996 0)
(-0.0621579 0.0161706 0)
(-0.0801441 0.0144772 0)
(-0.0957659 0.0126781 0)
(-0.109186 0.0109539 0)
(-0.1206 0.00934454 0)
(-0.1302 0.00785572 0)
(-0.138161 0.00648457 0)
(-0.144638 0.00522524 0)
(-0.149771 0.00407049 0)
(-0.153687 0.00301437 0)
(-0.156504 0.00205334 0)
(-0.158338 0.0011887 0)
(-0.159309 0.000424434 0)
(-0.159543 -0.000231168 0)
(-0.159173 -0.000768751 0)
(-0.158337 -0.00118116 0)
(-0.157176 -0.00146616 0)
(-0.155828 -0.00162587 0)
(-0.154425 -0.00166702 0)
(-0.153089 -0.00159851 0)
(-0.151929 -0.00143224 0)
(-0.15104 -0.00118138 0)
(-0.150501 -0.00086054 0)
(-0.150373 -0.000483999 0)
(-0.150702 -6.51001e-05 0)
(-0.151522 0.000383871 0)
(-0.152848 0.000850282 0)
(-0.154684 0.00132245 0)
(-0.157019 0.00178806 0)
(-0.159827 0.00223417 0)
(-0.163066 0.00264673 0)
(-0.166681 0.00301021 0)
(-0.170592 0.00330476 0)
(-0.174699 0.00350566 0)
(-0.178874 0.00358847 0)
(-0.182975 0.00353927 0)
(-0.186863 0.00335159 0)
(-0.190397 0.00301713 0)
(-0.193431 0.00254202 0)
(-0.195877 0.00199246 0)
(-0.197714 0.00146829 0)
(-0.199164 0.00114028 0)
(-0.201441 0.00141034 0)
(-0.199349 0.00135345 0)
(-0.00634515 0.0240424 0)
(-0.0346697 0.0403016 0)
(-0.0643017 0.0423088 0)
(-0.0914025 0.0389796 0)
(-0.114768 0.0343452 0)
(-0.134731 0.0297078 0)
(-0.151727 0.025415 0)
(-0.166157 0.0215243 0)
(-0.178356 0.0180143 0)
(-0.188596 0.0148467 0)
(-0.197095 0.0119834 0)
(-0.20403 0.00939103 0)
(-0.209551 0.00704517 0)
(-0.21379 0.00493261 0)
(-0.216875 0.00305157 0)
(-0.218936 0.00141043 0)
(-0.220113 2.38299e-05 0)
(-0.220557 -0.00109219 0)
(-0.220428 -0.00192835 0)
(-0.219887 -0.0024836 0)
(-0.219099 -0.00276465 0)
(-0.218222 -0.00278778 0)
(-0.217405 -0.00257503 0)
(-0.216784 -0.00215301 0)
(-0.216478 -0.00155261 0)
(-0.216585 -0.000806714 0)
(-0.217184 5.22041e-05 0)
(-0.218333 0.000993749 0)
(-0.220069 0.00198732 0)
(-0.222408 0.00300516 0)
(-0.225349 0.00402022 0)
(-0.228873 0.00500465 0)
(-0.23294 0.00592889 0)
(-0.23749 0.00676065 0)
(-0.242444 0.00746332 0)
(-0.2477 0.00799389 0)
(-0.253128 0.00830402 0)
(-0.258568 0.00834925 0)
(-0.263852 0.0081019 0)
(-0.268823 0.00755158 0)
(-0.273321 0.00670379 0)
(-0.277169 0.00560495 0)
(-0.280279 0.00437663 0)
(-0.282644 0.0032023 0)
(-0.284372 0.00232535 0)
(-0.286425 0.00203785 0)
(-0.28562 0.00207591 0)
(-0.00915176 0.0483849 0)
(-0.0453147 0.0734806 0)
(-0.0776989 0.0729594 0)
(-0.105009 0.065405 0)
(-0.12786 0.0568391 0)
(-0.147295 0.0488249 0)
(-0.164019 0.0416889 0)
(-0.178562 0.0353964 0)
(-0.191298 0.0298236 0)
(-0.202476 0.0248488 0)
(-0.212265 0.0203725 0)
(-0.220778 0.0163204 0)
(-0.228096 0.012642 0)
(-0.234284 0.00931261 0)
(-0.239408 0.00632901 0)
(-0.243538 0.00370981 0)
(-0.246763 0.00148366 0)
(-0.249196 -0.000319531 0)
(-0.250972 -0.00168189 0)
(-0.252239 -0.00259774 0)
(-0.253144 -0.00307739 0)
(-0.253845 -0.00314063 0)
(-0.254495 -0.0028186 0)
(-0.255239 -0.00215188 0)
(-0.256211 -0.00118928 0)
(-0.257521 1.45098e-05 0)
(-0.259259 0.00140404 0)
(-0.261485 0.00292366 0)
(-0.264238 0.00452285 0)
(-0.267536 0.0061538 0)
(-0.271375 0.007769 0)
(-0.275732 0.00932038 0)
(-0.280562 0.010757 0)
(-0.285802 0.0120242 0)
(-0.291372 0.0130609 0)
(-0.297171 0.0138014 0)
(-0.303078 0.0141766 0)
(-0.308941 0.0141263 0)
(-0.314606 0.0136091 0)
(-0.319935 0.0126154 0)
(-0.324778 0.0111735 0)
(-0.328966 0.009368 0)
(-0.332397 0.00735083 0)
(-0.335008 0.00536168 0)
(-0.33679 0.00375218 0)
(-0.338566 0.0029758 0)
(-0.338417 0.00327198 0)
(-0.0118398 0.0808208 0)
(-0.0490116 0.108169 0)
(-0.0727087 0.100173 0)
(-0.0899062 0.0874478 0)
(-0.104628 0.0754619 0)
(-0.118099 0.0649516 0)
(-0.13079 0.0559732 0)
(-0.143035 0.0482705 0)
(-0.154991 0.0415326 0)
(-0.166672 0.0355216 0)
(-0.17802 0.0300719 0)
(-0.188938 0.0250707 0)
(-0.199318 0.0204508 0)
(-0.209052 0.0161832 0)
(-0.218041 0.0122738 0)
(-0.226209 0.00875885 0)
(-0.233512 0.00569774 0)
(-0.239948 0.00314586 0)
(-0.245558 0.00114416 0)
(-0.25042 -0.000281511 0)
(-0.254644 -0.00113185 0)