/*--------------------------------*- C++ -*----------------------------------*\
| =========                 |                                                 |
| \\      /  F ield         | OpenFOAM: The Open Source CFD Toolbox           |
|  \\    /   O peration     | Version:  2406                                  |
|   \\  /    A nd           | Website:  www.openfoam.com                      |
|    \\/     M anipulation  |                                                 |
\*---------------------------------------------------------------------------*/
FoamFile
{
    version     2.0;
    format      ascii;
    arch        "LSB;label=32;scalar=64";
    class       surfaceScalarField;
    location    "25";
    object      phi;
}
// * * * * * * * * * * * * * * * * * * * * * * * * * * * * * * * * * * * * * //

dimensions      [0 3 -1 0 0 0 0];

oriented        oriented;

internalField   nonuniform List<scalar> 
3680
(
0.0193375
-0.000337472
0.0196887
-0.00035124
0.0200008
-0.000312033
0.0203477
-0.000346889
0.0207947
-0.000446935
0.0214323
-0.000637602
0.0224311
-0.000998854
0.0241319
-0.00170082
0.0274157
-0.00328382
-0.00812231
0.035538
0.0510029
-0.000340363
0.051274
-0.000622281
0.0517008
-0.000738846
0.0522678
-0.000913867
0.0530259
-0.00120498
0.0540644
-0.001676
0.0555262
-0.00246074
0.057636
-0.00381067
0.0606068
-0.00625464
-0.010852
0.0633365
0.0749831
-0.0003235
0.0751144
-0.000753549
0.0754286
-0.00105304
0.0759095
-0.00139469
0.0765731
-0.00186862
0.0774562
-0.00255904
0.0785968
-0.00360132
0.07999
-0.00520389
0.0814112
-0.00767585
-0.0113864
0.0819456
0.0909729
-0.000296385
0.0909912
-0.000771886
0.0911214
-0.00118323
0.0913652
-0.00163846
0.0917161
-0.00221955
0.0921646
-0.00300743
0.0926732
-0.00410998
0.093133
-0.0056637
0.093275
-0.00781782
-0.010663
0.0925516
0.0989457
-0.000242065
0.098855
-0.000681198
0.0987912
-0.00111943
0.0987601
-0.00160739
0.0987414
-0.00220075
0.0986987
-0.00296471
0.0985624
-0.00397362
0.0982032
-0.00530454
0.0974023
-0.0070168
-0.00910002
0.0958394
0.0989076
-0.000149709
0.0987132
-0.000486786
0.0984807
-0.00088688
0.0982096
-0.00133619
0.0978687
-0.00185985
0.0974099
-0.00250587
0.0967565
-0.00332015
0.0957921
-0.00434008
0.0943568
-0.00558137
-0.00700727
0.0922641
0.0908661
-1.58434e-05
0.090596
-0.000216601
0.0902573
-0.000548187
0.0898325
-0.000911346
0.089282
-0.00130925
0.0885545
-0.00177839
0.0875794
-0.00234493
0.0862635
-0.00302419
0.0844978
-0.0038156
-0.00468635
0.082177
0.0748338
0.00015041
0.0745648
5.24028e-05
0.0742277
-0.000211082
0.0737755
-0.00045912
0.0731683
-0.000702025
0.0723619
-0.000971875
0.0713
-0.00128301
0.069917
-0.00164116
0.0681451
-0.00204363
-0.0024716
0.0659304
0.050866
0.00028444
0.0507563
0.000162125
0.0505555
-1.02353e-05
0.0502172
-0.000120805
0.0497255
-0.000210356
0.0490555
-0.000301813
0.0481745
-0.000401914
0.0470455
-0.000512111
0.0456334
-0.000631521
-0.000754742
0.0439165
0.0192844
0.0194466
0.0194363
0.0193155
0.0191052
0.0188034
0.0184015
0.0178894
0.0172578
0.0165031
-0.000138674
0.000138692
-0.000408615
0.000269975
-0.00066542
0.000256851
-0.000814384
0.000149014
-0.000815144
8.13591e-07
-0.000663473
-0.000151612
-0.000376495
-0.000286913
1.8061e-05
-0.000394481
0.000488927
-0.000470784
0.00100563
-0.00051661
0.00154096
-0.00053524
0.00207225
-0.000531204
0.00258178
-0.000509431
0.00305659
-0.000474722
0.00348809
-0.000431421
0.00387141
-0.00038325
0.00420471
-0.000333239
0.0044885
-0.000283743
0.00472502
-0.000236486
0.00491769
-0.000192652
0.00507067
-0.00015297
0.00518847
-0.000117807
0.0052757
-8.72522e-05
0.00533686
-6.11956e-05
0.0053762
-3.9384e-05
0.00539763
-2.14805e-05
0.00540467
-7.09483e-06
0.00540043
4.17795e-06
0.00538762
1.27449e-05
0.00536857
1.89932e-05
0.00534523
2.32883e-05
0.00531921
2.59609e-05
0.00529185
2.73113e-05
0.00526421
2.76033e-05
2.70706e-05
0.0052371
-0.000299081
0.000437793
-0.000793987
0.000765023
-0.00120197
0.000664978
-0.00135298
0.000300169
-0.00117495
-0.000177058
-0.000665612
-0.000660783
0.000134916
-0.00108726
0.00116514
-0.00142451
0.00235656
-0.001662
0.00364283
-0.00180267
0.00496484
-0.00185703
0.0062732
-0.00183934
0.00752899
-0.00176501
0.00870346
-0.001649
0.00977712
-0.0015049
0.0107384
-0.00134441
0.0115825
-0.00117715
0.0123095
-0.00101069
0.0129238
-0.000850701
0.0134324
-0.000701164
0.013844
-0.000564654
0.0141688
-0.000442587
0.014417
-0.000335483
0.0145989
-0.00024318
0.0147244
-0.000165035
0.0148029
-0.000100078
0.0148428
-4.71424e-05
0.0148518
-4.96344e-06
0.0148367
2.77495e-05
0.0148033
5.22611e-05
0.0147566
6.97747e-05
0.0147011
8.14068e-05
0.0146401
8.81778e-05
0.0145766
9.10032e-05
9.06972e-05
0.0145129
-0.000357167
0.000795039
-0.000870164
0.00127814
-0.00118203
0.000976996
-0.00110774
0.000226033
-0.000586017
-0.000698632
0.000363397
-0.00161005
0.00167484
-0.00239855
0.00326195
-0.00301147
0.00503429
-0.00343418
0.00690702
-0.00367523
0.00880609
-0.00375594
0.0106704
-0.00370355
0.0124524
-0.0035468
0.0141169
-0.00331332
0.0156401
-0.00302803
0.0170082
-0.00271236
0.0182152
-0.00238401
0.0192615
-0.00205698
0.0201527
-0.00174184
0.0208978
-0.00144618
0.0215082
-0.00117499
0.0219967
-0.000931143
0.0223771
-0.000715854
0.0226629
-0.000529042
0.0228675
-0.000369686
0.0230034
-0.000236119
0.0230825
-0.00012625
0.0231152
-3.77628e-05
0.0231111
3.17543e-05
0.0230785
8.46963e-05
0.0230248
0.000123374
0.0229562
0.000149958
0.0228778
0.000166455
0.0227941
0.000174683
0.000176274
0.0227084
-0.000346198
0.00114124
-0.000718118
0.00165023
-0.000728945
0.000987958
-0.000225793
-0.000276994
0.000802334
-0.00172664
0.00229064
-0.00309825
0.00414062
-0.00424842
0.00624505
-0.00511579
0.00850186
-0.00569089
0.0108211
-0.00599432
0.0131274
-0.00606221
0.015361
-0.00593702
0.0174762
-0.00566196
0.0194407
-0.00527766
0.0212331
-0.00482033
0.0228418
-0.00432097
0.0242629
-0.00380505
0.0254988
-0.00329278
0.0265564
-0.00279948
0.0274465
-0.00233616
0.0281817
-0.0019102
0.0287765
-0.00152593
0.0292459
-0.00118523
0.029605
-0.000888153
0.0298686
-0.000633313
0.0300508
-0.000418351
0.0301648
-0.000240251
0.0302226
-9.56111e-05
0.0302351
1.91485e-05
0.0302121
0.000107627
0.0301621
0.000173328
0.0300924
0.00021958
0.0300093
0.000249481
0.029918
0.000265874
0.000271323
0.0298229
-0.000280674
0.00142201
-0.000347384
0.00171698
0.000165244
0.000475418
0.00131436
-0.00142602
0.00301711
-0.00342931
0.00514385
-0.00522492
0.00756045
-0.00666494
0.0101458
-0.00770103
0.0127978
-0.00834285
0.0154344
-0.00863085
0.0179917
-0.0086195
0.0204221
-0.00836734
0.0226916
-0.00793134
0.0247777
-0.00736369
0.0266676
-0.00671019
0.0283563
-0.00600959
0.0298448
-0.00529356
0.0311392
-0.00458709
0.0322489
-0.00390909
0.0331859
-0.00327316
0.0339641
-0.00268836
0.0345983
-0.00216002
0.0351035
-0.00169047
0.035495
-0.00127966
0.0357875
-0.000925835
0.0359951
-0.000625934
0.0361309
-0.00037606
0.036207
-0.000171794
0.0362346
-8.45381e-06
0.0362235
0.000118696
0.0361824
0.000214301
0.0361192
0.000282804
0.0360402
0.000328377
0.0359511
0.000354871
0.000365792
0.0358566
-0.000130515
0.00155247
0.000339895
0.00124662
0.00166286
-0.000847516
0.00370501
-0.00346815
0.00624498
-0.00596926
0.00908195
-0.00806186
0.0120573
-0.0096403
0.0150531
-0.0106967
0.0179842
-0.011274
0.0207914
-0.011438
0.0234342
-0.0112623
0.0258867
-0.0108198
0.0281339
-0.0101784
0.0301689
-0.00939873
0.0319916
-0.00853284
0.0336065
-0.00762437
0.0350215
-0.00670857
0.0362475
-0.00581304
0.037297
-0.00495847
0.0381835
-0.00415961
0.0389213
-0.00342616
0.039525
-0.00276366
0.0400089
-0.00217433
0.040387
-0.00165778
0.0406728
-0.00121167
0.0408791
-0.000832249
0.0410178
-0.000514782
0.0411
-0.000253945
0.0411356
-4.41003e-05
0.0411338
0.000120471
0.0411026
0.000245398
0.0410493
0.000336094
0.0409799
0.000397667
0.0408999
0.000434867
0.000452041
0.0408136
0.000213979
0.00133851
0.00161862
-0.000158112
0.00414903
-0.00337801
0.00734509
-0.00666428
0.0108308
-0.00945505
0.0143657
-0.0115968
0.0178047
-0.0130793
0.0210642
-0.0139563
0.0240994
-0.0143091
0.0268889
-0.0142276
0.0294263
-0.0137996
0.0317137
-0.0131072
0.0337592
-0.012224
0.0355745
-0.011214
0.0371735
-0.0101318
0.0385711
-0.00902196
0.0397829
-0.00792035
0.0408245
-0.00685456
0.0417111
-0.00584502
0.0424575
-0.00490597
0.0430778
-0.00404649
0.0435856
-0.00327141
0.0439935
-0.00258224
0.0443136
-0.00197783
0.044557
-0.0014551
0.0447343
-0.00100951
0.0448551
-0.000635593
0.0449284
-0.000327242
0.0449623
-7.80568e-05
0.0449643
0.000118451
0.044941
0.00026867
0.0448983
0.000378756
0.0448414
0.000454549
0.0447747
0.000501499
0.000524626
0.0447021
0.00101035
0.000328082
0.00411352
-0.00326146
0.00836299
-0.00762762
0.0128819
-0.0111833
0.0172502
-0.0138235
0.0212934
-0.0156401
0.0249497
-0.0167357
0.028211
-0.0172175
0.0310937
-0.0171919
0.0336252
-0.0167591
0.0358364
-0.0160109
0.0377591
-0.0150299
0.0394239
-0.0138888
0.0408595
-0.0126497
0.0420925
-0.0113648
0.0431469
-0.0100764
0.0440444
-0.00881776
0.0448039
-0.00761412
0.0454425
-0.00648362
0.045975
-0.00543845
0.0464145
-0.00448592
0.0467724
-0.00362933
0.047059
-0.00286886
0.0472835
-0.00220228
0.047454
-0.00162559
0.047578
-0.00113347
0.0476621
-0.000719777
0.0477127
-0.000377811
0.0477353
-0.00010062
0.0477349
0.000118799
0.0477162
0.000287324
0.0476834
0.000411593
0.04764
0.000497909
0.0475893
0.000552181
0.000579873
0.047534
0.00321846
-0.00289045
0.00936388
-0.00940704
0.0156137
-0.0138776
0.0211923
-0.0167621
0.0259906
-0.018622
0.0300599
-0.0197095
0.0334867
-0.0201626
0.0363587
-0.0200896
0.0387557
-0.019589
0.040748
-0.0187515
0.0423973
-0.0176603
0.0437576
-0.0163902
0.0448757
-0.0150069
0.0457923
-0.0135663
0.046542
-0.0121145
0.0471543
-0.0106887
0.0476537
-0.00931714
0.0480603
-0.00802079
0.0483908
-0.00681405
0.0486583
-0.00570596
0.0488735
-0.00470117
0.0490451
-0.00380086
0.0491798
-0.00300355
0.0492832
-0.00230569
0.0493599
-0.00170232
0.0494139
-0.00118739
0.0494483
-0.000754225
0.0494662
-0.000395732
0.0494703
-0.00010466
0.0494628
0.000126233
0.0494461
0.000304031
0.0494222
0.000435558
0.0493928
0.000527303
0.0493596
0.00058536
0.000615385
0.0493241
0.0119351
-0.0148257
0.0210039
-0.018476
0.0277865
-0.0206603
0.0330646
-0.0220403
0.037221
-0.0227785
0.0405015
-0.0229901
0.0430823
-0.0227434
0.0450956
-0.0221031
0.0466464
-0.0211398
0.047821
-0.0199261
0.0486921
-0.0185315
0.0493219
-0.0170201
0.0497628
-0.0154479
0.050059
-0.0138625
0.0502469
-0.0123025
0.050356
-0.0107979
0.0504098
-0.00937098
0.0504264
-0.00803741
0.0504194
-0.00680706
0.0503987
-0.00568523
0.0503711
-0.00467356
0.0503411
-0.0037709
0.0503115
-0.00297397
0.0502838
-0.00227799
0.0502586
-0.00167709
0.0502359
-0.00116469
0.0502155
-0.000733772
0.0501969
-0.000377104
0.0501797
-8.74077e-05
0.0501634
0.000142512
0.0501478
0.000319651
0.0501326
0.000450733
0.0501178
0.000542149
0.0501033
0.00059991
0.000629603
0.0500891
0.0383987
-0.0176865
0.0419854
-0.0220629
0.0452288
-0.0239038
0.047948
-0.0247597
0.0501181
-0.0249487
0.0517547
-0.0246269
0.0529131
-0.0239019
0.0536643
-0.0228544
0.0540807
-0.0215563
0.0542305
-0.020076
0.054176
-0.0184771
0.0539721
-0.0168162
0.0536658
-0.0151417
0.0532964
-0.0134931
0.0528954
-0.0119016
0.0524875
-0.01039
0.052091
-0.00897453
0.0517189
-0.00766527
0.0513794
-0.0064676
0.0510773
-0.00538317
0.0508145
-0.00441075
0.0505906
-0.00354702
0.0504038
-0.00278718
0.0502512
-0.00212541
0.0501294
-0.00155523
0.0500345
-0.00106977
0.0499627
-0.00066199
0.0499105
-0.00032479
0.0498742
-5.11489e-05
0.049851
0.000165797
0.049838
0.000332678
0.0498329
0.000455847
0.0498337
0.000541336
0.0498389
0.00059482
0.000621581
0.0498469
0.063054
-0.0174039
0.0626893
-0.0216982
0.0626165
-0.023831
0.062596
-0.0247391
0.0624822
-0.024835
0.0621948
-0.0243395
0.0617072
-0.0234144
0.0610316
-0.0221789
0.0602008
-0.0207256
0.0592561
-0.0191314
0.0582402
-0.0174613
0.0571931
-0.0157691
0.0561496
-0.0140983
0.0551384
-0.0124819
0.0541814
-0.0109447
0.0532946
-0.00950324
0.0524881
-0.00816812
0.0517675
-0.00694469
0.0511343
-0.00583438
0.0505868
-0.00483576
0.0501214
-0.00394529
0.0497323
-0.00315801
0.0494132
-0.00246807
0.0491569
-0.00186906
0.048956
-0.00135429
0.0488032
-0.000916972
0.0486916
-0.000550347
0.0486146
-0.000247762
0.0485662
-2.73295e-06
0.0485411
0.000191011
0.0485343
0.000339488
0.0485418
0.000448445
0.0485598
0.000523328
0.0485854
0.000569262
0.00059102
0.048616
0.0805333
-0.0159916
0.0784078
-0.0195728
0.0762555
-0.0216786
0.0741759
-0.0226596
0.0721505
-0.0228096
0.0701465
-0.0223355
0.0681426
-0.0214105
0.066138
-0.0201743
0.0641481
-0.0187356
0.0621966
-0.0171799
0.0603101
-0.0155748
0.0585137
-0.0139728
0.0568284
-0.012413
0.0552702
-0.0109237
0.0538494
-0.0095239
0.0525714
-0.00822526
0.0514369
-0.00703372
0.0504431
-0.0059509
0.049584
-0.00497532
0.0488516
-0.00410337
0.0482363
-0.00333004
0.0477278
-0.00264948
0.0473152
-0.00205543
0.0469875
-0.00154141
0.0467343
-0.00110102
0.0465452
-0.00072791
0.0464109
-0.000415961
0.0463224
-0.00015924
0.0462718
4.79473e-05
0.0462518
0.000211059
0.046256
0.000335301
0.0462789
0.000425628
0.0463156
0.000486727
0.0463619
0.000523007
0.000538577
0.0464144
0.090469
-0.0139089
0.0875317
-0.0166354
0.0842681
-0.0184149
0.0809182
-0.0193097
0.0775873
-0.0194786
0.0743278
-0.0190759
0.0711679
-0.0182506
0.0681289
-0.0171354
0.0652319
-0.0158385
0.0624971
-0.0144451
0.0599426
-0.0130203
0.0575824
-0.0116126
0.0554255
-0.0102561
0.053476
-0.00897423
0.0517331
-0.00778101
0.0501918
-0.00668397
0.0488437
-0.00568566
0.047678
-0.00478515
0.0466818
-0.00397918
0.0458414
-0.00326302
0.0451425
-0.00263111
0.0445705
-0.00207753
0.0441114
-0.00159623
0.0437512
-0.00118128
0.0434772
-0.00082694
0.043277
-0.000527722
0.0431395
-0.000278402
0.0430543
-7.40079e-05
0.0430122
9.01765e-05
0.0430046
0.000218637
0.0430244
0.000315629
0.0430649
0.000385194
0.0431205
0.000431146
0.0431865
0.000457071
0.000466316
0.0432588
0.0932741
-0.0113435
0.0899171
-0.0132783
0.0861088
-0.0146066
0.0820936
-0.0152943
0.0780315
-0.0154165
0.0740323
-0.0150766
0.0701702
-0.0143884
0.0664956
-0.0134608
0.0630439
-0.0123868
0.0598391
-0.0112402
0.0568959
-0.0100771
0.0542211
-0.00893776
0.0518147
-0.00784976
0.049671
-0.00683055
0.0477799
-0.00588987
0.0461278
-0.00503189
0.044699
-0.00425685
0.0434762
-0.00356242
0.0424417
-0.00294464
0.0415774
-0.00239869
0.0408656
-0.00191931
0.0402892
-0.00150118
0.0398321
-0.00113909
0.0394789
-0.000828093
0.0392155
-0.000563486
0.0390287
-0.000340882
0.0389065
-0.000156159
0.038838
-5.46061e-06
0.0388134
0.000114855
0.0388239
0.000208212
0.0388617
0.000277865
0.0389201
0.000326877
0.0389932
0.000358153
0.0390759
0.000374411
0.0003782
0.0391641
0.089398
-0.00847726
0.0858623
-0.00974242
0.0818756
-0.0106197
0.077645
-0.0110636
0.0733379
-0.0111093
0.0690857
-0.0108243
0.0649859
-0.0102884
0.0611067
-0.00958154
0.0574931
-0.00877316
0.0541719
-0.00791893
0.0511553
-0.00706052
0.0484449
-0.0062273
0.0460338
-0.00543862
0.0439093
-0.00470601
0.0420546
-0.00403519
0.0404506
-0.00342786
0.0390767
-0.00288296
0.0379121
-0.00239776
0.036936
-0.00196855
0.0361285
-0.00159117
0.0354705
-0.00126135
0.0349443
-0.000974891
0.034533
-0.000727825
0.0342214
-0.00051644
0.0339953
-0.000337301
0.0338417
-0.00018724
0.0337489
-6.33283e-05
0.0337063
3.71569e-05
0.0337045
0.000116755
0.0337349
0.000177859
0.0337901
0.000222717
0.0338636
0.000253461
0.0339497
0.000272094
0.0340437
0.000280508
0.00028046
0.0341415
0.0792515
-0.00555175
0.0757912
-0.00628199
0.0719483
-0.00677681
0.0678908
-0.007006
0.0637707
-0.00698913
0.059715
-0.00676857
0.055822
-0.00639542
0.0521612
-0.00592062
0.0487767
-0.00538866
0.0456925
-0.00483477
0.0429169
-0.00428487
0.0404463
-0.00375674
0.0382693
-0.00326159
0.0363689
-0.00280561
0.0347251
-0.0023914
0.0333163
-0.0020191
0.0321206
-0.00168726
0.0311164
-0.00139354
0.030283
-0.00113512
0.0296009
-0.000909016
0.0290519
-0.000712302
0.0286193
-0.000542174
0.0282876
-0.000396045
0.0280427
-0.000271531
0.027872
-0.000166476
0.0277638
-7.89043e-05
0.0277075
-7.01796e-06
0.027694
5.08449e-05
0.0277146
9.62267e-05
0.027762
0.000130572
0.0278295
0.000155243
0.0279116
0.000171521
0.0280031
0.00018062
0.0281
0.000183677
0.000181762
0.0281988
0.0632617
-0.00288305
0.0601984
-0.00321875
0.0568552
-0.00343358
0.0533642
-0.00351498
0.04985
-0.00347496
0.0464183
-0.00333682
0.0431503
-0.00312748
0.0401026
-0.00287293
0.0373092
-0.00259534
0.0347863
-0.00231185
0.032536
-0.00203465
0.030551
-0.00177178
0.0288174
-0.00152801
0.0273174
-0.00130569
0.0260315
-0.00110545
0.0249392
-0.000926833
0.0240207
-0.000768717
0.0232568
-0.000629618
0.0226297
-0.000507907
0.0221227
-0.000401955
0.0217206
-0.000310199
0.0214098
-0.000231199
0.0211775
-0.000163637
0.0210124
-0.000106336
0.0209043
-5.82322e-05
0.0208439
-1.83729e-05
0.0208229
1.4107e-05
0.0208339
4.00001e-05
0.0208702
6.00386e-05
0.020926
7.49104e-05
0.0209961
8.52576e-05
0.0210761
9.16933e-05
0.021162
9.47897e-05
0.0212507
9.50936e-05
9.31092e-05
0.0213394
0.0419029
-0.000869386
0.0396424
-0.000958292
0.0372179
-0.00100908
0.0347226
-0.00101966
0.0322429
-0.00099528
0.0298501
-0.000944057
0.0275971
-0.000874523
0.0255186
-0.00079446
0.0236334
-0.000710178
0.0219479
-0.000626318
0.0204592
-0.000545989
0.0191584
-0.0004711
0.0180331
-0.000402647
0.0170683
-0.000340997
0.016249
-0.000286075
0.0155597
-0.000237559
0.014986
-0.00019497
0.0145142
-0.000157783
0.0141318
-0.000125455
0.0138274
-9.74813e-05
0.0135906
-7.33826e-05
0.0134123
-5.27453e-05
0.0132839
-3.51852e-05
0.0131981
-2.03821e-05
0.013148
-8.03466e-06
0.0131276
2.10537e-06
0.0131316
1.02815e-05
0.013155
1.66953e-05
0.0131936
2.15546e-05
0.0132435
2.50321e-05
0.0133016
2.73137e-05
0.0133648
2.85533e-05
0.0134307
2.892e-05
0.0134974
2.85508e-05
2.75972e-05
0.0135629
0.0156337
0.0146754
0.0136663
0.0126467
0.0116514
0.0107073
0.00983282
0.00903835
0.00832817
0.00770185
0.00715586
0.00668475
0.0062821
0.00594111
0.00565503
0.00541747
0.00522251
0.00506473
0.00493928
0.00484181
0.00476843
0.0047157
0.00468052
0.00466015
0.00465213
0.00465425
0.00466454
0.00468125
0.00470281
0.00472785
0.00475518
0.00478374
0.00481267
0.00484123
0.00486883
0.00521116
2.59129e-05
0.00518683
2.4304e-05
0.00516443
2.2388e-05
0.00514413
2.02877e-05
0.00512602
1.81011e-05
0.00511011
1.59095e-05
0.00509634
1.37739e-05
0.00508461
1.17432e-05
0.00507477
9.84971e-06
8.11789e-06
0.00506666
0.0144508
8.79708e-05
0.0143916
8.34421e-05
0.0143363
7.76369e-05
0.0142856
7.1001e-05
0.0142397
6.39017e-05
0.014199
5.66409e-05
0.0141633
4.94561e-05
0.0141326
4.25332e-05
0.0141064
3.60079e-05
2.99773e-05
0.0140846
0.0226237
0.000172669
0.0225419
0.000165128
0.0224648
0.000154735
0.0223933
0.000142413
0.0223283
0.000128933
0.02227
0.000114929
0.0222185
0.000100911
0.0221738
8.72777e-05
0.0221355
7.43286e-05
6.22792e-05
0.0221032
0.0297274
0.000268116
0.0296342
0.000258264
0.0295454
0.000243515
0.0294624
0.000225364
0.0293862
0.000205072
0.0293175
0.000183682
0.0292563
0.000162041
0.0292028
0.000140816
0.0291566
0.000120517
0.000101515
0.0291173
0.0357604
0.000364284
0.0356655
0.000353137
0.0355741
0.000334786
0.0354881
0.000311332
0.0354086
0.000284557
0.0353363
0.000255945
0.0352716
0.00022671
0.0352146
0.000197818
0.0351651
0.000170014
0.000143848
0.0351228
0.0407247
0.000453119
0.0406362
0.000441602
0.0405504
0.000420573
0.040469
0.000392701
0.0403932
0.000360268
0.040324
0.000325185
0.0402616
0.000289026
0.0402064
0.000253052
0.0401581
0.000218243
0.000185334
0.0401166
0.0446267
0.000528487
0.0445511
0.000517172
0.0444773
0.000494295
0.044407
0.000463008
0.0443412
0.000426017
0.0442808
0.000385603
0.0442261
0.000343654
0.0441775
0.000301692
0.0441348
0.000260909
0.000222207
0.0440979
0.0474765
0.000585969
0.0474187
0.000574961
0.0473621
0.000550843
0.047308
0.000517109
0.0472572
0.000476778
0.0472104
0.000432404
0.0471679
0.000386112
0.04713
0.000339625
0.0470966
0.0002943
0.000251168
0.0470676
0.0492875
0.000622555
0.0492509
0.000611556
0.0492151
0.000586568
0.049181
0.000551271
0.0491489
0.000508848
0.0491193
0.00046201
0.0490923
0.000413019
0.0490682
0.000363714
0.049047
0.000315553
0.000269648
0.0490285
0.0500753
0.000636363
0.050062
0.000624848
0.0500493
0.000599232
0.0500374
0.000563197
0.0500263
0.000519944
0.0500161
0.000472205
0.0500068
0.000422265
0.0499986
0.00037199
0.0499912
0.000322863
0.000276016
0.0499849
0.0498568
0.000626484
0.0498677
0.000613956
0.049879
0.000587973
0.0498902
0.000552053
0.0499009
0.00050926
0.0499109
0.000462218
0.04992
0.000413125
0.0499282
0.000363779
0.0499355
0.00031561
0.000269711
0.0499418
0.0486495
0.000593008
0.0486843
0.000579241
0.048719
0.000553331
0.0487525
0.000518484
0.0487843
0.000477496
0.0488138
0.000432763
0.0488406
0.000386296
0.0488647
0.00033974
0.0488859
0.000294404
0.000251286
0.0489043
0.0464702
0.000537234
0.0465271
0.000522442
0.0465831
0.000497327
0.046637
0.00046466
0.0466876
0.000426866
0.0467344
0.000386021
0.0467768
0.000343868
0.0468147
0.000301832
0.0468481
0.000261045
0.000222365
0.046877
0.0433342
0.000461973
0.0434098
0.000446869
0.0434836
0.000423554
0.043554
0.000394292
0.0436198
0.000361065
0.0436803
0.000325568
0.043735
0.000289224
0.0437836
0.000253192
0.0438263
0.000218391
0.000185513
0.0438631
0.0392542
0.000371866
0.0393436
0.000357565
0.0394299
0.000337232
0.0395117
0.000312599
0.0395876
0.000285167
0.039657
0.00025623
0.0397193
0.000226861
0.0397746
0.000197943
0.0398228
0.000170158
0.00014403
0.0398643
0.0342398
0.000273586
0.0343361
0.000261374
0.0344282
0.000245176
0.0345146
0.000226184
0.0345944
0.000205445
0.0346668
0.000183848
0.0347315
0.000162137
0.0347886
0.000140912
0.0348381
0.000120643
0.000101677
0.0348804
0.0282966
0.000175858
0.0283911
0.000166871
0.0284807
0.000155614
0.0285641
0.000142811
0.0286405
0.000129091
0.0287094
0.00011499
0.0287706
0.000100953
0.0288241
8.73357e-05
0.0288703
7.44166e-05
6.23936e-05
0.0289096
0.021426
8.93109e-05
0.0215088
8.41263e-05
0.0215865
7.79466e-05
0.0216582
7.11137e-05
0.0217234
6.39274e-05
0.0217817
5.66398e-05
0.0218332
4.94598e-05
0.021878
4.25537e-05
0.0219163
3.6047e-05
3.0032e-05
0.0219486
0.0136261
2.61771e-05
0.0136858
2.44207e-05
0.0137414
2.24228e-05
0.0137922
2.02888e-05
0.0138381
1.80881e-05
0.0138788
1.58999e-05
0.0139145
1.37681e-05
0.0139453
1.17469e-05
0.0139714
9.85712e-06
8.1319e-06
0.0139933
0.00489501
0.00491943
0.00494186
0.00496215
0.00498024
0.00499614
0.0050099
0.00502165
0.0050315
0.00503963
0.00506012
6.55897e-06
0.00505495
5.1802e-06
0.00505099
3.97836e-06
0.00504805
2.94954e-06
0.00504599
2.0817e-06
0.00504463
1.36472e-06
0.00504386
7.82174e-07
0.00504355
3.21488e-07
0.0050436
-3.49018e-08
0.00504391
-2.99433e-07
0.0050444
-4.88667e-07
0.00504502
-6.13331e-07
0.00504572
-6.87769e-07
0.00504644
-7.20272e-07
0.00504716
-7.22508e-07
0.00504787
-7.00186e-07
0.00504853
-6.62327e-07
0.00504914
-6.12287e-07
0.0050497
-5.56764e-07
0.0050502
-4.97177e-07
0.00505064
-4.38371e-07
0.00505101
-3.80307e-07
0.00505134
-3.26437e-07
0.00505162
-2.75733e-07
0.00505184
-2.30682e-07
0.00505203
-1.89617e-07
0.00505219
-1.5445e-07
0.00505231
-1.23118e-07
0.00505241
-9.72472e-08
0.00505248
-7.45795e-08
0.00505254
-5.66296e-08
0.00505258
-4.10136e-08
0.00505261
-2.92456e-08
0.00505263
-1.88935e-08
-1.13078e-08
0.00505264
0.0140667
2.45008e-05
0.0140523
1.96108e-05
0.014041
1.53137e-05
0.0140324
1.1599e-05
0.014026
8.43935e-06
0.0140216
5.79891e-06
0.0140188
3.63281e-06
0.0140173
1.89351e-06
0.0140167
5.30191e-07
0.014017
-5.06366e-07
0.0140178
-1.2651e-06
0.0140189
-1.7907e-06
0.0140204
-2.1256e-06
0.014022
-2.30671e-06
0.0140236
-2.36798e-06
0.0140253
-2.33754e-06
0.0140269
-2.24064e-06
0.0140284
-2.09708e-06
0.0140297
-1.92435e-06
0.014031
-1.73516e-06
0.0140321
-1.54071e-06
0.014033
-1.34819e-06
0.0140339
-1.16408e-06
0.0140346
-9.91627e-07
0.0140352
-8.34026e-07
0.0140357
-6.91919e-07
0.0140361
-5.66424e-07
0.0140364
-4.56611e-07
0.0140367
-3.62423e-07
0.0140369
-2.82113e-07
0.014037
-2.15037e-07
0.0140372
-1.59101e-07
0.0140373
-1.13428e-07
0.0140373
-7.58203e-08
-4.51855e-08
0.0140373
0.0220764
5.1271e-05
0.0220547
4.13849e-05
0.0220374
3.26501e-05
0.0220239
2.50562e-05
0.0220138
1.85607e-05
0.0220066
1.30982e-05
0.0220016
8.58669e-06
0.0219986
4.93476e-06
0.0219971
2.04516e-06
0.0219968
-1.79115e-07
0.0219974
-1.83365e-06
0.0219986
-3.00802e-06
0.0220003
-3.78618e-06
0.0220022
-4.24319e-06
0.0220043
-4.44677e-06
0.0220064
-4.455e-06
0.0220085
-4.31856e-06
0.0220105
-4.0791e-06
0.0220124
-3.77187e-06
0.0220141
-3.42438e-06
0.0220156
-3.05917e-06
0.0220169
-2.69261e-06
0.0220181
-2.33764e-06
0.0220191
-2.00253e-06
0.02202
-1.69349e-06
0.0220207
-1.41338e-06
0.0220213
-1.16405e-06
0.0220218
-9.45039e-07
0.0220222
-7.55697e-07
0.0220225
-5.9372e-07
0.0220227
-4.57201e-07
0.0220229
-3.42972e-07
0.022023
-2.48616e-07
0.0220231
-1.70609e-07
-1.0625e-07
0.0220232
0.0290846
8.40636e-05
0.0290576
6.83129e-05
0.029036
5.4331e-05
0.0290189
4.21178e-05
0.0290059
3.1621e-05
0.0289963
2.27481e-05
0.0289895
1.5379e-05
0.0289851
9.37538e-06
0.0289825
4.58928e-06
0.0289815
8.69812e-07
0.0289816
-1.93095e-06
0.0289826
-3.95454e-06
0.0289841
-5.33233e-06
0.0289861
-6.18439e-06
0.0289883
-6.61757e-06
0.0289905
-6.72585e-06
0.0289928
-6.58972e-06
0.028995
-6.27753e-06
0.0289971
-5.84552e-06
0.028999
-5.33968e-06
0.0290008
-4.79614e-06
0.0290023
-4.24311e-06
0.0290037
-3.70134e-06
0.0290048
-3.186e-06
0.0290059
-2.70697e-06
0.0290067
-2.27055e-06
0.0290074
-1.87955e-06
0.029008
-1.53475e-06
0.0290085
-1.23478e-06
0.0290089
-9.77336e-07
0.0290092
-7.5886e-07
0.0290094
-5.75561e-07
0.0290096
-4.22901e-07
0.0290097
-2.96485e-07
-1.9133e-07
0.0290098
0.0350872
0.000119702
0.0350577
9.78138e-05
0.0350337
7.8303e-05
0.0350146
6.11909e-05
0.0349998
4.64226e-05
0.0349887
3.38848e-05
0.0349807
2.34227e-05
0.0349752
1.4854e-05
0.0349719
7.98051e-06
0.0349701
2.5984e-06
0.0349697
-1.49407e-06
0.0349703
-4.49068e-06
0.0349715
-6.57271e-06
0.0349732
-7.90609e-06
0.0349753
-8.6396e-06
0.0349775
-8.90418e-06
0.0349797
-8.81292e-06
0.0349819
-8.46173e-06
0.034984
-7.93042e-06
0.0349859
-7.28409e-06
0.0349877
-6.57467e-06
0.0349893
-5.84252e-06
0.0349907
-5.11808e-06
0.0349919
-4.42343e-06
0.034993
-3.77369e-06
0.0349939
-3.17836e-06
0.0349947
-2.64251e-06
0.0349953
-2.16774e-06
0.0349958
-1.75307e-06
0.0349962
-1.39561e-06
0.0349966
-1.09117e-06
0.0349968
-8.34636e-07
0.034997
-6.20359e-07
0.0349972
-4.42288e-07
-2.94182e-07
0.0349973
0.0400815
0.00015484
0.0400522
0.000127095
0.0400283
0.000102275
0.040009
8.0432e-05
0.0399939
6.15145e-05
0.0399824
4.53961e-05
0.039974
3.1894e-05
0.0399681
2.07875e-05
0.0399642
1.18338e-05
0.0399621
4.78067e-06
0.0399612
-6.23291e-07
0.0399613
-4.62082e-06
0.0399622
-7.44009e-06
0.0399636
-9.29079e-06
0.0399653
-1.03616e-05
0.0399673
-1.08192e-05
0.0399693
-1.08081e-05
0.0399712
-1.04511e-05
0.0399732
-9.85091e-06
0.039975
-9.09174e-06
0.0399766
-8.24096e-06
0.0399782
-7.3513e-06
0.0399795
-6.46281e-06
0.0399807
-5.60482e-06
0.0399817
-4.79772e-06
0.0399826
-4.05468e-06
0.0399833
-3.38305e-06
0.0399839
-2.78572e-06
0.0399844
-2.26214e-06
0.0399849
-1.80933e-06
0.0399852
-1.42245e-06
0.0399855
-1.09557e-06
0.0399857
-8.21898e-07
0.0399858
-5.94299e-07
-4.05229e-07
0.0399859
0.0440665
0.000186226
0.0440402
0.000153389
0.0440186
0.00012393
0.0440011
9.79313e-05
0.0439873
7.53526e-05
0.0439766
5.60593e-05
0.0439687
3.98481e-05
0.043963
2.64681e-05
0.0439592
1.56401e-05
0.0439569
7.07129e-06
0.0439558
4.68383e-07
0.0439557
-4.45321e-06
0.0439562
-7.96195e-06
0.0439572
-1.03054e-05
0.0439586
-1.17071e-05
0.0439601
-1.2365e-05
0.0439618
-1.2451e-05
0.0439634
-1.2112e-05
0.043965
-1.14711e-05
0.0439666
-1.06293e-05
0.043968
-9.66806e-06
0.0439693
-8.65118e-06
0.0439705
-7.62751e-06
0.0439715
-6.63307e-06
0.0439724
-5.69316e-06
0.0439732
-4.82442e-06
0.0439738
-4.03648e-06
0.0439744
-3.33357e-06
0.0439748
-2.71574e-06
0.0439752
-2.18003e-06
0.0439755
-1.72132e-06
0.0439757
-1.33302e-06
0.0439759
-1.00766e-06
0.0439761
-7.37158e-07
-5.13243e-07
0.0439762
0.0470429
0.000210971
0.047022
0.000174204
0.0470048
0.000141149
0.0469908
0.000111918
0.0469797
8.64794e-05
0.0469711
6.4697e-05
0.0469646
4.63534e-05
0.0469599
3.11768e-05
0.0469567
1.88607e-05
0.0469547
9.08268e-06
0.0469536
1.51755e-06
0.0469533
-4.15092e-06
0.0469536
-8.22215e-06
0.0469542
-1.09728e-05
0.0469552
-1.26533e-05
0.0469563
-1.34858e-05
0.0469575
-1.3664e-05
0.0469588
-1.33532e-05
0.04696
-1.26925e-05
0.0469612
-1.17965e-05
0.0469623
-1.07575e-05
0.0469632
-9.64833e-06
0.0469641
-8.52481e-06
0.0469649
-7.42835e-06
0.0469656
-6.38828e-06
0.0469662
-5.42411e-06
0.0469667
-4.54738e-06
0.0469672
-3.7635e-06
0.0469675
-3.07315e-06
0.0469678
-2.47352e-06
0.0469681
-1.95935e-06
0.0469683
-1.52374e-06
0.0469684
-1.15874e-06
0.0469685
-8.55883e-07
-6.06406e-07
0.0469686
0.0490127
0.000226804
0.0489993
0.000187561
0.0489882
0.000152236
0.0489792
0.000120956
0.048972
9.37e-05
0.0489663
7.03312e-05
0.048962
5.06248e-05
0.0489589
3.4296e-05
0.0489568
2.10228e-05
0.0489554
1.0464e-05
0.0489546
2.27508e-06
0.0489544
-3.88012e-06
0.0489545
-8.32021e-06
0.0489548
-1.13403e-05
0.0489554
-1.32076e-05
0.0489561
-1.41597e-05
0.0489568
-1.44039e-05
0.0489576
-1.41176e-05
0.0489583
-1.345e-05
0.048959
-1.25242e-05
0.0489597
-1.14397e-05
0.0489603
-1.02751e-05
0.0489609
-9.09062e-06
0.0489614
-7.93131e-06
0.0489619
-6.82912e-06
0.0489622
-5.80544e-06
0.0489626
-4.87314e-06
0.0489628
-4.03844e-06
0.0489631
-3.30248e-06
0.0489633
-2.66265e-06
0.0489634
-2.1137e-06
0.0489635
-1.64862e-06
0.0489636
-1.25938e-06
0.0489637
-9.37341e-07
-6.73809e-07
0.0489638
0.0499794
0.000232273
0.0499748
0.000192189
0.0499709
0.000156089
0.0499677
0.000124108
0.0499652
9.62294e-05
0.0499632
7.23145e-05
0.0499617
5.21372e-05
0.0499606
3.54092e-05
0.0499598
2.18029e-05
0.0499593
1.09715e-05
0.049959
2.56367e-06
0.0499589
-3.76305e-06
0.0499589
-8.33401e-06
0.049959
-1.14503e-05
0.0499592
-1.33852e-05
0.0499594
-1.43814e-05
0.0499596
-1.46509e-05
0.0499599
-1.43751e-05
0.0499601
-1.3707e-05
0.0499604
-1.27724e-05
0.0499606
-1.16734e-05
0.0499608
-1.04905e-05
0.049961
-9.28577e-06
0.0499612
-8.10531e-06
0.0499614
-6.98208e-06
0.0499615
-5.93813e-06
0.0499616
-4.98685e-06