/*--------------------------------*- C++ -*----------------------------------*\
| =========                 |                                                 |
| \\      /  F ield         | OpenFOAM: The Open Source CFD Toolbox           |
|  \\    /   O peration     | Version:  2406                                  |
|   \\  /    A nd           | Website:  www.openfoam.com                      |
|    \\/     M anipulation  |                                                 |
\*---------------------------------------------------------------------------*/
FoamFile
{
    version     2.0;
    format      ascii;
    arch        "LSB;label=32;scalar=64";
    class       volScalarField;
    location    "965";
    object      p;
}
// * * * * * * * * * * * * * * * * * * * * * * * * * * * * * * * * * * * * * //

dimensions      [0 2 -2 0 0 0 0];

internalField   nonuniform List<scalar> 
190000
(
-0.0458348
-0.0442993
-0.0437541
-0.043775
-0.0440114
-0.0443541
-0.04476
-0.0452039
-0.0456718
-0.046156
-0.0466518
-0.0471567
-0.0476689
-0.0481872
-0.0487109
-0.0492393
-0.0497721
-0.0503089
-0.0508496
-0.0513939
-0.0519417
-0.052493
-0.0530476
-0.0536054
-0.0541665
-0.0547309
-0.0552984
-0.0558691
-0.0564431
-0.0570202
-0.0576005
-0.0581841
-0.0587709
-0.0593611
-0.0599545
-0.0605514
-0.0611516
-0.0617553
-0.0623625
-0.0629732
-0.0635876
-0.0642056
-0.0648274
-0.065453
-0.0660824
-0.0667158
-0.0673532
-0.0679947
-0.0686405
-0.0692905
-0.0699449
-0.0706037
-0.0712672
-0.0719354
-0.0726084
-0.0732863
-0.0739693
-0.0746576
-0.0753511
-0.0760502
-0.076755
-0.0774655
-0.0781821
-0.0789049
-0.0796341
-0.08037
-0.0811127
-0.0818624
-0.0826196
-0.0833843
-0.084157
-0.0849379
-0.0857274
-0.0865258
-0.0873336
-0.0881512
-0.088979
-0.0898176
-0.0906674
-0.0915292
-0.0924034
-0.0932909
-0.0941923
-0.0951085
-0.0960404
-0.0969887
-0.0979544
-0.0989383
-0.0999412
-0.100964
-0.102006
-0.103069
-0.104155
-0.105266
-0.106416
-0.107649
-0.109056
-0.110643
-0.112442
-0.118681
-0.0439256
-0.0436871
-0.0436337
-0.0437866
-0.0440621
-0.0444141
-0.0448173
-0.0452552
-0.0457171
-0.0461962
-0.046688
-0.0471897
-0.0476995
-0.048216
-0.0487383
-0.0492658
-0.0497978
-0.0503342
-0.0508745
-0.0514186
-0.0519664
-0.0525176
-0.0530723
-0.0536304
-0.0541917
-0.0547563
-0.0553242
-0.0558953
-0.0564696
-0.0570471
-0.057628
-0.058212
-0.0587994
-0.0593901
-0.0599841
-0.0605815
-0.0611824
-0.0617867
-0.0623946
-0.063006
-0.0636211
-0.0642399
-0.0648624
-0.0654888
-0.066119
-0.0667533
-0.0673916
-0.068034
-0.0686807
-0.0693317
-0.0699871
-0.070647
-0.0713116
-0.0719809
-0.0726551
-0.0733342
-0.0740185
-0.0747081
-0.0754031
-0.0761036
-0.0768099
-0.0775221
-0.0782403
-0.0789649
-0.079696
-0.0804338
-0.0811785
-0.0819305
-0.0826899
-0.0834571
-0.0842324
-0.0850162
-0.0858087
-0.0866103
-0.0874216
-0.088243
-0.0890749
-0.0899179
-0.0907726
-0.0916397
-0.09252
-0.0934141
-0.0943231
-0.0952479
-0.0961896
-0.0971495
-0.098129
-0.0991297
-0.100154
-0.101203
-0.102281
-0.103392
-0.104545
-0.10575
-0.107033
-0.108441
-0.110053
-0.111982
-0.114691
-0.119985
-0.0428902
-0.0432248
-0.043483
-0.0437509
-0.0440733
-0.0444452
-0.044855
-0.0452934
-0.0457536
-0.0462303
-0.0467199
-0.0472197
-0.0477279
-0.0482431
-0.0487645
-0.0492912
-0.0498227
-0.0503587
-0.0508989
-0.0514429
-0.0519907
-0.052542
-0.0530969
-0.0536551
-0.0542168
-0.0547817
-0.0553499
-0.0559214
-0.0564961
-0.0570742
-0.0576555
-0.0582401
-0.058828
-0.0594192
-0.0600138
-0.0606119
-0.0612134
-0.0618184
-0.0624269
-0.0630391
-0.0636549
-0.0642744
-0.0648978
-0.0655249
-0.066156
-0.0667911
-0.0674303
-0.0680737
-0.0687213
-0.0693733
-0.0700298
-0.0706908
-0.0713564
-0.0720269
-0.0727023
-0.0733827
-0.0740683
-0.0747592
-0.0754555
-0.0761576
-0.0768654
-0.0775791
-0.0782991
-0.0790254
-0.0797583
-0.0804981
-0.0812449
-0.081999
-0.0827608
-0.0835304
-0.0843083
-0.0850948
-0.0858903
-0.0866951
-0.0875098
-0.0883348
-0.0891707
-0.0900181
-0.0908776
-0.09175
-0.092636
-0.0935367
-0.0944529
-0.095386
-0.0963373
-0.0973084
-0.0983012
-0.0993181
-0.100362
-0.101436
-0.102547
-0.1037
-0.104908
-0.106186
-0.10756
-0.10907
-0.110771
-0.112734
-0.115127
-0.118269
-0.0424045
-0.0429188
-0.0433199
-0.043669
-0.0440389
-0.0444382
-0.0448626
-0.0453084
-0.045772
-0.0462501
-0.0467401
-0.0472399
-0.0477478
-0.0482628
-0.0487838
-0.0493103
-0.0498418
-0.0503777
-0.0509178
-0.0514619
-0.0520098
-0.0525613
-0.0531164
-0.0536749
-0.0542368
-0.0548021
-0.0553706
-0.0559425
-0.0565176
-0.0570961
-0.0576778
-0.0582629
-0.0588512
-0.059443
-0.0600381
-0.0606367
-0.0612388
-0.0618443
-0.0624535
-0.0630662
-0.0636827
-0.0643028
-0.0649268
-0.0655547
-0.0661865
-0.0668223
-0.0674623
-0.0681064
-0.0687548
-0.0694076
-0.0700649
-0.0707268
-0.0713934
-0.0720648
-0.0727411
-0.0734226
-0.0741092
-0.0748012
-0.0754987
-0.0762019
-0.0769109
-0.077626
-0.0783473
-0.079075
-0.0798094
-0.0805507
-0.0812991
-0.082055
-0.0828185
-0.0835901
-0.08437
-0.0851586
-0.0859563
-0.0867636
-0.0875809
-0.0884087
-0.0892476
-0.0900982
-0.0909613
-0.0918375
-0.0927278
-0.0936332
-0.0945547
-0.0954938
-0.0964519
-0.0974308
-0.0984327
-0.0994603
-0.100517
-0.101607
-0.102735
-0.10391
-0.105141
-0.106441
-0.107828
-0.109322
-0.110945
-0.112703
-0.114586
-0.116536
-0.0421097
-0.0426979
-0.0431742
-0.0435795
-0.0439886
-0.0444137
-0.0448541
-0.0453095
-0.0457789
-0.0462603
-0.0467522
-0.047253
-0.0477616
-0.0482769
-0.0487982
-0.0493248
-0.0498564
-0.0503924
-0.0509327
-0.051477
-0.0520251
-0.0525768
-0.0531321
-0.0536909
-0.0542531
-0.0548187
-0.0553876
-0.0559598
-0.0565353
-0.0571141
-0.0576962
-0.0582817
-0.0588705
-0.0594627
-0.0600583
-0.0606574
-0.0612599
-0.061866
-0.0624756
-0.0630889
-0.0637059
-0.0643266
-0.0649512
-0.0655796
-0.066212
-0.0668485
-0.067489
-0.0681338
-0.0687829
-0.0694364
-0.0700944
-0.070757
-0.0714244
-0.0720965
-0.0727737
-0.0734559
-0.0741434
-0.0748363
-0.0755347
-0.0762389
-0.0769489
-0.077665
-0.0783873
-0.0791162
-0.0798517
-0.0805942
-0.0813439
-0.082101
-0.0828659
-0.0836389
-0.0844203
-0.0852105
-0.0860099
-0.086819
-0.0876381
-0.0884679
-0.0893089
-0.0901618
-0.0910272
-0.091906
-0.0927991
-0.0937074
-0.0946322
-0.0955748
-0.0965368
-0.09752
-0.0985265
-0.0995591
-0.100621
-0.101716
-0.102849
-0.104025
-0.105252
-0.106536
-0.107885
-0.109301
-0.110779
-0.112288
-0.113763
-0.115078
-0.0419093
-0.0425324
-0.0430523
-0.0434957
-0.0439346
-0.0443814
-0.0448367
-0.045302
-0.0457777
-0.0462633
-0.0467579
-0.0472605
-0.0477702
-0.0482862
-0.048808
-0.0493351
-0.049867
-0.0504033
-0.0509438
-0.0514883
-0.0520367
-0.0525887
-0.0531443
-0.0537033
-0.0542658
-0.0548317
-0.0554009
-0.0559734
-0.0565493
-0.0571284
-0.0577109
-0.0582968
-0.058886
-0.0594785
-0.0600745
-0.060674
-0.0612769
-0.0618834
-0.0624935
-0.0631072
-0.0637247
-0.0643459
-0.0649709
-0.0655998
-0.0662327
-0.0668697
-0.0675108
-0.0681561
-0.0688057
-0.0694598
-0.0701184
-0.0707815
-0.0714495
-0.0721223
-0.0728
-0.0734829
-0.0741711
-0.0748646
-0.0755637
-0.0762686
-0.0769793
-0.0776962
-0.0784193
-0.0791489
-0.0798853
-0.0806286
-0.0813792
-0.0821372
-0.082903
-0.083677
-0.0844594
-0.0852506
-0.086051
-0.0868611
-0.0876813
-0.0885122
-0.0893543
-0.0902083
-0.0910749
-0.0919548
-0.092849
-0.0937584
-0.0946842
-0.0956277
-0.0965903
-0.0975737
-0.09858
-0.0996114
-0.10067
-0.10176
-0.102884
-0.104045
-0.105246
-0.106488
-0.10777
-0.109081
-0.1104
-0.111681
-0.112851
-0.113792
-0.0417668
-0.0424051
-0.0429504
-0.0434193
-0.0438805
-0.044345
-0.0448133
-0.0452879
-0.0457702
-0.0462603
-0.046758
-0.0472627
-0.0477739
-0.048291
-0.0488136
-0.0493412
-0.0498735
-0.0504102
-0.0509511
-0.0514959
-0.0520445
-0.0525968
-0.0531526
-0.0537119
-0.0542747
-0.0548408
-0.0554103
-0.0559832
-0.0565593
-0.0571388
-0.0577216
-0.0583077
-0.0588972
-0.0594901
-0.0600865
-0.0606862
-0.0612895
-0.0618964
-0.0625068
-0.0631209
-0.0637387
-0.0643602
-0.0649856
-0.0656149
-0.0662482
-0.0668855
-0.067527
-0.0681727
-0.0688228
-0.0694772
-0.0701362
-0.0707998
-0.0714682
-0.0721414
-0.0728196
-0.0735029
-0.0741915
-0.0748855
-0.0755851
-0.0762903
-0.0770015
-0.0777188
-0.0784424
-0.0791725
-0.0799093
-0.0806531
-0.081404
-0.0821625
-0.0829287
-0.0837031
-0.0844858
-0.0852774
-0.0860781
-0.0868884
-0.0877089
-0.0885398
-0.089382
-0.0902358
-0.0911021
-0.0919816
-0.092875
-0.0937834
-0.0947077
-0.095649
-0.0966087
-0.0975882
-0.0985891
-0.099613
-0.100662
-0.101737
-0.10284
-0.103972
-0.105132
-0.106315
-0.107514
-0.108712
-0.109879
-0.110969
-0.111914
-0.112623
-0.0416584
-0.0423028
-0.0428631
-0.0433492
-0.0438271
-0.0443058
-0.0447855
-0.0452686
-0.0457572
-0.0462519
-0.0467529
-0.0472599
-0.0477728
-0.0482912
-0.0488147
-0.049343
-0.0498759
-0.0504131
-0.0509543
-0.0514994
-0.0520483
-0.0526009
-0.053157
-0.0537165
-0.0542795
-0.0548459
-0.0554157
-0.0559887
-0.0565651
-0.0571448
-0.0577279
-0.0583143
-0.058904
-0.0594972
-0.0600937
-0.0606938
-0.0612973
-0.0619044
-0.0625151
-0.0631294
-0.0637475
-0.0643693
-0.0649949
-0.0656245
-0.066258
-0.0668956
-0.0675373
-0.0681833
-0.0688336
-0.0694883
-0.0701475
-0.0708113
-0.0714799
-0.0721533
-0.0728317
-0.0735153
-0.0742041
-0.0748982
-0.075598
-0.0763034
-0.0770148
-0.0777322
-0.0784558
-0.079186
-0.0799228
-0.0806666
-0.0814175
-0.0821759
-0.082942
-0.0837161
-0.0844986
-0.0852897
-0.08609
-0.0868997
-0.0877193
-0.0885493
-0.0893903
-0.0902427
-0.0911072
-0.0919844
-0.0928751
-0.0937801
-0.0947003
-0.0956365
-0.0965897
-0.0975611
-0.0985516
-0.0995622
-0.100594
-0.101646
-0.10272
-0.103813
-0.104921
-0.106037
-0.107149
-0.108236
-0.109268
-0.110203
-0.110984
-0.111545
-0.0415695
-0.042216
-0.0427858
-0.0432836
-0.043774
-0.0442643
-0.0447537
-0.0452445
-0.045739
-0.0462383
-0.0467427
-0.0472523
-0.047767
-0.0482868
-0.0488114
-0.0493405
-0.049874
-0.0504116
-0.0509533
-0.0514987
-0.0520479
-0.0526007
-0.0531571
-0.0537169
-0.0542801
-0.0548467
-0.0554166
-0.0559898
-0.0565664
-0.0571463
-0.0577295
-0.0583161
-0.058906
-0.0594993
-0.0600961
-0.0606963
-0.0613
-0.0619072
-0.062518
-0.0631325
-0.0637507
-0.0643726
-0.0649984
-0.0656281
-0.0662617
-0.0668994
-0.0675413
-0.0681873
-0.0688377
-0.0694924
-0.0701517
-0.0708155
-0.0714841
-0.0721576
-0.072836
-0.0735194
-0.0742082
-0.0749022
-0.0756019
-0.0763071
-0.0770183
-0.0777355
-0.0784589
-0.0791887
-0.0799251
-0.0806684
-0.0814188
-0.0821765
-0.0829419
-0.0837151
-0.0844966
-0.0852866
-0.0860855
-0.0868936
-0.0877114
-0.0885394
-0.0893778
-0.0902274
-0.0910885
-0.0919617
-0.0928477
-0.0937471
-0.0946605
-0.0955886
-0.096532
-0.0974913
-0.0984669
-0.0994591
-0.100468
-0.101492
-0.102529
-0.103577
-0.104628
-0.105674
-0.1067
-0.107685
-0.108601
-0.109412
-0.110072
-0.110536
-0.0414914
-0.0421386
-0.0427146
-0.0432207
-0.0437205
-0.0442203
-0.0447179
-0.0452157
-0.0457158
-0.0462194
-0.0467272
-0.0472394
-0.0477562
-0.0482775
-0.0488032
-0.0493333
-0.0498674
-0.0504056
-0.0509477
-0.0514935
-0.052043
-0.0525961
-0.0531526
-0.0537126
-0.054276
-0.0548427
-0.0554128
-0.0559862
-0.0565629
-0.0571429
-0.0577262
-0.0583128
-0.0589029
-0.0594963
-0.0600931
-0.0606934
-0.0612971
-0.0619044
-0.0625153
-0.0631298
-0.063748
-0.0643699
-0.0649957
-0.0656253
-0.0662589
-0.0668966
-0.0675383
-0.0681843
-0.0688345
-0.0694892
-0.0701483
-0.070812
-0.0714804
-0.0721536
-0.0728317
-0.0735149
-0.0742032
-0.0748969
-0.0755961
-0.0763009
-0.0770115
-0.077728
-0.0784507
-0.0791798
-0.0799153
-0.0806576
-0.0814069
-0.0821634
-0.0829274
-0.0836991
-0.0844789
-0.0852669
-0.0860635
-0.0868692
-0.0876841
-0.0885088
-0.0893435
-0.0901887
-0.0910449
-0.0919123
-0.0927916
-0.0936832
-0.0945873
-0.0955045
-0.0964349
-0.0973787
-0.0983356
-0.0993053
-0.100287
-0.101277
-0.102275
-0.103273
-0.104266
-0.105243
-0.106188
-0.107083
-0.107901
-0.108613
-0.109185
-0.109583
-0.0414189
-0.0420663
-0.0426468
-0.0431588
-0.0436659
-0.0441733
-0.044678
-0.045182
-0.0456873
-0.0461951
-0.0467063
-0.0472212
-0.0477401
-0.048263
-0.04879
-0.049321
-0.0498559
-0.0503947
-0.0509373
-0.0514835
-0.0520333
-0.0525866
-0.0531433
-0.0537034
-0.054267
-0.0548338
-0.0554039
-0.0559774
-0.0565541
-0.0571342
-0.0577175
-0.0583042
-0.0588942
-0.0594876
-0.0600844
-0.0606847
-0.0612884
-0.0618956
-0.0625064
-0.0631208
-0.0637389
-0.0643607
-0.0649863
-0.0656158
-0.0662492
-0.0668866
-0.0675281
-0.0681738
-0.0688238
-0.0694781
-0.0701368
-0.0708001
-0.071468
-0.0721407
-0.0728183
-0.0735009
-0.0741886
-0.0748816
-0.07558
-0.076284
-0.0769936
-0.0777092
-0.0784307
-0.0791585
-0.0798928
-0.0806336
-0.0813812
-0.0821359
-0.0828978
-0.0836673
-0.0844445
-0.0852298
-0.0860233
-0.0868254
-0.0876364
-0.0884566
-0.0892863
-0.0901258
-0.0909754
-0.0918354
-0.0927061
-0.0935877
-0.0944804
-0.0953841
-0.0962988
-0.0972242
-0.0981594
-0.0991034
-0.100054
-0.101009
-0.101964
-0.102913
-0.103848
-0.104759
-0.10563
-0.106445
-0.107182
-0.107815
-0.10832
-0.108672
-0.0413488
-0.0419963
-0.0425802
-0.0430966
-0.0436092
-0.0441229
-0.0446338
-0.0451432
-0.0456532
-0.0461651
-0.0466796
-0.0471972
-0.0477183
-0.0482429
-0.0487712
-0.0493033
-0.0498391
-0.0503785
-0.0509216
-0.0514682
-0.0520183
-0.0525718
-0.0531287
-0.053689
-0.0542526
-0.0548195
-0.0553897
-0.0559632
-0.0565399
-0.0571199
-0.0577032
-0.0582898
-0.0588798
-0.0594731
-0.0600697
-0.0606698
-0.0612734
-0.0618804
-0.062491
-0.0631052
-0.063723
-0.0643445
-0.0649699
-0.065599
-0.0662321
-0.0668691
-0.0675102
-0.0681554
-0.0688048
-0.0694586
-0.0701167
-0.0707794
-0.0714466
-0.0721186
-0.0727954
-0.0734771
-0.0741639
-0.0748558
-0.0755531
-0.0762558
-0.0769642
-0.0776783
-0.0783983
-0.0791244
-0.0798567
-0.0805955
-0.0813409
-0.0820931
-0.0828524
-0.0836189
-0.0843928
-0.0851744
-0.0859639
-0.0867616
-0.0875676
-0.0883822
-0.0892056
-0.090038
-0.0908796
-0.0917305
-0.0925909
-0.0934607
-0.0943398
-0.095228
-0.0961247
-0.0970293
-0.0979404
-0.0988565
-0.099775
-0.100692
-0.101604
-0.102504
-0.103384
-0.104233
-0.105039
-0.105784
-0.106453
-0.107023
-0.107477
-0.107796
-0.0412789
-0.0419265
-0.0425132
-0.0430328
-0.0435498
-0.0440688
-0.0445848
-0.0450991
-0.0456135
-0.0461292
-0.0466469
-0.0471671
-0.0476904
-0.0482168
-0.0487466
-0.0492798
-0.0498164
-0.0503566
-0.0509002
-0.0514472
-0.0519976
-0.0525514
-0.0531085
-0.0536689
-0.0542326
-0.0547995
-0.0553697
-0.0559431
-0.0565197
-0.0570997
-0.0576828
-0.0582693
-0.0588591
-0.0594521
-0.0600486
-0.0606484
-0.0612517
-0.0618584
-0.0624687
-0.0630825
-0.0636999
-0.0643211
-0.0649459
-0.0655746
-0.0662071
-0.0668435
-0.067484
-0.0681286
-0.0687773
-0.0694303
-0.0700876
-0.0707494
-0.0714157
-0.0720866
-0.0727623
-0.0734428
-0.0741283
-0.0748189
-0.0755147
-0.0762158
-0.0769225
-0.0776347
-0.0783527
-0.0790766
-0.0798066
-0.0805428
-0.0812854
-0.0820345
-0.0827904
-0.0835532
-0.0843231
-0.0851002
-0.0858848
-0.086677
-0.087477
-0.0882849
-0.0891008
-0.0899249
-0.0907571
-0.0915975
-0.092446
-0.0933023
-0.0941662
-0.095037
-0.095914
-0.096796
-0.0976815
-0.0985682
-0.0994533
-0.100333
-0.101202
-0.102055
-0.102883
-0.103676
-0.104422
-0.105109
-0.10572
-0.10624
-0.106654
-0.106949
-0.0412076
-0.0418554
-0.0424447
-0.0429667
-0.0434872
-0.0440104
-0.0445309
-0.0450494
-0.0455678
-0.046087
-0.0466078
-0.0471307
-0.0476561
-0.0481843
-0.0487156
-0.04925
-0.0497876
-0.0503285
-0.0508727
-0.0514202
-0.051971
-0.052525
-0.0530822
-0.0536427
-0.0542064
-0.0547733
-0.0553435
-0.0559168
-0.0564933
-0.0570731
-0.057656
-0.0582423
-0.0588317
-0.0594245
-0.0600206
-0.0606201
-0.061223
-0.0618293
-0.0624391
-0.0630524
-0.0636693
-0.0642899
-0.0649141
-0.0655421
-0.0661739
-0.0668096
-0.0674492
-0.0680929
-0.0687407
-0.0693927
-0.070049
-0.0707096
-0.0713747
-0.0720443
-0.0727186
-0.0733977
-0.0740816
-0.0747704
-0.0754644
-0.0761635
-0.076868
-0.077578
-0.0782935
-0.0790147
-0.0797418
-0.0804749
-0.0812141
-0.0819595
-0.0827114
-0.0834698
-0.0842349
-0.0850068
-0.0857856
-0.0865714
-0.0873644
-0.0881645
-0.0889719
-0.0897864
-0.090608
-0.0914366
-0.0922718
-0.0931133
-0.0939604
-0.0948125
-0.0956684
-0.0965267
-0.0973854
-0.0982422
-0.0990938
-0.0999362
-0.100764
-0.101572
-0.102351
-0.103094
-0.103788
-0.104423
-0.104987
-0.105466
-0.105849
-0.106126
-0.0411338
-0.0417821
-0.0423735
-0.0428974
-0.0434207
-0.0439475
-0.0444718
-0.044994
-0.0455159
-0.0460384
-0.0465621
-0.0470875
-0.0476151
-0.0481451
-0.0486779
-0.0492135
-0.0497522
-0.0502939
-0.0508387
-0.0513867
-0.0519378
-0.0524921
-0.0530495
-0.0536101
-0.0541738
-0.0547407
-0.0553107
-0.0558839
-0.0564602
-0.0570397
-0.0576224
-0.0582083
-0.0587975
-0.0593899
-0.0599855
-0.0605845
-0.0611869
-0.0617926
-0.0624018
-0.0630145
-0.0636307
-0.0642505
-0.064874
-0.0655011
-0.0661321
-0.0667668
-0.0674054
-0.0680481
-0.0686947
-0.0693455
-0.0700004
-0.0706597
-0.0713233
-0.0719913
-0.0726639
-0.0733411
-0.0740231
-0.0747099
-0.0754017
-0.0760985
-0.0768004
-0.0775076
-0.0782202
-0.0789383
-0.0796619
-0.0803913
-0.0811266
-0.0818677
-0.0826149
-0.0833682
-0.0841278
-0.0848936
-0.0856659
-0.0864445
-0.0872296
-0.088021
-0.0888188
-0.0896227
-0.0904326
-0.0912482
-0.092069
-0.0928945
-0.0937239
-0.0945562
-0.0953901
-0.0962238
-0.0970554
-0.0978821
-0.0987005
-0.0995066
-0.100295
-0.101061
-0.101796
-0.102493
-0.103142
-0.103733
-0.104256
-0.104701
-0.10506
-0.105324
-0.0410568
-0.0417055
-0.0422989
-0.0428244
-0.0433498
-0.0438797
-0.0444072
-0.0449327
-0.0454578
-0.0459833
-0.0465096
-0.0470374
-0.0475671
-0.048099
-0.0486333
-0.0491702
-0.0497099
-0.0502524
-0.0507979
-0.0513464
-0.0518979
-0.0524524
-0.05301
-0.0535707
-0.0541344
-0.0547012
-0.0552711
-0.055844
-0.0564201
-0.0569993
-0.0575817
-0.0581672
-0.0587558
-0.0593477
-0.0599429
-0.0605413
-0.061143
-0.0617481
-0.0623566
-0.0629685
-0.0635838
-0.0642028
-0.0648253
-0.0654514
-0.0660812
-0.0667148
-0.0673523
-0.0679936
-0.0686388
-0.0692882
-0.0699416
-0.0705991
-0.071261
-0.0719272
-0.0725978
-0.0732729
-0.0739526
-0.074637
-0.0753262
-0.0760202
-0.0767192
-0.0774232
-0.0781324
-0.0788469
-0.0795666
-0.0802918
-0.0810225
-0.0817588
-0.0825007
-0.0832483
-0.0840016
-0.0847607
-0.0855256
-0.0862962
-0.0870725
-0.0878544
-0.0886417
-0.0894341
-0.0902314
-0.0910331
-0.0918386
-0.0926472
-0.093458
-0.0942698
-0.0950811
-0.0958901
-0.0966944
-0.0974913
-0.0982775
-0.0990488
-0.0998005
-0.100527
-0.101222
-0.101877
-0.102486
-0.103039
-0.103529
-0.103946
-0.104284
-0.104538
-0.0409758
-0.0416251
-0.0422203
-0.0427471
-0.0432743
-0.0438066
-0.044337
-0.0448654
-0.0453933
-0.0459214
-0.0464503
-0.0469803
-0.047512
-0.0480456
-0.0485814
-0.0491196
-0.0496603
-0.0502038
-0.0507499
-0.0512989
-0.0518508
-0.0524056
-0.0529634
-0.0535241
-0.0540878
-0.0546545
-0.0552242
-0.0557969
-0.0563727
-0.0569515
-0.0575334
-0.0581184
-0.0587066
-0.0592979
-0.0598924
-0.0604901
-0.0610911
-0.0616953
-0.0623029
-0.0629139
-0.0635283
-0.0641462
-0.0647676
-0.0653925
-0.0660211
-0.0666533
-0.0672894
-0.0679292
-0.0685728
-0.0692204
-0.069872
-0.0705277
-0.0711875
-0.0718516
-0.0725199
-0.0731926
-0.0738697
-0.0745513
-0.0752375
-0.0759284
-0.0766241
-0.0773246
-0.0780299
-0.0787403
-0.0794556
-0.0801761
-0.0809017
-0.0816325
-0.0823685
-0.0831098
-0.0838563
-0.0846079
-0.0853648
-0.0861267
-0.0868935
-0.087665
-0.0884411
-0.0892212
-0.0900051
-0.0907921
-0.0915816
-0.0923727
-0.0931644
-0.0939552
-0.0947437
-0.0955279
-0.0963053
-0.0970732
-0.0978283
-0.0985665
-0.0992834
-0.0999738
-0.100632
-0.101251
-0.101824
-0.102345
-0.102805
-0.103199
-0.103521
-0.103767
-0.0408904
-0.0415402
-0.0421372
-0.042665
-0.0431937
-0.0437282
-0.044261
-0.0447918
-0.0453222
-0.0458527
-0.0463839
-0.0469161
-0.0474496
-0.0479849
-0.0485221
-0.0490616
-0.0496034
-0.0501476
-0.0506945
-0.051244
-0.0517963
-0.0523514
-0.0529093
-0.05347
-0.0540337
-0.0546002
-0.0551697
-0.0557421
-0.0563175
-0.0568959
-0.0574774
-0.0580618
-0.0586494
-0.05924
-0.0598337
-0.0604306
-0.0610307
-0.0616341
-0.0622407
-0.0628506
-0.0634638
-0.0640805
-0.0647006
-0.0653242
-0.0659513
-0.066582
-0.0672164
-0.0678545
-0.0684964
-0.069142
-0.0697916
-0.0704451
-0.0711026
-0.0717642
-0.0724299
-0.0730999
-0.0737741
-0.0744526
-0.0751355
-0.0758229
-0.0765148
-0.0772113
-0.0779124
-0.0786182
-0.0793287
-0.080044
-0.080764
-0.0814888
-0.0822184
-0.0829527
-0.0836918
-0.0844354
-0.0851836
-0.0859361
-0.0866928
-0.0874533
-0.0882174
-0.0889847
-0.0897545
-0.0905263
-0.0912993
-0.0920724
-0.0928446
-0.0936144
-0.0943801
-0.0951398
-0.0958909
-0.0966307
-0.0973561
-0.0980631
-0.0987476
-0.0994048
-0.100029
-0.100616
-0.101158
-0.10165
-0.102086
-0.102461
-0.10277
-0.103009
-0.0408001
-0.0414506
-0.0420491
-0.0425778
-0.0431077
-0.043644
-0.0441789
-0.0447119
-0.0452445
-0.0457772
-0.0463104
-0.0468445
-0.0473799
-0.0479167
-0.0484553
-0.048996
-0.0495388
-0.0500839
-0.0506314
-0.0511815
-0.0517341
-0.0522895
-0.0528475
-0.0534083
-0.0539718
-0.0545382
-0.0551074
-0.0556795
-0.0562545
-0.0568324
-0.0574133
-0.0579971
-0.0585839
-0.0591737
-0.0597667
-0.0603626
-0.0609618
-0.061564
-0.0621695
-0.0627782
-0.0633902
-0.0640055
-0.0646241
-0.0652461
-0.0658717
-0.0665007
-0.0671332
-0.0677694
-0.0684092
-0.0690527
-0.0696999
-0.070351
-0.071006
-0.0716648
-0.0723277
-0.0729946
-0.0736655
-0.0743406
-0.0750199
-0.0757035
-0.0763912
-0.0770834
-0.0777798
-0.0784806
-0.0791858
-0.0798954
-0.0806094
-0.0813277
-0.0820504
-0.0827772
-0.0835083
-0.0842433
-0.0849823
-0.0857248
-0.0864708
-0.0872198
-0.0879715
-0.0887253
-0.0894806
-0.0902368
-0.0909929
-0.0917479
-0.0925005
-0.0932493
-0.0939925
-0.0947281
-0.0954537
-0.0961666
-0.0968637
-0.0975414
-0.0981958
-0.0988226
-0.0994171
-0.0999742
-0.100489
-0.100956
-0.101371
-0.101729
-0.102027
-0.102263
-0.0407046
-0.0413557
-0.0419558
-0.0424852
-0.0430161
-0.043554
-0.0440907
-0.0446256
-0.0451601
-0.0456947
-0.0462298
-0.0467657
-0.0473026
-0.0478409
-0.0483809
-0.0489226
-0.0494664
-0.0500123
-0.0505605
-0.0511111
-0.0516641
-0.0522196
-0.0527778
-0.0533386
-0.053902
-0.0544682
-0.0550371
-0.0556088
-0.0561833
-0.0567607
-0.0573409
-0.057924
-0.05851
-0.059099
-0.0596909
-0.0602859
-0.0608839
-0.061485
-0.0620892
-0.0626965
-0.0633071
-0.0639208
-0.0645379
-0.0651582
-0.0657819
-0.066409
-0.0670395
-0.0676735
-0.0683111
-0.0689522
-0.0695969
-0.0702453
-0.0708974
-0.0715533
-0.072213
-0.0728766
-0.073544
-0.0742153
-0.0748906
-0.0755699
-0.0762533
-0.0769406
-0.077632
-0.0783275
-0.0790269
-0.0797304
-0.0804379
-0.0811493
-0.0818645
-0.0825835
-0.0833061
-0.0840321
-0.0847613
-0.0854934
-0.0862282
-0.0869652
-0.087704
-0.088444
-0.0891845
-0.0899248
-0.0906638
-0.0914006
-0.0921337
-0.0928617
-0.0935828
-0.0942951
-0.0949961
-0.0956833
-0.0963537
-0.097004
-0.0976306
-0.0982296
-0.0987968
-0.0993278
-0.0998183
-0.100264
-0.100661
-0.101005
-0.101294
-0.101525
-0.0406037
-0.0412554
-0.0418569
-0.0423869
-0.0429187
-0.0434579
-0.0439962
-0.0445327
-0.0450689
-0.0456053
-0.046142
-0.0466795
-0.0472179
-0.0477576
-0.0482987
-0.0488415
-0.0493862
-0.0499329
-0.0504817
-0.0510327
-0.051586
-0.0521418
-0.0527
-0.0532607
-0.053824
-0.05439
-0.0549585
-0.0555298
-0.0561038
-0.0566805
-0.05726
-0.0578423
-0.0584274
-0.0590154
-0.0596063
-0.0602002
-0.0607969
-0.0613967
-0.0619995
-0.0626054
-0.0632144
-0.0638264
-0.0644417
-0.0650602
-0.0656819
-0.0663068
-0.0669351
-0.0675668
-0.0682019
-0.0688404
-0.0694824
-0.0701278
-0.0707769
-0.0714295
-0.0720858
-0.0727457
-0.0734093
-0.0740766
-0.0747476
-0.0754224
-0.0761009
-0.0767831
-0.0774691
-0.0781588
-0.0788522
-0.0795492
-0.0802497
-0.0809538
-0.0816612
-0.0823718
-0.0830855
-0.083802
-0.0845211
-0.0852424
-0.0859656
-0.0866903
-0.0874159
-0.0881418
-0.0888673
-0.0895915
-0.0903135
-0.0910321
-0.0917459
-0.0924535
-0.0931531
-0.0938428
-0.0945202
-0.095183
-0.0958283
-0.0964531
-0.097054
-0.0976276
-0.0981701
-0.0986777
-0.0991467
-0.0995734
-0.0999544
-0.100287
-0.100568
-0.100797
-0.040497
-0.0411493
-0.0417522
-0.0422828
-0.0428152
-0.0433556
-0.0438953
-0.0444332
-0.0449709
-0.0455088
-0.046047
-0.0465859
-0.0471257
-0.0476665
-0.0482088
-0.0487526
-0.0492981
-0.0498454
-0.0503948
-0.0509462
-0.0514999
-0.0520558
-0.052614
-0.0531747
-0.0537378
-0.0543034
-0.0548716
-0.0554424
-0.0560157
-0.0565917
-0.0571705
-0.0577519
-0.058336
-0.058923
-0.0595127
-0.0601053
-0.0607008
-0.0612991
-0.0619004
-0.0625047
-0.0631119
-0.0637222
-0.0643355
-0.0649519
-0.0655714
-0.0661941
-0.06682
-0.0674491
-0.0680815
-0.0687172
-0.0693562
-0.0699985
-0.0706443
-0.0712934
-0.071946
-0.072602
-0.0732614
-0.0739244
-0.0745908
-0.0752607
-0.0759341
-0.0766109
-0.0772911
-0.0779747
-0.0786616
-0.0793518
-0.0800451
-0.0807414
-0.0814406
-0.0821426
-0.082847
-0.0835537
-0.0842623
-0.0849725
-0.0856838
-0.0863959
-0.0871081
-0.0878198
-0.0885301
-0.0892383
-0.0899433
-0.0906439
-0.0913388
-0.0920265
-0.0927052
-0.0933732
-0.0940282
-0.0946678
-0.0952895
-0.0958905
-0.0964678
-0.0970181
-0.0975383
-0.0980249
-0.0984748
-0.0988848
-0.0992521
-0.0995741
-0.0998491
-0.100076
-0.0403845
-0.0410374
-0.0416415
-0.0421727
-0.0427056
-0.0432471
-0.0437879
-0.0443271
-0.0448661
-0.0454053
-0.0459448
-0.046485
-0.0470259
-0.0475679
-0.0481111
-0.0486558
-0.0492021
-0.04975
-0.0502999
-0.0508517
-0.0514056
-0.0519616
-0.0525198
-0.0530804
-0.0536432
-0.0542085
-0.0547762
-0.0553464
-0.0559191
-0.0564944
-0.0570722
-0.0576527
-0.0582358
-0.0588216
-0.0594101
-0.0600013
-0.0605953
-0.0611921
-0.0617918
-0.0623942
-0.0629996
-0.0636079
-0.0642191
-0.0648333
-0.0654505
-0.0660708
-0.0666941
-0.0673205
-0.06795
-0.0685826
-0.0692184
-0.0698574
-0.0704995
-0.0711449
-0.0717935
-0.0724454
-0.0731005
-0.0737588
-0.0744203
-0.0750851
-0.075753
-0.0764241
-0.0770983
-0.0777755
-0.0784556
-0.0791386
-0.0798243
-0.0805126
-0.0812033
-0.0818962
-0.0825911
-0.0832876
-0.0839855
-0.0846843
-0.0853837
-0.0860829
-0.0867816
-0.087479
-0.0881742
-0.0888664
-0.0895545
-0.0902375
-0.0909138
-0.0915822
-0.0922409
-0.092888
-0.0935216
-0.0941395
-0.0947391
-0.095318
-0.0958734
-0.0964025
-0.0969024
-0.0973702
-0.0978031
-0.0981983
-0.0985536
-0.0988668
-0.0991364
-0.0993614
-0.040266
-0.0409195
-0.0415248
-0.0420564
-0.0425898
-0.0431321
-0.043674
-0.0442143
-0.0447544
-0.0452947
-0.0458355
-0.0463767
-0.0469187
-0.0474617
-0.0480058
-0.0485512
-0.0490981
-0.0496467
-0.0501969
-0.050749
-0.0513031
-0.0518591
-0.0524173
-0.0529777
-0.0535402
-0.0541051
-0.0546723
-0.0552418
-0.0558138
-0.0563882
-0.0569651
-0.0575446
-0.0581265
-0.0587111
-0.0592982
-0.059888
-0.0604805
-0.0610756
-0.0616735
-0.0622741
-0.0628775
-0.0634836
-0.0640926
-0.0647045
-0.0653192
-0.0659368
-0.0665573
-0.0671808
-0.0678072
-0.0684366
-0.069069
-0.0697043
-0.0703427
-0.0709842
-0.0716286
-0.0722761
-0.0729265
-0.07358
-0.0742364
-0.0748957
-0.0755579
-0.076223
-0.0768908
-0.0775613
-0.0782344
-0.07891
-0.0795878
-0.0802678
-0.0809497
-0.0816334
-0.0823184
-0.0830046
-0.0836915
-0.0843788
-0.0850659
-0.0857523
-0.0864374
-0.0871205
-0.0878007
-0.0884771
-0.0891487
-0.0898143
-0.0904727
-0.0911224
-0.0917617
-0.092389
-0.0930023
-0.0935996
-0.0941786
-0.094737
-0.0952723
-0.095782
-0.0962635
-0.0967143
-0.0971319
-0.0975141
-0.0978588
-0.0981644
-0.0984294
-0.0986532
-0.0401414
-0.0407954
-0.0414019
-0.0419339
-0.0424677
-0.0430108
-0.0435535
-0.0440948
-0.0446359
-0.0451772
-0.045719
-0.0462612
-0.0468041
-0.0473479
-0.0478928
-0.0484389
-0.0489864
-0.0495354
-0.050086
-0.0506383
-0.0511925
-0.0517485
-0.0523066
-0.0528667
-0.0534289
-0.0539933
-0.0545599
-0.0551287
-0.0556999
-0.0562734
-0.0568493
-0.0574276
-0.0580083
-0.0585915
-0.0591772
-0.0597655
-0.0603563
-0.0609496
-0.0615456
-0.0621442
-0.0627454
-0.0633493
-0.0639559
-0.0645653
-0.0651773
-0.0657921
-0.0664097
-0.0670301
-0.0676532
-0.0682792
-0.068908
-0.0695396
-0.070174
-0.0708113
-0.0714513
-0.0720941
-0.0727397
-0.0733881
-0.0740391
-0.0746928
-0.0753491
-0.0760079
-0.0766691
-0.0773327
-0.0779984
-0.0786663
-0.079336
-0.0800075
-0.0806804
-0.0813545
-0.0820296
-0.0827053
-0.0833811
-0.0840567
-0.0847316
-0.0854051
-0.0860766
-0.0867455
-0.0874108
-0.0880717
-0.0887271
-0.0893759
-0.0900168
-0.0906484
-0.0912692
-0.0918776
-0.0924717
-0.0930497
-0.0936094
-0.0941488
-0.0946655
-0.0951574
-0.0956222
-0.0960577
-0.0964617
-0.0968323
-0.0971677
-0.0974665
-0.0977277
-0.0979505
-0.0400107
-0.0406653
-0.0412729
-0.0418051
-0.0423393
-0.042883
-0.0434266
-0.0439686
-0.0445105
-0.0450528
-0.0455954
-0.0461384
-0.0466822
-0.0472267
-0.0477723
-0.0483189
-0.0488669
-0.0494162
-0.0499671
-0.0505196
-0.0510738
-0.0516297
-0.0521876
-0.0527474
-0.0533092
-0.053873
-0.0544389
-0.055007
-0.0555773
-0.0561499
-0.0567247
-0.0573017
-0.0578812
-0.0584629
-0.0590471
-0.0596337
-0.0602227
-0.0608142
-0.0614081
-0.0620046
-0.0626036
-0.0632051
-0.0638092
-0.0644158
-0.0650251
-0.065637
-0.0662514
-0.0668685
-0.0674883
-0.0681106
-0.0687356
-0.0693633
-0.0699935
-0.0706263
-0.0712618
-0.0718998
-0.0725403
-0.0731833
-0.0738288
-0.0744766
-0.0751267
-0.075779
-0.0764334
-0.0770898
-0.0777481
-0.078408
-0.0790695
-0.0797322
-0.0803959
-0.0810604
-0.0817254
-0.0823904
-0.0830551
-0.083719
-0.0843815
-0.0850422
-0.0857003
-0.0863551
-0.0870057
-0.0876514
-0.088291
-0.0889234
-0.0895474
-0.0901618
-0.0907649
-0.0913553
-0.0919313
-0.0924911
-0.0930328
-0.0935545
-0.0940542
-0.0945298
-0.0949794
-0.0954009
-0.0957927
-0.0961529
-0.09648
-0.096773
-0.0970309
-0.0972531
-0.0398739
-0.040529
-0.0411376
-0.0416701
-0.0422046
-0.0427489
-0.0432931
-0.0438358
-0.0443785
-0.0449215
-0.0454648
-0.0460086
-0.046553
-0.0470982
-0.0476443
-0.0481914
-0.0487397
-0.0492894
-0.0498404
-0.0503929
-0.0509471
-0.0515029
-0.0520605
-0.0526199
-0.0531812
-0.0537444
-0.0543096
-0.0548769
-0.0554462
-0.0560177
-0.0565913
-0.0571671
-0.0577451
-0.0583254
-0.0589079
-0.0594927
-0.0600798
-0.0606693
-0.0612612
-0.0618554
-0.062452
-0.063051
-0.0636524
-0.0642563
-0.0648626
-0.0654714
-0.0660826
-0.0666963
-0.0673124
-0.067931
-0.068552
-0.0691755
-0.0698014
-0.0704297
-0.0710603
-0.0716933
-0.0723286
-0.0729661
-0.0736057
-0.0742475
-0.0748912
-0.0755368
-0.0761843
-0.0768333
-0.0774839
-0.0781357
-0.0787887
-0.0794425
-0.080097
-0.0807517
-0.0814065
-0.0820608
-0.0827143
-0.0833664
-0.0840168
-0.0846647
-0.0853094
-0.0859504
-0.0865867
-0.0872174
-0.0878416
-0.0884582
-0.089066
-0.0896638
-0.09025
-0.0908234
-0.0913823
-0.091925
-0.0924499
-0.0929552