/*--------------------------------*- C++ -*----------------------------------*\
| =========                 |                                                 |
| \\      /  F ield         | OpenFOAM: The Open Source CFD Toolbox           |
|  \\    /   O peration     | Version:  2406                                  |
|   \\  /    A nd           | Website:  www.openfoam.com                      |
|    \\/     M anipulation  |                                                 |
\*---------------------------------------------------------------------------*/
FoamFile
{
    version     2.0;
    format      ascii;
    arch        "LSB;label=32;scalar=64";
    class       volVectorField;
    location    "99";
    object      U;
}
// * * * * * * * * * * * * * * * * * * * * * * * * * * * * * * * * * * * * * //

dimensions      [0 1 -1 0 0 0 0];

internalField   nonuniform List<vector> 
1964
(
(0.100651 -0.00194152 0)
(0.102874 -0.00294837 0)
(0.105523 -0.00249927 0)
(0.10872 -0.00185899 0)
(0.111492 -0.00136684 0)
(0.113662 -0.00100702 0)
(0.115421 -0.000744774 0)
(0.116898 -0.000559912 0)
(0.118143 -0.000431916 0)
(0.119195 -0.000342334 0)
(0.120094 -0.000278516 0)
(0.120873 -0.00023246 0)
(0.121556 -0.000198931 0)
(0.122163 -0.000174326 0)
(0.122708 -0.000156299 0)
(0.123205 -0.000143307 0)
(0.123663 -0.000134467 0)
(0.124092 -0.000129276 0)
(0.124502 -0.000127639 0)
(0.124901 -0.000129716 0)
(0.125299 -0.00013603 0)
(0.125707 -0.000147363 0)
(0.126136 -0.000164923 0)
(0.126604 -0.000190328 0)
(0.127129 -0.000225869 0)
(0.127737 -0.000274595 0)
(0.128459 -0.000340687 0)
(0.129338 -0.000429677 0)
(0.13043 -0.000549027 0)
(0.131808 -0.000708629 0)
(0.133569 -0.000921762 0)
(0.135841 -0.00120607 0)
(0.138794 -0.00158508 0)
(0.142654 -0.00208983 0)
(0.147718 -0.00276092 0)
(0.15438 -0.0036504 0)
(0.163149 -0.00482329 0)
(0.174682 -0.00635737 0)
(0.189806 -0.00833992 0)
(0.209535 -0.0108585 0)
(0.235058 -0.0139838 0)
(0.26768 -0.0177357 0)
(0.308725 -0.0220479 0)
(0.359244 -0.0266563 0)
(0.419759 -0.031112 0)
(0.489648 -0.0345272 0)
(0.566644 -0.0359542 0)
(0.27689 -0.00180621 0)
(0.275672 -0.00358042 0)
(0.274988 -0.00388645 0)
(0.275069 -0.00367183 0)
(0.275644 -0.00332695 0)
(0.276437 -0.0029355 0)
(0.277326 -0.00254441 0)
(0.278257 -0.00219236 0)
(0.27919 -0.0018928 0)
(0.280095 -0.00164262 0)
(0.280957 -0.00143489 0)
(0.281772 -0.00126323 0)
(0.282539 -0.00112202 0)
(0.283259 -0.00100636 0)
(0.283937 -0.000912286 0)
(0.284577 -0.000836819 0)
(0.285187 -0.000777925 0)
(0.285771 -0.000734452 0)
(0.286338 -0.000706073 0)
(0.286897 -0.000693326 0)
(0.287457 -0.000697686 0)
(0.288031 -0.000721741 0)
(0.288632 -0.000769406 0)
(0.289281 -0.00084626 0)
(0.29 -0.000959989 0)
(0.29082 -0.00112104 0)
(0.291781 -0.00134344 0)
(0.292932 -0.00164597 0)
(0.294341 -0.00205361 0)
(0.296096 -0.00259957 0)
(0.29831 -0.00332776 0)
(0.301133 -0.00429616 0)
(0.30476 -0.00558086 0)
(0.309446 -0.00728102 0)
(0.31552 -0.00952437 0)
(0.323406 -0.0124728 0)
(0.333645 -0.0163261 0)
(0.34692 -0.0213223 0)
(0.364074 -0.0277284 0)
(0.386134 -0.0358176 0)
(0.414309 -0.0458216 0)
(0.44995 -0.0578502 0)
(0.494539 -0.071791 0)
(0.549346 -0.0870295 0)
(0.615507 -0.102559 0)
(0.692872 -0.115868 0)
(0.779533 -0.124219 0)
(0.43707 -0.00100897 0)
(0.436399 -0.00225923 0)
(0.435604 -0.00273801 0)
(0.434872 -0.00285693 0)
(0.434376 -0.00284573 0)
(0.434102 -0.00275292 0)
(0.433983 -0.00260106 0)
(0.43398 -0.00242346 0)
(0.434068 -0.00224458 0)
(0.434223 -0.00207483 0)
(0.434425 -0.00191774 0)
(0.434661 -0.0017751 0)
(0.434921 -0.00164793 0)
(0.435198 -0.00153658 0)
(0.435487 -0.00144106 0)
(0.435787 -0.00136141 0)
(0.436096 -0.00129803 0)
(0.436414 -0.00125188 0)
(0.436744 -0.00122462 0)
(0.43709 -0.00121882 0)
(0.437456 -0.00123825 0)
(0.437851 -0.00128824 0)
(0.438285 -0.00137617 0)
(0.438771 -0.00151206 0)
(0.439328 -0.00170934 0)
(0.43998 -0.00198597 0)
(0.44076 -0.00236584 0)
(0.441709 -0.00288063 0)
(0.442882 -0.00357226 0)
(0.444352 -0.00449608 0)
(0.446214 -0.0057249 0)
(0.448591 -0.0073542 0)
(0.451645 -0.00950855 0)
(0.455586 -0.0123494 0)
(0.460687 -0.0160837 0)
(0.467303 -0.0209736 0)
(0.475889 -0.0273436 0)
(0.487033 -0.0355844 0)
(0.501488 -0.0461435 0)
(0.520211 -0.0595014 0)
(0.544401 -0.0760957 0)
(0.575519 -0.0962283 0)
(0.615395 -0.119822 0)
(0.665719 -0.14612 0)
(0.72929 -0.173759 0)
(0.806195 -0.198225 0)
(0.897173 -0.216151 0)
(0.577197 -0.000590295 0)
(0.576873 -0.00151528 0)
(0.576376 -0.00205083 0)
(0.575737 -0.00230499 0)
(0.575167 -0.00240764 0)
(0.574726 -0.0024147 0)
(0.574381 -0.00235221 0)
(0.574103 -0.00224825 0)
(0.573881 -0.00212751 0)
(0.573709 -0.00200441 0)
(0.573579 -0.00188587 0)
(0.573482 -0.0017757 0)
(0.573412 -0.00167648 0)
(0.573367 -0.00158988 0)
(0.573342 -0.00151702 0)
(0.573337 -0.00145887 0)
(0.573351 -0.00141675 0)
(0.573383 -0.00139257 0)
(0.573435 -0.0013891 0)
(0.573508 -0.00141024 0)
(0.573606 -0.00146137 0)
(0.573733 -0.00154989 0)
(0.573896 -0.00168583 0)
(0.574103 -0.00188263 0)
(0.574366 -0.00215819 0)
(0.574702 -0.00253626 0)
(0.575129 -0.00304828 0)
(0.575677 -0.00373576 0)
(0.576381 -0.00465346 0)
(0.57729 -0.00587345 0)
(0.578465 -0.00749034 0)
(0.579989 -0.00962795 0)
(0.581971 -0.0124478 0)
(0.584552 -0.0161594 0)
(0.587922 -0.0210327 0)
(0.59233 -0.0274125 0)
(0.598111 -0.0357332 0)
(0.605719 -0.0465328 0)
(0.615772 -0.0604574 0)
(0.629135 -0.0782581 0)
(0.646989 -0.100714 0)
(0.671022 -0.128587 0)
(0.70345 -0.162115 0)
(0.747012 -0.200982 0)
(0.806488 -0.243117 0)
(0.881702 -0.281103 0)
(0.984085 -0.313864 0)
(0.697259 -0.000388875 0)
(0.697083 -0.00106897 0)
(0.696782 -0.00153924 0)
(0.696294 -0.00180652 0)
(0.695788 -0.00194044 0)
(0.695352 -0.00199007 0)
(0.694977 -0.00197914 0)
(0.69464 -0.00192684 0)
(0.694338 -0.00185182 0)
(0.694071 -0.00176759 0)
(0.693835 -0.00168207 0)
(0.693625 -0.00160003 0)
(0.693437 -0.0015249 0)
(0.693267 -0.0014593 0)
(0.693114 -0.00140524 0)
(0.692976 -0.00136455 0)
(0.692851 -0.00133928 0)
(0.692741 -0.00133208 0)
(0.692643 -0.00134648 0)
(0.692559 -0.0013872 0)
(0.69249 -0.00146057 0)
(0.692437 -0.00157518 0)
(0.692403 -0.00174249 0)
(0.69239 -0.00197786 0)
(0.692404 -0.00230162 0)
(0.69245 -0.0027407 0)
(0.692537 -0.00333067 0)
(0.692674 -0.00411845 0)
(0.692877 -0.00516586 0)
(0.693163 -0.00655424 0)
(0.693558 -0.00839042 0)
(0.694094 -0.0108145 0)
(0.694817 -0.0140098 0)
(0.695785 -0.0182154 0)
(0.697084 -0.0237428 0)
(0.698831 -0.0309954 0)
(0.701201 -0.040494 0)
(0.704454 -0.0529073 0)
(0.708989 -0.069084 0)
(0.715462 -0.0900963 0)
(0.724854 -0.117235 0)
(0.739069 -0.152084 0)
(0.760318 -0.19605 0)
(0.794539 -0.250601 0)
(0.845177 -0.314912 0)
(0.923288 -0.378618 0)
(1.04731 -0.455026 0)
(0.797294 -0.000268834 0)
(0.797191 -0.000760109 0)
(0.797002 -0.00113602 0)
(0.796621 -0.00137966 0)
(0.796177 -0.0015214 0)
(0.795765 -0.00159313 0)
(0.79539 -0.001613 0)
(0.795039 -0.00159443 0)
(0.794709 -0.00155113 0)
(0.794403 -0.00149476 0)
(0.794123 -0.00143332 0)
(0.793863 -0.00137206 0)
(0.793623 -0.00131482 0)
(0.793398 -0.00126465 0)
(0.793187 -0.00122403 0)
(0.792987 -0.00119523 0)
(0.792799 -0.00118065 0)
(0.792618 -0.00118325 0)
(0.792444 -0.00120681 0)
(0.792275 -0.00125626 0)
(0.79211 -0.00133817 0)
(0.791947 -0.0014613 0)
(0.791782 -0.00163733 0)
(0.791614 -0.00188185 0)
(0.791439 -0.00221548 0)
(0.791253 -0.0026655 0)
(0.79105 -0.00326787 0)
(0.790823 -0.00407008 0)
(0.790562 -0.00513465 0)
(0.790255 -0.00654397 0)
(0.789887 -0.00840641 0)
(0.789437 -0.0108645 0)
(0.788882 -0.0141056 0)
(0.788191 -0.0183761 0)
(0.787331 -0.0240002 0)
(0.786269 -0.0314049 0)
(0.784979 -0.041154 0)
(0.783465 -0.053995 0)
(0.781791 -0.0709243 0)
(0.780199 -0.0932815 0)
(0.779105 -0.122886 0)
(0.780009 -0.162238 0)
(0.784068 -0.214815 0)
(0.800726 -0.285182 0)
(0.826037 -0.380673 0)
(0.91471 -0.493976 0)
(1.02468 -0.693884 0)
(0.877315 -0.00018614 0)
(0.87725 -0.000533998 0)
(0.877123 -0.000817372 0)
(0.876813 -0.00101764 0)
(0.87642 -0.00114468 0)
(0.876033 -0.00121662 0)
(0.875667 -0.00124682 0)
(0.875313 -0.00124534 0)
(0.874969 -0.00122208 0)
(0.874641 -0.00118603 0)
(0.874333 -0.00114399 0)
(0.874042 -0.00110069 0)
(0.873768 -0.00105965 0)
(0.873507 -0.00102367 0)
(0.873259 -0.000995171 0)
(0.87302 -0.000976358 0)
(0.872789 -0.000969597 0)
(0.872562 -0.000977702 0)
(0.872337 -0.00100422 0)
(0.87211 -0.00105375 0)
(0.871877 -0.00113233 0)
(0.871633 -0.00124798 0)
(0.87137 -0.00141138 0)
(0.87108 -0.00163671 0)
(0.870753 -0.00194273 0)
(0.870373 -0.00235424 0)
(0.869924 -0.00290394 0)
(0.869379 -0.00363495 0)
(0.868707 -0.00460416 0)
(0.867868 -0.00588654 0)
(0.866805 -0.00758099 0)
(0.865449 -0.00981796 0)
(0.863708 -0.0127698 0)
(0.861462 -0.0166649 0)
(0.858559 -0.0218063 0)
(0.854806 -0.0285991 0)
(0.849962 -0.0375878 0)
(0.843733 -0.0495115 0)
(0.835768 -0.0653883 0)
(0.825701 -0.0866369 0)
(0.81307 -0.115312 0)
(0.79789 -0.154357 0)
(0.779141 -0.208625 0)
(0.762485 -0.284791 0)
(0.736816 -0.398727 0)
(0.786145 -0.559287 0)
(0.735197 -0.898475 0)
(0.937328 -0.000123067 0)
(0.937282 -0.000355945 0)
(0.937191 -0.000552584 0)
(0.936926 -0.000698987 0)
(0.93657 -0.000797003 0)
(0.936204 -0.000856156 0)
(0.935848 -0.000885285 0)
(0.935493 -0.000891343 0)
(0.935142 -0.000880857 0)
(0.934802 -0.000859955 0)
(0.934475 -0.000833613 0)
(0.934164 -0.000805515 0)
(0.933866 -0.000778456 0)
(0.933581 -0.000754714 0)
(0.933306 -0.00073627 0)
(0.933039 -0.000724987 0)
(0.932777 -0.000722842 0)
(0.932516 -0.000732159 0)
(0.932253 -0.000755834 0)
(0.931982 -0.000797582 0)
(0.931697 -0.000862263 0)
(0.931389 -0.000956304 0)
(0.931049 -0.00108824 0)
(0.930663 -0.00126938 0)
(0.930213 -0.00151469 0)
(0.929678 -0.00184393 0)
(0.929026 -0.00228316 0)
(0.928221 -0.00286678 0)
(0.927211 -0.00364016 0)
(0.925929 -0.00466321 0)
(0.924288 -0.00601506 0)
(0.922173 -0.00780046 0)
(0.919433 -0.0101583 0)
(0.915871 -0.0132737 0)
(0.911228 -0.0173942 0)
(0.905164 -0.0228536 0)
(0.897236 -0.0301065 0)
(0.886864 -0.0397783 0)
(0.873281 -0.052745 0)
(0.855493 -0.070246 0)
(0.832132 -0.0941008 0)
(0.801471 -0.126924 0)
(0.760512 -0.172984 0)
(0.706415 -0.237983 0)
(0.625886 -0.33512 0)
(0.52695 -0.483952 0)
(0.205143 -0.718805 0)
(0.977336 -7.04908e-05 0)
(0.9773 -0.000204778 0)
(0.977228 -0.0003204 0)
(0.97699 -0.000409157 0)
(0.976656 -0.000470663 0)
(0.976306 -0.000509291 0)
(0.975957 -0.000529872 0)
(0.975604 -0.000536422 0)
(0.97525 -0.000532659 0)
(0.974901 -0.000522141 0)
(0.974564 -0.000507903 0)
(0.97424 -0.000492288 0)
(0.973928 -0.000477102 0)
(0.973626 -0.000463819 0)
(0.973333 -0.000453731 0)
(0.973047 -0.000448069 0)
(0.972764 -0.000448137 0)
(0.972481 -0.000455456 0)
(0.972191 -0.000471914 0)
(0.97189 -0.000499919 0)
(0.971568 -0.000542614 0)
(0.971217 -0.000604147 0)
(0.970822 -0.000690015 0)
(0.970367 -0.000807503 0)
(0.969831 -0.000966245 0)
(0.969184 -0.00117896 0)
(0.968389 -0.00146242 0)
(0.967397 -0.00183877 0)
(0.966144 -0.00233724 0)
(0.964544 -0.00299644 0)
(0.962487 -0.00386748 0)
(0.959824 -0.00501809 0)
(0.956362 -0.00653839 0)
(0.951844 -0.00854879 0)
(0.945932 -0.0112112 0)
(0.938176 -0.0147452 0)
(0.927975 -0.0194513 0)
(0.914526 -0.0257462 0)
(0.896742 -0.0342154 0)
(0.873145 -0.0456904 0)
(0.841683 -0.0613764 0)
(0.799523 -0.082988 0)
(0.742532 -0.113091 0)
(0.665114 -0.154863 0)
(0.558223 -0.213409 0)
(0.411145 -0.288392 0)
(0.185002 -0.363869 0)
(0.99734 -2.3125e-05 0)
(0.997308 -6.73572e-05 0)
(0.997245 -0.00010579 0)
(0.997018 -0.000135775 0)
(0.996696 -0.000156982 0)
(0.996353 -0.000170652 0)
(0.996008 -0.0001783 0)
(0.995656 -0.000181242 0)
(0.995301 -0.000180696 0)
(0.994949 -0.000177836 9.70405e-35)
(0.994607 -0.000173684 0)
(0.994276 -0.000169042 0)
(0.993957 -0.00016453 0)
(0.993647 -0.000160656 0)
(0.993345 -0.000157867 0)
(0.99305 -0.000156593 9.69097e-35)
(0.992756 -0.000157291 0)
(0.992461 -0.000160491 0)
(0.992158 -0.00016685 0)
(0.99184 -0.000177206 0)
(0.9915 -0.000192649 0)
(0.991126 -0.000214616 0)
(0.990703 -0.000245008 0)
(0.990213 -0.000286342 -9.68061e-35)
(0.989631 -0.000341945 0)
(0.988926 -0.000416209 0)
(0.988056 -0.000514927 0)
(0.986966 -0.000645741 0)
(0.985586 -0.000818742 0)
(0.98382 -0.00104727 0)
(0.981544 -0.00134897 0)
(0.978594 -0.00174728 0)
(0.974752 -0.00227339 0)
(0.969733 -0.00296909 0)
(0.963153 -0.00389064 0)
(0.954503 -0.00511451 0)
(0.9431 -0.0067457 0)
(0.92802 -0.00892993 0)
(0.908005 -0.0118721 0)
(0.881332 -0.0158626 0)
(0.845604 -0.021317 0)
(0.797516 -0.0288207 -1.51291e-34)
(0.732393 -0.039196 0)
(0.644161 -0.0534808 0)
(0.524003 -0.0728113 0)
(0.366475 -0.0976823 0)
(0.148721 -0.115971 0)
(0.99734 2.26587e-05 0)
(0.997308 6.58362e-05 0)
(0.997245 0.000103296 0)
(0.997018 0.000132324 0)
(0.996696 0.000152576 0)
(0.996353 0.000165283 0)
(0.996008 0.000171958 0)
(0.995656 0.000173911 0)
(0.9953 0.000172357 0)
(0.994949 0.000168463 -9.70409e-35)
(0.994606 0.000163244 0)
(0.994276 0.000157497 0)
(0.993956 0.000151838 0)
(0.993646 0.000146768 0)
(0.993344 0.000142725 0)
(0.993048 0.000140126 -9.69105e-35)
(0.992754 0.000139421 0)
(0.992459 0.000141133 0)
(0.992156 0.000145913 0)
(0.991838 0.000154585 0)
(0.991498 0.000168229 0)
(0.991123 0.000188268 0)
(0.9907 0.000216593 0)
(0.990209 0.00025571 9.68077e-35)
(0.989627 0.000308935 0)
(0.988921 0.000380646 0)
(0.988051 0.000476622 0)
(0.986961 0.000604492 0)
(0.98558 0.000774336 0)
(0.983813 0.000999482 0)
(0.981537 0.00129758 0)
(0.978586 0.00169207 0)
(0.974744 0.00221415 0)
(0.969724 0.00290563 0)
(0.963143 0.00382283 0)
(0.954493 0.00504228 0)
(0.943089 0.0066691 0)
(0.928008 0.00884921 0)
(0.907993 0.0117878 0)
(0.88132 0.0157756 0)
(0.845592 0.0212288 0)
(0.797505 0.0287337 1.51299e-34)
(0.732383 0.0391137 0)
(0.644154 0.0534083 0)
(0.523999 0.0727553 0)
(0.366474 0.0976516 0)
(0.148721 0.115975 0)
(0.977336 7.00344e-05 0)
(0.9773 0.000203291 0)
(0.977228 0.00031796 0)
(0.976989 0.000405783 0)
(0.976656 0.000466354 0)
(0.976306 0.000504042 0)
(0.975956 0.000523673 0)
(0.975603 0.000529258 0)
(0.975248 0.000524512 0)
(0.9749 0.000512987 0)
(0.974563 0.00049771 0)
(0.974238 0.000481018 0)
(0.973925 0.000464712 0)
(0.973623 0.000450262 0)
(0.97333 0.00043895 0)
(0.973043 0.000431996 0)
(0.972759 0.000430697 0)
(0.972475 0.000436568 0)
(0.972185 0.000451489 0)
(0.971882 0.000477856 0)
(0.97156 0.000518798 0)
(0.971208 0.000578452 0)
(0.970812 0.000662304 0)
(0.970356 0.000777629 0)
(0.969819 0.000934049 0)
(0.969171 0.00114427 0)
(0.968374 0.00142505 0)
(0.967381 0.00179852 0)
(0.966126 0.0022939 0)
(0.964525 0.00294979 0)
(0.962466 0.00381729 0)
(0.959801 0.00496413 0)
(0.956337 0.00648044 0)
(0.951817 0.00848665 0)
(0.945903 0.0111447 0)
(0.938145 0.0146742 0)
(0.927942 0.0193758 0)
(0.914492 0.0256663 0)
(0.896706 0.0341316 0)
(0.873108 0.0456032 0)
(0.841647 0.0612871 0)
(0.79949 0.0828985 0)
(0.742502 0.113005 0)
(0.665091 0.154785 0)
(0.558211 0.213346 0)
(0.411147 0.288353 0)
(0.18501 0.363867 0)
(0.937328 0.000122631 0)
(0.937282 0.000354524 0)
(0.937191 0.000550253 0)
(0.936926 0.000695764 0)
(0.936569 0.000792889 0)
(0.936204 0.000851147 0)
(0.935847 0.000879371 0)
(0.935492 0.000884511 0)
(0.935141 0.000873091 0)
(0.934799 0.000851233 0)
(0.934472 0.000823905 0)
(0.93416 0.000794785 0)
(0.933862 0.000766666 0)
(0.933576 0.000741821 0)
(0.9333 0.000722217 0)
(0.933032 0.000709709 0)
(0.932769 0.000706269 0)
(0.932507 0.000714214 0)
(0.932242 0.000736432 0)
(0.93197 0.000776627 0)
(0.931684 0.000839646 0)
(0.931375 0.000931905 0)
(0.931033 0.00106193 0)
(0.930645 0.00124101 0)
(0.930193 0.00148412 0)
(0.929655 0.00181098 0)
(0.929002 0.00224766 0)
(0.928194 0.00282854 0)
(0.927181 0.00359896 0)
(0.925897 0.00461883 0)
(0.924253 0.00596728 0)
(0.922135 0.00774903 0)
(0.919392 0.010103 0)
(0.915826 0.0132142 0)
(0.911179 0.0173304 0)
(0.905112 0.0227852 0)
(0.897181 0.0300334 0)
(0.886806 0.0397004 0)
(0.873221 0.0526624 0)
(0.855431 0.0701589 0)
(0.832071 0.0940098 0)
(0.801413 0.12683 0)
(0.760459 0.17289 0)
(0.706375 0.237892 0)
(0.625863 0.335041 0)
(0.526962 0.483902 0)
(0.205141 0.71884 0)
(0.877315 0.000185733 0)
(0.877249 0.000532677 0)
(0.877123 0.000815204 0)
(0.876812 0.00101464 0)
(0.876419 0.00114085 0)
(0.876032 0.00121197 0)
(0.875666 0.00124133 0)
(0.87531 0.00123901 0)
(0.874966 0.00121488 0)
(0.874638 0.00117796 0)
(0.874328 0.00113501 0)
(0.874037 0.00109077 0)
(0.873762 0.00104875 0)
(0.8735 0.00101177 0)
(0.87325 0.0009822 0)
(0.87301 0.000962264 0)
(0.872778 0.000954316 0)
(0.87255 0.000961162 0)
(0.872323 0.000986345 0)
(0.872094 0.00103444 0)
(0.871859 0.00111149 0)
(0.871612 0.00122551 0)
(0.871347 0.00138715 0)
(0.871055 0.00161059 0)
(0.870725 0.00191459 0)
(0.870343 0.00232391 0)
(0.86989 0.00287124 0)
(0.869341 0.00359971 0)
(0.868666 0.00456616 0)
(0.867823 0.00584558 0)
(0.866756 0.00753682 0)
(0.865396 0.00977034 0)
(0.86365 0.0127185 0)
(0.861399 0.0166096 0)
(0.858491 0.0217467 0)
(0.854733 0.0285349 0)
(0.849884 0.0375186 0)
(0.843651 0.049437 0)
(0.835682 0.0653082 0)
(0.825612 0.0865509 0)
(0.81298 0.11522 0)
(0.797802 0.154258 0)
(0.77906 0.20852 0)
(0.762422 0.284681 0)
(0.736782 0.398615 0)
(0.786189 0.559175 0)
(0.735329 0.89842 0)
(0.797294 0.000268466 0)
(0.797191 0.000758918 0)
(0.797002 0.00113407 0)
(0.79662 0.00137696 0)
(0.796176 0.00151796 0)
(0.795764 0.00158895 0)
(0.795388 0.00160807 0)
(0.795036 0.00158875 0)
(0.794705 0.00154469 0)
(0.794399 0.00148754 0)
(0.794117 0.00142529 0)
(0.793857 0.00136321 0)
(0.793615 0.00130511 0)
(0.793389 0.00125405 0)
(0.793176 0.00121249 0)
(0.792975 0.00118269 0)
(0.792784 0.00116707 0)
(0.792602 0.00116857 0)
(0.792426 0.00119095 0)
(0.792255 0.00123914 0)
(0.792087 0.0013197 0)
(0.791921 0.00144138 0)
(0.791753 0.00161587 0)
(0.791582 0.00185872 0)
(0.791404 0.00219055 0)
(0.791214 0.00263861 0)
(0.791007 0.00323888 0)
(0.790775 0.0040388 0)
(0.79051 0.00510091 0)
(0.790198 0.00650755 0)
(0.789824 0.00836707 0)
(0.789369 0.010822 0)
(0.788808 0.0140596 0)
(0.788111 0.0183264 0)
(0.787245 0.0239463 0)
(0.786176 0.0313464 0)
(0.784879 0.0410904 0)
(0.783359 0.0539258 0)
(0.781679 0.0708487 0)
(0.780081 0.0931985 0)
(0.778983 0.122794 0)
(0.779887 0.162136 0)
(0.78395 0.214699 0)
(0.800621 0.285049 0)
(0.825961 0.380516 0)
(0.914688 0.49378 0)
(1.02476 0.693631 0)
(0.697259 0.000388556 0)
(0.697083 0.00106795 0)
(0.696782 0.00153755 0)
(0.696294 0.00180419 0)
(0.695787 0.00193747 0)
(0.695351 0.00198648 0)
(0.694975 0.00197491 0)
(0.694637 0.00192198 0)
(0.694334 0.00184631 0)
(0.694066 0.00176143 0)
(0.693829 0.00167523 0)
(0.693617 0.0015925 0)
(0.693427 0.00151666 0)
(0.693256 0.00145031 0)
(0.693101 0.00139546 0)
(0.692961 0.00135395 0)
(0.692834 0.00132781 0)
(0.692721 0.00131969 0)
(0.692621 0.00133311 0)
(0.692534 0.00137277 0)
(0.692462 0.00144502 0)
(0.692406 0.00155841 0)
(0.692368 0.00172443 0)
(0.692352 0.00195839 0)
(0.692361 0.00228064 0)
(0.692403 0.00271808 0)
(0.692485 0.00330626 0)
(0.692617 0.0040921 0)
(0.692814 0.00513738 0)
(0.693095 0.00652345 0)
(0.693483 0.0083571 0)
(0.694013 0.0107784 0)
(0.694728 0.0139706 0)
(0.695688 0.0181728 0)
(0.696979 0.0236963 0)
(0.698718 0.0309445 0)
(0.701079 0.0404382 0)
(0.704324 0.0528457 0)
(0.708849 0.0690155 0)
(0.715314 0.0900194 0)
(0.724698 0.117148 0)
(0.738907 0.151983 0)
(0.760153 0.19593 0)
(0.794374 0.250453 0)
(0.845021 0.314724 0)
(0.923144 0.378366 0)
(1.0472 0.454668 0)
(0.577197 0.000590034 0)
(0.576873 0.00151444 0)
(0.576375 0.00204945 0)
(0.575736 0.00230309 0)
(0.575165 0.00240523 0)
(0.574724 0.00241179 0)
(0.574379 0.0023488 0)
(0.574099 0.00224435 0)
(0.573876 0.00212311 0)
(0.573703 0.0019995 0)
(0.573571 0.00188044 0)
(0.573473 0.00176974 0)
(0.573402 0.00166997 0)
(0.573354 0.00158279 0)
(0.573327 0.00150932 0)
(0.57332 0.00145055 0)
(0.573331 0.00140776 0)
(0.57336 0.00138288 0)
(0.573409 0.00137865 0)
(0.573479 0.00139897 0)
(0.573574 0.00144923 0)
(0.573697 0.00153683 0)
(0.573856 0.00167176 0)
(0.574059 0.00186747 0)
(0.574317 0.00214184 0)
(0.574647 0.00251863 0)
(0.57507 0.00302924 0)
(0.575612 0.00371518 0)
(0.57631 0.0046312 0)
(0.577211 0.00584932 0)
(0.578379 0.00746413 0)
(0.579895 0.00959944 0)
(0.581869 0.0124167 0)
(0.584441 0.0161253 0)
(0.587801 0.0209952 0)
(0.592199 0.0273711 0)
(0.597969 0.0356872 0)
(0.605566 0.0464813 0)
(0.615607 0.0603992 0)
(0.628959 0.0781914 0)
(0.6468 0.100636 0)
(0.67082 0.128494 0)
(0.703234 0.162002 0)
(0.746781 0.200838 0)
(0.806242 0.24293 0)
(0.881436 0.28085 0)
(0.983796 0.313516 0)
(0.43707 0.00100878 0)
(0.436399 0.00225861 0)
(0.435604 0.00273699 0)
(0.434871 0.00285553 0)
(0.434375 0.00284396 0)
(0.4341 0.0027508 0)
(0.43398 0.0025986 0)
(0.433976 0.00242065 0)
(0.434062 0.00224144 0)
(0.434216 0.00207134 0)
(0.434417 0.00191391 0)
(0.434651 0.00177091 0)
(0.434909 0.00164337 0)
(0.435184 0.00153163 0)
(0.435471 0.00143571 0)
(0.435768 0.00135564 0)
(0.436074 0.00129183 0)
(0.436389 0.0012452 0)
(0.436716 0.00121742 0)
(0.437059 0.00121107 0)
(0.437421 0.00122992 0)
(0.437812 0.00127928 0)
(0.438241 0.00136654 0)
(0.438723 0.00150168 0)
(0.439275 0.00169815 0)
(0.439922 0.00197389 0)
(0.440696 0.00235278 0)
(0.441639 0.00286649 0)
(0.442805 0.00355694 0)
(0.444268 0.00447942 0)
(0.446121 0.00570673 0)
(0.44849 0.00733431 0)
(0.451534 0.00948668 0)
(0.455465 0.0123252 0)
(0.460556 0.0160569 0)
(0.46716 0.0209436 0)
(0.475734 0.0273097 0)
(0.486865 0.0355457 0)
(0.501305 0.046099 0)
(0.520011 0.0594493 0)
(0.544184 0.0760337 0)
(0.575281 0.096153 0)
(0.615134 0.119729 0)
(0.665429 0.146 0)
(0.728965 0.173601 0)
(0.805823 0.198013 0)
(0.896737 0.215864 0)
(0.27689 0.00180608 0)
(0.275671 0.00358003 0)
(0.274987 0.00388582 0)
(0.275068 0.00367098 0)
(0.275643 0.00332589 0)
(0.276435 0.00293425 0)
(0.277323 0.00254297 0)
(0.278253 0.00219075 0)
(0.279185 0.00189102 0)
(0.280088 0.00164066 0)
(0.280949 0.00143276 0)
(0.281762 0.00126093 0)
(0.282527 0.00111953 0)
(0.283245 0.00100368 0)
(0.283921 0.000909405 0)
(0.284559 0.000833734 0)
(0.285166 0.00077462 0)
(0.285747 0.000730906 0)
(0.286311 0.000702269 0)
(0.286867 0.000689248 0)
(0.287423 0.000693316 0)
(0.287993 0.000717054 0)
(0.288591 0.000764368 0)
(0.289235 0.000840834 0)
(0.28995 0.000954137 0)
(0.290764 0.00111472 0)
(0.291719 0.0013366 0)
(0.292864 0.00163854 0)
(0.294267 0.00204553 0)
(0.296014 0.00259073 0)
(0.298221 0.00331806 0)
(0.301035 0.00428544 0)
(0.304653 0.00556894 0)
(0.309329 0.00726765 0)
(0.315392 0.00950927 0)
(0.323266 0.0124555 0)
(0.333492 0.0163063 0)
(0.346751 0.0212992 0)
(0.363888 0.027701 0)
(0.385929 0.0357848 0)
(0.414081 0.0457817 0)
(0.449694 0.0578008 0)
(0.49425 0.0717286 0)
(0.549016 0.0869488 0)
(0.615125 0.102453 0)
(0.69242 0.115726 0)
(0.778987 0.124026 0)
(0.100651 0.00194146 0)
(0.102874 0.00294821 0)
(0.105523 0.00249902 0)
(0.108719 0.00185868 0)
(0.111491 0.00136648 0)
(0.11366 0.00100663 0)
(0.115419 0.000744343 0)
(0.116895 0.000559455 0)
(0.118139 0.000431423 0)
(0.11919 0.000341821 0)
(0.120088 0.000277966 0)
(0.120866 0.000231879 0)
(0.121548 0.000198304 0)
(0.122154 0.000173676 0)
(0.122697 0.000155607 0)
(0.123192 0.000142579 0)
(0.123649 0.000133676 0)
(0.124076 0.000128438 0)
(0.124484 0.000126744 0)
(0.124881 0.000128782 0)
(0.125277 0.00013503 0)
(0.125682 0.000146296 0)
(0.126109 0.000163758 0)
(0.126573 0.000189074 0)
(0.127095 0.000224508 0)
(0.1277 0.00027314 0)
(0.128418 0.000339109 0)
(0.129294 0.000427973 0)
(0.130381 0.000547147 0)
(0.131754 0.000706553 0)
(0.13351 0.000919425 0)
(0.135775 0.00120343 0)
(0.138722 0.00158207 0)
(0.142574 0.00208637 0)
(0.14763 0.00275688 0)
(0.154282 0.00364564 0)
(0.163039 0.00481758 0)
(0.174559 0.00635045 0)
(0.189667 0.00833137 0)
(0.209376 0.0108478 0)
(0.234875 0.0139703 0)
(0.267467 0.0177184 0)
(0.308474 0.0220254 0)
(0.358946 0.0266267 0)
(0.419398 0.0310723 0)
(0.489203 0.0344735 0)
(0.566086 0.0358809 0)
(0.64644 -0.0343531 0)
(0.722434 -0.0292798 0)
(0.787815 -0.0219746 0)
(0.83869 -0.0141768 0)
(0.874741 -0.00680648 0)
(0.897312 -0.000149155 0)
(0.871008 -0.123295 0)
(0.959865 -0.111001 0)
(1.03873 -0.0918633 0)
(1.10417 -0.071197 0)
(1.15622 -0.0514144 0)
(1.19619 -0.0333457 0)
(0.99915 -0.21706 0)
(1.10151 -0.19621 0)
(1.19143 -0.16421 0)
(1.26407 -0.130376 0)
(1.32002 -0.0978709 0)
(1.36111 -0.0682049 0)
(1.11703 -0.318764 0)
(1.25091 -0.29187 0)
(1.35237 -0.247832 0)
(1.41643 -0.197964 0)
(1.45299 -0.148407 0)
(1.47132 -0.104137 0)
(1.22783 -0.467234 0)
(1.35267 -0.418897 0)
(1.38629 -0.338618 0)
(1.36026 -0.249874 0)
(1.31661 -0.17099 0)
(1.27344 -0.110807 0)
(1.20903 -0.673509 0)
(1.13092 -0.490261 0)
(0.937634 -0.303033 0)
(0.770115 -0.161219 0)
(0.651173 -0.0651905 0)
(0.569363 -0.00573412 0)
(0.74755 -0.595696 0)
(0.29702 -0.166725 0)
(-0.0795202 0.0606945 0)
(-0.0796403 0.0659745 0)
(-0.0913573 0.0455882 0)
(-0.0786573 0.00210839 0)
(0.747874 0.595756 0)
(0.297702 0.166997 0)
(-0.0789628 -0.0606024 0)
(-0.0791488 -0.0661204 0)
(-0.0905544 -0.0460091 0)
(-0.0774803 -0.00288066 0)
(1.20926 0.673173 0)
(1.13152 0.489997 0)
(0.938768 0.302859 0)
(0.771845 0.161077 0)
(0.653633 0.0649914 0)
(0.572613 0.00537595 0)
(1.22776 0.466687 0)
(1.3527 0.418167 0)
(1.38657 0.337721 0)
(1.36096 0.248802 0)
(1.31786 0.169696 0)
(1.27541 0.109226 0)
(1.1167 0.318261 0)
(1.25048 0.291147 0)
(1.35184 0.246828 0)
(1.41583 0.196629 0)
(1.45234 0.146681 0)
(1.47065 0.101939 0)
(0.998623 0.216666 0)
(1.10084 0.195662 0)
(1.19055 0.163453 0)
(1.2629 0.12935 0)
(1.31848 0.0965064 0)
(1.35912 0.0664189 0)
(0.870334 0.123031 0)
(0.959015 0.110642 0)
(1.03764 0.0913788 0)
(1.10274 0.0705461 0)
(1.15435 0.0505419 0)
(1.19378 0.0321786 0)
(0.645727 0.0342528 0)
(0.72151 0.0291427 0)
(0.786605 0.0217886 0)
(0.83709 0.013926 0)
(0.872618 0.00646499 0)
(0.894452 -0.000315605 0)
(0.908288 0.00583857 0)
(0.908256 0.0114129 0)
(0.897923 0.0166024 0)
(0.879265 0.0211226 0)
(0.853821 0.0246993 0)
(0.822755 0.0272605 0)
(0.787055 0.0289095 0)
(0.747533 0.0298191 0)
(0.704793 0.0301541 0)
(0.659282 0.0300388 0)
(0.611366 0.0295462 0)
(0.561408 0.0286957 0)
(0.509831 0.0274586 0)
(0.457178 0.025775 0)
(0.404155 0.0235817 0)
(0.35164 0.0208465 0)
(0.300658 0.0176022 0)
(0.252316 0.0139706 0)
(0.207703 0.0101666 0)
(0.16776 0.00647298 0)
(0.13316 0.00318616 0)
(0.104212 0.00054658 0)
(0.0808346 -0.00131945 0)
(0.0625961 -0.00242049 0)
(0.0488223 -0.00287531 0)
(0.0387325 -0.00286509 0)
(0.0315639 -0.00258497 0)
(0.0266638 -0.00220944 0)
(0.0235374 -0.00186829 0)
(0.0218545 -0.00163783 0)
(0.0214256 -0.00154556 0)
(0.0221745 -0.00158548 0)
(0.0239665 -0.0016803 0)
(0.0267941 -0.00180723 0)
(0.0306434 -0.00199618 0)
(0.0355151 -0.00224267 0)
(0.0413997 -0.00252799 0)
(0.0482616 -0.00282735 0)
(0.0560426 -0.00311891 0)
(0.0646668 -0.00338651 0)
(0.0740492 -0.00362316 0)
(0.0840833 -0.00382027 0)
(0.0947029 -0.00398985 0)
(0.105654 -0.00406597 0)
(0.117357 -0.00425681 0)
(0.127427 -0.00373249 0)
(0.144054 -0.00526624 0)
(1.22542 -0.0174224 0)
(1.2465 -0.00353881 0)
(1.26184 0.00871258 0)
(1.27195 0.0195635 0)
(1.27701 0.0291287 0)
(1.27717 0.0375518 0)
(1.27248 0.045042 0)
(1.2629 0.0518161 0)
(1.2483 0.0580508 0)
(1.22846 0.063863 0)
(1.20312 0.0692948 0)
(1.17204 0.0743006 0)
(1.135 0.078741 0)
(1.09186 0.0823917 0)
(1.04267 0.0849654 0)
(0.987709 0.0861501 0)
(0.927548 0.0856598 0)
(0.863083 0.0832933 0)
(0.795533 0.0789896 0)
(0.726397 0.0728666 0)
(0.65736 0.0652293 0)
(0.590171 0.0565396 0)
(0.5265 0.0473534 0)
(0.467808 0.0382375 0)
(0.415239 0.0296882 0)
(0.369546 0.0220657 0)
(0.331068 0.01556 0)
(0.299753 0.0101915 0)
(0.275222 0.00584656 0)
(0.256878 0.00233435 0)
(0.244015 -0.0005559 0)
(0.235917 -0.00299584 0)
(0.231878 -0.0051508 0)
(0.231637 -0.00709841 0)
(0.234492 -0.00885701 0)
(0.239882 -0.0104593 0)
(0.247406 -0.0119442 0)
(0.256753 -0.013334 0)
(0.267659 -0.0146265 0)
(0.279878 -0.0158049 0)
(0.293189 -0.0168508 0)
(0.307366 -0.0177467 0)
(0.322297 -0.018496 0)
(0.337537 -0.0190457 0)
(0.353984 -0.0195648 0)
(0.367514 -0.0194358 0)
(0.391575 -0.0208487 0)
(1.38995 -0.0427598 0)
(1.40967 -0.0217951 0)
(1.42282 -0.00459271 0)
(1.43142 0.00974596 0)
(1.43683 0.0220325 0)
(1.43976 0.032979 0)
(1.44067 0.0431506 0)
(1.43975 0.0529497 0)
(1.43696 0.0626586 0)
(1.43208 0.0724708 0)
(1.42473 0.0824821 0)
(1.41442 0.0926682 0)
(1.40057 0.102868 0)
(1.38253 0.112785 0)
(1.35968 0.121994 0)
(1.33142 0.129979 0)
(1.29733 0.136176 0)
(1.25723 0.140045 0)
(1.21124 0.141153 0)
(1.1599 0.139244 0)
(1.10413 0.134298 0)
(1.04524 0.126542 0)
(0.984803 0.116422 0)
(0.924545 0.104536 0)
(0.866174 0.0915522 0)
(0.811241 0.0781209 0)
(0.761021 0.0648101 0)
(0.716438 0.0520632 0)
(0.678047 0.0401858 0)
(0.64605 0.0293534 0)
(0.620357 0.0196326 0)
(0.600633 0.0110073 0)
(0.586453 0.00339519 0)
(0.577062 -0.00332226 0)
(0.57209 -0.00920776 0)
(0.571051 -0.0143165 0)
(0.573342 -0.0187221 0)
(0.578394 -0.0224955 0)
(0.585701 -0.0257006 0)
(0.594814 -0.0283922 0)
(0.605342 -0.0306155 0)
(0.616934 -0.0324117 0)
(0.629366 -0.0338162 0)
(0.64218 -0.0348801 0)
(0.656049 -0.0356314 0)
(0.667493 -0.036168 0)
(0.687749 -0.0367464 0)
(1.47883 -0.067747 0)
(1.48127 -0.0382929 0)
(1.48203 -0.0141999 0)
(1.4822 0.00542348 0)
(1.48203 0.021395 0)
(1.48177 0.03475 0)
(1.48149 0.0464592 0)
(1.48116 0.0572748 0)
(1.48071 0.0677685 0)
(1.48 0.0783788 0)
(1.4788 0.0894113 0)
(1.47681 0.101017 0)
(1.47362 0.113176 0)
(1.46876 0.125699 0)
(1.46172 0.138222 0)
(1.45191 0.150233 0)
(1.43878 0.161092 0)
(1.42178 0.170096 0)
(1.40054 0.176549 0)
(1.37487 0.179861 0)
(1.34484 0.179627 0)
(1.31084 0.175697 0)
(1.27358 0.16819 0)
(1.23401 0.157479 0)
(1.19328 0.144137 0)
(1.15265 0.128859 0)
(1.1133 0.112383 0)
(1.07633 0.0954098 0)
(1.04262 0.078553 0)
(1.01279 0.0623026 0)
(0.987219 0.0470159 0)
(0.966033 0.0329205 0)
(0.949146 0.020139 0)
(0.936347 0.00870303 0)
(0.927158 -0.00143416 0)
(0.921204 -0.0103255 0)
(0.918102 -0.0180281 0)
(0.917432 -0.0246053 0)
(0.918781 -0.0301305 0)
(0.92176 -0.0346878 0)
(0.926023 -0.0383671 0)
(0.931261 -0.0412664 0)
(0.937237 -0.0434668 0)
(0.943635 -0.0451151 0)
(0.950664 -0.0461617 0)
(0.95659 -0.0471962 0)
(0.966798 -0.0471069 0)
(1.23781 -0.069828 0)
(1.21381 -0.0410111 0)
(1.20069 -0.0189413 0)