/*--------------------------------*- C++ -*----------------------------------*\
| =========                 |                                                 |
| \\      /  F ield         | OpenFOAM: The Open Source CFD Toolbox           |
|  \\    /   O peration     | Version:  2406                                  |
|   \\  /    A nd           | Website:  www.openfoam.com                      |
|    \\/     M anipulation  |                                                 |
\*---------------------------------------------------------------------------*/
FoamFile
{
    version     2.0;
    format      ascii;
    arch        "LSB;label=32;scalar=64";
    class       volScalarField;
    location    "25";
    object      p;
}
// * * * * * * * * * * * * * * * * * * * * * * * * * * * * * * * * * * * * * //

dimensions      [0 2 -2 0 0 0 0];

internalField   nonuniform List<scalar> 
1700
(
2.23983
2.2033
2.16404
2.12436
2.08243
2.03761
1.98918
1.93602
1.87669
1.79359
2.24948
2.20617
2.16376
2.12347
2.08144
2.0366
1.98864
1.93683
1.87951
1.8127
2.25591
2.20915
2.16476
2.12464
2.08342
2.03969
1.99378
1.94607
1.89715
1.84909
2.26178
2.21366
2.16831
2.12888
2.08921
2.04764
2.00504
1.96261
1.92172
1.88465
2.26798
2.21932
2.1737
2.13513
2.09713
2.05791
2.01862
1.98074
1.94555
1.91456
2.27356
2.22481
2.17953
2.14179
2.10514
2.0679
2.03127
1.99663
1.96496
1.93711
2.27731
2.22895
2.18451
2.14738
2.11154
2.07564
2.04076
2.00806
1.9782
1.95167
2.2782
2.23107
2.18788
2.15096
2.11528
2.07997
2.04595
2.01406
1.98479
1.95846
2.27451
2.23065
2.18922
2.15215
2.11608
2.08069
2.04671
2.01474
1.98518
1.95835
2.26487
2.2275
2.18865
2.15157
2.11502
2.07923
2.04483
2.01232
1.98208
1.95449
1.80017
1.7995
1.80109
1.80563
1.81252
1.821
1.83032
1.8398
1.84885
1.85699
1.86384
1.86915
1.87278
1.87464
1.87476
1.87319
1.87001
1.86534
1.85928
1.85191
1.84331
1.8335
1.82247
1.81015
1.79639
1.78102
1.76374
1.74419
1.72192
1.69641
1.6671
1.63341
1.59491
1.5514
1.5031
1.80094
1.80023
1.80173
1.80592
1.81224
1.82003
1.82864
1.83747
1.84596
1.85366
1.86019
1.86529
1.86879
1.87061
1.87075
1.86924
1.86616
1.86159
1.85562
1.84833
1.83977
1.82995
1.81884
1.80637
1.79239
1.77671
1.75904
1.73901
1.71621
1.69011
1.6602
1.62595
1.58699
1.5432
1.49491
1.7993
1.79866
1.80029
1.8045
1.81066
1.81816
1.82644
1.83493
1.84313
1.85058
1.85693
1.8619
1.86532
1.86712
1.86727
1.8658
1.86279
1.8583
1.85242
1.84522
1.83673
1.82696
1.81588
1.8034
1.78938
1.7736
1.75577
1.73553
1.71243
1.68593
1.65546
1.62048
1.58056
1.53559
1.48601
1.79395
1.7939
1.79625
1.80111
1.80778
1.81562
1.8241
1.8327
1.84093
1.84836
1.85465
1.85956
1.86291
1.86464
1.86474
1.86325
1.86025
1.8558
1.85
1.8429
1.83456
1.82496
1.81409
1.80184
1.78807
1.77254
1.75496
1.73491
1.71187
1.68522
1.65425
1.6182
1.57645
1.52877
1.4757
1.78443
1.78577
1.78975
1.79605
1.80388
1.81259
1.82168
1.83067
1.83912
1.84663
1.85291
1.85774
1.86099
1.86261
1.86261
1.86106
1.85804
1.85363
1.84794
1.84102
1.83293
1.82367
1.8132
1.80143
1.78821
1.77328
1.75631
1.73682
1.7142
1.68762
1.65612
1.61855
1.57389
1.52148
1.46207
1.77013
1.77422
1.78112
1.78982
1.79946
1.80949
1.81947
1.82899
1.8377
1.84529
1.8515
1.85619
1.85926
1.8607
1.86056
1.85892
1.85588
1.85155
1.84603
1.83939
1.83169
1.82293
1.81308
1.80206
1.78969
1.77572
1.75975
1.74126
1.71946
1.69331
1.66143
1.62213
1.57354
1.51425
1.44477
1.75016
1.75912
1.77091
1.78314
1.7952
1.80686
1.81785
1.82791
1.83681
1.84436
1.85039
1.85482
1.85762
1.85881
1.85849
1.85675
1.85372
1.84951
1.84424
1.838
1.83083
1.82276
1.81376
1.80374
1.79253
1.77988
1.76536
1.74836
1.72796
1.70285
1.67113
1.63028
1.5772
1.50889
1.42516
1.72024
1.73936
1.75979
1.77688
1.79181
1.80525
1.81723
1.82769
1.8366
1.84393
1.84962
1.85365
1.85607
1.85695
1.85641
1.85457
1.85158
1.84757
1.84265
1.83692
1.83043
1.82321
1.81525
1.80647
1.79671
1.78573
1.7731
1.75817
1.73994
1.71681
1.68634
1.64478
1.58699
1.50688
1.40306
1.66357
1.71193
1.74859
1.77203
1.79005
1.80522
1.81797
1.82856
1.83721
1.84406
1.84921
1.8527
1.85464
1.85515
1.85438
1.85246
1.84956
1.84581
1.84133
1.83621
1.83052
1.8243
1.81753
1.81016
1.80207
1.79304
1.7827
1.77045
1.75531
1.73562
1.70854
1.66912
1.6089
1.5146
1.37805
1.59129
1.68893
1.74414
1.7723
1.79196
1.80785
1.82064
1.8308
1.83876
1.84483
1.84919
1.85199
1.85336
1.85346
1.85245
1.85049
1.84773
1.8443
1.84033
1.8359
1.83109
1.82592
1.82042
1.81455
1.80823
1.80131
1.79352
1.78441
1.77324
1.75874
1.73861
1.70854
1.66013
1.57604
1.42154
1.68965
1.72406
1.76295
1.78462
1.80063
1.81444
1.82576
1.83459
1.84129
1.84621
1.84955
1.8515
1.85223
1.85189
1.85066
1.84868
1.8461
1.84305
1.83962
1.83591
1.83198
1.82788
1.82364
1.81923
1.81465
1.80979
1.80451
1.79858
1.79163
1.78308
1.77211
1.7576
1.73916
1.723
1.73748
1.7579
1.76562
1.78718
1.80203
1.81368
1.82414
1.83289
1.83965
1.8446
1.84803
1.85015
1.85115
1.85119
1.85041
1.84897
1.847
1.84463
1.84197
1.83909
1.83608
1.833
1.8299
1.8268
1.82372
1.82067
1.81763
1.81453
1.81129
1.80778
1.80385
1.79936
1.79447
1.79116
1.79794
1.82264
1.81326
1.80746
1.81509
1.82278
1.8295
1.83583
1.84126
1.84538
1.84822
1.84995
1.85075
1.85075
1.8501
1.84892
1.84731
1.84538
1.84323
1.84094
1.83859
1.83622
1.83389
1.83164
1.82952
1.82755
1.82575
1.82414
1.8227
1.82144
1.82032
1.81934
1.81856
1.81836
1.8205
1.82992
1.84455
1.85673
1.84476
1.84298
1.84402
1.84569
1.8477
1.84955
1.85084
1.85146
1.85148
1.85098
1.85006
1.8488
1.84727
1.84554
1.84369
1.84176
1.83983
1.83793
1.8361
1.83439
1.83284
1.83148
1.83035
1.82948
1.82889
1.8286
1.82861
1.82894
1.82963
1.83074
1.83264
1.83661
1.84557
1.85742
1.89021
1.87512
1.86718
1.86267
1.85975
1.85781
1.85635
1.85502
1.85361
1.8521
1.8505
1.84882
1.84708
1.84532
1.84355
1.8418
1.84011
1.83848
1.83697
1.83558
1.83436
1.83333
1.83252
1.83197
1.83171
1.83177
1.83216
1.8329
1.83401
1.8355
1.83746
1.84015
1.84446
1.85225
1.86192
1.91416
1.8971
1.88511
1.87643
1.86983
1.86469
1.86056
1.85711
1.85411
1.85144
1.84903
1.84684
1.84483
1.84297
1.84124
1.83964
1.83817
1.83683
1.83563
1.83458
1.83371
1.83303
1.83259
1.8324
1.83249
1.8329
1.83364
1.83472
1.83616
1.83797
1.84022
1.84307
1.84712
1.85344
1.86076
1.92895
1.91042
1.89579
1.88423
1.87501
1.86761
1.86163
1.85674
1.8527
1.84932
1.84648
1.84406
1.84198
1.84017
1.83858
1.83718
1.83594
1.83484
1.8339
1.8331
1.83247
1.83202
1.83178
1.83177
1.83203
1.83257
1.83343
1.83461
1.83613
1.83802
1.84032
1.84312
1.84673
1.85168
1.85693
1.93535
1.91568
1.89936
1.88602
1.87519
1.86645
1.85944
1.85383
1.84932
1.84571
1.8428
1.84044
1.8385
1.83689
1.83553
1.83438
1.83338
1.83253
1.8318
1.83119
1.83073
1.83041
1.83026
1.83031
1.83059
1.83112
1.83194
1.83307
1.83456
1.83642
1.83871
1.84146
1.84475
1.84867
1.85231
1.93453
1.91394
1.89659
1.88228
1.87069
1.86143
1.85413
1.84842
1.844
1.84059
1.83797
1.83594
1.83435
1.83309
1.83208
1.83123
1.83052
1.82991
1.82938
1.82893
1.82857
1.82832
1.82819
1.8282
1.8284
1.8288
1.82947
1.83045
1.8318
1.8336
1.83591
1.83877
1.8421
1.84556
1.84824
1.9299
1.90858
1.89061
1.87587
1.86404
1.85475
1.84759
1.84217
1.83812
1.83514
1.83296
1.83138
1.83022
1.82937
1.82871
1.82819
1.82775
1.82737
1.82702
1.82671
1.82643
1.8262
1.82605
1.826
1.82608
1.82633
1.8268
1.82759
1.82877
1.83049
1.83288
1.83599
1.83968
1.84334
1.84581
1.45082
1.39595
1.3402
1.28522
1.23232
1.18247
1.13636
1.0944
1.05685
1.02384
1.44299
1.38894
1.33444
1.28101
1.22977
1.18157
1.13699
1.09644
1.06015
1.02827
1.43294
1.37833
1.32417
1.27176
1.22193
1.17526
1.13222
1.0931
1.05813
1.0275
1.41896
1.36177
1.30675
1.25483
1.20615
1.16089
1.11924
1.08134
1.04745
1.01791
1.39832
1.33648
1.28023
1.22917
1.18212
1.13862
1.09846
1.06158
1.02825
0.999253
1.36923
1.30091
1.2445
1.19592
1.15176
1.1108
1.07236
1.03604
1.00225
0.972404
1.33065
1.2552
1.20224
1.15915
1.11966
1.08218
1.04557
1.00896
0.972847
0.939413
1.27947
1.20104
1.15912
1.12539
1.09223
1.05899
1.02412
0.986254
0.945304
0.903256
1.20075
1.13742
1.12046
1.09979
1.07427
1.04596
1.01327
0.974411
0.927657
0.869259
1.08276
1.07258
1.0932
1.08429
1.0656
1.04201
1.01169
0.973343
0.926186
0.853592
0.9954
0.971481
0.95186
0.936137
0.923804
0.914319
0.907159
0.901848
0.897973
0.895187
0.893209
0.891816
0.890835
0.890133
0.889613
0.889206
0.888865
0.888562
0.888282
0.888024
0.887795
0.887609
0.887488
0.88746
0.887558
0.887823
0.888313
0.889103
0.890295
0.892016
0.894397
0.897501
0.901185
0.90483
0.907284
1.00082
0.977726
0.958731
0.943392
0.931195
0.921626
0.914211
0.90852
0.904186
0.9009
0.898413
0.896522
0.895071
0.893937
0.893031
0.892285
0.891656
0.891115
0.890649
0.890255
0.889942
0.889722
0.889618
0.889656
0.889869
0.890292
0.890968
0.891952
0.893307
0.895107
0.897421
0.900272
0.903588
0.907036
0.909697
1.00133
0.979559
0.96185
0.947602
0.936207
0.927145
0.919974
0.914308
0.90983
0.906282
0.903457
0.901189
0.899348
0.897831
0.896561
0.895483
0.894558
0.893762
0.893086
0.892528
0.892097
0.891811
0.891689
0.89176
0.892053
0.892597
0.893423
0.894564
0.89605
0.897919
0.900202
0.902949
0.906234
0.910127
0.913751
0.993124
0.973256
0.957775
0.945679
0.936115
0.928507
0.922419
0.917495
0.913463
0.910127
0.907339
0.904983
0.902968
0.901223
0.899697
0.898352
0.897164
0.89612
0.895217
0.894459
0.89386
0.893439
0.89322
0.893231
0.8935
0.894053
0.894914
0.8961
0.897628
0.899516
0.901808
0.904601
0.908202
0.913141
0.918365
0.975629
0.958239
0.94612
0.937391
0.930771
0.92562
0.921498
0.918061
0.915088
0.912455
0.910089
0.907938
0.905966
0.904146
0.902461
0.900902
0.899467
0.89816
0.89699
0.895971
0.895123
0.894471
0.894043
0.893867
0.893975
0.894391
0.895135
0.896221
0.89766
0.899474
0.901717
0.904569
0.908611
0.914909
0.9222
0.949008
0.934658
0.927269
0.923169
0.920537
0.918767
0.917422
0.916154
0.914803
0.913333
0.911758
0.9101
0.908384
0.906636
0.904884
0.903156
0.901478
0.899878
0.898381
0.897015
0.895809
0.894793
0.894001
0.893465
0.893216
0.893281
0.89368
0.894427
0.895533
0.897029
0.898987
0.90168
0.90597
0.91375
0.923389
0.91402
0.903593
0.902746
0.904427
0.906548
0.908827
0.910835
0.912219
0.912899
0.912948
0.912465
0.911547
0.910277
0.908739
0.907007
0.90515
0.903229
0.901297
0.899402
0.897585
0.895888
0.894347
0.893
0.891879
0.891015
0.890433
0.890149
0.89017
0.890511
0.8912
0.892328
0.894222
0.898203
0.907163
0.918974
0.87128
0.86714
0.875458
0.883681
0.890804
0.897359
0.902896
0.907076
0.909945
0.911684
0.912469
0.912453
0.91177
0.91055
0.908912
0.906963
0.904797
0.902497
0.900131
0.897758
0.895428
0.893186
0.891068
0.889105
0.887317
0.885715
0.884296
0.883043
0.881939
0.88098
0.880218
0.880047
0.882217
0.891636
0.906256
0.81937
0.827738
0.84901
0.863937
0.87574
0.886255
0.894997
0.901728
0.906651
0.910041
0.912119
0.913064
0.913041
0.912208
0.910717
0.908708
0.906303
0.903607
0.900711
0.897688
0.894597
0.891486
0.888386
0.885316
0.882276
0.879243
0.876161
0.872943
0.869461
0.865565
0.861122
0.856289
0.853043
0.859898
0.884559
0.756432
0.789299
0.826559
0.847735
0.863558
0.87719
0.888349
0.897057
0.903665
0.908489
0.911748
0.913617
0.91426
0.913845
0.91254
0.910501
0.90787
0.904773
0.901313
0.897577
0.89363
0.889517
0.885261
0.880859
0.876275
0.871428
0.866172
0.86027
0.853353
0.844862
0.833974
0.819598
0.80136
0.785443
0.800098
0.663968
0.756493
0.809218
0.836426
0.85559
0.87112
0.88365
0.893605
0.90141
0.907349
0.911594
0.91428
0.915548
0.915553
0.914456
0.912419
0.909593
0.906113
0.902093
0.897626
0.892779
0.887592
0.882074
0.876196
0.869876
0.86296
0.855184
0.846106
0.834988
0.820566
0.800572
0.770734
0.722754
0.639574
0.486996
0.732396
0.778568
0.813787
0.836481
0.854014
0.868808
0.881269
0.891622
0.900083
0.906777
0.911774
0.915138
0.916959
0.91736
0.916485
0.914485
0.911508
0.907692
0.903153
0.897985
0.892256
0.885996
0.879202
0.871815
0.863715
0.854681
0.844351
0.832127
0.817032
0.797421
0.770484
0.731314
0.671576
0.578202
0.443297
0.786536
0.804993
0.82476
0.841354
0.855892
0.869005
0.880704
0.890927
0.899637
0.906782
0.912309
0.9162
0.918487
0.919249
0.918597
0.916666
0.913591
0.909504
0.904518
0.898726
0.892189
0.884932
0.876936
0.868125
0.858347
0.847346
0.834709
0.819792
0.801584
0.778511
0.74813
0.706759
0.649298
0.569783
0.467033
0.815415
0.824155
0.835633
0.847546
0.859309
0.870693
0.88143
0.891258
0.899951
0.907308
0.913173
0.917448
0.920104
0.921174
0.920735
0.918895
0.915772
0.911487
0.906146
0.899836
0.892611
0.884489
0.875442
0.865381
0.854142
0.841456
0.826912
0.809893
0.78949
0.764379
0.732687
0.691891
0.638954
0.570909
0.487658
0.834813
0.838841
0.845596
0.854104
0.863528
0.873331
0.883085
0.892392
0.900898
0.908293
0.914335
0.91886
0.921787
0.923101
0.922847
0.921103
0.917972
0.913557
0.907956
0.901247
0.893479
0.884662
0.874764
0.863687
0.85127
0.837248
0.821241
0.802696
0.780849
0.754646
0.722711
0.683336
0.634687
0.575324
0.505836
0.848751
0.850111
0.854027
0.860214
0.867876
0.876405
0.885302
0.894094
0.902344
0.909674
0.915779
0.920446
0.923549
0.925037
0.924925
0.923268
0.920149
0.915657
0.909882
0.902891
0.894729
0.885402
0.874871
0.863043
0.849757
0.834768
0.817731
0.798169
0.775453
0.748771
0.717124
0.679383
0.634467
0.581741
0.521873
0.858071
0.858056
0.860391
0.865181
0.871718
0.879405
0.887709
0.896125
0.904166
0.911419
0.917537
0.922281
0.925487
0.927089
0.927069
0.925476
0.922367
0.917833
0.911945
0.904776
0.896355
0.886697
0.875754
0.86344
0.849595
0.833999
0.81633
0.796183
0.773026
0.746228
0.715047
0.678724
0.636596
0.588378
0.534567
0.86333
0.862737
0.864365
0.868511
0.874565
0.881922
0.890032
0.898347
0.906366
0.913638
0.919814
0.924624
0.927908
0.929571
0.929603
0.928027
0.924915
0.920335
0.914375
0.90709
0.898529
0.888689
0.877542
0.864991
0.850897
0.835034
0.817118
0.796766
0.773523
0.74684
0.716136
0.680821
0.640444
0.594826
0.544325
0.864966
0.864293
0.865789
0.869924
0.876139
0.883783
0.892228
0.900878
0.909192
0.916711
0.923072
0.928014
0.931372
0.933067
0.933086
0.93147
0.928288
0.923628
0.917577
0.910209
0.901571
0.891679
0.880503
0.867961
0.853912
0.838147
0.82038
0.800247
0.7773
0.751026
0.720866
0.686283
0.64685
0.602393
0.553152
0.864237
0.863605
0.865194
0.869674
0.876454
0.884781
0.893928
0.903224
0.912086
0.920038
0.926718
0.931874
0.935351
0.937087
0.937086
0.935405
0.932132
0.927372
0.921227
0.913787
0.905114
0.895236
0.884136
0.871741
0.857919
0.842466
0.825097
0.805444
0.783048
0.757374
0.727833
0.693838
0.6549
0.61077
0.561599
0.15205
0.142985
0.164874
0.158329
0.143248
0.125079
0.103109
0.0774772
0.04896
0.0177289
0.268543
0.207231
0.192226
0.174278
0.152692
0.129999
0.105408
0.0783856
0.0488527
0.0174039
0.345206
0.268768
0.228975
0.19787
0.168255
0.13975
0.111177
0.0815212
0.0501227
0.0175727
0.394027
0.31977
0.268198
0.226805
0.189429
0.154556
0.120928
0.0874077
0.0529999
0.01812
0.430362
0.362206
0.305994
0.257603
0.213562
0.172499
0.133388
0.095272
0.0570658
0.0190325
0.457562
0.394982
0.337744
0.285324
0.236398
0.19021
0.146146
0.103566
0.0614883
0.0201134
0.476803
0.418206
0.361296
0.306811
0.254693
0.204787
0.156888
0.110672
0.0653208
0.0210389
0.489972
0.433601
0.377016
0.321358
0.26719
0.214804
0.164286
0.115549
0.0678957
0.02161
0.499909
0.444013
0.387009
0.330189
0.274452
0.220348
0.168152
0.117882
0.0689512
0.0217831
0.508087
0.451503
0.393411
0.335258
0.27814
0.222763
0.169486
0.118344
0.0690424
0.0217748
)
;

boundaryField
{
    inlet
    {
        type            zeroGradient;
    }
    outlet
    {
        type            fixedValue;
        value           uniform 0;
    }
    upperWall
    {
        type            zeroGradient;
    }
    lowerWall
    {
        type            zeroGradient;
    }
    frontAndBack
    {
        type            empty;
    }
}


// ************************************************************************* //
