/*--------------------------------*- C++ -*----------------------------------*\
| =========                 |                                                 |
| \\      /  F ield         | OpenFOAM: The Open Source CFD Toolbox           |
|  \\    /   O peration     | Version:  2406                                  |
|   \\  /    A nd           | Website:  www.openfoam.com                      |
|    \\/     M anipulation  |                                                 |
\*---------------------------------------------------------------------------*/
FoamFile
{
    version     2.0;
    format      ascii;
    arch        "LSB;label=32;scalar=64";
    class       volVectorField;
    location    "25";
    object      U;
}
// * * * * * * * * * * * * * * * * * * * * * * * * * * * * * * * * * * * * * //

dimensions      [0 1 -1 0 0 0 0];

internalField   nonuniform List<vector> 
1700
(
(0.187363 -0.00141497 0)
(0.195061 -0.00123459 0)
(0.199403 -0.00103078 0)
(0.202799 -0.00112059 0)
(0.207045 -0.00142444 0)
(0.212774 -0.00204719 0)
(0.220888 -0.00330617 0)
(0.233462 -0.00610674 0)
(0.257016 -0.0155064 0)
(0.291902 -0.057426 0)
(0.503468 -0.00383275 0)
(0.509942 -0.00605831 0)
(0.515408 -0.00630688 0)
(0.520336 -0.00723074 0)
(0.527174 -0.0092061 0)
(0.53654 -0.0125778 0)
(0.549162 -0.0183731 0)
(0.566542 -0.0286863 0)
(0.591151 -0.0482765 0)
(0.618516 -0.0900195 0)
(0.743974 -0.00355585 0)
(0.748873 -0.00771985 0)
(0.7531 -0.0102666 0)
(0.756778 -0.013141 0)
(0.762442 -0.017209 0)
(0.770451 -0.0231453 0)
(0.780792 -0.0321394 0)
(0.793568 -0.0461977 0)
(0.808281 -0.0686822 0)
(0.820384 -0.105015 0)
(0.904429 -0.0032052 0)
(0.90836 -0.00832896 0)
(0.911109 -0.0125557 0)
(0.912535 -0.0170789 0)
(0.915233 -0.0227587 0)
(0.919411 -0.0303394 0)
(0.924512 -0.0408552 0)
(0.929851 -0.0557195 0)
(0.934075 -0.0766535 0)
(0.933856 -0.105176 0)
(0.984587 -0.00284669 0)
(0.98773 -0.00799561 0)
(0.98901 -0.0128758 0)
(0.988048 -0.0181492 0)
(0.987417 -0.0244432 0)
(0.987237 -0.0323907 0)
(0.986694 -0.0427421 0)
(0.984841 -0.056324 0)
(0.980317 -0.0738432 0)
(0.970881 -0.0954142 0)
(0.984511 -0.00220222 0)
(0.986974 -0.0066056 0)
(0.986884 -0.0112934 0)
(0.983821 -0.0164473 0)
(0.980308 -0.0223935 0)
(0.976367 -0.0296046 0)
(0.971092 -0.0385658 0)
(0.963542 -0.0496849 0)
(0.952597 -0.0631534 0)
(0.936802 -0.07866 0)
(0.904211 -0.00112614 0)
(0.90621 -0.00420319 0)
(0.905102 -0.00817124 0)
(0.900622 -0.0125793 0)
(0.895207 -0.01746 0)
(0.888745 -0.0231584 0)
(0.880339 -0.029963 0)
(0.869174 -0.0380307 0)
(0.854423 -0.0473344 0)
(0.835181 -0.0575193 0)
(0.743652 0.000534647 0)
(0.745771 -0.001058 0)
(0.744497 -0.00423019 0)
(0.739775 -0.0075748 0)
(0.733866 -0.0109704 0)
(0.726555 -0.0147277 0)
(0.717067 -0.0190262 0)
(0.704799 -0.0239079 0)
(0.68921 -0.0293 0)
(0.669802 -0.0349549 0)
(0.503158 0.00234596 0)
(0.506875 0.00168611 0)
(0.506845 -0.000880889 0)
(0.50338 -0.00298961 0)
(0.498622 -0.0047588 0)
(0.492437 -0.00655026 0)
(0.484324 -0.00848108 0)
(0.47395 -0.0105649 0)
(0.461046 -0.0127676 0)
(0.4454 -0.0149817 0)
(0.187234 0.00116653 0)
(0.193535 0.000542607 0)
(0.194917 -2.80763e-05 0)
(0.193779 -0.000327295 0)
(0.191749 -0.000558188 0)
(0.188896 -0.000783453 0)
(0.18507 -0.00101799 0)
(0.18019 -0.0012513 0)
(0.174202 -0.00147132 0)
(0.167079 -0.00166858 0)
(-0.000421703 0.000410765 0)
(-0.00301288 0.000894942 0)
(-0.0066195 0.000995162 0)
(-0.0100138 0.000822294 0)
(-0.0122622 0.000527312 0)
(-0.0129967 0.000192354 0)
(-0.0121659 -0.000132687 0)
(-0.00988771 -0.000420433 0)
(-0.00637016 -0.000657551 0)
(-0.00186188 -0.000839419 0)
(0.00338082 -0.00096654 0)
(0.00911551 -0.00104357 0)
(0.0151268 -0.001078 0)
(0.0212343 -0.00107867 0)
(0.0272976 -0.0010548 0)
(0.0332167 -0.00101553 0)
(0.0389312 -0.000969324 0)
(0.0444177 -0.000923903 0)
(0.0496869 -0.000885942 0)
(0.0547802 -0.000861375 0)
(0.0597662 -0.000855287 0)
(0.0647384 -0.00087235 0)
(0.0698128 -0.000916701 0)
(0.0751259 -0.000992268 0)
(0.0808325 -0.00110234 0)
(0.0871024 -0.00124939 0)
(0.0941145 -0.00143386 0)
(0.102046 -0.00165279 0)
(0.111055 -0.00189717 0)
(0.121252 -0.00214905 0)
(0.132655 -0.0023778 0)
(0.145141 -0.00253844 0)
(0.158379 -0.00257347 0)
(0.171787 -0.00242377 0)
(0.184539 -0.0020513 0)
(-0.00100735 0.00306702 0)
(-0.00676976 0.0062988 0)
(-0.0137776 0.00677093 0)
(-0.0197515 0.00524108 0)
(-0.0229892 0.00265187 0)
(-0.0228371 -0.000308494 0)
(-0.0192468 -0.0032051 0)
(-0.0125132 -0.00578742 0)
(-0.00311498 -0.00792918 0)
(0.00839219 -0.00958385 0)
(0.0214456 -0.010758 0)
(0.0355206 -0.011492 0)
(0.0501559 -0.0118471 0)
(0.0649691 -0.0118957 0)
(0.0796628 -0.0117146 0)
(0.0940263 -0.0113805 0)
(0.107932 -0.0109667 0)
(0.12133 -0.010541 0)
(0.134244 -0.0101653 0)
(0.146762 -0.00989524 0)
(0.159031 -0.00978105 0)
(0.171254 -0.00986793 0)
(0.183682 -0.0101971 0)
(0.196609 -0.0108054 0)
(0.210371 -0.011724 0)
(0.225335 -0.0129748 0)
(0.241887 -0.0145639 0)
(0.26041 -0.0164695 0)
(0.281254 -0.0186265 0)
(0.304677 -0.0209036 0)
(0.330768 -0.0230804 0)
(0.35934 -0.0248283 0)
(0.389804 -0.0257187 0)
(0.421056 -0.025279 0)
(0.45144 -0.023138 0)
(-0.0013304 0.00728319 0)
(-0.00852935 0.0137556 0)
(-0.0162394 0.0138729 0)
(-0.0217587 0.00976269 0)
(-0.0232438 0.00346466 0)
(-0.0201459 -0.00353448 0)
(-0.0126024 -0.0102853 0)
(-0.00112199 -0.0162406 0)
(0.0136057 -0.021132 0)
(0.030834 -0.0248747 0)
(0.0498379 -0.0275012 0)
(0.0699579 -0.0291159 0)
(0.0906266 -0.0298655 0)
(0.111381 -0.0299187 0)
(0.131868 -0.0294519 0)
(0.15184 -0.0286394 0)
(0.171151 -0.0276473 0)
(0.189751 -0.0266299 0)
(0.207678 -0.0257281 0)
(0.225048 -0.0250698 0)
(0.242051 -0.0247708 0)
(0.258945 -0.0249362 0)
(0.276048 -0.025662 0)
(0.293735 -0.027034 0)
(0.312431 -0.0291255 0)
(0.332606 -0.0319898 0)
(0.354761 -0.0356461 0)
(0.379408 -0.0400569 0)
(0.407036 -0.0450934 0)
(0.43805 -0.0504877 0)
(0.472685 -0.055778 0)
(0.510866 -0.0602568 0)
(0.552025 -0.0629633 0)
(0.594886 -0.0627774 0)
(0.637328 -0.0587256 0)
(-0.00150206 0.0121993 0)
(-0.00870713 0.0215079 0)
(-0.0148948 0.0200638 0)
(-0.0173663 0.0120513 0)
(-0.0146544 0.000907483 0)
(-0.00666756 -0.0110008 0)
(0.00607897 -0.0222107 0)
(0.0227975 -0.0319142 0)
(0.0426169 -0.0397475 0)
(0.064683 -0.0456315 0)
(0.0882157 -0.0496605 0)
(0.112538 -0.0520342 0)
(0.137089 -0.053009 0)
(0.161425 -0.0528693 0)
(0.18522 -0.0519054 0)
(0.208257 -0.0504009 0)
(0.230422 -0.0486242 0)
(0.251693 -0.0468239 0)
(0.272133 -0.0452275 0)
(0.291887 -0.044042 0)
(0.311167 -0.0434558 0)
(0.330253 -0.0436412 0)
(0.34949 -0.0447561 0)
(0.36928 -0.046945 0)
(0.390084 -0.0503332 0)
(0.412415 -0.0550193 0)
(0.43684 -0.0610533 0)
(0.463962 -0.0684051 0)
(0.4944 -0.0769082 0)
(0.528745 -0.0861855 0)
(0.567468 -0.0955418 0)
(0.610761 -0.103854 0)
(0.658274 -0.109489 0)
(0.708719 -0.110399 0)
(0.759504 -0.104603 0)
(-0.00161955 0.0170087 0)
(-0.0075392 0.0276141 0)
(-0.00987866 0.0227667 0)
(-0.00659451 0.009464 0)
(0.00278056 -0.00727683 0)
(0.0175455 -0.0243 0)
(0.0366621 -0.0397913 0)
(0.0590539 -0.0528338 0)
(0.0837266 -0.0630844 0)
(0.109814 -0.0705481 0)
(0.136589 -0.0754351 0)
(0.163464 -0.0780691 0)
(0.189979 -0.078832 0)
(0.215796 -0.0781276 0)
(0.240683 -0.0763584 0)
(0.264509 -0.0739108 0)
(0.28723 -0.0711471 0)
(0.308879 -0.068401 0)
(0.329563 -0.0659773 0)
(0.349452 -0.0641538 0)
(0.368775 -0.0631846 0)
(0.387818 -0.0633043 0)
(0.406923 -0.0647313 0)
(0.426487 -0.0676692 0)
(0.44697 -0.0723044 0)
(0.468893 -0.0787955 0)
(0.492853 -0.0872524 0)
(0.519524 -0.0976949 0)
(0.54966 -0.109984 0)
(0.584074 -0.123708 0)
(0.62357 -0.138014 0)
(0.668768 -0.151373 0)
(0.719727 -0.161346 0)
(0.775251 -0.164504 0)
(0.832052 -0.157137 0)
(-0.0016342 0.0211044 0)
(-0.00457321 0.0301115 0)
(-6.14088e-05 0.0192466 0)
(0.0121694 -0.000715298 0)
(0.0307854 -0.0232869 0)
(0.0540179 -0.0449039 0)
(0.080309 -0.0637373 0)
(0.108402 -0.079004 0)
(0.137325 -0.0905418 0)
(0.166339 -0.0985346 0)
(0.1949 -0.103355 0)
(0.222613 -0.105471 0)
(0.249205 -0.105388 0)
(0.274506 -0.103619 0)
(0.298434 -0.100662 0)
(0.320978 -0.096988 0)
(0.342193 -0.0930319 0)
(0.362187 -0.0891923 0)
(0.381114 -0.085832 0)
(0.399173 -0.0832819 0)
(0.416603 -0.0818467 0)
(0.433682 -0.0818105 0)
(0.45073 -0.0834437 0)
(0.468116 -0.0870063 0)
(0.486265 -0.0927502 0)
(0.505676 -0.100911 0)
(0.526941 -0.111693 0)
(0.550778 -0.125225 0)
(0.578059 -0.141485 0)
(0.609835 -0.160151 0)
(0.647316 -0.18035 0)
(0.691701 -0.200223 0)
(0.743722 -0.21636 0)
(0.802445 -0.223258 0)
(0.863627 -0.214087 0)
(-0.0012833 0.0239353 0)
(0.0020214 0.0263028 0)
(0.0178618 0.00599973 0)
(0.0429006 -0.0215107 0)
(0.073145 -0.049169 0)
(0.105807 -0.0738305 0)
(0.139146 -0.0941745 0)
(0.17205 -0.109852 0)
(0.203824 -0.121031 0)
(0.234054 -0.128139 0)
(0.262507 -0.131727 0)
(0.289077 -0.132392 0)
(0.313739 -0.130742 0)
(0.336535 -0.127373 0)
(0.357555 -0.122845 0)
(0.376928 -0.117683 0)
(0.394815 -0.112366 0)
(0.411399 -0.10733 0)
(0.426881 -0.102969 0)
(0.441482 -0.0996449 0)
(0.455437 -0.0976911 0)
(0.469003 -0.0974245 0)
(0.482458 -0.0991529 0)
(0.496118 -0.103185 0)
(0.510345 -0.109838 0)
(0.525574 -0.119436 0)
(0.542348 -0.132309 0)
(0.561367 -0.148758 0)
(0.583559 -0.168985 0)
(0.610163 -0.192927 0)
(0.64278 -0.219899 0)
(0.68329 -0.247903 0)
(0.73335 -0.272412 0)
(0.792608 -0.284776 0)
(0.855962 -0.272477 0)
(0.000209413 0.0235437 0)
(0.0172126 0.0109285 0)
(0.0511801 -0.021998 0)
(0.0930354 -0.0561054 0)
(0.135909 -0.0861978 0)
(0.177078 -0.110905 0)
(0.215518 -0.129972 0)
(0.250811 -0.143675 0)
(0.282853 -0.152547 0)
(0.311727 -0.157228 0)
(0.33761 -0.158392 0)
(0.360723 -0.156714 0)
(0.381308 -0.152855 0)
(0.399619 -0.147442 0)
(0.415913 -0.141061 0)
(0.430445 -0.134252 0)
(0.443467 -0.127502 0)
(0.45522 -0.121255 0)
(0.465938 -0.115908 0)
(0.475843 -0.111827 0)
(0.485153 -0.109352 0)
(0.49408 -0.108811 0)
(0.502842 -0.110532 0)
(0.511674 -0.114857 0)
(0.520839 -0.122158 0)
(0.530661 -0.132849 0)
(0.541563 -0.147399 0)
(0.55413 -0.166327 0)
(0.569209 -0.190154 0)
(0.588041 -0.219263 0)
(0.612429 -0.253479 0)
(0.6448 -0.291076 0)
(0.687846 -0.326612 0)
(0.742099 -0.347065 0)
(0.802596 -0.329064 0)
(0.0111803 0.00468863 0)
(0.0556859 -0.030037 0)
(0.115169 -0.0721517 0)
(0.174345 -0.106563 0)
(0.226503 -0.133303 0)
(0.271554 -0.153513 0)
(0.310392 -0.167922 0)
(0.343722 -0.177175 0)
(0.372166 -0.181943 0)
(0.396315 -0.182903 0)
(0.416719 -0.180733 0)
(0.433879 -0.176099 0)
(0.44825 -0.169644 0)
(0.460248 -0.16198 0)
(0.47025 -0.153671 0)
(0.478598 -0.145234 0)
(0.485597 -0.137135 0)
(0.491516 -0.129791 0)
(0.496589 -0.123579 0)
(0.501017 -0.118842 0)
(0.504973 -0.115906 0)
(0.508608 -0.115086 0)
(0.512054 -0.116711 0)
(0.515438 -0.121136 0)
(0.518892 -0.128763 0)
(0.522577 -0.140075 0)
(0.52671 -0.155656 0)
(0.531623 -0.176227 0)
(0.537843 -0.202648 0)
(0.546236 -0.235835 0)
(0.558224 -0.27641 0)
(0.576038 -0.32359 0)
(0.602811 -0.37223 0)
(0.640278 -0.405859 0)
(0.687193 -0.384218 0)
(0.0872719 -0.0619761 0)
(0.16414 -0.112021 0)
(0.237669 -0.144163 0)
(0.300292 -0.166763 0)
(0.349678 -0.183191 0)
(0.389016 -0.194824 0)
(0.420771 -0.202115 0)
(0.446298 -0.205399 0)
(0.466548 -0.205112 0)
(0.482334 -0.201774 0)
(0.494371 -0.195957 0)
(0.503284 -0.188247 0)
(0.509628 -0.179223 0)
(0.513887 -0.169438 0)
(0.516488 -0.159406 0)
(0.517795 -0.149591 0)
(0.518117 -0.140409 0)
(0.517707 -0.132232 0)
(0.516764 -0.125392 0)
(0.515439 -0.120191 0)
(0.513838 -0.116919 0)
(0.512027 -0.115863 0)
(0.510037 -0.117327 0)
(0.507867 -0.12165 0)
(0.505495 -0.129236 0)
(0.502878 -0.140581 0)
(0.499963 -0.156311 0)
(0.496691 -0.177235 0)
(0.493005 -0.204367 0)
(0.488857 -0.238903 0)
(0.484222 -0.281929 0)
(0.47911 -0.333397 0)
(0.473793 -0.388967 0)
(0.469143 -0.43154 0)
(0.475965 -0.409896 0)
(0.377312 -0.156125 0)
(0.4028 -0.187063 0)
(0.434292 -0.202474 0)
(0.468656 -0.213162 0)
(0.49743 -0.220342 0)
(0.519881 -0.224261 0)
(0.536936 -0.22504 0)
(0.549233 -0.222829 0)
(0.557328 -0.217912 0)
(0.561829 -0.210698 0)
(0.563347 -0.201673 0)
(0.562458 -0.191349 0)
(0.559682 -0.18024 0)
(0.555476 -0.168831 0)
(0.550236 -0.157568 0)
(0.544287 -0.146852 0)
(0.537888 -0.137033 0)
(0.531236 -0.128423 0)
(0.52446 -0.121294 0)
(0.517636 -0.115898 0)
(0.510783 -0.112474 0)
(0.503869 -0.111263 0)
(0.496816 -0.112526 0)
(0.489494 -0.116565 0)
(0.481723 -0.123737 0)
(0.473259 -0.134492 0)
(0.46377 -0.149389 0)
(0.452789 -0.169129 0)
(0.439609 -0.194531 0)
(0.423084 -0.226406 0)
(0.401199 -0.26508 0)
(0.370126 -0.308989 0)
(0.322154 -0.350609 0)
(0.244444 -0.363906 0)
(0.128453 -0.258321 0)
(0.637387 -0.158628 0)
(0.634054 -0.198973 0)
(0.633188 -0.218873 0)
(0.637454 -0.229312 0)
(0.641541 -0.234027 0)
(0.643341 -0.23446 0)
(0.642566 -0.231493 0)
(0.639192 -0.225724 0)
(0.633347 -0.217649 0)
(0.625346 -0.207764 0)
(0.615602 -0.196572 0)
(0.604551 -0.184571 0)
(0.592604 -0.172231 0)
(0.580127 -0.159981 0)
(0.567426 -0.148205 0)
(0.554739 -0.137232 0)
(0.542238 -0.127346 0)
(0.530027 -0.118792 0)
(0.518147 -0.11178 0)
(0.506578 -0.106502 0)
(0.495245 -0.103141 0)
(0.484019 -0.101886 0)
(0.472714 -0.102943 0)
(0.461087 -0.106551 0)
(0.448828 -0.112998 0)
(0.435533 -0.122632 0)
(0.420672 -0.135862 0)
(0.403512 -0.153136 0)
(0.382986 -0.174827 0)
(0.357472 -0.20094 0)
(0.324391 -0.230353 0)
(0.279553 -0.259061 0)
(0.216645 -0.276281 0)
(0.13246 -0.256356 0)
(0.0330228 -0.148445 0)
(0.820242 -0.152477 0)
(0.805338 -0.188082 0)
(0.787052 -0.209369 0)
(0.770414 -0.220981 0)
(0.754416 -0.225749 0)
(0.737946 -0.225302 0)
(0.720686 -0.220911 0)
(0.702538 -0.21356 0)
(0.683526 -0.204015 0)
(0.663827 -0.192925 0)
(0.643718 -0.180864 0)
(0.623508 -0.168343 0)
(0.603488 -0.155808 0)
(0.583909 -0.143644 0)
(0.564961 -0.132171 0)
(0.546771 -0.121655 0)
(0.529403 -0.112314 0)
(0.512855 -0.104326 0)
(0.497068 -0.0978411 0)
(0.481928 -0.0929948 0)
(0.467266 -0.089915 0)
(0.452864 -0.0887351 0)
(0.438453 -0.0896035 0)
(0.423701 -0.092693 0)
(0.40821 -0.0982063 0)
(0.391486 -0.106374 0)
(0.372905 -0.117431 0)
(0.351647 -0.13155 0)
(0.326602 -0.148675 0)
(0.296233 -0.168147 0)
(0.25842 -0.187952 0)
(0.210415 -0.203274 0)
(0.149804 -0.204067 0)
(0.0803453 -0.172021 0)
(0.0130928 -0.0836219 0)
(0.923784 -0.138598 0)
(0.902612 -0.166764 0)
(0.87562 -0.185809 0)
(0.846983 -0.19684 0)
(0.817777 -0.201409 0)
(0.788183 -0.20078 0)
(0.758437 -0.196143 0)
(0.728768 -0.188561 0)
(0.699375 -0.178918 0)
(0.670483 -0.167945 0)
(0.642337 -0.15625 0)
(0.615173 -0.14434 0)
(0.589184 -0.13263 0)
(0.56451 -0.121451 0)
(0.541228 -0.111064 0)
(0.519351 -0.101672 0)
(0.498832 -0.0934301 0)
(0.479569 -0.0864595 0)
(0.461408 -0.0808573 0)
(0.444152 -0.0767073 0)
(0.427556 -0.0740897 0)
(0.411335 -0.0730891 0)
(0.395161 -0.0738011 0)
(0.378652 -0.0763365 0)
(0.361368 -0.0808198 0)
(0.34279 -0.0873755 0)
(0.322294 -0.0960905 0)
(0.299112 -0.106926 0)
(0.272289 -0.119537 0)
(0.24065 -0.132934 0)
(0.202843 -0.144896 0)
(0.15764 -0.151085 0)
(0.105212 -0.144033 0)
(0.051361 -0.113082 0)
(0.00698203 -0.0496505 0)
(0.953654 -0.119057 0)
(0.927865 -0.139794 0)
(0.896004 -0.154666 0)
(0.860909 -0.163496 0)
(0.824177 -0.167006 0)
(0.78672 -0.166055 0)
(0.749262 -0.161588 0)
(0.712382 -0.154542 0)
(0.676513 -0.145747 0)
(0.641993 -0.135899 0)
(0.609088 -0.125566 0)
(0.57799 -0.1152 0)
(0.548819 -0.105154 0)
(0.521617 -0.0956936 0)
(0.496361 -0.0870167 0)
(0.472962 -0.0792649 0)
(0.45128 -0.0725392 0)
(0.43113 -0.0669117 0)
(0.412287 -0.0624365 0)
(0.39449 -0.0591577 0)
(0.377448 -0.0571179 0)
(0.360837 -0.0563633 0)
(0.3443 -0.0569478 0)
(0.327445 -0.0589332 0)
(0.309834 -0.0623837 0)
(0.290974 -0.0673467 0)
(0.270306 -0.0738098 0)
(0.247192 -0.081613 0)
(0.220917 -0.0902889 0)
(0.190732 -0.0987981 0)
(0.155997 -0.105151 0)
(0.11657 -0.105985 0)
(0.07386 -0.096408 0)
(0.0334548 -0.0710088 0)
(0.00389221 -0.0282834 0)
(0.914626 -0.0948249 0)
(0.885689 -0.109021 0)
(0.851324 -0.11934 0)
(0.813445 -0.125345 0)
(0.773599 -0.127366 0)
(0.732956 -0.125986 0)
(0.692478 -0.121913 0)
(0.652935 -0.115882 0)
(0.614896 -0.108571 0)
(0.578763 -0.100548 0)
(0.544799 -0.0922698 0)
(0.513154 -0.0840896 0)
(0.483873 -0.0762708 0)
(0.456919 -0.0690029 0)
(0.432185 -0.0624171 0)
(0.409509 -0.0566007 0)
(0.388684 -0.0516097 0)
(0.369473 -0.0474793 0)
(0.351609 -0.0442322 0)
(0.334802 -0.0418858 0)
(0.318745 -0.0404568 0)
(0.303108 -0.0399653 0)
(0.287544 -0.0404366 0)
(0.271677 -0.0418998 0)
(0.25511 -0.0443807 0)
(0.237411 -0.0478825 0)
(0.218121 -0.0523463 0)
(0.196758 -0.0575763 0)
(0.172857 -0.0631143 0)
(0.146042 -0.0680574 0)
(0.116209 -0.0708454 0)
(0.0838545 -0.0691308 0)
(0.0507932 -0.0600108 0)
(0.0215847 -0.0412301 0)
(0.00216217 -0.0144427 0)
(0.810675 -0.0676893 0)
(0.780833 -0.0764309 0)
(0.74656 -0.0826389 0)
(0.709259 -0.0859788 0)
(0.670291 -0.0866382 0)
(0.630821 -0.0850249 0)
(0.59183 -0.0816404 0)
(0.554092 -0.0770064 0)
(0.51817 -0.0715991 0)
(0.484434 -0.065815 0)
(0.453092 -0.0599637 0)
(0.424226 -0.0542767 0)
(0.397812 -0.0489197 0)
(0.373749 -0.0440053 0)
(0.351875 -0.039606 0)
(0.331986 -0.0357652 0)
(0.313848 -0.0325065 0)
(0.297206 -0.0298409 0)
(0.281789 -0.0277725 0)
(0.267318 -0.0263032 0)
(0.2535 -0.0254356 0)
(0.240035 -0.0251751 0)
(0.226612 -0.0255307 0)
(0.212907 -0.0265134 0)
(0.198583 -0.0281302 0)
(0.183292 -0.0303684 0)
(0.166682 -0.0331652 0)
(0.148425 -0.0363522 0)
(0.128258 -0.0395674 0)
(0.106087 -0.0421404 0)
(0.0821387 -0.0429879 0)
(0.0572167 -0.0406218 0)
(0.0330972 -0.0334843 0)
(0.0131482 -0.0209925 0)
(0.00109808 -0.00585438 0)
(0.646256 -0.0403706 0)
(0.618727 -0.0448429 0)
(0.587959 -0.0478231 0)
(0.55505 -0.0491538 0)
(0.52113 -0.0489727 0)
(0.487198 -0.0475488 0)
(0.454078 -0.0451942 0)
(0.422403 -0.0422193 0)
(0.392607 -0.038898 0)
(0.364946 -0.0354505 0)
(0.339537 -0.032042 0)
(0.316384 -0.0287906 0)
(0.295409 -0.0257764 0)
(0.276474 -0.0230501 0)
(0.259401 -0.0206409 0)
(0.243984 -0.0185632 0)
(0.230004 -0.0168218 0)
(0.217229 -0.0154157 0)
(0.205425 -0.0143414 0)
(0.194352 -0.013595 0)
(0.183772 -0.0131736 0)
(0.173439 -0.0130768 0)
(0.163108 -0.0133065 0)
(0.152526 -0.0138662 0)
(0.141436 -0.014757 0)
(0.129581 -0.0159686 0)
(0.116712 -0.0174594 0)
(0.102622 -0.0191229 0)
(0.0871922 -0.0207342 0)
(0.0704858 -0.0218845 0)
(0.0528834 -0.0219338 0)
(0.0352509 -0.0200519 0)
(0.0191203 -0.0154902 0)
(0.00679771 -0.00833764 0)
(0.000346043 -0.00110771 0)
(0.426961 -0.0170015 0)
(0.405985 -0.0185555 0)
(0.38308 -0.01945 0)
(0.359051 -0.0196566 0)
(0.334707 -0.0192683 0)
(0.310746 -0.0184218 0)
(0.287712 -0.0172583 0)
(0.265996 -0.0159068 0)
(0.24584 -0.0144742 0)
(0.227363 -0.0130409 0)
(0.210587 -0.0116638 0)
(0.195464 -0.0103804 0)
(0.181898 -0.00921416 0)
(0.169757 -0.00817768 0)
(0.158894 -0.00727639 0)
(0.149148 -0.00651101 0)
(0.140352 -0.00587939 0)
(0.132342 -0.00537807 0)
(0.124952 -0.00500316 0)
(0.118018 -0.0047512 0)
(0.111379 -0.00461952 0)
(0.104874 -0.00460678 0)
(0.0983409 -0.00471303 0)
(0.0916167 -0.00493959 0)
(0.0845364 -0.00528756 0)
(0.0769365 -0.00575423 0)
(0.0686634 -0.00632479 0)
(0.0595961 -0.00695712 0)
(0.049689 -0.00755752 0)
(0.0390461 -0.00795064 0)
(0.028025 -0.00785779 0)
(0.0173536 -0.00691941 0)
(0.00819878 -0.00483303 0)
(0.00202125 -0.00175935 0)
(-0.000228568 0.000736494 0)
(0.158863 -0.00182539 0)
(0.149724 -0.00191449 0)
(0.139966 -0.00192069 0)
(0.129954 -0.00185289 0)
(0.12003 -0.00173236 0)
(0.110466 -0.00158018 0)
(0.101453 -0.0014137 0)
(0.0931125 -0.00124641 0)
(0.0855046 -0.00108745 0)
(0.0786408 -0.000941943 0)
(0.0724994 -0.00081215 0)
(0.0670365 -0.000698691 0)
(0.0621944 -0.000601325 0)
(0.0579076 -0.000519342 0)
(0.0541072 -0.000451779 0)
(0.0507234 -0.000397539 0)
(0.0476874 -0.000355523 0)
(0.0449324 -0.000324686 0)
(0.0423939 -0.000304116 0)
(0.0400095 -0.000293036 0)
(0.0377188 -0.000290859 0)
(0.0354622 -0.000297203 0)
(0.0331808 -0.000311968 0)
(0.030815 -0.000335374 0)
(0.0283041 -0.000367965 0)
(0.0255865 -0.000410375 0)
(0.0226026 -0.000462586 0)
(0.019304 -0.000522192 0)
(0.0156726 -0.000581269 0)
(0.0117565 -0.000621924 0)
(0.00772251 -0.000611448 0)
(0.0039195 -0.000499626 0)
(0.000910967 -0.000228083 0)
(-0.000660504 0.000203077 0)
(-0.000494961 0.000504868 0)
(0.195665 -0.00146799 0)
(0.204301 -0.000764858 0)
(0.209939 -6.24743e-05 0)
(0.212488 0.000558973 0)
(0.212153 0.00107096 0)
(0.20928 0.00147395 0)
(0.204252 0.00178198 0)
(0.197425 0.00201548 0)
(0.189095 0.00219118 0)
(0.179514 0.00231425 0)
(0.478906 -0.0192298 0)
(0.501497 -0.0140071 0)
(0.517931 -0.00822063 0)
(0.52777 -0.00252184 0)
(0.531203 0.00269547 0)
(0.528752 0.00725684 0)
(0.521083 0.0111447 0)
(0.508848 0.014431 0)
(0.49261 0.0172053 0)
(0.472851 0.0195019 0)
(0.676475 -0.0504667 0)
(0.709476 -0.0389314 0)
(0.734539 -0.0257908 0)
(0.75113 -0.012514 0)
(0.759519 -3.03946e-05 0)
(0.760342 0.0111928 0)
(0.754351 0.021048 0)
(0.742245 0.0296582 0)
(0.724555 0.0372109 0)
(0.701663 0.0437782 0)
(0.806596 -0.0911714 0)
(0.845973 -0.0718831 0)
(0.875633 -0.0498852 0)
(0.895607 -0.02771 0)
(0.906815 -0.00685408 0)
(0.910323 0.0119868 0)
(0.907069 0.0287194 0)
(0.897703 0.0436535 0)
(0.882492 0.0571914 0)
(0.861364 0.0695133 0)
(0.883913 -0.13702 0)
(0.924812 -0.107897 0)
(0.953188 -0.0755867 0)
(0.97094 -0.043998 0)
(0.980557 -0.0150361 0)
(0.98397 0.0106693 0)
(0.982439 0.0334057 0)
(0.976497 0.0540063 0)
(0.965908 0.0733833 0)
(0.94975 0.092017 0)
(0.916683 -0.18371 0)
(0.95209 -0.140836 0)
(0.970797 -0.0963235 0)
(0.979086 -0.0555742 0)
(0.981993 -0.0202634 0)
(0.982324 0.00977084 0)
(0.981413 0.0358537 0)
(0.97939 0.0598695 0)
(0.975217 0.0836901 0)
(0.966631 0.1085 0)
(0.904241 -0.223895 0)
(0.922598 -0.161013 0)
(0.920424 -0.103218 0)
(0.91226 -0.0559105 0)
(0.905313 -0.0186286 0)
(0.901851 0.0109505 0)
(0.902304 0.0359637 0)
(0.90592 0.0597865 0)
(0.910711 0.0857135 0)
(0.912645 0.116476 0)
(0.833749 -0.244287 0)
(0.816595 -0.154021 0)
(0.78296 -0.0868818 0)
(0.757097 -0.0409787 0)
(0.743054 -0.00969773 0)
(0.739138 0.0128148 0)
(0.74375 0.0315488 0)
(0.755336 0.0509721 0)
(0.771828 0.0759578 0)
(0.787562 0.112858 0)
(0.674808 -0.228124 0)
(0.600336 -0.108528 0)
(0.538504 -0.0472557 0)
(0.507853 -0.0165117 0)
(0.496653 0.000289211 0)
(0.497359 0.0110906 0)
(0.507345 0.0205505 0)
(0.525811 0.0324453 0)
(0.553504 0.0523213 0)
(0.585093 0.0932754 0)
(0.358429 -0.147925 0)
(0.246381 -0.0293241 0)
(0.196414 -0.00446336 0)
(0.184392 0.000123682 0)
(0.183293 0.00185149 0)
(0.187415 0.00294319 0)
(0.196282 0.0042462 0)
(0.210803 0.00690446 0)
(0.23656 0.0159316 0)
(0.273704 0.0564965 0)
(0.168934 0.0023767 0)
(0.157663 0.00236314 0)
(0.146071 0.00227066 0)
(0.134541 0.00211678 0)
(0.123396 0.00192624 0)
(0.112873 0.00171978 0)
(0.103123 0.00151229 0)
(0.0942261 0.0013145 0)
(0.0862056 0.00113305 0)
(0.0790412 0.000971232 0)
(0.0726847 0.000829796 0)
(0.0670711 0.000708303 0)
(0.0621259 0.000605511 0)
(0.0577707 0.000520057 0)
(0.053927 0.000450315 0)
(0.0505178 0.000394848 0)
(0.047469 0.000352164 0)
(0.0447101 0.000321102 0)
(0.0421738 0.000300523 0)
(0.0397957 0.000289642 0)
(0.037514 0.000287724 0)
(0.0352683 0.000294413 0)
(0.032999 0.0003095 0)
(0.0306463 0.000333249 0)
(0.0281492 0.000366125 0)
(0.025446 0.000408785 0)
(0.0224771 0.000461108 0)
(0.0191944 0.000520696 0)
(0.0155801 0.00057964 0)
(0.0116823 0.00062007 0)
(0.00766825 0.000609181 0)
(0.00388588 0.000497304 0)
(0.000896232 0.000226101 0)
(-0.000662108 -0.000203218 0)
(-0.000492981 -0.000502864 0)
(0.450063 0.0212604 0)
(0.424885 0.0223478 0)
(0.398158 0.0226849 0)
(0.370804 0.0223245 0)
(0.343665 0.021409 0)
(0.317417 0.0201002 0)
(0.292557 0.0185477 0)
(0.26941 0.0168792 0)
(0.248153 0.0151948 0)
(0.228844 0.0135658 0)
(0.211448 0.0120394 0)
(0.195871 0.0106439 0)
(0.181978 0.00939445 0)
(0.169608 0.00829705 0)
(0.158587 0.00735162 0)
(0.148736 0.00655458 0)
(0.139876 0.00590049 0)
(0.13183 0.0053834 0)
(0.124424 0.00499758 0)
(0.11749 0.00473811 0)
(0.110862 0.0046013 0)
(0.104374 0.00458501 0)
(0.0978639 0.00468873 0)
(0.091167 0.00491335 0)
(0.0841174 0.00525966 0)
(0.0765509 0.00572469 0)
(0.0683142 0.00629344 0)
(0.0592864 0.00692359 0)
(0.0494223 0.00752135 0)
(0.0388265 0.00791173 0)
(0.0278563 0.00781677 0)
(0.0172382 0.00687917 0)
(0.00813518 0.00479938 0)
(0.00199777 0.00173937 0)
(-0.000228552 -0.00073823 0)
(0.673955 0.0491913 0)
(0.6421 0.0530606 0)
(0.607182 0.0551047 0)
(0.570496 0.0553642 0)
(0.533269 0.0541107 0)
(0.496527 0.0516939 0)
(0.461081 0.0484676 0)
(0.42752 0.0447563 0)
(0.396223 0.0408307 0)
(0.36739 0.0368989 0)
(0.34108 0.03311 0)
(0.317245 0.0295647 0)
(0.295762 0.0263265 0)
(0.276455 0.0234317 0)
(0.259116 0.0208971 0)
(0.243514 0.0187271 0)
(0.229408 0.0169183 0)
(0.216554 0.0154634 0)
(0.204705 0.0143542 0)
(0.193613 0.0135828 0)
(0.183031 0.0131438 0)
(0.172712 0.0130343 0)
(0.162404 0.0132546 0)
(0.151853 0.013807 0)
(0.140801 0.0146917 0)
(0.128989 0.0158975 0)
(0.116169 0.0173823 0)
(0.102134 0.0190391 0)
(0.0867653 0.0206426 0)
(0.0701268 0.0217848 0)
(0.0525998 0.0218277 0)
(0.0350488 0.0199454 0)
(0.0189998 0.0153954 0)
(0.00674671 0.00827312 0)
(0.000342308 0.00108813 0)
(0.834182 0.0802679 0)
(0.801326 0.0885537 0)
(0.763992 0.0936883 0)
(0.723757 0.095647 0)
(0.68209 0.0948315 0)
(0.640215 0.0917894 0)
(0.599135 0.0871041 0)
(0.559626 0.0813359 0)
(0.522232 0.0749712 0)
(0.487296 0.0683993 0)
(0.454995 0.0619134 0)
(0.425374 0.0557242 0)
(0.398376 0.0499755 0)
(0.37387 0.0447598 0)
(0.351665 0.0401313 0)
(0.331535 0.0361179 0)
(0.313226 0.0327305 0)
(0.296467 0.0299695 0)
(0.280977 0.0278312 0)
(0.266463 0.0263108 0)
(0.252627 0.0254058 0)
(0.239164 0.0251176 0)
(0.225756 0.0254524 0)
(0.212078 0.0264187 0)
(0.19779 0.0280216 0)
(0.182543 0.030247 0)
(0.165986 0.0330308 0)
(0.147789 0.0362036 0)
(0.127691 0.0394028 0)
(0.1056 0.0419588 0)
(0.0817434 0.0427916 0)
(0.056924 0.0404195 0)
(0.0329146 0.0332976 0)
(0.0130655 0.020854 0)
(0.00109029 0.00580074 0)
(0.926832 0.109293 0)
(0.896963 0.123276 0)
(0.861544 0.132598 0)
(0.822518 0.137185 0)
(0.781469 0.137611 0)
(0.739613 0.134628 0)
(0.697956 0.129048 0)
(0.657306 0.121664 0)
(0.618263 0.113176 0)
(0.581245 0.104157 0)
(0.546523 0.095054 0)
(0.514243 0.0862041 0)
(0.484444 0.07785 0)
(0.457075 0.0701602 0)
(0.432017 0.063246 0)
(0.409092 0.0571768 0)
(0.388083 0.0519932 0)
(0.368738 0.0477172 0)
(0.350782 0.044361 0)
(0.333916 0.0419331 0)
(0.317825 0.0404432 0)
(0.302176 0.0399059 0)
(0.286615 0.0403419 0)
(0.270765 0.0417771 0)
(0.254225 0.044234 0)
(0.236563 0.0477138 0)
(0.217319 0.0521554 0)
(0.196013 0.0573614 0)
(0.172178 0.0628722 0)
(0.145445 0.0677856 0)
(0.115708 0.0705443 0)
(0.0834701 0.0688123 0)
(0.050541 0.0597028 0)
(0.0214629 0.0409873 0)
(0.00214786 0.0143354 0)
(0.950633 0.133276 0)
(0.926249 0.153876 0)
(0.895714 0.167912 0)
(0.861673 0.175521 0)
(0.825658 0.177624 0)
(0.788591 0.175218 0)
(0.751247 0.169341 0)
(0.71427 0.160984 0)
(0.678163 0.151009 0)
(0.643326 0.140127 0)
(0.610071 0.128909 0)
(0.578627 0.117801 0)
(0.549134 0.107144 0)
(0.521647 0.0971881 0)
(0.496148 0.0881151 0)
(0.47255 0.0800508 0)
(0.45071 0.0730814 0)
(0.430438 0.0672657 0)
(0.411504 0.0626462 0)
(0.393643 0.0592575 0)
(0.376559 0.0571341 0)
(0.359923 0.0563154 0)
(0.343378 0.0568499 0)
(0.326526 0.058795 0)
(0.308928 0.062211 0)
(0.290091 0.0671421 0)
(0.269455 0.073573 0)
(0.246383 0.0813409 0)
(0.220161 0.0899762 0)
(0.190044 0.0984386 0)
(0.1554 0.104742 0)
(0.116089 0.105536 0)
(0.0735262 0.0959532 0)
(0.0332827 0.0706294 0)
(0.00386796 0.0280973 0)
(0.905749 0.150414 0)
(0.888221 0.178288 0)
(0.86477 0.196715 0)
(0.839193 0.206935 0)
(0.812453 0.210566 0)
(0.784742 0.208932 0)
(0.756356 0.20327 0)
(0.727606 0.194681 0)
(0.698787 0.184079 0)
(0.670215 0.17222 0)
(0.64221 0.15973 0)
(0.615068 0.147124 0)
(0.58903 0.134817 0)
(0.564268 0.123136 0)
(0.540882 0.112334 0)
(0.5189 0.102606 0)
(0.498285 0.0940943 0)
(0.478939 0.0869103 0)
(0.460709 0.0811407 0)
(0.443398 0.0768606 0)
(0.426762 0.0741421 0)
(0.410512 0.0730629 0)
(0.394319 0.0737128 0)
(0.3778 0.0761977 0)
(0.360513 0.0806375 0)
(0.341939 0.0871528 0)
(0.321454 0.0958266 0)
(0.298291 0.106616 0)
(0.271496 0.119173 0)
(0.239899 0.132504 0)
(0.202157 0.14439 0)
(0.157055 0.150505 0)
(0.104776 0.143414 0)
(0.0511145 0.112527 0)
(0.00694214 0.0493539 0)
(0.792194 0.159865 0)
(0.782537 0.195024 0)
(0.769172 0.216094 0)
(0.756707 0.227527 0)
(0.744127 0.232043 0)
(0.730394 0.231244 0)
(0.715258 0.2264 0)
(0.698707 0.218514 0)
(0.680861 0.208384 0)
(0.661986 0.196693 0)
(0.642437 0.184044 0)
(0.622589 0.170971 0)
(0.60279 0.157937 0)
(0.583331 0.145331 0)
(0.564436 0.133478 0)
(0.546258 0.122642 0)
(0.528877 0.113036 0)
(0.512303 0.104832 0)
(0.496485 0.0981741 0)
(0.481312 0.09319 0)
(0.46662 0.0900013 0)
(0.452192 0.0887353 0)
(0.437757 0.089535 0)
(0.422985 0.0925682 0)
(0.407475 0.098033 0)
(0.390734 0.106155 0)
(0.372138 0.117166 0)
(0.350868 0.131233 0)
(0.325815 0.148292 0)
(0.295447 0.167682 0)
(0.257656 0.18738 0)
(0.209712 0.202582 0)
(0.149227 0.203272 0)
(0.07998 0.171246 0)
(0.0130206 0.0831594 0)
(0.608768 0.160493 0)
(0.610669 0.200519 0)
(0.61441 0.220851 0)
(0.622413 0.231858 0)
(0.629625 0.237042 0)
(0.634055 0.237771 0)
(0.635445 0.234912 0)
(0.633813 0.229084 0)
(0.629342 0.22082 0)
(0.622399 0.210655 0)
(0.613451 0.19913 0)
(0.602983 0.186772 0)
(0.591452 0.174078 0)
(0.579261 0.161493 0)
(0.566749 0.14941 0)
(0.554182 0.138167 0)
(0.54175 0.12805 0)
(0.529575 0.1193 0)
(0.517707 0.112127 0)
(0.506136 0.106718 0)
(0.494791 0.103251 0)
(0.483546 0.101911 0)
(0.472218 0.1029 0)
(0.460564 0.106452 0)
(0.448273 0.112852 0)
(0.434942 0.122442 0)
(0.420039 0.135627 0)
(0.402832 0.152848 0)
(0.382254 0.174472 0)
(0.356686 0.200491 0)
(0.323557 0.229772 0)
(0.278701 0.258302 0)
(0.215852 0.275319 0)
(0.131874 0.255278 0)
(0.0328456 0.147651 0)
(0.358944 0.153042 0)
(0.386886 0.184586 0)
(0.420521 0.20111 0)
(0.456633 0.212826 0)
(0.487147 0.220856 0)
(0.51131 0.225416 0)
(0.529951 0.226629 0)
(0.543654 0.224667 0)
(0.552959 0.219846 0)
(0.558471 0.212608 0)
(0.560811 0.203472 0)
(0.560573 0.192979 0)
(0.558297 0.181667 0)
(0.554468 0.170042 0)
(0.549503 0.158566 0)
(0.543749 0.147649 0)
(0.537485 0.13765 0)