/*--------------------------------*- C++ -*----------------------------------*\
| =========                 |                                                 |
| \\      /  F ield         | OpenFOAM: The Open Source CFD Toolbox           |
|  \\    /   O peration     | Version:  2406                                  |
|   \\  /    A nd           | Website:  www.openfoam.com                      |
|    \\/     M anipulation  |                                                 |
\*---------------------------------------------------------------------------*/
FoamFile
{
    version     2.0;
    format      ascii;
    arch        "LSB;label=32;scalar=64";
    class       volScalarField;
    location    "954";
    object      p;
}
// * * * * * * * * * * * * * * * * * * * * * * * * * * * * * * * * * * * * * //

dimensions      [0 2 -2 0 0 0 0];

internalField   nonuniform List<scalar> 
190000
(
-0.066691
-0.0649666
-0.0642313
-0.0640736
-0.0641329
-0.0642994
-0.0645307
-0.0648018
-0.0650981
-0.0654115
-0.0657372
-0.0660725
-0.0664153
-0.0667645
-0.067119
-0.0674782
-0.0678416
-0.0682089
-0.0685798
-0.068954
-0.0693314
-0.0697118
-0.0700951
-0.0704813
-0.0708701
-0.0712617
-0.0716558
-0.0720526
-0.072452
-0.0728539
-0.0732583
-0.0736653
-0.0740748
-0.0744868
-0.0749014
-0.0753186
-0.0757383
-0.0761606
-0.0765855
-0.0770131
-0.0774433
-0.0778763
-0.0783119
-0.0787504
-0.0791916
-0.0796357
-0.0800828
-0.0805327
-0.0809857
-0.0814417
-0.0819009
-0.0823632
-0.0828288
-0.0832977
-0.08377
-0.0842458
-0.0847251
-0.085208
-0.0856947
-0.0861852
-0.0866796
-0.0871781
-0.0876807
-0.0881876
-0.0886989
-0.0892147
-0.0897353
-0.0902607
-0.0907911
-0.0913267
-0.0918677
-0.0924143
-0.0929668
-0.0935253
-0.0940902
-0.0946617
-0.0952402
-0.0958259
-0.0964194
-0.0970209
-0.0976309
-0.09825
-0.0988788
-0.0995177
-0.100168
-0.100829
-0.101503
-0.10219
-0.102892
-0.103609
-0.104342
-0.105092
-0.105862
-0.106655
-0.107479
-0.10836
-0.109346
-0.110424
-0.111578
-0.115312
-0.0648036
-0.064359
-0.0641123
-0.0640851
-0.0641827
-0.064358
-0.0645865
-0.0648514
-0.0651414
-0.0654494
-0.0657709
-0.0661027
-0.0664429
-0.0667899
-0.0671427
-0.0675006
-0.0678631
-0.0682296
-0.0685998
-0.0689736
-0.0693506
-0.0697307
-0.0701139
-0.0704999
-0.0708887
-0.0712802
-0.0716744
-0.0720713
-0.0724708
-0.0728728
-0.0732774
-0.0736846
-0.0740943
-0.0745066
-0.0749215
-0.0753389
-0.0757589
-0.0761816
-0.0766068
-0.0770347
-0.0774654
-0.0778987
-0.0783348
-0.0787736
-0.0792153
-0.0796599
-0.0801074
-0.0805579
-0.0810114
-0.081468
-0.0819277
-0.0823906
-0.0828568
-0.0833264
-0.0837993
-0.0842758
-0.0847558
-0.0852395
-0.085727
-0.0862183
-0.0867136
-0.087213
-0.0877166
-0.0882245
-0.0887368
-0.0892538
-0.0897755
-0.0903021
-0.0908339
-0.0913709
-0.0919134
-0.0924616
-0.0930158
-0.0935762
-0.094143
-0.0947167
-0.0952975
-0.0958858
-0.096482
-0.0970866
-0.0977
-0.098323
-0.098956
-0.0995998
-0.100255
-0.100923
-0.101605
-0.102302
-0.103015
-0.103747
-0.104499
-0.105276
-0.106082
-0.106926
-0.107822
-0.108799
-0.109901
-0.111192
-0.112945
-0.116203
-0.0637558
-0.0638889
-0.0639565
-0.0640452
-0.0641903
-0.0643862
-0.0646215
-0.064887
-0.0651752
-0.0654808
-0.0657998
-0.0661294
-0.0664677
-0.0668132
-0.0671648
-0.0675217
-0.0678834
-0.0682492
-0.068619
-0.0689924
-0.0693691
-0.0697491
-0.0701321
-0.070518
-0.0709068
-0.0712984
-0.0716927
-0.0720896
-0.0724892
-0.0728915
-0.0732963
-0.0737037
-0.0741136
-0.0745262
-0.0749413
-0.075359
-0.0757794
-0.0762023
-0.076628
-0.0770563
-0.0774873
-0.077921
-0.0783575
-0.0787968
-0.0792389
-0.079684
-0.080132
-0.080583
-0.081037
-0.0814941
-0.0819544
-0.0824179
-0.0828847
-0.0833549
-0.0838285
-0.0843057
-0.0847864
-0.0852709
-0.0857591
-0.0862513
-0.0867474
-0.0872477
-0.0877522
-0.0882611
-0.0887744
-0.0892925
-0.0898153
-0.0903432
-0.0908762
-0.0914146
-0.0919585
-0.0925083
-0.0930641
-0.0936262
-0.0941949
-0.0947706
-0.0953536
-0.0959443
-0.0965431
-0.0971506
-0.0977673
-0.0983937
-0.0990307
-0.099679
-0.10034
-0.101014
-0.101703
-0.102408
-0.103131
-0.103876
-0.104645
-0.105443
-0.106277
-0.107156
-0.108095
-0.109115
-0.110243
-0.111514
-0.113007
-0.114859
-0.0632608
-0.0635787
-0.0637918
-0.063962
-0.0641545
-0.0643777
-0.0646275
-0.0649001
-0.0651916
-0.0654984
-0.0658176
-0.0661469
-0.0664847
-0.0668297
-0.0671808
-0.0675372
-0.0678985
-0.0682641
-0.0686336
-0.0690068
-0.0693834
-0.0697633
-0.0701462
-0.0705322
-0.070921
-0.0713126
-0.071707
-0.0721041
-0.0725039
-0.0729062
-0.0733112
-0.0737188
-0.074129
-0.0745418
-0.0749571
-0.0753751
-0.0757957
-0.076219
-0.0766449
-0.0770735
-0.0775048
-0.0779389
-0.0783757
-0.0788154
-0.0792579
-0.0797033
-0.0801517
-0.0806031
-0.0810576
-0.0815151
-0.0819759
-0.0824399
-0.0829072
-0.0833778
-0.083852
-0.0843297
-0.084811
-0.085296
-0.0857849
-0.0862777
-0.0867745
-0.0872754
-0.0877806
-0.0882903
-0.0888044
-0.0893233
-0.089847
-0.0903757
-0.0909097
-0.0914491
-0.0919941
-0.0925449
-0.0931019
-0.0936653
-0.0942354
-0.0948125
-0.095397
-0.0959894
-0.09659
-0.0971994
-0.0978182
-0.0984469
-0.0990865
-0.0997377
-0.100401
-0.101079
-0.101772
-0.102482
-0.103211
-0.103962
-0.104738
-0.105544
-0.106384
-0.107267
-0.108201
-0.109194
-0.110251
-0.111364
-0.112503
-0.113595
-0.062959
-0.063354
-0.0636451
-0.0638726
-0.0641044
-0.0643532
-0.0646188
-0.0649007
-0.0651975
-0.0655073
-0.0658281
-0.0661582
-0.0664963
-0.0668413
-0.0671924
-0.0675488
-0.0679099
-0.0682754
-0.0686448
-0.0690179
-0.0693945
-0.0697744
-0.0701574
-0.0705433
-0.0709322
-0.071324
-0.0717185
-0.0721157
-0.0725155
-0.0729181
-0.0733232
-0.073731
-0.0741413
-0.0745543
-0.0749699
-0.0753881
-0.075809
-0.0762324
-0.0766586
-0.0770875
-0.077519
-0.0779534
-0.0783905
-0.0788305
-0.0792733
-0.0797191
-0.0801678
-0.0806195
-0.0810743
-0.0815322
-0.0819933
-0.0824577
-0.0829253
-0.0833964
-0.083871
-0.0843491
-0.0848308
-0.0853163
-0.0858056
-0.0862989
-0.0867962
-0.0872977
-0.0878034
-0.0883136
-0.0888283
-0.0893478
-0.0898721
-0.0904014
-0.0909361
-0.0914761
-0.0920218
-0.0925734
-0.0931312
-0.0936954
-0.0942663
-0.0948443
-0.0954297
-0.096023
-0.0966246
-0.097235
-0.0978548
-0.0984847
-0.0991254
-0.0997777
-0.100443
-0.101121
-0.101815
-0.102526
-0.103255
-0.104005
-0.104779
-0.10558
-0.10641
-0.107273
-0.108171
-0.1091
-0.110049
-0.110988
-0.111858
-0.11256
-0.0627518
-0.0631834
-0.063521
-0.0637885
-0.064051
-0.0643218
-0.0646022
-0.0648936
-0.0651965
-0.0655101
-0.0658332
-0.0661647
-0.0665036
-0.0668491
-0.0672004
-0.0675569
-0.0679181
-0.0682836
-0.068653
-0.0690262
-0.0694028
-0.0697827
-0.0701657
-0.0705518
-0.0709407
-0.0713325
-0.0717271
-0.0721244
-0.0725244
-0.0729271
-0.0733324
-0.0737403
-0.0741508
-0.074564
-0.0749797
-0.0753981
-0.0758191
-0.0762428
-0.0766692
-0.0770982
-0.07753
-0.0779646
-0.0784019
-0.0788421
-0.0792852
-0.0797312
-0.0801801
-0.0806321
-0.0810872
-0.0815453
-0.0820067
-0.0824714
-0.0829393
-0.0834107
-0.0838855
-0.0843639
-0.084846
-0.0853318
-0.0858214
-0.086315
-0.0868126
-0.0873144
-0.0878205
-0.088331
-0.088846
-0.0893658
-0.0898905
-0.0904202
-0.0909552
-0.0914956
-0.0920416
-0.0925935
-0.0931516
-0.0937161
-0.0942873
-0.0948655
-0.0954512
-0.0960446
-0.0966463
-0.0972567
-0.0978764
-0.0985061
-0.0991462
-0.0997978
-0.100462
-0.101139
-0.10183
-0.102537
-0.103262
-0.104005
-0.104768
-0.105552
-0.106359
-0.107186
-0.10803
-0.10888
-0.109716
-0.1105
-0.111175
-0.111653
-0.0626022
-0.0630501
-0.0634156
-0.0637109
-0.063997
-0.0642862
-0.06458
-0.0648807
-0.0651899
-0.0655077
-0.0658336
-0.0661669
-0.0665071
-0.0668533
-0.067205
-0.0675618
-0.0679232
-0.0682888
-0.0686583
-0.0690315
-0.0694082
-0.0697881
-0.0701712
-0.0705573
-0.0709463
-0.0713382
-0.0717329
-0.0721303
-0.0725304
-0.0729331
-0.0733385
-0.0737465
-0.0741572
-0.0745704
-0.0749863
-0.0754048
-0.075826
-0.0762498
-0.0766763
-0.0771055
-0.0775375
-0.0779722
-0.0784097
-0.07885
-0.0792933
-0.0797394
-0.0801885
-0.0806406
-0.0810959
-0.0815542
-0.0820157
-0.0824805
-0.0829486
-0.0834202
-0.0838952
-0.0843737
-0.0848559
-0.0853418
-0.0858316
-0.0863253
-0.0868231
-0.087325
-0.0878312
-0.0883418
-0.0888569
-0.0893768
-0.0899015
-0.0904312
-0.0909662
-0.0915065
-0.0920525
-0.0926043
-0.0931621
-0.0937264
-0.0942972
-0.094875
-0.0954601
-0.0960528
-0.0966536
-0.0972629
-0.0978812
-0.098509
-0.099147
-0.0997957
-0.100456
-0.101129
-0.101814
-0.102514
-0.103228
-0.103957
-0.104702
-0.105462
-0.106235
-0.107017
-0.107799
-0.108568
-0.109298
-0.109955
-0.110487
-0.110831
-0.0624864
-0.062941
-0.0633238
-0.0636385
-0.0639429
-0.0642475
-0.0645532
-0.0648628
-0.0651784
-0.0655007
-0.0658297
-0.0661651
-0.0665067
-0.0668539
-0.0672063
-0.0675635
-0.0679252
-0.068291
-0.0686606
-0.0690339
-0.0694106
-0.0697906
-0.0701737
-0.0705599
-0.0709489
-0.0713409
-0.0717356
-0.072133
-0.0725331
-0.072936
-0.0733414
-0.0737495
-0.0741602
-0.0745735
-0.0749895
-0.0754081
-0.0758293
-0.0762532
-0.0766798
-0.0771091
-0.0775411
-0.0779759
-0.0784134
-0.0788539
-0.0792971
-0.0797434
-0.0801925
-0.0806447
-0.0811
-0.0815584
-0.0820199
-0.0824848
-0.0829529
-0.0834244
-0.0838994
-0.084378
-0.0848602
-0.0853461
-0.0858358
-0.0863294
-0.0868271
-0.0873289
-0.0878349
-0.0883453
-0.0888603
-0.0893799
-0.0899043
-0.0904337
-0.0909682
-0.0915081
-0.0920535
-0.0926047
-0.0931618
-0.0937252
-0.094295
-0.0948716
-0.0954553
-0.0960463
-0.0966452
-0.0972521
-0.0978676
-0.0984921
-0.099126
-0.0997699
-0.100424
-0.101089
-0.101766
-0.102454
-0.103153
-0.103864
-0.104586
-0.105315
-0.106049
-0.10678
-0.107499
-0.10819
-0.108828
-0.109383
-0.109813
-0.110074
-0.0623899
-0.0628474
-0.0632412
-0.0635698
-0.0638884
-0.064206
-0.0645223
-0.0648402
-0.065162
-0.0654889
-0.0658213
-0.0661591
-0.0665024
-0.0668508
-0.067204
-0.0675618
-0.0679238
-0.0682899
-0.0686597
-0.0690331
-0.0694099
-0.0697899
-0.0701731
-0.0705592
-0.0709483
-0.0713402
-0.071735
-0.0721324
-0.0725326
-0.0729354
-0.0733409
-0.073749
-0.0741597
-0.074573
-0.074989
-0.0754076
-0.0758288
-0.0762527
-0.0766793
-0.0771086
-0.0775406
-0.0779754
-0.0784129
-0.0788533
-0.0792966
-0.0797427
-0.0801918
-0.080644
-0.0810992
-0.0815575
-0.0820189
-0.0824837
-0.0829517
-0.0834231
-0.0838979
-0.0843763
-0.0848583
-0.0853439
-0.0858334
-0.0863267
-0.0868241
-0.0873255
-0.0878311
-0.0883411
-0.0888555
-0.0893746
-0.0898983
-0.090427
-0.0909607
-0.0914997
-0.092044
-0.092594
-0.0931498
-0.0937116
-0.0942797
-0.0948543
-0.0954357
-0.0960241
-0.0966199
-0.0972233
-0.0978346
-0.0984542
-0.0990823
-0.0997192
-0.100365
-0.10102
-0.101685
-0.102358
-0.103039
-0.103728
-0.104422
-0.105117
-0.105809
-0.106489
-0.107148
-0.107768
-0.108328
-0.108803
-0.10916
-0.109369
-0.0623046
-0.0627632
-0.0631647
-0.0635034
-0.0638331
-0.0641614
-0.0644871
-0.0648127
-0.0651406
-0.0654722
-0.0658081
-0.0661486
-0.0664938
-0.0668436
-0.0671978
-0.0675563
-0.0679188
-0.0682852
-0.0686553
-0.0690288
-0.0694057
-0.0697858
-0.070169
-0.0705552
-0.0709442
-0.0713361
-0.0717308
-0.0721283
-0.0725284
-0.0729312
-0.0733366
-0.0737447
-0.0741553
-0.0745686
-0.0749845
-0.0754031
-0.0758242
-0.0762481
-0.0766746
-0.0771037
-0.0775357
-0.0779703
-0.0784078
-0.078848
-0.0792911
-0.0797371
-0.0801861
-0.0806381
-0.081093
-0.0815511
-0.0820124
-0.0824768
-0.0829446
-0.0834157
-0.0838902
-0.0843682
-0.0848497
-0.085335
-0.0858239
-0.0863168
-0.0868135
-0.0873143
-0.0878193
-0.0883285
-0.0888421
-0.0893602
-0.0898829
-0.0904104
-0.0909429
-0.0914805
-0.0920233
-0.0925715
-0.0931253
-0.0936849
-0.0942505
-0.0948223
-0.0954005
-0.0959853
-0.0965769
-0.0971755
-0.0977813
-0.0983944
-0.099015
-0.0996432
-0.100279
-0.100922
-0.101571
-0.102227
-0.102888
-0.103552
-0.104215
-0.104875
-0.105525
-0.106156
-0.106758
-0.107316
-0.107812
-0.108224
-0.108528
-0.108703
-0.0622256
-0.0626848
-0.0630918
-0.063438
-0.0637764
-0.0641137
-0.0644476
-0.0647802
-0.065114
-0.0654503
-0.0657899
-0.0661332
-0.0664805
-0.0668319
-0.0671873
-0.0675467
-0.0679098
-0.0682767
-0.068647
-0.0690208
-0.0693978
-0.069778
-0.0701612
-0.0705473
-0.0709364
-0.0713283
-0.0717229
-0.0721203
-0.0725203
-0.072923
-0.0733283
-0.0737363
-0.0741469
-0.07456
-0.0749758
-0.0753942
-0.0758152
-0.0762389
-0.0766652
-0.0770942
-0.077526
-0.0779604
-0.0783977
-0.0788377
-0.0792805
-0.0797263
-0.080175
-0.0806266
-0.0810812
-0.081539
-0.0819998
-0.0824639
-0.0829312
-0.0834018
-0.0838757
-0.0843532
-0.0848341
-0.0853187
-0.085807
-0.086299
-0.0867949
-0.0872948
-0.0877988
-0.0883069
-0.0888193
-0.0893361
-0.0898574
-0.0903834
-0.0909141
-0.0914498
-0.0919905
-0.0925364
-0.0930876
-0.0936444
-0.0942067
-0.0947749
-0.095349
-0.0959292
-0.0965155
-0.0971081
-0.0977071
-0.0983125
-0.0989241
-0.0995418
-0.100165
-0.100794
-0.101427
-0.102064
-0.102702
-0.103339
-0.103972
-0.104596
-0.105205
-0.10579
-0.106341
-0.106846
-0.107288
-0.107651
-0.107916
-0.10807
-0.0621499
-0.0626095
-0.0630209
-0.0633727
-0.0637179
-0.0640627
-0.0644038
-0.0647428
-0.065082
-0.0654229
-0.0657662
-0.0661125
-0.0664621
-0.0668153
-0.067172
-0.0675324
-0.0678964
-0.0682638
-0.0686345
-0.0690085
-0.0693857
-0.069766
-0.0701493
-0.0705355
-0.0709245
-0.0713163
-0.0717109
-0.0721081
-0.072508
-0.0729106
-0.0733158
-0.0737236
-0.074134
-0.0745469
-0.0749625
-0.0753807
-0.0758015
-0.076225
-0.076651
-0.0770798
-0.0775112
-0.0779454
-0.0783823
-0.0788219
-0.0792644
-0.0797098
-0.080158
-0.0806092
-0.0810634
-0.0815206
-0.0819809
-0.0824444
-0.082911
-0.083381
-0.0838542
-0.0843309
-0.084811
-0.0852947
-0.085782
-0.086273
-0.0867678
-0.0872665
-0.0877692
-0.0882759
-0.0887867
-0.0893019
-0.0898213
-0.0903453
-0.0908739
-0.0914071
-0.0919452
-0.0924882
-0.0930362
-0.0935894
-0.0941478
-0.0947115
-0.0952807
-0.0958553
-0.0964354
-0.097021
-0.097612
-0.0982083
-0.0988096
-0.0994155
-0.100025
-0.100639
-0.101254
-0.10187
-0.102484
-0.103095
-0.103696
-0.104286
-0.104856
-0.105399
-0.105905
-0.106364
-0.106762
-0.107086
-0.107323
-0.107461
-0.0620755
-0.0625356
-0.0629505
-0.0633066
-0.0636572
-0.0640082
-0.0643555
-0.0647002
-0.0650445
-0.0653898
-0.0657368
-0.0660861
-0.0664382
-0.0667933
-0.0671516
-0.0675132
-0.067878
-0.0682461
-0.0686173
-0.0689917
-0.0693692
-0.0697496
-0.0701329
-0.0705191
-0.0709081
-0.0712998
-0.0716943
-0.0720914
-0.0724912
-0.0728936
-0.0732986
-0.0737062
-0.0741163
-0.074529
-0.0749444
-0.0753623
-0.0757828
-0.0762059
-0.0766316
-0.07706
-0.077491
-0.0779248
-0.0783612
-0.0788004
-0.0792424
-0.0796873
-0.080135
-0.0805856
-0.0810391
-0.0814957
-0.0819553
-0.082418
-0.0828838
-0.0833529
-0.0838252
-0.0843009
-0.08478
-0.0852625
-0.0857486
-0.0862384
-0.0867318
-0.0872289
-0.0877299
-0.0882349
-0.0887439
-0.0892569
-0.0897742
-0.0902957
-0.0908216
-0.091352
-0.0918869
-0.0924264
-0.0929706
-0.0935195
-0.0940732
-0.0946318
-0.0951952
-0.0957634
-0.0963364
-0.096914
-0.097496
-0.0980821
-0.098672
-0.0992649
-0.0998603
-0.100457
-0.101053
-0.101648
-0.102239
-0.102822
-0.103394
-0.103949
-0.104483
-0.104988
-0.105455
-0.105875
-0.106237
-0.106531
-0.106746
-0.106875
-0.0620011
-0.0624616
-0.0628795
-0.063239
-0.063594
-0.0639501
-0.0643028
-0.0646526
-0.0650015
-0.0653509
-0.0657015
-0.0660538
-0.0664084
-0.0667656
-0.0671256
-0.0674884
-0.0678543
-0.0682232
-0.068595
-0.0689699
-0.0693476
-0.0697282
-0.0701117
-0.0704979
-0.0708869
-0.0712786
-0.0716729
-0.0720699
-0.0724695
-0.0728717
-0.0732764
-0.0736837
-0.0740936
-0.074506
-0.074921
-0.0753385
-0.0757586
-0.0761813
-0.0766066
-0.0770345
-0.0774651
-0.0778983
-0.0783342
-0.0787729
-0.0792142
-0.0796584
-0.0801054
-0.0805553
-0.0810081
-0.0814638
-0.0819225
-0.0823843
-0.0828491
-0.0833171
-0.0837883
-0.0842628
-0.0847406
-0.0852218
-0.0857064
-0.0861946
-0.0866863
-0.0871816
-0.0876807
-0.0881836
-0.0886903
-0.0892009
-0.0897155
-0.0902342
-0.090757
-0.091284
-0.0918151
-0.0923506
-0.0928904
-0.0934345
-0.0939829
-0.0945356
-0.0950925
-0.0956535
-0.0962185
-0.0967872
-0.0973593
-0.0979344
-0.098512
-0.0990911
-0.099671
-0.10025
-0.100828
-0.101401
-0.101967
-0.102524
-0.103067
-0.103592
-0.104093
-0.104564
-0.104996
-0.105383
-0.105715
-0.105984
-0.106183
-0.106306
-0.0619256
-0.0623868
-0.0628072
-0.0631694
-0.0635278
-0.0638883
-0.0642456
-0.0645998
-0.064953
-0.0653063
-0.0656602
-0.0660155
-0.0663726
-0.0667319
-0.0670936
-0.0674579
-0.0678249
-0.0681947
-0.0685672
-0.0689426
-0.0693207
-0.0697016
-0.0700852
-0.0704715
-0.0708605
-0.0712521
-0.0716463
-0.0720431
-0.0724425
-0.0728445
-0.0732489
-0.0736559
-0.0740654
-0.0744775
-0.0748921
-0.0753092
-0.0757288
-0.076151
-0.0765758
-0.0770032
-0.0774331
-0.0778657
-0.0783009
-0.0787389
-0.0791795
-0.0796229
-0.0800691
-0.080518
-0.0809699
-0.0814246
-0.0818823
-0.0823429
-0.0828066
-0.0832734
-0.0837432
-0.0842163
-0.0846926
-0.0851721
-0.085655
-0.0861413
-0.0866311
-0.0871243
-0.0876211
-0.0881215
-0.0886256
-0.0891334
-0.089645
-0.0901604
-0.0906796
-0.0912028
-0.0917298
-0.0922607
-0.0927955
-0.0933341
-0.0938766
-0.0944228
-0.0949725
-0.0955257
-0.096082
-0.0966411
-0.0972026
-0.0977659
-0.0983305
-0.0988952
-0.0994592
-0.100021
-0.100579
-0.101131
-0.101674
-0.102205
-0.102721
-0.103217
-0.103688
-0.104128
-0.104531
-0.10489
-0.105197
-0.105447
-0.105633
-0.105751
-0.0618484
-0.0623102
-0.0627329
-0.0630973
-0.0634585
-0.0638227
-0.0641839
-0.064542
-0.064899
-0.0652558
-0.065613
-0.0659711
-0.0663307
-0.0666921
-0.0670556
-0.0674214
-0.0677896
-0.0681603
-0.0685336
-0.0689096
-0.0692881
-0.0696693
-0.0700531
-0.0704396
-0.0708285
-0.0712201
-0.0716142
-0.0720109
-0.07241
-0.0728117
-0.0732158
-0.0736225
-0.0740316
-0.0744432
-0.0748573
-0.0752739
-0.075693
-0.0761146
-0.0765388
-0.0769655
-0.0773948
-0.0778266
-0.0782611
-0.0786982
-0.0791379
-0.0795804
-0.0800256
-0.0804735
-0.0809243
-0.0813779
-0.0818343
-0.0822937
-0.082756
-0.0832212
-0.0836896
-0.084161
-0.0846355
-0.0851132
-0.0855941
-0.0860783
-0.0865658
-0.0870566
-0.0875509
-0.0880485
-0.0885497
-0.0890543
-0.0895624
-0.0900741
-0.0905894
-0.0911082
-0.0916305
-0.0921564
-0.0926857
-0.0932184
-0.0937543
-0.0942934
-0.0948354
-0.0953801
-0.0959271
-0.096476
-0.0970264
-0.0975775
-0.0981285
-0.0986785
-0.0992263
-0.0997703
-0.100309
-0.10084
-0.10136
-0.101868
-0.102358
-0.102828
-0.103272
-0.103685
-0.104062
-0.104396
-0.104684
-0.104918
-0.105094
-0.10521
-0.0617689
-0.0622312
-0.0626561
-0.0630222
-0.0633858
-0.063753
-0.0641176
-0.0644792
-0.0648395
-0.0651995
-0.0655597
-0.0659205
-0.0662825
-0.0666459
-0.0670112
-0.0673785
-0.067748
-0.0681198
-0.0684939
-0.0688705
-0.0692496
-0.0696311
-0.0700152
-0.0704017
-0.0707907
-0.0711823
-0.0715763
-0.0719727
-0.0723716
-0.072773
-0.0731768
-0.073583
-0.0739917
-0.0744028
-0.0748164
-0.0752324
-0.0756509
-0.0760719
-0.0764953
-0.0769213
-0.0773498
-0.0777808
-0.0782143
-0.0786505
-0.0790893
-0.0795307
-0.0799747
-0.0804215
-0.080871
-0.0813232
-0.0817783
-0.0822362
-0.0826969
-0.0831605
-0.0836271
-0.0840966
-0.0845692
-0.0850448
-0.0855235
-0.0860053
-0.0864902
-0.0869784
-0.0874697
-0.0879643
-0.0884621
-0.0889632
-0.0894675
-0.0899752
-0.090486
-0.0910001
-0.0915174
-0.0920377
-0.0925611
-0.0930873
-0.0936163
-0.0941478
-0.0946815
-0.0952172
-0.0957545
-0.0962927
-0.0968315
-0.09737
-0.0979073
-0.0984423
-0.0989739
-0.0995004
-0.10002
-0.100531
-0.10103
-0.101514
-0.101981
-0.102426
-0.102846
-0.103235
-0.10359
-0.103904
-0.104174
-0.104395
-0.104565
-0.104679
-0.0616865
-0.0621495
-0.0625762
-0.0629439
-0.0633093
-0.0636791
-0.0640466
-0.0644113
-0.0647746
-0.0651375
-0.0655004
-0.0658637
-0.0662279
-0.0665934
-0.0669605
-0.0673293
-0.0677
-0.0680729
-0.0684479
-0.0688252
-0.0692048
-0.0695867
-0.069971
-0.0703577
-0.0707468
-0.0711383
-0.0715322
-0.0719284
-0.0723271
-0.0727281
-0.0731315
-0.0735373
-0.0739455
-0.0743561
-0.0747691
-0.0751845
-0.0756023
-0.0760225
-0.0764452
-0.0768703
-0.0772978
-0.0777279
-0.0781605
-0.0785956
-0.0790332
-0.0794734
-0.0799162
-0.0803616
-0.0808097
-0.0812605
-0.081714
-0.0821702
-0.0826292
-0.083091
-0.0835556
-0.084023
-0.0844934
-0.0849667
-0.0854429
-0.085922
-0.0864042
-0.0868893
-0.0873775
-0.0878687
-0.0883629
-0.0888601
-0.0893603
-0.0898635
-0.0903696
-0.0908785
-0.0913903
-0.0919047
-0.0924217
-0.0929411
-0.0934626
-0.0939861
-0.0945112
-0.0950375
-0.0955646
-0.0960919
-0.0966188
-0.0971444
-0.0976678
-0.098188
-0.0987035
-0.0992128
-0.099714
-0.100205
-0.100684
-0.101147
-0.101592
-0.102015
-0.102413
-0.102781
-0.103116
-0.103413
-0.103669
-0.10388
-0.104043
-0.104158
-0.061601
-0.0620645
-0.062493
-0.0628619
-0.0632289
-0.063601
-0.063971
-0.0643382
-0.0647042
-0.0650697
-0.0654351
-0.0658008
-0.0661671
-0.0665346
-0.0669033
-0.0672736
-0.0676456
-0.0680195
-0.0683954
-0.0687734
-0.0691535
-0.0695359
-0.0699205
-0.0703074
-0.0706965
-0.071088
-0.0714817
-0.0718778
-0.0722761
-0.0726768
-0.0730798
-0.0734852
-0.0738928
-0.0743028
-0.0747151
-0.0751298
-0.0755469
-0.0759663
-0.076388
-0.0768122
-0.0772388
-0.0776678
-0.0780992
-0.0785331
-0.0789695
-0.0794084
-0.0798498
-0.0802938
-0.0807403
-0.0811894
-0.0816412
-0.0820956
-0.0825526
-0.0830124
-0.0834748
-0.08394
-0.0844079
-0.0848786
-0.0853521
-0.0858284
-0.0863074
-0.0867893
-0.087274
-0.0877615
-0.0882518
-0.0887448
-0.0892406
-0.089739
-0.09024
-0.0907435
-0.0912494
-0.0917576
-0.0922678
-0.09278
-0.0932937
-0.0938089
-0.094325
-0.0948416
-0.0953583
-0.0958744
-0.0963892
-0.0969019
-0.0974115
-0.0979168
-0.0984165
-0.0989091
-0.0993927
-0.0998653
-0.100325
-0.100768
-0.101193
-0.101596
-0.101974
-0.102324
-0.102641
-0.102924
-0.103167
-0.10337
-0.103529
-0.103644
-0.0615119
-0.061976
-0.062406
-0.0627761
-0.0631444
-0.0635184
-0.0638906
-0.0642601
-0.0646285
-0.0649963
-0.0653639
-0.0657317
-0.0661001
-0.0664693
-0.0668396
-0.0672113
-0.0675846
-0.0679595
-0.0683363
-0.068715
-0.0690957
-0.0694785
-0.0698634
-0.0702505
-0.0706397
-0.0710311
-0.0714247
-0.0718205
-0.0722186
-0.0726189
-0.0730215
-0.0734263
-0.0738334
-0.0742427
-0.0746544
-0.0750683
-0.0754844
-0.0759029
-0.0763238
-0.0767469
-0.0771724
-0.0776002
-0.0780305
-0.0784631
-0.0788981
-0.0793355
-0.0797754
-0.0802177
-0.0806626
-0.0811099
-0.0815597
-0.0820121
-0.082467
-0.0829245
-0.0833846
-0.0838473
-0.0843126
-0.0847805
-0.0852511
-0.0857242
-0.0862
-0.0866784
-0.0871593
-0.0876429
-0.088129
-0.0886175
-0.0891085
-0.0896018
-0.0900974
-0.0905952
-0.0910949
-0.0915965
-0.0920997
-0.0926043
-0.09311
-0.0936165
-0.0941233
-0.0946301
-0.0951362
-0.095641
-0.0961437
-0.0966435
-0.0971394
-0.0976301
-0.0981145
-0.0985909
-0.0990576
-0.0995126
-0.0999539
-0.100379
-0.100785
-0.10117
-0.101531
-0.101864
-0.102167
-0.102436
-0.10267
-0.102865
-0.103021
-0.103137
-0.061419
-0.0618837
-0.0623152
-0.0626862
-0.0630556
-0.0634312
-0.0638053
-0.0641769
-0.0645473
-0.0649172
-0.0652868
-0.0656566
-0.0660268
-0.0663976
-0.0667695
-0.0671426
-0.067517
-0.067893
-0.0682706
-0.06865
-0.0690313
-0.0694145
-0.0697997
-0.0701869
-0.0705761
-0.0709675
-0.071361
-0.0717566
-0.0721544
-0.0725543
-0.0729563
-0.0733606
-0.0737671
-0.0741757
-0.0745865
-0.0749996
-0.0754149
-0.0758324
-0.0762522
-0.0766742
-0.0770985
-0.0775251
-0.077954
-0.0783852
-0.0788187
-0.0792546
-0.0796928
-0.0801334
-0.0805763
-0.0810217
-0.0814695
-0.0819197
-0.0823724
-0.0828274
-0.083285
-0.083745
-0.0842074
-0.0846724
-0.0851397
-0.0856095
-0.0860818
-0.0865564
-0.0870334
-0.0875127
-0.0879943
-0.0884782
-0.0889641
-0.0894521
-0.089942
-0.0904337
-0.090927
-0.0914217
-0.0919176
-0.0924145
-0.0929119
-0.0934095
-0.093907
-0.0944037
-0.0948991
-0.0953925
-0.0958832
-0.0963703
-0.0968527
-0.0973292
-0.0977987
-0.0982595
-0.0987101
-0.0991486
-0.099573
-0.0999811
-0.100371
-0.100739
-0.101084
-0.101402
-0.101692
-0.10195
-0.102175
-0.102365
-0.102519
-0.102635
-0.0613222
-0.0617873
-0.0622202
-0.062592
-0.0629624
-0.0633394
-0.0637152
-0.0640885
-0.0644607
-0.0648324
-0.0652039
-0.0655754
-0.0659473
-0.0663197
-0.066693
-0.0670673
-0.0674429
-0.0678198
-0.0681982
-0.0685783
-0.0689601
-0.0693437
-0.0697292
-0.0701165
-0.0705059
-0.0708972
-0.0712905
-0.0716858
-0.0720832
-0.0724827
-0.0728843
-0.0732879
-0.0736937
-0.0741016
-0.0745116
-0.0749238
-0.0753381
-0.0757545
-0.0761732
-0.076594
-0.077017
-0.0774423
-0.0778697
-0.0782994
-0.0787313
-0.0791655
-0.0796019
-0.0800406
-0.0804816
-0.0809248
-0.0813704
-0.0818183
-0.0822685
-0.082721
-0.0831758
-0.0836329
-0.0840924
-0.0845541
-0.0850181
-0.0854843
-0.0859528
-0.0864235
-0.0868963
-0.0873712
-0.0878481
-0.0883269
-0.0888076
-0.08929
-0.089774
-0.0902594
-0.0907461
-0.0912337
-0.0917221
-0.092211
-0.0926999
-0.0931886
-0.0936765
-0.0941631
-0.0946478
-0.09513
-0.0956087
-0.0960832
-0.0965525
-0.0970153
-0.0974704
-0.0979163
-0.0983517
-0.0987746
-0.0991832
-0.0995756
-0.0999496
-0.100303
-0.100634
-0.100939
-0.101217
-0.101466
-0.101684
-0.101869
-0.102021
-0.102139
-0.0612211
-0.0616868
-0.0621209
-0.0624934
-0.0628646
-0.0632428
-0.0636201
-0.0639949
-0.0643687
-0.0647421
-0.0651153
-0.0654884
-0.0658617
-0.0662355
-0.0666101
-0.0669856
-0.0673622
-0.06774
-0.0681192
-0.0684999
-0.0688822
-0.0692662
-0.0696519
-0.0700394
-0.0704287
-0.0708199
-0.0712131
-0.0716081
-0.0720052
-0.0724042
-0.0728052
-0.0732082
-0.0736132
-0.0740203
-0.0744294
-0.0748406
-0.0752539
-0.0756692
-0.0760867
-0.0765062
-0.0769279
-0.0773516
-0.0777775
-0.0782056
-0.0786358
-0.0790681
-0.0795026
-0.0799393
-0.0803782
-0.0808192
-0.0812624
-0.0817078
-0.0821554
-0.0826052
-0.0830571
-0.0835112
-0.0839674
-0.0844257
-0.0848862
-0.0853487
-0.0858132
-0.0862797
-0.0867481
-0.0872184
-0.0876904
-0.088164
-0.0886392
-0.0891159
-0.0895937
-0.0900727
-0.0905525
-0.0910329
-0.0915136
-0.0919943
-0.0924747
-0.0929543
-0.0934326
-0.0939092
-0.0943832
-0.0948542
-0.0953212
-0.0957835
-0.0962399
-0.0966894
-0.0971307
-0.0975625
-0.0979834
-0.0983917
-0.0987857
-0.0991635
-0.0995234
-0.0998632
-0.100181
-0.100475
-0.100743
-0.100984
-0.101196
-0.101377
-0.101527
-0.101646
-0.0611158
-0.0615819
-0.0620172
-0.0623904
-0.0627622
-0.0631415
-0.06352
-0.0638962
-0.0642714
-0.0646463
-0.0650209
-0.0653954
-0.0657701
-0.0661452
-0.066521
-0.0668975
-0.0672751
-0.0676537
-0.0680336
-0.0684149
-0.0687977
-0.069182
-0.0695679
-0.0699555
-0.0703448
-0.0707359
-0.0711288
-0.0715235
-0.0719201
-0.0723186
-0.072719
-0.0731213
-0.0735256
-0.0739318
-0.07434
-0.0747502
-0.0751623
-0.0755765
-0.0759926
-0.0764108
-0.076831
-0.0772532
-0.0776775
-0.0781038
-0.0785321
-0.0789625
-0.079395
-0.0798296
-0.0802662
-0.0807048
-0.0811455
-0.0815883
-0.0820331
-0.08248
-0.0829289
-0.0833798
-0.0838326
-0.0842874
-0.0847441
-0.0852027
-0.0856631
-0.0861252
-0.0865891
-0.0870545
-0.0875214
-0.0879897
-0.0884592
-0.0889299
-0.0894015
-0.0898738
-0.0903466
-0.0908196
-0.0912925
-0.0917651
-0.0922368
-0.0927073
-0.0931761
-0.0936426
-0.0941062
-0.0945661
-0.0950217
-0.0954719
-0.0959159
-0.0963526
-0.0967808
-0.0971992
-0.0976065
-0.098001
-0.0983814
-0.0987459
-0.0990928
-0.0994203
-0.0997268
-0.10001
-0.10027
-0.100503
-0.10071
-0.100888
-0.101037
-0.101158
-0.0610061
-0.0614726
-0.061909
-0.0622827
-0.0626551
-0.0630353
-0.063415
-0.0637924
-0.0641688
-0.064545
-0.0649208
-0.0652966
-0.0656725
-0.0660488
-0.0664256
-0.0668032
-0.0671816
-0.067561
-0.0679415
-0.0683233
-0.0687065
-0.069091
-0.0694771
-0.0698648
-0.070254
-0.070645
-0.0710376
-0.071432
-0.0718281
-0.072226
-0.0726258
-0.0730274
-0.0734308
-0.0738361
-0.0742433
-0.0746523
-0.0750633
-0.0754762
-0.075891
-0.0763077
-0.0767263
-0.0771469
-0.0775695
-0.0779939
-0.0784204
-0.0788487
-0.0792791
-0.0797114
-0.0801456
-0.0805817
-0.0810198
-0.0814599
-0.0819018
-0.0823456
-0.0827913
-0.0832388
-0.0836881
-0.0841392
-0.084592
-0.0850465
-0.0855026
-0.0859603
-0.0864193
-0.0868798
-0.0873414
-0.0878042
-0.088268
-0.0887325
-0.0891977
-0.0896632
-0.0901289
-0.0905944
-0.0910595
-0.0915238
-0.0919869
-0.0924484
-0.0929077
-0.0933642
-0.0938174
-0.0942666
-0.0947109
-0.0951496
-0.0955817
-0.0960061
-0.0964217
-0.0968274
-0.0972218
-0.0976036
-0.0979713
-0.0983235
-0.0986585
-0.0989749
-0.099271
-0.0995455
-0.099797
-0.100024
-0.100226
-0.100402
-0.100551
-0.100673
-0.0608919
-0.0613589
-0.0617962
-0.0621705
-0.0625433
-0.0629244
-0.063305
-0.0636834
-0.064061
-0.0644382
-0.0648152
-0.0651921
-0.0655691
-0.0659464
-0.0663242
-0.0667026
-0.0670818
-0.0674619
-0.067843
-0.0682252
-0.0686087
-0.0689935
-0.0693797
-0.0697674
-0.0701565
-0.0705473
-0.0709396
-0.0713335
-0.0717292
-0.0721265
-0.0725256
-0.0729264
-0.0733289
-0.0737332
-0.0741393
-0.0745472
-0.0749569
-0.0753685
-0.0757818
-0.076197
-0.076614
-0.0770329
-0.0774536
-0.0778762
-0.0783005
-0.0787268
-0.0791549
-0.0795848
-0.0800165
-0.08045
-0.0808854
-0.0813225
-0.0817614
-0.0822021
-0.0826444
-0.0830884
-0.0835341
-0.0839814
-0.0844301
-0.0848804
-0.0853321
-0.085785
-0.0862392
-0.0866945
-0.0871508
-0.087608
-0.0880658
-0.0885241
-0.0889827
-0.0894414
-0.0898999
-0.090358
-0.0908152
-0.0912712
-0.0917257
-0.0921782
-0.092628
-0.0930748
-0.0935179
-0.0939565
-0.09439
-0.0948174
-0.095238
-0.0956506
-0.0960544
-0.096448
-0.0968304
-0.0972002
-0.0975562
-0.097897
-0.0982212
-0.0985274
-0.0988143
-0.0990806
-0.0993251
-0.0995468
-0.0997447
-0.0999182
-0.100067
-0.10019
-0.0607733
-0.0612406
-0.0616789
-0.0620536
-0.0624269
-0.0628086
-0.0631901
-0.0635694
-0.0639479
-0.0643262
-0.0647042
-0.0650821
-0.06546
-0.0658382
-0.0662168
-0.066596
-0.0669758
-0.0673565
-0.0677381
-0.0681207
-0.0685045
-0.0688895
-0.0692757
-0.0696633
-0.0700524
-0.0704428
-0.0708348
-0.0712283
-0.0716234
-0.0720201
-0.0724184
-0.0728183
-0.0732199
-0.0736232
-0.0740282
-0.0744349
-0.0748433
-0.0752534
-0.0756652
-0.0760788
-0.0764941
-0.0769112
-0.07733
-0.0777505
-0.0781728
-0.0785968
-0.0790225
-0.0794499
-0.079879
-0.0803099
-0.0807424
-0.0811765
-0.0816122
-0.0820496
-0.0824885
-0.0829289
-0.0833708
-0.083814
-0.0842587
-0.0847046
-0.0851517
-0.0855999
-0.086049
-0.0864991
-0.0869499
-0.0874013
-0.0878531
-0.0883051
-0.0887571
-0.0892089
-0.0896602
-0.0901107
-0.0905601
-0.0910079
-0.0914538
-0.0918974
-0.092338
-0.0927752
-0.0932083
-0.0936367
-0.0940596
-0.0944763
-0.0948858
-0.0952873
-0.0956797
-0.096062
-0.096433
-0.0967917
-0.0971368
-0.0974671
-0.0977814
-0.0980783
-0.0983569
-0.0986158
-0.0988542
-0.099071
-0.0992656
-0.0994373
-0.0995859
-0.0997111
-0.0606502
-0.0611179
-0.0615571
-0.0619321
-0.0623057
-0.0626881