/*--------------------------------*- C++ -*----------------------------------*\
| =========                 |                                                 |
| \\      /  F ield         | OpenFOAM: The Open Source CFD Toolbox           |
|  \\    /   O peration     | Version:  2406                                  |
|   \\  /    A nd           | Website:  www.openfoam.com                      |
|    \\/     M anipulation  |                                                 |
\*---------------------------------------------------------------------------*/
FoamFile
{
    version     2.0;
    format      ascii;
    arch        "LSB;label=32;scalar=64";
    class       volScalarField;
    location    "30";
    object      p;
}
// * * * * * * * * * * * * * * * * * * * * * * * * * * * * * * * * * * * * * //

dimensions      [0 2 -2 0 0 0 0];

internalField   nonuniform List<scalar> 
1800
(
0.961411
0.940414
0.916926
0.892898
0.867214
0.839393
0.809019
0.775286
0.73706
0.686372
0.968328
0.942661
0.916854
0.892551
0.86696
0.839259
0.809394
0.776992
0.741297
0.70148
0.973473
0.945241
0.91797
0.893933
0.869101
0.842343
0.814128
0.784944
0.755462
0.727653
0.978654
0.94943
0.921422
0.897923
0.874302
0.849163
0.823377
0.797978
0.773965
0.752976
0.984295
0.954725
0.926525
0.903651
0.881273
0.857851
0.834425
0.812191
0.79198
0.774744
0.989507
0.959913
0.931999
0.909769
0.888408
0.866433
0.84489
0.824887
0.807006
0.791709
0.993235
0.963941
0.936717
0.915008
0.894268
0.873283
0.853014
0.834343
0.817651
0.803149
0.9946
0.966245
0.940027
0.918525
0.897913
0.877409
0.857799
0.839713
0.823406
0.809011
0.992438
0.966503
0.941634
0.919978
0.899071
0.878582
0.85908
0.840991
0.824531
0.809852
0.985976
0.964495
0.941585
0.919866
0.89862
0.877931
0.858225
0.839837
0.823002
0.807921
0.72007
0.719205
0.719498
0.721588
0.725316
0.730407
0.736577
0.743537
0.750996
0.758676
0.766309
0.773653
0.780496
0.786664
0.792027
0.796495
0.800018
0.802584
0.804214
0.804955
0.804872
0.804047
0.802565
0.800517
0.797993
0.795076
0.791844
0.788369
0.784711
0.780923
0.777051
0.773129
0.769189
0.765252
0.761335
0.721005
0.720122
0.720442
0.722464
0.725972
0.730731
0.736519
0.743094
0.750195
0.757559
0.764925
0.772053
0.778732
0.784785
0.790077
0.794511
0.798035
0.800634
0.802323
0.803145
0.803161
0.802449
0.801089
0.799171
0.796777
0.793992
0.790889
0.787537
0.783996
0.780317
0.776545
0.772715
0.768856
0.764992
0.761139
0.720629
0.719704
0.720073
0.722126
0.725554
0.730145
0.735725
0.742088
0.748994
0.75619
0.763419
0.770442
0.777044
0.783045
0.788306
0.792731
0.796266
0.798893
0.800626
0.801507
0.801596
0.800966
0.799699
0.79788
0.795592
0.792914
0.78992
0.786675
0.783239
0.77966
0.775983
0.772241
0.768463
0.764672
0.760886
0.717891
0.717135
0.717774
0.720099
0.723733
0.728464
0.734141
0.740575
0.747539
0.754783
0.762053
0.769105
0.775726
0.781737
0.787001
0.791423
0.794952
0.797574
0.799305
0.80019
0.800292
0.799685
0.798453
0.796679
0.794445
0.791832
0.788909
0.785741
0.782385
0.778889
0.775294
0.771634
0.767935
0.764219
0.760502
0.712383
0.712259
0.713653
0.716658
0.720851
0.726032
0.732067
0.738785
0.745972
0.753385
0.760776
0.767908
0.774571
0.780592
0.78584
0.790229
0.793713
0.796285
0.79797
0.798816
0.79889
0.798271
0.797042
0.795289
0.793092
0.790529
0.78767
0.784577
0.781303
0.777895
0.77439
0.770821
0.767213
0.763586
0.759955
0.703735
0.705032
0.707967
0.712241
0.717427
0.723368
0.729969
0.737103
0.744587
0.752201
0.759711
0.766893
0.773548
0.779517
0.784681
0.788967
0.792339
0.794802
0.796387
0.79715
0.797163
0.796506
0.795265
0.793524
0.791363
0.788857
0.786072
0.783067
0.779893
0.776592
0.7732
0.769745
0.766251
0.762735
0.759212
0.691414
0.695456
0.701168
0.70747
0.714087
0.721039
0.728338
0.735934
0.743703
0.751465
0.759014
0.766147
0.772688
0.778495
0.78347
0.787554
0.790729
0.793009
0.794437
0.795074
0.794996
0.794285
0.793026
0.7913
0.789185
0.786752
0.784062
0.781169
0.77812
0.774954
0.771702
0.768389
0.765036
0.761659
0.758269
0.672904
0.683034
0.69389
0.703083
0.711442
0.719558
0.727592
0.735597
0.743548
0.75133
0.758777
0.765714
0.771993
0.777499
0.782158
0.785931
0.788818
0.790844
0.792062
0.792538
0.792349
0.791578
0.790305
0.788608
0.786559
0.784223
0.781655
0.778904
0.77601
0.773008
0.769924
0.766781
0.763596
0.760382
0.757149
0.63791
0.665888
0.686709
0.699605
0.709873
0.719244
0.727979
0.736264
0.744227
0.751846
0.759005
0.765567
0.771419
0.776475
0.78069
0.784048
0.786565
0.788279
0.789249
0.789545
0.789241
0.788417
0.787148
0.785503
0.783548
0.781338
0.778923
0.776344
0.773635
0.770824
0.767935
0.764986
0.76199
0.75896
0.755904
0.589279
0.648628
0.682225
0.69843
0.710144
0.720499
0.729704
0.738029
0.74576
0.752981
0.759635
0.76563
0.770886
0.775355
0.779015
0.781876
0.783967
0.785336
0.786045
0.786162
0.785758
0.784903
0.783664
0.782103
0.780272
0.77822
0.775987
0.773606
0.771106
0.768509
0.765834
0.763095
0.760304
0.75747
0.754601
0.634951
0.662908
0.689923
0.703817
0.714288
0.72417
0.733077
0.740974
0.748122
0.754655
0.760565
0.765798
0.770309
0.774078
0.777109
0.779426
0.78107
0.782093
0.782554
0.782516
0.782041
0.781189
0.780015
0.778568
0.776892
0.775025
0.772996
0.770833
0.768557
0.766185
0.763733
0.761211
0.758629
0.755995
0.753314
0.673987
0.684518
0.701759
0.712884
0.721666
0.730175
0.738029
0.744979
0.751162
0.756708
0.761644
0.76595
0.769605
0.77261
0.774983
0.776755
0.777971
0.778679
0.778932
0.778781
0.778277
0.777466
0.77639
0.775087
0.773589
0.771922
0.77011
0.768172
0.766123
0.763977
0.761745
0.759435
0.757056
0.754613
0.752112
0.709339
0.709644
0.717933
0.725369
0.731795
0.738167
0.744245
0.749712
0.75456
0.758866
0.762661
0.765941
0.768697
0.770937
0.77268
0.773956
0.774802
0.775256
0.775359
0.775149
0.774661
0.773929
0.77298
0.77184
0.77053
0.769069
0.767473
0.765754
0.763923
0.76199
0.759964
0.757851
0.755657
0.753389
0.751052
0.738459
0.734031
0.736037
0.739496
0.743085
0.746931
0.750833
0.754486
0.757784
0.760734
0.763345
0.765609
0.767517
0.769066
0.770269
0.771141
0.771706
0.771988
0.77201
0.771797
0.771369
0.770744
0.76994
0.768971
0.767849
0.766587
0.765192
0.763674
0.762041
0.760299
0.758455
0.756514
0.754483
0.752366
0.75017
0.762012
0.755197
0.752969
0.752833
0.753577
0.754924
0.756641
0.758459
0.760228
0.761894
0.763432
0.764815
0.766017
0.767022
0.767821
0.768415
0.768807
0.769006
0.769019
0.768854
0.76852
0.768023
0.76737
0.766569
0.765623
0.764541
0.763325
0.761983
0.760519
0.758939
0.757248
0.755451
0.753553
0.751561
0.749479
0.779638
0.771331
0.766285
0.763331
0.761642
0.760848
0.760692
0.760938
0.761423
0.76205
0.762757
0.763489
0.764199
0.764847
0.765407
0.765859
0.76619
0.766391
0.766456
0.766382
0.766165
0.765806
0.765302
0.764656
0.763868
0.762941
0.761878
0.760682
0.759357
0.757908
0.756339
0.754656
0.752864
0.750968
0.748976
0.791103
0.781729
0.774838
0.769894
0.766394
0.764004
0.762475
0.761589
0.761178
0.761114
0.761301
0.761655
0.762106
0.762595
0.763076
0.763513
0.763881
0.764156
0.764323
0.764369
0.764285
0.764064
0.763702
0.763196
0.762545
0.76175
0.760812
0.759734
0.75852
0.757173
0.755699
0.754103
0.752391
0.750568
0.748642
0.79668
0.786525
0.778479
0.772288
0.767639
0.764261
0.761915
0.760394
0.759516
0.759131
0.759111
0.759353
0.759764
0.760271
0.760815
0.761348
0.761832
0.76224
0.762547
0.762737
0.762796
0.762715
0.762487
0.76211
0.761579
0.760897
0.760063
0.759082
0.757956
0.75669
0.755288
0.753759
0.752106
0.750337
0.748458
0.797098
0.78637
0.777652
0.7708
0.765592
0.761784
0.759144
0.75745
0.756504
0.756135
0.756195
0.756559
0.757124
0.757806
0.758535
0.759259
0.759934
0.760527
0.761013
0.761372
0.761589
0.761656
0.761564
0.761311
0.760894
0.760315
0.759574
0.758676
0.757624
0.756424
0.755081
0.753603
0.751995
0.750265
0.748419
0.794763
0.783638
0.77456
0.767424
0.762033
0.75815
0.755527
0.753928
0.753135
0.752957
0.753233
0.753825
0.754624
0.755537
0.756492
0.757432
0.758312
0.759096
0.759759
0.760281
0.760648
0.76085
0.760881
0.760738
0.76042
0.759929
0.759266
0.758436
0.757445
0.756297
0.755
0.75356
0.751985
0.750283
0.748461
0.757452
0.753611
0.749817
0.746073
0.742379
0.738733
0.735133
0.731575
0.728054
0.724565
0.757311
0.753517
0.749762
0.746049
0.742381
0.738754
0.735169
0.73162
0.728104
0.724617
0.757116
0.753373
0.749662
0.745987
0.742349
0.738748
0.735183
0.731649
0.728145
0.724664
0.756798
0.753114
0.749457
0.745831
0.742236
0.738673
0.73514
0.731635
0.728154
0.724693
0.756331
0.752723
0.749137
0.745575
0.742039
0.738529
0.735044
0.731582
0.72814
0.724714
0.755692
0.752181
0.748686
0.745208
0.741751
0.738313
0.734894
0.731492
0.728105
0.724731
0.754876
0.751486
0.748104
0.744733
0.741373
0.738026
0.734691
0.731367
0.728052
0.724745
0.753906
0.750659
0.74741
0.744163
0.740919
0.737679
0.734444
0.731213
0.727984
0.724758
0.752828
0.749738
0.746637
0.743528
0.740413
0.737293
0.734168
0.73104
0.727909
0.724773
0.751702
0.748778
0.745832
0.742867
0.739886
0.736891
0.733883
0.730863
0.727834
0.724794
0.750592
0.747833
0.745042
0.742221
0.739373
0.736502
0.733609
0.730697
0.727768
0.724824
0.749559
0.746957
0.744312
0.741626
0.738904
0.736148
0.733363
0.730552
0.727718
0.724864
0.748651
0.746191
0.743676
0.741111
0.7385
0.735848
0.733159
0.730437
0.727687
0.724912
0.747899
0.745559
0.743155
0.740692
0.738176
0.735611
0.733002
0.730355
0.727675
0.724967
0.747314
0.745071
0.742757
0.740376
0.737935
0.735438
0.732893
0.730305
0.72768
0.725023
0.746892
0.744724
0.742477
0.740158
0.737773
0.735328
0.732829
0.730284
0.727698
0.725077
0.746618
0.744504
0.742305
0.74003
0.737684
0.735274
0.732807
0.73029
0.727729
0.725132
0.746477
0.744399
0.742234
0.739987
0.737666
0.735278
0.732829
0.730327
0.72778
0.725192
0.746466
0.744413
0.742268
0.740037
0.737728
0.735349
0.732906
0.730408
0.727861
0.725272
0.746527
0.744489
0.742355
0.740133
0.737829
0.735453
0.73301
0.730509
0.727957
0.725362
0.721103
0.71766
0.714231
0.710807
0.707381
0.703944
0.700488
0.697002
0.693474
0.689893
0.686244
0.682511
0.678674
0.674713
0.670601
0.666307
0.661795
0.65702
0.651929
0.646457
0.640522
0.634029
0.626854
0.618849
0.609833
0.599581
0.587825
0.574246
0.558478
0.540114
0.518731
0.493937
0.465436
0.433123
0.397196
0.721152
0.717703
0.714265
0.710828
0.707387
0.703932
0.700454
0.696943
0.693387
0.689774
0.686088
0.682313
0.678429
0.674413
0.670238
0.665873
0.661278
0.656408
0.651207
0.645608
0.639528
0.632866
0.625499
0.617275
0.608009
0.597476
0.585408
0.571486
0.555343
0.536577
0.514771
0.489541
0.460609
0.427908
0.39169
0.721202
0.717753
0.714312
0.71087
0.70742
0.703954
0.700463
0.696937
0.693363
0.68973
0.686021
0.682221
0.678309
0.674261
0.670051
0.665647
0.661008
0.65609
0.650836
0.645177
0.639031
0.632296
0.624848
0.616535
0.607168
0.59652
0.584312
0.570213
0.553834
0.534738
0.51246
0.48656
0.456709
0.42282
0.385233
0.721248
0.717813
0.714383
0.71095
0.707508
0.704048
0.700562
0.697041
0.693472
0.689844
0.686141
0.682349
0.678446
0.674411
0.670218
0.665835
0.661224
0.656341
0.651132
0.64553
0.639454
0.632806
0.625462
0.617268
0.608034
0.597522
0.585434
0.571402
0.55498
0.535639
0.512784
0.485811
0.454216
0.417807
0.37704
0.7213
0.717894
0.71449
0.711082
0.707664
0.704228
0.700767
0.697271
0.69373
0.690133
0.686466
0.682715
0.67886
0.674883
0.670758
0.666457
0.661944
0.657179
0.65211
0.646675
0.640799
0.634385
0.627312
0.619429
0.610538
0.600388
0.58865
0.574902
0.558605
0.539081
0.515512
0.486988
0.452643
0.411958
0.365515
0.721364
0.718002
0.714641
0.711274
0.707897
0.704503
0.701086
0.697637
0.694147
0.690607
0.687006
0.683329
0.679562
0.675686
0.67168
0.667519
0.663172
0.658602
0.653765
0.648603
0.643048
0.637009
0.630371
0.622983
0.614647
0.605096
0.59397
0.580782
0.564875
0.545372
0.521138
0.490778
0.452771
0.405832
0.350282
0.721442
0.71814
0.714836
0.711527
0.708208
0.704873
0.701518
0.698136
0.694721
0.691263
0.687754
0.684184
0.680539
0.676805
0.672964
0.668997
0.664877
0.660574
0.65605
0.651257
0.646133
0.640599
0.634547
0.627837
0.620271
0.611578
0.601375
0.589117
0.574023
0.554983
0.530434
0.498289
0.455996
0.400834
0.332143
0.721532
0.718304
0.715072
0.711834
0.708587
0.705327
0.70205
0.698753
0.69543
0.692076
0.688683
0.685244
0.681751
0.678193
0.674556
0.670826
0.666983
0.663004
0.65886
0.654513
0.649911
0.644989
0.639654
0.63378
0.627187
0.619616
0.610684
0.599821
0.586154
0.568335
0.544276
0.510777
0.463351
0.396283
0.307533
0.721634
0.71849
0.71534
0.712183
0.709019
0.705844
0.702658
0.699458
0.696241
0.693005
0.689745
0.686458
0.683137
0.679777
0.676371
0.672907
0.669376
0.66576
0.66204
0.658189
0.65417
0.649934
0.645407
0.640489
0.63503
0.628808
0.621484
0.61253
0.601094
0.58575
0.564021
0.531448
0.479973
0.395462
0.267765
0.721747
0.718691
0.715628
0.712558
0.709482
0.706399
0.70331
0.700214
0.697111
0.694001
0.690883
0.687756
0.684618
0.681468
0.678304
0.675121
0.671915
0.668678
0.6654
0.662066
0.658654
0.655132
0.651452
0.647544
0.643301
0.638561
0.633074
0.626443
0.618017
0.606683
0.590415
0.565243
0.522612
0.441765
0.283446
0.721868
0.718901
0.715925
0.712942
0.709954
0.706963
0.70397
0.700979
0.69799
0.695007
0.69203
0.689063
0.686108
0.683167
0.680242
0.677336
0.67445
0.671584
0.668738
0.665908
0.663086
0.660258
0.657401
0.654475
0.651422
0.648145
0.644499
0.640258
0.635067
0.628375
0.619307
0.606465
0.587722
0.562242
0.545268
0.721993
0.719109
0.716215
0.713314
0.710409
0.707505
0.704604
0.701712
0.698831
0.695967
0.693124
0.690307
0.687523
0.684777
0.682075
0.679426
0.676835
0.674311
0.67186
0.669489
0.667202
0.665001
0.662881
0.660833
0.658832
0.656841
0.654793
0.652589
0.650079
0.647048
0.6432
0.63819
0.632204
0.629226
0.635073
0.722118
0.719307
0.716486
0.713657
0.710827
0.707999
0.70518
0.702375
0.69959
0.696831
0.694106
0.691422
0.688787
0.686212
0.683705
0.681279
0.678944
0.676713
0.6746
0.672617
0.67078
0.669099
0.667587
0.66625
0.665092
0.664105
0.663272
0.662557
0.661906
0.661237
0.660445
0.659472
0.658888
0.661675
0.667312
0.722235
0.719486
0.716724
0.713956
0.711187
0.708423
0.705671
0.702938
0.700231
0.697559
0.69493
0.692355
0.689843
0.687406
0.685056
0.682809
0.680677
0.678679
0.676831
0.675151
0.673658
0.672372
0.671312
0.670495
0.669935
0.669641
0.669612
0.669838
0.670289
0.670921
0.671674
0.672558
0.67411
0.678374
0.68441
0.72234
0.719638
0.716922
0.7142
0.711477
0.708761
0.70606
0.703381
0.700733
0.698125
0.695569
0.693073
0.690651
0.688316
0.686081
0.683963
0.681978
0.680145
0.678483
0.677012
0.675754
0.674732
0.673967
0.673478
0.673284
0.673396
0.673816
0.674533
0.675521
0.676735
0.678129
0.679723
0.681952
0.686228
0.691782
0.722429
0.719759
0.717075
0.714384
0.711692
0.709008
0.70634
0.703696
0.701086
0.69852
0.696009
0.693564
0.691199
0.688927
0.686764
0.684725
0.682829
0.681095
0.679542
0.678191
0.677065
0.676185
0.675573
0.675249
0.675226
0.675516
0.676116
0.677013
0.678174
0.679557
0.681118
0.682878
0.685157
0.688863
0.693344
0.722504
0.719853
0.717187
0.714512
0.711836
0.709168
0.706516
0.703889
0.701297
0.69875
0.696259
0.693837
0.691497
0.689253
0.68712
0.685115
0.683255
0.681559
0.680047
0.67874
0.677657
0.67682
0.676248
0.675959
0.675965
0.676272
0.676878
0.677766
0.678908
0.680263
0.681798
0.683521
0.685632
0.688638
0.691984
0.722573
0.719929
0.717267
0.714595
0.711922
0.709255
0.706603
0.703975
0.701382
0.698833
0.69634
0.693915
0.691571
0.689322
0.687184
0.685171
0.683303
0.681595
0.680069
0.678742
0.677634
0.676765
0.676151
0.675808
0.675746
0.675972
0.676482
0.677266
0.678303
0.679568
0.681036
0.682709
0.684667
0.687082
0.68946
0.722649
0.719999
0.71733
0.714649
0.711964
0.709284
0.706617
0.703972
0.701359
0.698789
0.696272
0.693821
0.691447
0.689166
0.686991
0.684937
0.683022
0.681263
0.679676
0.678282
0.677098
0.676141
0.675427
0.674971
0.674783
0.674868
0.675228
0.675861
0.676761
0.677926
0.67936
0.681069
0.683047
0.685187
0.686943
0.72273
0.720069
0.717386
0.71469
0.711988
0.709288
0.706599
0.70393
0.70129
0.69869
0.69614
0.693652
0.691238
0.688911
0.686686
0.684577
0.682601
0.680773
0.679112
0.677634
0.676357
0.675297
0.674471
0.673891
0.673568
0.673509
0.673719
0.674204
0.674974
0.676055
0.677485
0.679304
0.681479
0.683724
0.685326
0.358232
0.317206
0.275311
0.23365
0.193044
0.154
0.116758
0.0813263
0.04749
0.0151276
0.352616
0.31177
0.270396
0.229524
0.189826
0.15169
0.115279
0.0805708
0.0472081
0.0151011
0.344833
0.303144
0.261737
0.221559
0.183002
0.146228
0.111252
0.0779479
0.0458595
0.0148887
0.333293
0.28923
0.247175
0.207788
0.170864
0.1362
0.103589
0.0726949
0.0429015
0.0141398
0.315551
0.267442
0.224763
0.187035
0.15282
0.12143
0.0923693
0.0650041
0.0385129
0.0127481
0.289515
0.235559
0.193557
0.159493
0.129721
0.1031
0.0788302
0.0559171
0.0333933
0.0110149
0.253404
0.192565
0.154902
0.127736
0.104496
0.0840744
0.0654187
0.0472534
0.0286619
0.00955791
0.201556
0.139033
0.11391
0.0974133
0.0821434
0.0683764
0.0550244
0.0408617
0.0253362
0.00876876
0.113177
0.0733203
0.0763557
0.0736045
0.0664011
0.0584793
0.0490691
0.0374834
0.0237828
0.00854725
-0.0118766
0.00857343
0.0491253
0.0579617
0.0573567
0.0537665
0.0467019
0.0363625
0.0235273
0.00866477
)
;

boundaryField
{
    inlet
    {
        type            zeroGradient;
    }
    outlet
    {
        type            fixedValue;
        value           uniform 0;
    }
    upperWall
    {
        type            zeroGradient;
    }
    lowerWall
    {
        type            zeroGradient;
    }
    frontAndBack
    {
        type            empty;
    }
}


// ************************************************************************* //
