/*--------------------------------*- C++ -*----------------------------------*\
| =========                 |                                                 |
| \\      /  F ield         | OpenFOAM: The Open Source CFD Toolbox           |
|  \\    /   O peration     | Version:  2406                                  |
|   \\  /    A nd           | Website:  www.openfoam.com                      |
|    \\/     M anipulation  |                                                 |
\*---------------------------------------------------------------------------*/
FoamFile
{
    version     2.0;
    format      ascii;
    arch        "LSB;label=32;scalar=64";
    class       surfaceScalarField;
    location    "30";
    object      phi;
}
// * * * * * * * * * * * * * * * * * * * * * * * * * * * * * * * * * * * * * //

dimensions      [0 3 -1 0 0 0 0];

oriented        oriented;

internalField   nonuniform List<scalar> 
3480
(
0.0193739
-0.000373939
0.0198135
-0.000439586
0.0202134
-0.000399956
0.0206475
-0.000434035
0.0211808
-0.000533421
0.0218831
-0.000702235
0.0228751
-0.000992082
0.0243884
-0.00151329
0.0269951
-0.00260678
-0.00589677
0.0328917
0.0509682
-0.000342142
0.051234
-0.000705416
0.0517061
-0.000872168
0.0523362
-0.00106419
0.0531525
-0.00134975
0.0542137
-0.00176347
0.0556081
-0.00238651
0.0574661
-0.00337139
0.0598714
-0.0050122
-0.00794296
0.0619174
0.0749727
-0.000314847
0.0750717
-0.000804529
0.0753673
-0.00116777
0.0758434
-0.00154036
0.076499
-0.00200542
0.0773499
-0.00261441
0.0784089
-0.00344555
0.0796544
-0.00461697
0.0809271
-0.00628498
-0.008647
0.081631
0.0909786
-0.000293508
0.0909831
-0.000809008
0.0910885
-0.00127333
0.0913066
-0.00175853
0.0916286
-0.00232743
0.0920429
-0.00302872
0.0925196
-0.00392234
0.0929838
-0.00508125
0.0932736
-0.00657477
-0.00844174
0.0930683
0.0989597
-0.000253266
0.0988772
-0.000726544
0.0988076
-0.00120381
0.0987655
-0.00171647
0.0987359
-0.00229783
0.0986933
-0.00298611
0.0985935
-0.0038226
0.0983575
-0.00484531
0.0978592
-0.00607644
-0.00750114
0.0969186
0.0989264
-0.00017971
0.0987498
-0.000549974
0.0985227
-0.000976725
0.0982535
-0.00144731
0.0979202
-0.00196448
0.0974908
-0.00255676
0.0969192
-0.00325097
0.0961361
-0.00406224
0.0950497
-0.00499
-0.0060067
0.0935553
0.0908823
-6.19816e-05
0.0906166
-0.000284316
0.0902709
-0.000631058
0.0898394
-0.00101584
0.0892918
-0.00141684
0.0885939
-0.00185891
0.0877022
-0.00235917
0.0865601
-0.00292019
0.0851041
-0.003534
-0.00417718
0.0832746
0.0748277
0.000110282
0.0745253
1.80787e-05
0.0741535
-0.000259219
0.0736719
-0.000534244
0.073044
-0.000788961
0.0722391
-0.00105402
0.071221
-0.00134103
0.0699494
-0.00164854
0.0683859
-0.00197048
-0.00229381
0.0665025
0.0508166
0.000293688
0.0506531
0.000181565
0.0504154
-2.15133e-05
0.0500354
-0.000154235
0.0494991
-0.000252635
0.0487928
-0.000347716
0.047897
-0.000445217
0.0467921
-0.000543616
0.0454628
-0.000641143
-0.00073447
0.0439034
0.0192937
0.0194753
0.0194537
0.0192995
0.0190469
0.0186992
0.0182539
0.0177103
0.0170692
0.0163347
-0.000137645
0.000137609
-0.00050755
0.00036981
-0.000976085
0.000468443
-0.0014304
0.000454225
-0.00180617
0.000375689
-0.00207208
0.000265828
-0.0022164
0.000144254
-0.00223875
2.22914e-05
-0.00214542
-9.33654e-05
-0.0019469
-0.000198533
-0.00165648
-0.000290406
-0.00128922
-0.00036722
-0.000861097
-0.000428049
-0.000388252
-0.000472742
0.00011366
-0.000501779
0.000630017
-0.000516193
0.00114764
-0.000517436
0.00165516
-0.000507298
0.00214312
-0.000487729
0.0026041
-0.000460728
0.0030326
-0.000428234
0.00342494
-0.000392061
0.00377903
-0.000353824
0.00409421
-0.000314915
0.00437095
-0.00027648
0.00461063
-0.000239429
0.00481529
-0.000204437
0.00498747
-0.00017198
0.00513
-0.00014235
0.00524584
-0.000115695
0.00533801
-9.20403e-05
0.00540942
-7.13251e-05
0.0054629
-5.34162e-05
0.00550108
-3.81409e-05
-2.52936e-05
0.00552638
-0.000404029
0.000541544
-0.00123483
0.00120036
-0.00220342
0.0014368
-0.00310249
0.00135308
-0.00380738
0.00108038
-0.00425607
0.000714328
-0.00442726
0.000315304
-0.00432468
-8.04015e-05
-0.00396678
-0.000451318
-0.00338101
-0.000784301
-0.00259998
-0.00107137
-0.00165895
-0.00130811
-0.000593952
-0.00149284
0.000559694
-0.0016261
0.00176837
-0.0017101
0.00300131
-0.00174871
0.00423127
-0.00174692
0.00543481
-0.0017103
0.00659249
-0.00164483
0.0076889
-0.00155652
0.0087125
-0.0014512
0.00965536
-0.00133427
0.0105127
-0.00121057
0.0112828
-0.00108432
0.0119659
-0.000959014
0.0125645
-0.000837492
0.0130825
-0.000721919
0.0135249
-0.000613866
0.0138973
-0.000514375
0.014206
-0.000424038
0.0144573
-0.000343078
0.0146577
-0.000271424
0.0148132
-0.000208785
0.0149298
-0.000154709
-0.000108641
0.0150132
-0.000574
0.00111545
-0.00164578
0.00227192
-0.00280418
0.00259498
-0.00380038
0.00234908
-0.00449787
0.00177769
-0.00483615
0.00105245
-0.0048029
0.000281924
-0.00441457
-0.000468827
-0.00370411
-0.00116182
-0.00271367
-0.00177474
-0.00148969
-0.00229529
-7.98366e-05
-0.00271784
0.00146884
-0.00304135
0.0031116
-0.00326863
0.00480735
-0.00340556
0.00651909
-0.00346012
0.00821442
-0.00344185
0.00986576
-0.00336121
0.0114505
-0.00322906
0.0129506
-0.0030562
0.0143529
-0.00285295
0.015648
-0.00262888
0.0168305
-0.00239255
0.0178982
-0.00215142
0.0188514
-0.00191176
0.0196931
-0.00167866
0.0204277
-0.00145611
0.0210613
-0.00124702
0.0216007
-0.00105343
0.0220535
-0.000876555
0.0224277
-0.000716955
0.0227311
-0.000574658
0.0229717
-0.000449274
0.0231572
-0.000340105
-0.000246235
0.0232949
-0.000646842
0.00176221
-0.00175325
0.00337814
-0.00282638
0.00366792
-0.00361412
0.00313664
-0.00400592
0.00216933
-0.00397109
0.00101748
-0.00352347
-0.000165824
-0.00270023
-0.00129216
-0.00155074
-0.00231136
-0.000129255
-0.00319624
0.00150904
-0.00393356
0.00331045
-0.00451919
0.00522474
-0.00495552
0.00720592
-0.00524965
0.00921275
-0.0054122
0.0112092
-0.00545632
0.0131644
-0.00539681
0.0150529
-0.00524935
0.016854
-0.00502984
0.018552
-0.0047538
0.0201353
-0.00443591
0.0215965
-0.00408967
0.0229315
-0.00372709
0.0241391
-0.00335863
0.0252208
-0.00299305
0.0261801
-0.00263752
0.027022
-0.00229765
0.027753
-0.00197763
0.0283802
-0.00168037
0.0289116
-0.00140769
0.0293554
-0.0011605
0.0297199
-0.000938948
0.0300134
-0.000742574
0.0302439
-0.000570482
-0.000421448
0.0304192
-0.000643888
0.00240603
-0.00157908
0.00431312
-0.00228131
0.00436996
-0.00255253
0.00340768
-0.00235047
0.00196709
-0.00169951
0.00036636
-0.0006511
-0.00121438
0.000733079
-0.00267645
0.00238918
-0.00396755
0.00425556
-0.00506267
0.0062748
-0.00595282
0.00839468
-0.00663906
0.0105686
-0.00712935
0.0127555
-0.00743655
0.0149205
-0.00757706
0.017034
-0.00756963
0.0190718
-0.00743443
0.0210148
-0.00719217
0.0228486
-0.00686336
0.0245627
-0.0064677
0.0261507
-0.00602355
0.0276089
-0.00554758
0.0289367
-0.00505454
0.0301355
-0.00455711
0.0312087
-0.00406594
0.0321611
-0.00358962
0.0329987
-0.00313489
0.0337281
-0.00270676
0.0343567
-0.00230871
0.0348922
-0.00194291
0.0353423
-0.00161043
0.035715
-0.00131143
0.0360179
-0.00104534
0.0362586
-0.00081107
-0.000607108
0.0364443
-0.000562281
0.00296821
-0.00108213
0.00483277
-0.0010778
0.00436542
-0.000496381
0.00282605
0.000584701
0.000885824
0.00206858
-0.00111769
0.00386391
-0.00300986
0.00588932
-0.004702
0.00807492
-0.00615326
0.0103612
-0.00734901
0.0126974
-0.00828914
0.0150407
-0.00898243
0.0173551
-0.00944378
0.019611
-0.00969237
0.0217844
-0.00975041
0.0238568
-0.00964196
0.0258144
-0.00939196
0.0276477
-0.00902538
0.029351
-0.00856644
0.0309214
-0.00803798
0.0323591
-0.007461
0.033666
-0.00685431
0.034846
-0.0062343
0.0359041
-0.00561495
0.0368462
-0.00500781
0.037679
-0.00442211
0.0384093
-0.00386498
0.0390444
-0.00334164
0.0395915
-0.00285563
0.0400579
-0.00240908
0.0404505
-0.00200291
0.0407763
-0.0016371
0.041042
-0.00131085
0.0412538
-0.00102278
-0.000771107
0.0414179
-0.000336505
0.00330464
-6.53655e-05
0.00456141
0.00109019
0.00320967
0.00289628
0.00101978
0.00511444
-0.00133252
0.00758176
-0.00358517
0.0101849
-0.00561319
0.0128428
-0.00736003
0.0154969
-0.00880752
0.0181042
-0.0099564
0.020632
-0.0108171
0.0230555
-0.0114061
0.0253563
-0.0117446
0.027521
-0.0118571
0.029541
-0.0117704
0.0314117
-0.0115126
0.0331318
-0.0111121
0.0347032
-0.0105967
0.0361298
-0.00999296
0.0374174
-0.00932555
0.0385733
-0.00861674
0.0396053
-0.0078862
0.0405219
-0.0071508
0.0413318
-0.00642468
0.0420435
-0.0057193
0.0426651
-0.00504364
0.0432048
-0.00440444
0.0436698
-0.00380649
0.0440671
-0.00325284
0.0444033
-0.00274514
0.0446843
-0.00228384
0.0449158
-0.00186849
0.045103
-0.00149789
0.0452505
-0.00117029
-0.000883585
0.0453631
0.000233253
0.00307131
0.00202786
0.00276661
0.00494525
0.00029209
0.00832083
-0.00235596
0.0118084
-0.00482031
0.0152455
-0.00702237
0.018549
-0.00891689
0.0216761
-0.0104872
0.024605
-0.0117366
0.0273255
-0.0126771
0.0298336
-0.0133253
0.0321293
-0.013702
0.0342159
-0.0138313
0.0360993
-0.0137406
0.0377876
-0.0134589
0.0392911
-0.0130162
0.0406213
-0.0124424
0.0417912
-0.0117666
0.0428141
-0.0110159
0.0437037
-0.0102151
0.0444735
-0.00938647
0.0451364
-0.00854907
0.0457047
-0.00771908
0.0461898
-0.00690969
0.0466019
-0.00613135
0.0469503
-0.00539198
0.0472432
-0.00469725
0.0474877
-0.00405091
0.04769
-0.00345511
0.0478556
-0.00291063
0.047989
-0.00241719
0.0480943
-0.00197371
0.0481749
-0.00157845
0.0482339
-0.00122923
-0.000923594
0.0482739
0.00199167
0.00107955
0.006735
-0.00197694
0.0119626
-0.00493573
0.0169179
-0.00731144
0.0214308
-0.00933341
0.025485
-0.0110767
0.0291048
-0.0125368
0.0323227
-0.0137054
0.0351707
-0.0145848
0.0376776
-0.0151841
0.0398698
-0.0155177
0.0417721
-0.0156044
0.0434082
-0.0154677
0.0448018
-0.0151343
0.0459759
-0.0146331
0.0469536
-0.0139939
0.0477573
-0.0132462
0.0484087
-0.0124181
0.0489286
-0.0115358
0.0493363
-0.0106229
0.0496497
-0.00969987
0.0498848
-0.00878419
0.0500558
-0.00789018
0.0501754
-0.00702921
0.0502539
-0.00620994
0.0503006
-0.0054386
0.0503226
-0.00471931
0.0503262
-0.00405443
0.0503159
-0.00344485
0.0502956
-0.00289033
0.0502681
-0.0023897
0.0502356
-0.00194115
0.0501995
-0.00154237
0.050161
-0.00119074
-0.000883479
0.0501209
0.00988245
-0.00880306
0.0180429
-0.0101376
0.0245546
-0.0114476
0.0299582
-0.0127153
0.0345
-0.0138754
0.0383362
-0.0149131
0.0415807
-0.0157815
0.0443165
-0.0164413
0.0466059
-0.0168743
0.0484994
-0.0170778
0.0500405
-0.017059
0.0512687
-0.0168327
0.0522207
-0.0164198
0.0529312
-0.0158449
0.0534331
-0.0151352
0.0537578
-0.0143187
0.0539343
-0.0134228
0.0539896
-0.0124736
0.0539484
-0.0114947
0.0538325
-0.0105071
0.0536613
-0.00952874
0.0534514
-0.00857429
0.0532166
-0.0076555
0.0529686
-0.00678128
0.0527166
-0.00595801
0.0524679
-0.0051899
0.0522278
-0.00447927
0.0520002
-0.00382694
0.0517879
-0.00323252
0.0515921
-0.00269466
0.0514138
-0.00221137
0.0512527
-0.00178014
0.0511085
-0.00139817
0.0509802
-0.00106248
-0.000770027
0.0508667
0.0357855
-0.011697
0.0398244
-0.0141767
0.043699
-0.0153223
0.0471893
-0.0162058
0.0502351
-0.0169212
0.0528027
-0.0174809
0.0549039
-0.0178829
0.0565723
-0.0181098
0.0578464
-0.0181486
0.0587658
-0.0179973
0.0593703
-0.0176636
0.0596997
-0.0171623
0.0597931
-0.0165134
0.0596885
-0.0157404
0.059422
-0.0148688
0.0590273
-0.0139241
0.0585355
-0.0129311
0.0579744
-0.0119126
0.0573687
-0.010889
0.0567392
-0.0098778
0.0561038
-0.00889343
0.0554768
-0.0079474
0.0548696
-0.00704841
0.0542909
-0.00620265
0.0537469
-0.0054141
0.0532418
-0.00468486
0.0527779
-0.00401552
0.0523563
-0.00340546
0.0519769
-0.00285312
0.0516384
-0.00235627
0.0513392
-0.00191222
0.0510769
-0.00151797
0.0508491
-0.00117037
0.0506528
-0.000866261
-0.000602492
0.0504852
0.0621868
-0.0119665
0.0627611
-0.0147511
0.0637384
-0.0162997
0.0648131
-0.0172806
0.0658122
-0.0179205
0.0666207
-0.0182895
0.0671739
-0.0184362
0.0674501
-0.0183861
0.0674538
-0.0181523
0.0672037
-0.0177473
0.0667276
-0.0171876
0.0660583
-0.0164929
0.0652306
-0.0156858
0.0642801
-0.01479
0.0632407
-0.0138295
0.0621443
-0.0128277
0.0610192
-0.0118061
0.0598903
-0.0107838
0.0587786
-0.00977743
0.0577013
-0.00880053
0.0566716
-0.00786389
0.0556997
-0.00697558
0.0547925
-0.00614126
0.0539542
-0.00536448
0.0531869
-0.00464699
0.052491
-0.00398906
0.0518652
-0.00338982
0.0513071
-0.00284751
0.0508136
-0.00235973
0.0503809
-0.00192366
0.0500048
-0.0015362
0.0496809
-0.00119413
0.0494046
-0.000894208
0.0491716
-0.000633266
-0.000408251
0.0489773
0.0811924
-0.0115279
0.0803663
-0.0139251
0.0795845
-0.0155181
0.0788477
-0.0165438
0.0780956
-0.0171684
0.0772696
-0.0174635
0.0763205
-0.0174872
0.0752219
-0.0172875
0.073969
-0.0168995
0.072573
-0.0163513
0.071055
-0.0156696
0.0694426
-0.0148805
0.0677661
-0.0140094
0.0660565
-0.0130804
0.0643432
-0.0121162
0.0626526
-0.0111372
0.061008
-0.0101614
0.0594281
-0.00920402
0.0579281
-0.00827743
0.0565188
-0.00739133
0.0552077
-0.00655289
0.0539991
-0.00576701
0.0528943
-0.00503664
0.0518928
-0.00436309
0.050992
-0.00374632
0.0501881
-0.00318525
0.0494762
-0.002678
0.0488507
-0.00222213
0.0483056
-0.0018148
0.0478348
-0.00145297
0.047432
-0.00113347
0.0470909
-0.00085316
0.0468056
-0.000608955
0.0465702
-0.00039791
-0.000217246
0.0463791
0.0920799
-0.0105395
0.090559
-0.0124041
0.0888106
-0.0137696
0.0869408
-0.014674
0.0849767
-0.0152043
0.082928
-0.0154149
0.080796
-0.0153551
0.0785832
-0.0150747
0.0763006
-0.0146168
0.0739671
-0.0140177
0.0716071
-0.0133095
0.0692476
-0.012521
0.0669166
-0.0116782
0.0646402
-0.010804
0.0624422
-0.00991811
0.0603424
-0.00903739
0.0583566
-0.00817565
0.0564965
-0.00734391
0.0547696
-0.00655056
0.0531799
-0.00580167
0.0517282
-0.00510125
0.0504127
-0.00445158
0.0492295
-0.00385351
0.048173
-0.00330672
0.0472366
-0.00281003
0.0464128
-0.00236157
0.0456937
-0.00195898
0.0450711
-0.00159963
0.0445368
-0.00128066
0.0440829
-0.000999178
0.0437016
-0.000752285
0.0433856
-0.000537162
0.0431276
-0.000351122
0.0429213
-0.000191625
-5.63191e-05
0.0427603
0.0953907
-0.00901154
0.0933582
-0.0103716
0.0909939
-0.0114053
0.0884083
-0.0120884
0.0856642
-0.0124602
0.0828094
-0.01256
0.0798827
-0.0124283
0.0769169
-0.0121089
0.0739434
-0.0116432
0.0709933
-0.0110676
0.0680971
-0.0104132
0.0652829
-0.00970678
0.062576
-0.00897122
0.0599976
-0.00822543
0.0575644
-0.00748484
0.0552887
-0.00676168
0.0531785
-0.00606535
0.0512374
-0.0054028
0.0494657
-0.00477886
0.0478607
-0.00419659
0.046417
-0.0036576
0.0451277
-0.00316233
0.0439844
-0.00271028
0.0429779
-0.00230026
0.0420983
-0.00193056
0.0413358
-0.00159909
0.0406803
-0.00130356
0.0401221
-0.00104152
0.0396518
-0.000810497
0.0392606
-0.000608024
0.0389399
-0.000431706
0.0386819
-0.000279269
0.0384793
-0.000148555
0.0383252
-3.75744e-05
5.55144e-05
0.0382133
0.0915805
-0.00703668
0.0891598
-0.00795081
0.0863964
-0.00864176
0.0833867
-0.00907862
0.0802061
-0.00927946
0.0769205
-0.00927429
0.0735887
-0.00909637
0.0702615
-0.00878158
0.066983
-0.00836451
0.0637909
-0.00787541
0.0607174
-0.00733954
0.0577885
-0.00677771
0.0550241
-0.00620672
0.0524386
-0.00563979
0.0500409
-0.00508706
0.0478354
-0.00455602
0.0458221
-0.00405198
0.0439978
-0.00357848
0.0423566
-0.00313763
0.0408904
-0.0027304
0.0395897
-0.00235691
0.038444
-0.00201659
0.037442
-0.00170837
0.0365725
-0.00143084
0.0358243
-0.00118233
0.0351861
-0.000961018
0.0346475
-0.000765013
0.0341983
-0.000592398
0.033829
-0.000441274
0.0335307
-0.000309809
0.0332952
-0.000196245
0.0331148
-9.89381e-05
0.0329825
-1.63447e-05
0.032892
5.2941e-05
0.000110206
0.0328373
0.0810401
-0.00480211
0.0784279
-0.00533856
0.0755132
-0.005727
0.0723821
-0.00594736
0.0691138
-0.00601113
0.0657809
-0.00594125
0.062448
-0.00576333
0.05917
-0.00550352
0.0559919
-0.00518627
0.0529489
-0.0048323
0.0500676
-0.00445819
0.0473669
-0.0040769
0.0448586
-0.00369834
0.0425488
-0.00332986
0.0404385
-0.00297672
0.038525
-0.00264247
0.0368024
-0.00232935
0.0352625
-0.00203858
0.0338955
-0.00177063
0.0326905
-0.00152538
0.0316359
-0.00130233
0.0307199
-0.00110063
0.0299308
-0.000919277
0.029257
-0.000757088
0.0286874
-0.000612833
0.0282116
-0.000485217
0.0278195
-0.000372968
0.0275018
-0.000274808
0.02725
-0.000189533
0.0270562
-0.000115961
0.0269129
-5.30107e-05
0.0268136
3.59432e-07
0.0267522
4.50731e-05
0.0267231
8.20093e-05
0.00011193
0.0267215
0.0642948
-0.00259437
0.0617954
-0.0028391
0.0590694
-0.00300094
0.0561943
-0.00307224
0.0532452
-0.00306189
0.0502891
-0.00298507
0.0473834
-0.00285759
0.0445744
-0.00269439
0.0418967
-0.00250857
0.0393752
-0.00231068
0.0370257
-0.00210867
0.0348573
-0.00190837
0.0328729
-0.00171395
0.0310714
-0.00152828
0.0294479
-0.00135321
0.0279953
-0.00118983
0.0267046
-0.00103865
0.0255658
-0.000899767
0.0245681
-0.000773005
0.0237007
-0.000657984
0.0229525
-0.000554191
0.0223128
-0.000461029
0.0217714
-0.000377847
0.0213182
-0.00030397
0.020944
-0.000238708
0.0206401
-0.000181387
0.0203985
-0.00013134
0.0202116
-8.79351e-05
0.0200726
-5.05568e-05
0.0199753
-1.86413e-05
0.0199139
8.35482e-06
0.0198834
3.09152e-05
0.019879
4.95026e-05
0.0198966
6.4519e-05
7.63434e-05
0.0199323
0.0421257
-0.000816685
0.0401648
-0.000878147
0.0380754
-0.000911512
0.0359193
-0.00091601
0.0337536
-0.000896202
0.0316268
-0.000858218
0.029577
-0.000807687
0.0276321
-0.00074942
0.0258108
-0.00068729
0.0241244
-0.000624175
0.0225778
-0.000562032
0.0211716
-0.00050218
0.0199031
-0.000445453
0.0187673
-0.000392376
0.0177573
-0.000343197
0.0168654
-0.000298009
0.0160835
-0.00025675
0.015403
-0.000219307
0.0148155
-0.00018549
0.0143126
-0.000155111
0.0138863
-0.000127939
0.013529
-0.000103768
0.0132335
-8.23615e-05
0.012993
-6.3517e-05
0.0128012
-4.70092e-05
0.0126525
-3.26494e-05
0.0125413
-2.02308e-05
0.012463
-9.58428e-06
0.0124129
-5.25507e-07
0.0123872
7.09259e-06
0.0123822
1.34308e-05
0.0123945
1.86121e-05
0.0124213
2.27708e-05
0.0124599
2.6006e-05
2.84282e-05
0.0125079
0.015518
0.0146399
0.0137284
0.0128124
0.0119162
0.011058
0.0102503
0.00950089
0.0088136
0.00818943
0.00762741
0.00712523
0.00667978
0.00628741
0.00594421
0.0056462
0.00538945
0.00517014
0.00498465
0.00482953
0.00470159
0.00459781
0.00451545
0.00445192
0.00440491
0.00437226
0.00435202
0.00434244
0.00434191
0.00434901
0.00436244
0.00438106
0.00440384
0.00442986
0.0044583
0.00554102
-1.46612e-05
0.00554701
-6.02267e-06
0.00554611
8.30839e-07
0.00553993
6.10055e-06
0.00552987
9.96704e-06
0.00551716
1.25995e-05
0.0055029
1.41414e-05
0.00548805
1.47212e-05
0.00547348
1.44414e-05
1.33895e-05
0.00545996
0.0150684
-6.9959e-05
0.0151003
-3.80224e-05
0.0151132
-1.21876e-05
0.0151109
8.16257e-06
0.0150971
2.36077e-05
0.0150747
3.46792e-05
0.0150467
4.1855e-05
0.0150156
4.5553e-05
0.0149836
4.61297e-05
4.38799e-05
0.0149528
0.0233916
-0.000166617
0.0234536
-0.000100127
0.023487
-4.56289e-05
0.023497
-2.00234e-06
0.0234886
3.1813e-05
0.0234663
5.6806e-05
0.0234341
7.38755e-05
0.0233956
8.38211e-05
0.0233542
8.73329e-05
8.49916e-05
0.0233128
0.0305466
-0.000294035
0.0306332
-0.000186684
0.0306853
-9.7788e-05
0.030709
-2.57513e-05
0.0307097
3.09628e-05
0.0306926
7.37957e-05
0.0306623
0.000104074
0.0306229
0.000122987
0.0305785
0.000131578
0.000130732
0.0305326
0.036582
-0.000431687
0.0366782
-0.000282877
0.0367391
-0.00015868
0.0367704
-5.70962e-05
0.0367775
2.38114e-05
0.0367653
8.58744e-05
0.0367385
0.000130785
0.0367013
0.000160075
0.0366576
0.000175095
0.000177005
0.0366112
0.04154
-0.000553751
0.0416256
-0.000368475
0.0416799
-0.000212972
0.0417077
-8.49358e-05
0.0417136
1.78739e-05
0.0417018
9.75778e-05
0.0416763
0.000156139
0.041641
0.000195339
0.0415992
0.000216757
0.000221759
0.0415543
0.0454448
-0.000635403
0.0454995
-0.000423247
0.0455311
-0.00024457
0.045543
-9.68529e-05
0.0455385
2.23424e-05
0.0455207
0.000115317
0.0454926
0.000184194
0.0454569
0.000230899
0.0454165
0.000257141
0.0002644
0.0453737
0.0482974
-0.000658892
0.0483065
-0.000432408
0.0483034
-0.000241428
0.0482898
-8.33032e-05
0.0482676
4.45041e-05
0.0482385
0.000144368
0.0482042
0.000218465
0.0481663
0.00026876
0.0481264
0.000296992
0.000304665
0.048086
0.0500797
-0.000617696
0.0500378
-0.00039052
0.0499955
-0.000199146
0.049953
-4.08788e-05
0.0499107
8.68241e-05
0.0498687
0.000186311
0.0498274
0.000259717
0.0497872
0.000308955
0.0497484
0.000335707
0.000341419
0.0497117
0.0507668
-0.000517793
0.0506791
-0.000302838
0.0506023
-0.000122354
0.0505351
2.6309e-05
0.0504763
0.000145603
0.0504248
0.000237764
0.0503797
0.000304805
0.0503402
0.000348511
0.0503054
0.00037044
0.000371915
0.0502749
0.0503434
-0.000376033
0.0502246
-0.000184004
0.0501259
-2.36975e-05
0.0500448
0.000107386
0.0499789
0.00021152
0.0499259
0.000290757
0.0498838
0.000346921
0.0498507
0.000381613
0.049825
0.000396212
0.000391871
0.0498051
0.0488175
-0.00021628
0.0486881
-5.46548e-05
0.0485853
7.91038e-05
0.0485055
0.000187248
0.0484452
0.000271802
0.0484014
0.000334573
0.0483712
0.000377147
0.048352
0.000400896
0.0483413
0.000406985
0.000396372
0.0483368
0.0462272
-6.43745e-05
0.0461094
6.30782e-05
0.0460213
0.000167262
0.0459584
0.000250108
0.0459169
0.000313337
0.0458931
0.000358462
0.0458835
0.000386796
0.045885
0.000399456
0.0458947
0.000397377
0.000381312
0.0459098
0.042639
5.69606e-05
0.0425519
0.000150162
0.0424941
0.000225046
0.042461
0.000283172
0.0424485
0.000325919
0.0424525
0.000354479
0.0424695
0.000369877
0.0424961
0.000372969
0.0425291
0.000364462
0.000344907
0.0425656
0.0381379
0.000132361
0.0380936
0.000194469
0.0380755
0.00024316
0.0380791
0.000279616
0.0381002
0.00030485
0.038135
0.000319744
0.0381799
0.000325032
0.0382317
0.000321332
0.0382871
0.000309129
0.000288804
0.0383433
0.032813
0.000156603
0.0328144
0.000193172
0.0328367
0.00022082
0.0328761
0.000240349
0.0329285
0.000252441
0.0329907
0.000257682
0.0330593
0.000256555
0.0331313
0.000249455
0.0332038
0.000236692
0.00021849
0.0332743
0.0267426
0.000135551
0.0267823
0.000153475
0.026837
0.000166259
0.0269031
0.00017436
0.0269775
0.000178189
0.0270572
0.000178072
0.0271397
0.000174295
0.0272222
0.000167067
0.0273025
0.000156563
0.000142893
0.0273783
0.0199827
8.52971e-05
0.0200446
9.16779e-05
0.0201153
9.57313e-05
0.0201921
9.768e-05
0.0202728
9.77018e-05
0.0203551
9.59521e-05
0.0204371
9.25496e-05
0.0205168
8.75907e-05
0.0205924
8.11431e-05
7.32509e-05
0.0206623
0.0125632
3.01134e-05
0.0126239
3.11489e-05
0.0126882
3.15894e-05
0.0127545
3.15013e-05
0.0128214
3.09199e-05
0.0128877
2.98936e-05
0.012952
2.84409e-05
0.0130132
2.65942e-05
0.0130701
2.43579e-05
2.17506e-05
0.0131218
0.00448842
0.00451959
0.0045512
0.00458272
0.00461366
0.00464357
0.00467203
0.00469865
0.00472303
0.0047448
0.0054482
1.16286e-05
0.00543887
9.20694e-06
0.0054326
6.15015e-06
0.00543001
2.46853e-06
0.00543176
-1.84983e-06
0.00543849
-6.83466e-06
0.00545095
-1.25384e-05
0.00546991
-1.90343e-05
0.00549627
-2.64239e-05
0.00553105
-3.48373e-05
0.00557546
-4.4441e-05
0.00563088
-5.54411e-05
0.00569896
-6.80943e-05
0.00578167
-8.27137e-05
0.00588136
-9.96841e-05
0.00600085
-0.000119472
0.00614353
-0.000142645
0.00631345
-0.000169885
0.0065155
-0.00020201
0.00675554
-0.000239986
0.00704053
-0.000284942
0.00737875
-0.000338157
0.00777985
-0.000401035
0.00825494
-0.000475024
0.00881648
-0.00056147
0.00947789
-0.000661344
0.0102528
-0.000774839
0.0111536
-0.000900731
0.0121892
-0.00103556
0.0133619
-0.00117255
0.0146625
-0.00130061
0.0160662
-0.0014036
0.017527
-0.00146079
0.0189767
-0.00144961
-0.00135212
0.0203288
0.0149251
3.90357e-05
0.0149023
3.17688e-05
0.0148859
2.21879e-05
0.0148778
1.03419e-05
0.0148795
-3.78592e-06
0.0148927
-2.02758e-05
0.0149192
-3.92792e-05
0.014961
-6.10215e-05
0.0150203
-8.58173e-05
0.0150994
-0.000114075
0.0152012
-0.000146319
0.0153289
-0.000183198
0.0154863
-0.000225519
0.0156778
-0.000274262
0.0159088
-0.000330625
0.0161854
-0.000396051
0.0165151
-0.000472276
0.0169067
-0.000561372
0.0173706
-0.000665795
0.0179191
-0.000788414
0.0185669
-0.000932535
0.0193307
-0.00110186
0.0202302
-0.00130042
0.0212877
-0.0015323
0.0225276
-0.00180126
0.0239765
-0.00211003
0.025661
-0.0024592
0.027606
-0.0028456
0.0298307
-0.0032601
0.0323431
-0.00368482
0.0351328
-0.00409011
0.0381615
-0.00443216
0.0413538
-0.00465304
0.0445902
-0.00468596
-0.00447201
0.0477101
0.0232743
7.72637e-05
0.0232413
6.45033e-05
0.0232163
4.69486e-05
0.0232017
2.4722e-05
0.0231999
-2.17491e-06
0.0232133
-3.38657e-05
0.0232444
-7.06064e-05
0.023296
-0.000112798
0.0233711
-0.000161004
0.0234729
-0.00021597
0.0236051
-0.00027865
0.0237721
-0.000350237
0.0239787
-0.000432201
0.0242308
-0.000526336
0.024535
-0.000634816
0.0248992
-0.000760253
0.0253327
-0.000905772
0.0258465
-0.00107508
0.0264533
-0.00127254
0.0271682
-0.00150322
0.0280087
-0.00177292
0.0289951
-0.00208814
0.0301507
-0.00245591
0.0315019
-0.00288344
0.0330783
-0.00337747
0.0349116
-0.00394323
0.0370352
-0.00458269
0.0394818
-0.00529203
0.0422798
-0.00605801
0.0454483
-0.0068532
0.0489884
-0.00763017
0.052872
-0.00831565
0.0570261
-0.00880713
0.0613171
-0.0089769
-0.00869854
0.0655437
0.0304884
0.000121174
0.0304493
0.000103464
0.030418
7.79941e-05
0.0303976
4.49851e-05
0.0303907
4.47804e-06
0.0304003
-4.3674e-05
0.0304294
-9.98165e-05
0.0304809
-0.000164512
0.0305584
-0.000238563
0.0306653
-0.000323045
0.0308059
-0.000419338
0.0309848
-0.000529169
0.0312072
-0.00065467
0.0314793
-0.00079844
0.0318081
-0.000963615
0.0322018
-0.00115396
0.03267
-0.00137395
0.0332238
-0.00162889
0.0338763
-0.00192499
0.0346426
-0.00226947
0.0355404
-0.00267059
0.0365899
-0.00313763
0.0378148
-0.00368075
0.0392421
-0.00431057
0.0409022
-0.00503752
0.0428296
-0.00587055
0.0450621
-0.00681511
0.0476401
-0.00786996
0.0506046
-0.00902238
0.0539926
-0.0102412
0.0578296
-0.0114671
0.0621142
-0.0126003
0.0667948
-0.0134876
0.0717325
-0.0139146
-0.0136377
0.0766719
0.0365654
0.000166767
0.0365236
0.000145134
0.0364887
0.000112647
0.0364639
6.96278e-05
0.036452
1.61656e-05
0.0364561
-4.78923e-05
0.0364791
-0.000122959
0.0365242
-0.00020973
0.0365947
-0.000309212
0.0366943
-0.000422763
0.036827
-0.000552133
0.0369973
-0.000699521
0.0372102
-0.000867636
0.0374715
-0.00105978
0.0377878
-0.00127993
0.0381667
-0.00153285
0.0386169
-0.0018242
0.0391487
-0.00216067
0.0397739
-0.00255012
0.0405061
-0.00300165
0.0413614
-0.00352579
0.0423583
-0.00413445
0.0435185
-0.00484091
0.0448675
-0.00565957
0.0464354
-0.00660533
0.0482575
-0.00769258
0.0503757
-0.00893323
0.0528393
-0.0103335
0.0557053
-0.0118884
0.0590371
-0.0135729
0.062898
-0.0153279
0.0673342
-0.0170363
0.0723367
-0.0184901
0.0777659
-0.0193436
-0.0191302
0.0832585
0.0415094
0.000211482
0.0414676
0.00018683
0.0414316
0.00014846
0.0414043
9.67724e-05
0.0413884
3.18998e-05
0.0413867
-4.63126e-05
0.041402
-0.000138328
0.041437
-0.000244942
0.041495
-0.000367321
0.0415792
-0.000507045
0.0416932
-0.000666156
0.0418408
-0.000847219
0.0420265
-0.0010534
0.0422552
-0.00128855
0.0425326
-0.0015573
0.0428649
-0.00186521
0.0432596
-0.00221887
0.043725
-0.00262605
0.0442708
-0.00309592
0.0449084
-0.00363918
0.0456508
-0.00426822
0.0465138
-0.00499737
0.0475158
-0.00584291
0.0486795
-0.00682317
0.0500325
-0.00795832
0.0516099
-0.00926991
0.0534563
-0.0107796
0.0556296
-0.0125068
0.0582052
-0.0144638
0.0612788
-0.0166465
0.0649662
-0.0190151
0.0693877
-0.0214577
0.0746152
-0.0237173
0.0805261
-0.0252544
-0.0251562
0.0865523
0.0453312
0.000253914
0.0452912
0.000226669
0.0452562
0.000183386
0.0452283
0.000124509
0.0452099
5.01887e-05
0.0452032
-3.97369e-05
0.0452105
-0.000145771
0.0452343
-0.000268785
0.0452769
-0.000410059
0.0453411
-0.000571327
0.0454297
-0.000754835
0.0455459
-0.000963402
0.0456929
-0.0012005
0.0458747
-0.00147037
0.0460954
-0.00177807
0.0463599
-0.00212971
0.0466735
-0.00253248
0.0470424
-0.00299494
0.0474736
-0.00352714
0.0479754
-0.00414093
0.0485573
-0.00485015
0.049231
-0.00567105
0.0500107
-0.00662255
0.0509143
-0.00772674
0.0519652
-0.00900929
0.0531953
-0.0104999
0.0546485
-0.0122327
0.0563875
-0.0142458
0.0585029
-0.0165791
0.061124
-0.0192675
0.0644289
-0.0223201
0.0686385
-0.0256671
0.0739491
-0.0290283
0.0802907
-0.031596
-0.0316272
0.0867616
0.0480468
0.000293035
0.0480103
0.000263098
0.047978
0.000215581
0.0479515
0.000150925
0.0479324
6.92699e-05
0.0479221
-2.95694e-05
0.0479224
-0.000146132
0.0479349
-0.000281342
0.0479613
-0.000436551
0.0480035
-0.000613585
0.0480634
-0.000814803
0.0481431
-0.00104316
0.0482449
-0.00130229
0.0483711
-0.00159662
0.0485244
-0.00193145
0.0487078
-0.00231312
0.0489245
-0.00274915
0.049178
-0.00324845
0.0494724
-0.00382155
0.0498123
-0.00448089
0.0502033
-0.00524117
0.0506521
-0.00611983
0.0511673
-0.00713769
0.0517603
-0.00831973
0.0524473
-0.00969635
0.0532524
-0.011305
0.0542121
-0.0131925
0.0553845
-0.0154182
0.0568625
-0.0180572
0.0587958
-0.0212008
0.0614188
-0.0249432
0.0650672
-0.0293159
0.0701004
-0.0340616
0.0764934
-0.0379894
-0.0378693
0.0827351
0.0496774
0.000327291
0.0496461
0.000294265
0.0496187
0.000243018
0.0495956
0.000173947
0.0495777
8.71501e-05
0.0495656
-1.75934e-05
0.0495603
-0.000140858
0.0495625
-0.0002836
0.0495732
-0.000447204
0.0495931
-0.000633524
0.0496232
-0.000844945
0.0496644
-0.00108445
0.0497178
-0.00135568
0.0497842
-0.00166307
0.0498647
-0.00201193
0.0499601
-0.00240858
0.0500714
-0.00286051
0.0501996
-0.0033766
0.0503454
-0.00396736
0.0505097
-0.00464522
0.0506934
-0.00542497
0.0508979
-0.00632435
0.051125
-0.00736479
0.0513779
-0.00857261
0.0516623
-0.00998077
0.0519888
-0.0116315
0.0523769
-0.0135807
0.0528628
-0.015904
0.0535126
-0.0187071
0.0544488
-0.022137
0.0558921
-0.0263867
0.0582222
-0.0316461
0.0619764
-0.0378163
0.0673707
-0.0433841
-0.0421556
0.0716568
0.0502482
0.000354019
0.0502249
0.000317592
0.0502047
0.000263219
0.0501874
0.000191219
0.0501729
0.00010163
0.0501611
-5.81679e-06
0.050152
-0.000131722
0.0501454
-0.000277055
0.0501414
-0.000443191
0.0501398
-0.000631954
0.0501405
-0.000845672
0.0501433
-0.00108724
0.0501478
-0.00136019
0.0501535
-0.00166878
0.0501597
-0.00201811
0.0501653
-0.00241422
0.050169
-0.00286426
0.0501691
-0.00337669
0.0501632
-0.00396148
0.0501484
-0.00463045
0.0501211
-0.00539767
0.0500767
-0.00628005
0.0500101
-0.00729817
0.0499149
-0.00847749
0.0497844
-0.00985029
0.0496114
-0.0114586
0.0493894
-0.0133587
0.0491142
-0.0156288
0.0487869
-0.0183799
0.0484196
-0.0217698
0.0480444
-0.0260116
0.0477299
-0.0313318