/*--------------------------------*- C++ -*----------------------------------*\
| =========                 |                                                 |
| \\      /  F ield         | OpenFOAM: The Open Source CFD Toolbox           |
|  \\    /   O peration     | Version:  2406                                  |
|   \\  /    A nd           | Website:  www.openfoam.com                      |
|    \\/     M anipulation  |                                                 |
\*---------------------------------------------------------------------------*/
FoamFile
{
    version     2.0;
    format      ascii;
    arch        "LSB;label=32;scalar=64";
    class       volScalarField;
    location    "28";
    object      p;
}
// * * * * * * * * * * * * * * * * * * * * * * * * * * * * * * * * * * * * * //

dimensions      [0 2 -2 0 0 0 0];

internalField   nonuniform List<scalar> 
1900
(
0.755151
0.718616
0.679358
0.639707
0.597815
0.553063
0.504772
0.451819
0.392781
0.310244
0.764803
0.721504
0.679062
0.638848
0.596857
0.552072
0.50426
0.452686
0.395684
0.329222
0.771214
0.724418
0.680031
0.640021
0.598803
0.555084
0.509291
0.461775
0.413073
0.365228
0.777026
0.728867
0.683547
0.644227
0.604499
0.562877
0.520369
0.478092
0.437301
0.400275
0.783144
0.73445
0.688877
0.650389
0.612273
0.572952
0.533721
0.495943
0.460758
0.429663
0.788632
0.739853
0.694608
0.656935
0.620157
0.582784
0.546155
0.511553
0.479817
0.451783
0.792311
0.743919
0.699486
0.662429
0.626472
0.590424
0.555508
0.522777
0.492807
0.466056
0.793146
0.745998
0.702779
0.665924
0.630162
0.59473
0.560637
0.528676
0.49926
0.472705
0.789433
0.745593
0.704105
0.667061
0.630941
0.595465
0.561398
0.529327
0.499618
0.47258
0.779793
0.742437
0.703579
0.666486
0.629898
0.594046
0.559569
0.526946
0.496566
0.468797
0.317395
0.316709
0.318225
0.322634
0.329349
0.33762
0.346721
0.355994
0.364869
0.372894
0.379732
0.385162
0.389066
0.391416
0.392256
0.391685
0.389839
0.386877
0.382965
0.37827
0.37295
0.367147
0.360989
0.354586
0.34803
0.341395
0.334742
0.328116
0.321551
0.315072
0.308695
0.302429
0.29628
0.290247
0.284329
0.318183
0.317451
0.318875
0.322962
0.329138
0.336752
0.345184
0.353849
0.362221
0.369864
0.376443
0.381727
0.385587
0.38798
0.388935
0.388537
0.386906
0.384189
0.38054
0.376115
0.371063
0.365522
0.359612
0.353441
0.347096
0.340653
0.334168
0.32769
0.321253
0.314883
0.308596
0.302405
0.296316
0.29033
0.284447
0.316619
0.315964
0.317525
0.321648
0.327688
0.335046
0.343173
0.351539
0.359652
0.367092
0.373529
0.378733
0.382571
0.384997
0.386032
0.385754
0.384277
0.38174
0.37829
0.374076
0.369241
0.363916
0.358217
0.352248
0.346093
0.339825
0.333501
0.327166
0.320855
0.314595
0.308403
0.302291
0.296267
0.290335
0.284494
0.311399
0.311307
0.313579
0.318363
0.324916
0.33263
0.340986
0.349483
0.357659
0.365114
0.371536
0.376711
0.380517
0.382916
0.383941
0.383673
0.38223
0.379751
0.376382
0.372271
0.367555
0.362363
0.356807
0.350984
0.344976
0.338853
0.332667
0.326463
0.320274
0.314124
0.308031
0.302007
0.29606
0.290194
0.284409
0.302039
0.303325
0.307199
0.313415
0.321126
0.329719
0.338701
0.347611
0.35603
0.363597
0.370038
0.375167
0.378891
0.381195
0.382127
0.381784
0.380292
0.377793
0.374437
0.370369
0.365725
0.360628
0.355186
0.349491
0.343621
0.337638
0.331594
0.325527
0.31947
0.313444
0.307465
0.301546
0.295693
0.289909
0.284196
0.287928
0.291922
0.298693
0.307291
0.316822
0.326734
0.33661
0.346071
0.354775
0.362435
0.368833
0.373834
0.377381
0.379494
0.380245
0.379747
0.378138
0.375567
0.372183
0.368131
0.363542
0.358533
0.353205
0.347646
0.341925
0.3361
0.330216
0.324309
0.318407
0.312528
0.306688
0.300896
0.295159
0.28948
0.283859
0.268156
0.276974
0.288598
0.300706
0.312656
0.324204
0.335097
0.3451
0.354007
0.361637
0.367854
0.372586
0.375827
0.377634
0.378108
0.37738
0.375599
0.372917
0.369483
0.365437
0.360903
0.355992
0.350797
0.345394
0.339847
0.334207
0.328512
0.322794
0.317075
0.311373
0.305698
0.300059
0.294463
0.28891
0.283403
0.238465
0.257392
0.277595
0.294529
0.309342
0.322664
0.334528
0.344917
0.353824
0.361213
0.36705
0.371337
0.374123
0.375505
0.375611
0.374589
0.372594
0.36978
0.366291
0.362258
0.357796
0.353006
0.347968
0.342751
0.337409
0.331984
0.326509
0.321009
0.315502
0.310002
0.304518
0.299057
0.293623
0.288218
0.282844
0.182199
0.230219
0.266559
0.289767
0.307635
0.32265
0.335241
0.3457
0.354289
0.361153
0.36637
0.370017
0.372198
0.373045
0.372709
0.371348
0.36912
0.366172
0.362639
0.35864
0.354278
0.349638
0.34479
0.33979
0.334683
0.329502
0.324274
0.319017
0.313746
0.308471
0.303198
0.297933
0.292679
0.287437
0.282209
0.110458
0.20733
0.26216
0.289974
0.309437
0.325132
0.337696
0.347641
0.355453
0.361436
0.365764
0.368576
0.370017
0.370244
0.369419
0.367702
0.365243
0.362179
0.358629
0.354696
0.350466
0.34601
0.341382
0.336628
0.331782
0.326868
0.321907
0.316911
0.31189
0.306853
0.301802
0.296743
0.291678
0.286608
0.281534
0.207637
0.24218
0.280674
0.301951
0.317734
0.33131
0.342325
0.350853
0.357305
0.362011
0.365182
0.366986
0.367585
0.367141
0.365813
0.363751
0.361089
0.357944
0.354416
0.350586
0.346523
0.342281
0.3379
0.333412
0.328843
0.324209
0.319523
0.314794
0.310029
0.305231
0.300405
0.295553
0.290677
0.285778
0.280859
0.275046
0.283016
0.304258
0.318724
0.330103
0.340281
0.348671
0.355042
0.359635
0.362733
0.364541
0.365223
0.364931
0.363813
0.362008
0.359642
0.356825
0.353646
0.350183
0.346495
0.34263
0.338624
0.334505
0.330295
0.326007
0.321653
0.31724
0.312772
0.308255
0.303689
0.299079
0.294425
0.28973
0.284994
0.280221
0.329651
0.323895
0.33127
0.338624
0.345033
0.351017
0.356025
0.359694
0.362082
0.363371
0.363718
0.363252
0.362094
0.360354
0.358138
0.355537
0.352627
0.349471
0.346117
0.342603
0.338958
0.335201
0.33135
0.327414
0.3234
0.319314
0.315159
0.310936
0.306649
0.302298
0.297885
0.293413
0.288882
0.284295
0.279654
0.37233
0.36025
0.358235
0.358945
0.360261
0.361865
0.363251
0.364032
0.364129
0.363607
0.362548
0.361025
0.359105
0.356854
0.354329
0.351582
0.348655
0.345577
0.342373
0.339059
0.335646
0.332141
0.32855
0.324874
0.321116
0.317276
0.313355
0.309353
0.30527
0.301109
0.29687
0.292555
0.288167
0.283708
0.279182
0.405148
0.38984
0.38162
0.376767
0.373455
0.371059
0.369099
0.36721
0.365225
0.363108
0.360857
0.35848
0.355983
0.353378
0.350677
0.347889
0.345021
0.342077
0.339057
0.335959
0.332781
0.329521
0.326173
0.322737
0.319208
0.315586
0.311869
0.308057
0.30415
0.300149
0.296055
0.291873
0.287603
0.283251
0.278819
0.42859
0.411245
0.398939
0.389887
0.382863
0.377244
0.372591
0.368563
0.364948
0.361627
0.358524
0.355577
0.352738
0.349967
0.347233
0.344511
0.341779
0.339016
0.336207
0.333336
0.33039
0.327359
0.324236
0.321013
0.317685
0.314251
0.310707
0.307054
0.303292
0.299423
0.295448
0.291372
0.287197
0.282928
0.278569
0.443057
0.424223
0.409252
0.39731
0.387651
0.379759
0.37324
0.36777
0.363104
0.35906
0.355498
0.352298
0.349366
0.34662
0.343997
0.341442
0.338913
0.336374
0.333797
0.331158
0.328439
0.325624
0.322705
0.319671
0.316519
0.313244
0.309847
0.306325
0.302682
0.298917
0.295037
0.291043
0.286942
0.282736
0.278433
0.449326
0.429355
0.412701
0.398973
0.387705
0.378483
0.370937
0.364744
0.359623
0.355345
0.351716
0.348577
0.345793
0.343256
0.340877
0.338586
0.336327
0.334055
0.331734
0.329338
0.326844
0.32424
0.32151
0.318651
0.315655
0.312522
0.309249
0.305839
0.302293
0.298615
0.294809
0.290881
0.286833
0.282675
0.278411
0.448512
0.42763
0.409952
0.395271
0.383253
0.373521
0.365701
0.35944
0.354419
0.350363
0.347041
0.344257
0.341855
0.339707
0.33771
0.335786
0.333872
0.331919
0.329892
0.327762
0.325509
0.323119
0.320582
0.317892
0.315046
0.312043
0.308885
0.305573
0.302112
0.298506
0.294761
0.290882
0.286877
0.282751
0.278512
0.443987
0.422399
0.404118
0.38901
0.376776
0.367032
0.359375
0.353411
0.348782
0.345175
0.342328
0.340025
0.338092
0.336391
0.334812
0.333273
0.33171
0.330075
0.328332
0.326456
0.324428
0.322236
0.319873
0.317336
0.314622
0.311734
0.308674
0.305447
0.302058
0.298512
0.294816
0.290977
0.287004
0.282902
0.278681
0.27852
0.272814
0.267203
0.261681
0.256239
0.250869
0.245563
0.240313
0.235112
0.229953
0.278663
0.272975
0.267375
0.261857
0.256415
0.25104
0.245727
0.240468
0.235256
0.230085
0.278743
0.273078
0.267495
0.261988
0.25655
0.251177
0.245861
0.240597
0.235378
0.230199
0.278704
0.273077
0.267524
0.262039
0.256619
0.251258
0.24595
0.240689
0.235471
0.230291
0.278554
0.27298
0.26747
0.262022
0.256631
0.251293
0.246002
0.240754
0.235544
0.230368
0.278298
0.272793
0.267344
0.261946
0.256596
0.251291
0.246027
0.2408
0.235605
0.23044
0.277942
0.272525
0.267151
0.261817
0.256521
0.251261
0.246032
0.240833
0.235661
0.230512
0.2775
0.272186
0.266901
0.261644
0.256413
0.251207
0.246023
0.24086
0.235715
0.230587
0.276995
0.271796
0.266612
0.261441
0.256283
0.251138
0.246004
0.240882
0.235769
0.230666
0.276458
0.27138
0.2663
0.261221
0.25614
0.25106
0.245981
0.240902
0.235825
0.230748
0.27592
0.270962
0.265989
0.261
0.255998
0.250984
0.245959
0.240924
0.235882
0.230832
0.275413
0.27057
0.265697
0.260795
0.255867
0.250915
0.245942
0.240949
0.23594
0.230916
0.274964
0.270225
0.265443
0.260619
0.255757
0.250861
0.245934
0.24098
0.236
0.230999
0.274593
0.269944
0.265238
0.260481
0.255676
0.250827
0.245939
0.241016
0.236061
0.231079
0.274313
0.269735
0.265092
0.260388
0.255628
0.250817
0.245959
0.24106
0.236124
0.231156
0.274127
0.269605
0.265009
0.260345
0.255618
0.250834
0.245998
0.241115
0.236192
0.231232
0.274036
0.269555
0.264991
0.260355
0.255649
0.250883
0.246059
0.241187
0.236269
0.231313
0.274047
0.269591
0.265049
0.260427
0.255734
0.250974
0.246156
0.241284
0.236366
0.231406
0.274168
0.269725
0.265191
0.260574
0.255881
0.251119
0.246295
0.241417
0.236491
0.231522
0.274349
0.269913
0.265382
0.260763
0.256066
0.251297
0.246464
0.241575
0.236637
0.231656
0.22483
0.219736
0.214667
0.209618
0.204584
0.199561
0.194547
0.189538
0.184531
0.179525
0.174518
0.169509
0.164497
0.15948
0.154459
0.149433
0.144402
0.139366
0.134326
0.12928
0.124231
0.119178
0.114121
0.10906
0.103997
0.0989319
0.0938644
0.0887951
0.0837244
0.0786524
0.0735795
0.0685059
0.0634318
0.0583572
0.0532823
0.224949
0.219843
0.214761
0.209699
0.204654
0.19962
0.194595
0.189577
0.184562
0.179549
0.174536
0.169521
0.164504
0.159484
0.15446
0.149431
0.144398
0.139361
0.13432
0.129274
0.124224
0.119171
0.114114
0.109054
0.103992
0.0989266
0.0938596
0.0887908
0.0837206
0.0786491
0.0735767
0.0685035
0.0634297
0.0583554
0.053281
0.225053
0.219937
0.214846
0.209774
0.204719
0.199676
0.194642
0.189616
0.184594
0.179574
0.174556
0.169536
0.164515
0.159491
0.154464
0.149433
0.144399
0.13936
0.134317
0.129271
0.124221
0.119167
0.11411
0.10905
0.103988
0.098923
0.0938562
0.0887877
0.0837178
0.0786467
0.0735746
0.0685017
0.0634282
0.0583543
0.05328
0.225142
0.220021
0.214924
0.209846
0.204784
0.199734
0.194694
0.189661
0.184633
0.179607
0.174583
0.169559
0.164533
0.159505
0.154475
0.149441
0.144404
0.139364
0.134319
0.129272
0.12422
0.119166
0.114108
0.109048
0.103985
0.0989205
0.0938537
0.0887853
0.0837155
0.0786445
0.0735726
0.0684998
0.0634265
0.0583528
0.0532786
0.225222
0.220101
0.215001
0.20992
0.204854
0.199799
0.194753
0.189715
0.184681
0.179649
0.17462
0.16959
0.16456
0.159528
0.154493
0.149456
0.144416
0.139373
0.134326
0.129276
0.124223
0.119167
0.114109
0.109048
0.103984
0.0989191
0.093852
0.0887834
0.0837135
0.0786425
0.0735706
0.0684979
0.0634247
0.0583511
0.0532771
0.225301
0.220183
0.215085
0.210003
0.204934
0.199875
0.194824
0.18978
0.18474
0.179703
0.174667
0.169632
0.164596
0.159559
0.154519
0.149478
0.144434
0.139387
0.134337
0.129285
0.124229
0.119172
0.114111
0.109049
0.103985
0.0989186
0.0938509
0.0887818
0.0837116
0.0786404
0.0735685
0.0684959
0.0634227
0.0583492
0.0532753
0.225384
0.220274
0.215179
0.210098
0.205027
0.199965
0.19491
0.18986
0.184814
0.17977
0.174727
0.169685
0.164643
0.159599
0.154554
0.149507
0.144458
0.139406
0.134353
0.129297
0.124238
0.119178
0.114116
0.109052
0.103986
0.0989186
0.09385
0.0887803
0.0837097
0.0786382
0.0735661
0.0684934
0.0634203
0.0583469
0.0532732
0.225474
0.220374
0.215285
0.210206
0.205135
0.20007
0.19501
0.189954
0.184901
0.179849
0.174799
0.169749
0.164699
0.159648
0.154596
0.149542
0.144487
0.13943
0.134372
0.129312
0.12425
0.119186
0.114122
0.109055
0.103988
0.098919
0.0938494
0.0887788
0.0837076
0.0786358
0.0735634
0.0684907
0.0634176
0.0583442
0.0532706
0.225571
0.220483
0.215401
0.210325
0.205254
0.200186
0.195122
0.19006
0.184999
0.17994
0.174881
0.169822
0.164763
0.159704
0.154644
0.149583
0.144521
0.139458
0.134394
0.129329
0.124263
0.119196
0.114128
0.10906
0.10399
0.0989197
0.0938487
0.0887773
0.0837054
0.0786331
0.0735604
0.0684875
0.0634144
0.0583412
0.0532677
0.225672
0.220598
0.215525
0.210453
0.205382
0.200312
0.195242
0.190173
0.185105
0.180037
0.174969
0.169901
0.164833
0.159765
0.154696
0.149628
0.144558
0.139489
0.134419
0.129349
0.124278
0.119207
0.114136
0.109064
0.103993
0.0989205
0.0938482
0.0887757
0.083703
0.0786302
0.0735572
0.0684842
0.0634111
0.0583379
0.0532647
0.225776
0.220716
0.215651
0.210583
0.205513
0.20044
0.195366
0.19029
0.185214
0.180137
0.175059
0.169982
0.164905
0.159827
0.15475
0.149673
0.144597
0.13952
0.134444
0.129369
0.124294
0.119219
0.114144
0.10907
0.103995
0.0989214
0.0938476
0.088774
0.0837006
0.0786272
0.073554
0.0684808
0.0634077
0.0583346
0.0532615
0.22588
0.220832
0.215775
0.210711
0.205641
0.200565
0.195486
0.190404
0.18532
0.180234
0.175148
0.170061
0.164974
0.159888
0.154803
0.149718
0.144634
0.139551
0.134469
0.129388
0.124308
0.11923
0.114152
0.109074
0.103998
0.0989222
0.0938471
0.0887724
0.0836982
0.0786243
0.0735508
0.0684775
0.0634044
0.0583314
0.0532585
0.225979
0.220943
0.215893
0.210832
0.205761
0.200683
0.195599
0.19051
0.185418
0.180325
0.17523
0.170134
0.165039
0.159944
0.154851
0.149759
0.144668
0.139579
0.134492
0.129406
0.124322
0.11924
0.114159
0.109079
0.104
0.098923
0.0938465
0.0887709
0.083696
0.0786217
0.0735478
0.0684744
0.0634013
0.0583284
0.0532557
0.226072
0.221045
0.216
0.210941
0.205869
0.200788
0.195699
0.190604
0.185506
0.180404
0.175302
0.170198
0.165096
0.159994
0.154893
0.149795
0.144698
0.139604
0.134511
0.129421
0.124334
0.119248
0.114164
0.109083
0.104002
0.0989234
0.0938458
0.0887694
0.0836939
0.0786192
0.0735451
0.0684716
0.0633985
0.0583258
0.0532532
0.226159
0.221138
0.216096
0.211036
0.205963
0.200878
0.195785
0.190684
0.18558
0.180472
0.175362
0.170252
0.165143
0.160034
0.154928
0.149824
0.144722
0.139623
0.134527
0.129434
0.124343
0.119255
0.114169
0.109085
0.104003
0.0989234
0.0938451
0.0887678
0.0836921
0.0786169
0.0735429
0.0684691
0.0633962
0.0583234
0.0532512
0.226241
0.221222
0.216181
0.21112
0.206044
0.200955
0.195856
0.190751
0.18564
0.180526
0.17541
0.170294
0.165179
0.160066
0.154954
0.149846
0.14474
0.139638
0.134538
0.129442
0.124349
0.119259
0.114171
0.109086
0.104004
0.098923
0.0938439
0.0887664
0.0836901
0.078615
0.0735407
0.0684671
0.0633941
0.0583216
0.0532493
0.226322
0.221303
0.216259
0.211195
0.206114
0.20102
0.195916
0.190804
0.185688
0.180568
0.175447
0.170326
0.165206
0.160088
0.154973
0.149861
0.144752
0.139647
0.134545
0.129447
0.124352
0.119261
0.114172
0.109086
0.104003
0.0989218
0.0938421
0.0887647
0.083688
0.0786132
0.0735386
0.0684655
0.0633922
0.0583202
0.0532477
0.226412
0.221387
0.216338
0.211267
0.20618
0.201078
0.195968
0.190849
0.185727
0.180601
0.175475
0.170349
0.165225
0.160103
0.154985
0.149869
0.144758
0.13965
0.134547
0.129448
0.124352
0.119259
0.114171
0.109084
0.104001
0.0989189
0.09384
0.0887618
0.0836861
0.0786105
0.0735369
0.0684632
0.063391
0.0583182
0.0532469
0.226518
0.221483
0.216423
0.211342
0.206245
0.201135
0.196016
0.19089
0.18576
0.180628
0.175495
0.170365
0.165236
0.160111
0.154989
0.149872
0.144758
0.139649
0.134545
0.129445
0.124348
0.119256
0.114166
0.10908
0.103997
0.0989154
0.0938362
0.0887588
0.0836828
0.0786082
0.0735343
0.0684614
0.0633889
0.058317
0.0532452
0.226639
0.221591
0.216518
0.211425
0.206315
0.201194
0.196065
0.19093
0.185791
0.180652
0.175513
0.170377
0.165244
0.160115
0.15499
0.14987
0.144755
0.139645
0.134539
0.129438
0.124342
0.119249
0.11416
0.109074
0.103991
0.0989102
0.0938315
0.0887547
0.0836792
0.078605
0.0735317
0.0684591
0.0633871
0.0583155
0.0532441
0.0482073
0.0431322
0.038057
0.032982
0.027907
0.0228316
0.0177565
0.0126829
0.00760597
0.00253071
0.0482061
0.0431313
0.0380563
0.0329817
0.0279068
0.0228298
0.0177549
0.0126925
0.0075981
0.00251443
0.0482054
0.0431307
0.0380561
0.0329818
0.0279071
0.0228295
0.0177548
0.0126975
0.00760111
0.00251628
0.0482043
0.0431297
0.0380552
0.032981
0.0279064
0.0228288
0.0177541
0.0126968
0.00759755
0.00251603
0.0482029
0.0431285
0.0380541
0.03298
0.0279055
0.0228281
0.0177541
0.0126965
0.00759254
0.0025155
0.0482013
0.043127
0.0380528
0.0329788
0.0279043
0.0228272
0.0177541
0.0126966
0.00758839
0.00251591
0.0481993
0.0431252
0.0380512
0.0329773
0.0279029
0.022826
0.0177536
0.0126962
0.00758435
0.00251639
0.0481969
0.043123
0.0380492
0.0329756
0.0279012
0.0228245
0.0177528
0.0126954
0.00758068
0.0025167
0.0481942
0.0431206
0.038047
0.0329736
0.0278995
0.0228231
0.0177518
0.0126945
0.00757788
0.00251692
0.0481914
0.043118
0.0380447
0.0329716
0.0278977
0.0228216
0.0177508
0.0126937
0.00757626
0.00251705
0.0481885
0.0431154
0.0380424
0.0329696
0.027896
0.0228203
0.0177498
0.012693
0.00757594
0.00251706
0.0481857
0.0431129
0.0380402
0.0329677
0.0278946
0.0228191
0.0177488
0.0126924
0.00757692
0.00251697
0.0481831
0.0431106
0.0380382
0.0329661
0.0278933
0.0228182
0.017748
0.0126919
0.00757912
0.00251678
0.0481809
0.0431085
0.0380365
0.0329647
0.0278923
0.0228174
0.0177472
0.0126915
0.00758225
0.00251646
0.0481788
0.043107
0.0380349
0.0329636
0.0278914
0.022817
0.0177462
0.012691
0.00758579
0.00251595
0.0481773
0.0431055
0.0380338
0.0329626
0.0278908
0.0228163
0.0177453
0.0126901
0.00758951
0.00251544
0.0481763
0.0431042
0.0380331
0.0329617
0.0278906
0.0228158
0.0177444
0.0126898
0.00759416
0.0025158
0.0481747
0.0431037
0.0380319
0.0329615
0.0278899
0.022816
0.0177443
0.0126902
0.00759741
0.00251579
0.0481739
0.0431024
0.0380312
0.0329603
0.0278892
0.0228154
0.0177439
0.0126849
0.0075944
0.00251377
0.0481729
0.0431018
0.0380307
0.0329596
0.0278885
0.0228168
0.0177453
0.0126751
0.00760165
0.00252943
)
;

boundaryField
{
    inlet
    {
        type            zeroGradient;
    }
    outlet
    {
        type            fixedValue;
        value           uniform 0;
    }
    upperWall
    {
        type            zeroGradient;
    }
    lowerWall
    {
        type            zeroGradient;
    }
    frontAndBack
    {
        type            empty;
    }
}


// ************************************************************************* //
