/*--------------------------------*- C++ -*----------------------------------*\
| =========                 |                                                 |
| \\      /  F ield         | OpenFOAM: The Open Source CFD Toolbox           |
|  \\    /   O peration     | Version:  2406                                  |
|   \\  /    A nd           | Website:  www.openfoam.com                      |
|    \\/     M anipulation  |                                                 |
\*---------------------------------------------------------------------------*/
FoamFile
{
    version     2.0;
    format      ascii;
    arch        "LSB;label=32;scalar=64";
    class       volScalarField;
    location    "79";
    object      p;
}
// * * * * * * * * * * * * * * * * * * * * * * * * * * * * * * * * * * * * * //

dimensions      [0 2 -2 0 0 0 0];

internalField   nonuniform List<scalar> 
2000
(
0.0239178
0.0246399
0.0252053
0.0254889
0.0256444
0.0257441
0.0257889
0.0257794
0.0257267
0.0256414
0.0245532
0.0248897
0.0252652
0.0255106
0.0256519
0.0257355
0.0257712
0.0257595
0.025707
0.0256223
0.0251545
0.0251334
0.0252782
0.0254713
0.0256074
0.0256817
0.0257116
0.0257024
0.0256565
0.0255787
0.0256413
0.0254434
0.0254155
0.0255285
0.0256311
0.0256773
0.0256834
0.025661
0.0256106
0.0255325
0.0260457
0.0257612
0.0256038
0.0256208
0.02567
0.0256811
0.0256602
0.0256204
0.0255619
0.0254817
0.0263765
0.0260426
0.0257968
0.0257329
0.0257298
0.0257067
0.0256593
0.0255998
0.0255293
0.025443
0.0266382
0.0262745
0.0259716
0.0258474
0.0257979
0.0257415
0.0256684
0.0255891
0.025505
0.0254107
0.0268332
0.0264516
0.0261126
0.0259461
0.0258603
0.0257762
0.0256817
0.0255861
0.0254904
0.0253885
0.026963
0.0265709
0.0262104
0.0260176
0.0259075
0.0258039
0.0256942
0.0255869
0.0254825
0.0253745
0.0270278
0.026631
0.0262604
0.026055
0.0259328
0.0258191
0.0257015
0.025588
0.025479
0.0253678
0.0270278
0.026631
0.0262604
0.026055
0.0259328
0.0258191
0.0257016
0.025588
0.025479
0.0253678
0.026963
0.026571
0.0262104
0.0260176
0.0259075
0.0258039
0.0256943
0.0255869
0.0254824
0.0253745
0.0268332
0.0264516
0.0261126
0.0259461
0.0258603
0.0257762
0.0256818
0.0255861
0.0254904
0.0253884
0.0266382
0.0262745
0.0259716
0.0258474
0.0257979
0.0257415
0.0256685
0.0255891
0.025505
0.0254106
0.0263766
0.0260426
0.0257968
0.0257329
0.0257298
0.0257067
0.0256594
0.0255999
0.0255292
0.0254428
0.0260457
0.0257612
0.0256039
0.0256208
0.0256699
0.0256811
0.0256604
0.0256204
0.0255617
0.0254815
0.0256413
0.0254434
0.0254155
0.0255285
0.025631
0.0256773
0.0256836
0.0256611
0.0256104
0.0255323
0.0251545
0.0251335
0.0252782
0.0254713
0.0256073
0.0256817
0.0257117
0.0257025
0.0256564
0.0255786
0.0245533
0.0248897
0.0252653
0.0255106
0.0256519
0.0257355
0.0257712
0.0257595
0.0257069
0.0256223
0.0239178
0.0246399
0.0252053
0.0254889
0.0256444
0.0257441
0.0257889
0.0257795
0.0257267
0.0256414
0.0255299
0.0253968
0.0252454
0.0250788
0.0248994
0.024709
0.0245091
0.024301
0.0240855
0.0238636
0.0236359
0.0234029
0.0231653
0.0229233
0.0226773
0.0224276
0.0221745
0.0219182
0.021659
0.0213971
0.0211326
0.0208656
0.0205963
0.0203249
0.0200514
0.0197759
0.0194986
0.0192195
0.0189387
0.0186563
0.0183724
0.018087
0.0178002
0.0175121
0.0172227
0.0255119
0.02538
0.0252301
0.0250649
0.0248867
0.0246975
0.0244987
0.0242916
0.024077
0.0238558
0.0236288
0.0233964
0.0231593
0.0229178
0.0226722
0.0224229
0.0221702
0.0219142
0.0216553
0.0213935
0.0211292
0.0208624
0.0205933
0.020322
0.0200487
0.0197733
0.0194961
0.0192171
0.0189364
0.0186541
0.0183703
0.018085
0.0177983
0.0175102
0.0172209
0.0254743
0.0253477
0.0252023
0.0250411
0.0248663
0.0246798
0.0244832
0.0242779
0.024065
0.0238452
0.0236194
0.023388
0.0231517
0.0229108
0.0226658
0.022417
0.0221647
0.0219091
0.0216505
0.0213892
0.0211251
0.0208586
0.0205897
0.0203186
0.0200455
0.0197703
0.0194932
0.0192144
0.0189338
0.0186516
0.0183679
0.0180827
0.0177961
0.0175082
0.0172189
0.0254295
0.0253051
0.0251625
0.0250046
0.0248332
0.0246498
0.024456
0.0242532
0.0240427
0.0238252
0.0236016
0.0233721
0.0231373
0.0228977
0.0226538
0.0224058
0.0221544
0.0218997
0.0216419
0.0213813
0.0211179
0.020852
0.0205836
0.020313
0.0200401
0.0197652
0.0194884
0.0192098
0.0189295
0.0186475
0.018364
0.0180791
0.0177927
0.0175049
0.0172159
0.0253793
0.0252568
0.0251171
0.0249628
0.0247952
0.0246154
0.0244247
0.0242247
0.0240167
0.0238019
0.0235807
0.0233535
0.0231206
0.0228825
0.0226396
0.0223926
0.022142
0.0218881
0.0216312
0.0213715
0.021109
0.0208438
0.020576
0.0203059
0.0200334
0.0197588
0.0194823
0.0192039
0.0189238
0.0186421
0.0183589
0.0180743
0.0177881
0.0175007
0.0172118
0.0253379
0.0252147
0.0250759
0.0249235
0.0247586
0.0245815
0.0243933
0.0241956
0.0239899
0.0237774
0.0235586
0.0233337
0.0231027
0.0228662
0.0226245
0.0223785
0.0221287
0.0218757
0.0216197
0.0213609
0.0210993
0.0208349
0.0205679
0.0202983
0.0200263
0.019752
0.0194757
0.0191976
0.0189178
0.0186363
0.0183534
0.018069
0.0177832
0.017496
0.0172075
0.0253014
0.0251765
0.0250377
0.0248868
0.0247241
0.0245494
0.0243635
0.0241679
0.0239642
0.023754
0.0235375
0.0233147
0.0230857
0.0228508
0.0226103
0.0223653
0.0221163
0.021864
0.0216088
0.0213509
0.0210901
0.0208266
0.0205603
0.0202912
0.0200196
0.0197457
0.0194696
0.0191917
0.0189121
0.0186309
0.0183482
0.0180641
0.0177786
0.0174917
0.0172034
0.0252748
0.0251476
0.0250083
0.0248581
0.0246969
0.024524
0.0243397
0.0241455
0.0239434
0.0237347
0.0235199
0.0232989
0.0230716
0.0228379
0.0225986
0.0223543
0.022106
0.0218543
0.0215997
0.0213424
0.0210823
0.0208195
0.0205538
0.0202852
0.020014
0.0197404
0.0194645
0.0191868
0.0189073
0.0186263
0.0183438
0.0180599
0.0177746
0.017488
0.0171999
0.0252569
0.0251277
0.0249876
0.0248377
0.0246773
0.0245055
0.0243223
0.0241291
0.023928
0.0237204
0.0235069
0.0232873
0.0230611
0.0228285
0.02259
0.0223463
0.0220985
0.0218472
0.0215931
0.0213362
0.0210766
0.0208143
0.020549
0.0202809
0.02001
0.0197366
0.0194609
0.0191833
0.0189039
0.018623
0.0183407
0.0180569
0.0177718
0.0174853
0.0171974
0.0252481
0.0251177
0.0249773
0.0248274
0.0246674
0.0244961
0.0243134
0.0241208
0.0239201
0.0237131
0.0235003
0.0232813
0.0230558
0.0228237
0.0225856
0.0223423
0.0220947
0.0218436
0.0215896
0.021333
0.0210736
0.0208115
0.0205465
0.0202786
0.0200079
0.0197346
0.0194591
0.0191815
0.0189022
0.0186213
0.018339
0.0180554
0.0177703
0.0174839
0.0171961
0.0252481
0.0251177
0.0249773
0.0248274
0.0246674
0.0244961
0.0243134
0.0241207
0.0239202
0.0237132
0.0235003
0.0232813
0.0230558
0.0228237
0.0225856
0.0223423
0.0220947
0.0218436
0.0215896
0.021333
0.0210736
0.0208115
0.0205464
0.0202785
0.0200079
0.0197346
0.0194591
0.0191815
0.0189022
0.0186214
0.0183391
0.0180554
0.0177703
0.0174839
0.0171961
0.0252569
0.0251278
0.0249877
0.0248377
0.0246772
0.0245054
0.0243222
0.0241291
0.0239281
0.0237206
0.023507
0.0232872
0.023061
0.0228285
0.02259
0.0223464
0.0220986
0.0218473
0.0215931
0.0213362
0.0210766
0.0208142
0.0205489
0.0202808
0.0200099
0.0197366
0.019461
0.0191834
0.018904
0.0186231
0.0183407
0.018057
0.0177718
0.0174853
0.0171974
0.0252747
0.0251477
0.0250085
0.0248581
0.0246967
0.0245238
0.0243396
0.0241456
0.0239436
0.0237349
0.02352
0.0232988
0.0230714
0.0228377
0.0225984
0.0223543
0.0221061
0.0218545
0.0215999
0.0213425
0.0210824
0.0208194
0.0205536
0.0202851
0.0200139
0.0197403
0.0194646
0.0191869
0.0189074
0.0186264
0.0183439
0.01806
0.0177747
0.017488
0.0171999
0.0253014
0.0251767
0.0250379
0.0248867
0.0247238
0.0245491
0.0243634
0.024168
0.0239646
0.0237543
0.0235376
0.0233146
0.0230855
0.0228505
0.0226102
0.0223653
0.0221165
0.0218643
0.0216091
0.021351
0.0210902
0.0208265
0.0205601
0.0202911
0.0200195
0.0197456
0.0194696
0.0191918
0.0189122
0.018631
0.0183483
0.0180642
0.0177786
0.0174917
0.0172034
0.025338
0.0252151
0.0250762
0.0249235
0.0247582
0.0245811
0.0243932
0.0241957
0.0239903
0.0237778
0.0235588
0.0233336
0.0231025
0.0228659
0.0226243
0.0223785
0.0221288
0.0218759
0.0216199
0.021361
0.0210993
0.0208349
0.0205678
0.0202982
0.0200262
0.019752
0.0194757
0.0191976
0.0189178
0.0186364
0.0183535
0.0180691
0.0177833
0.0174961
0.0172075
0.0253794
0.0252571
0.0251174
0.0249627
0.0247948
0.024615
0.0244246
0.0242248
0.024017
0.0238022
0.0235808
0.0233535
0.0231204
0.0228823
0.0226395
0.0223926
0.0221421
0.0218883
0.0216314
0.0213716
0.021109
0.0208438
0.020576
0.0203058
0.0200334
0.0197588
0.0194823
0.0192039
0.0189239
0.0186422
0.018359
0.0180743
0.0177882
0.0175007
0.0172119
0.0254296
0.0253053
0.0251628
0.0250046
0.024833
0.0246496
0.024456
0.0242533
0.0240428
0.0238254
0.0236016
0.0233721
0.0231373
0.0228976
0.0226537
0.0224058
0.0221544
0.0218997
0.021642
0.0213813
0.021118
0.020852
0.0205836
0.020313
0.0200401
0.0197652
0.0194884
0.0192098
0.0189295
0.0186476
0.0183641
0.0180791
0.0177927
0.017505
0.0172159
0.0254744
0.0253478
0.0252024
0.0250411
0.0248662
0.0246798
0.0244832
0.024278
0.024065
0.0238453
0.0236194
0.023388
0.0231517
0.0229108
0.0226658
0.022417
0.0221647
0.0219091
0.0216506
0.0213892
0.0211252
0.0208586
0.0205898
0.0203187
0.0200455
0.0197703
0.0194932
0.0192144
0.0189338
0.0186517
0.0183679
0.0180828
0.0177962
0.0175082
0.017219
0.0255119
0.0253801
0.0252301
0.0250649
0.0248867
0.0246975
0.0244987
0.0242916
0.024077
0.0238558
0.0236288
0.0233965
0.0231593
0.0229178
0.0226722
0.0224229
0.0221702
0.0219142
0.0216553
0.0213936
0.0211292
0.0208624
0.0205933
0.0203221
0.0200487
0.0197734
0.0194961
0.0192171
0.0189365
0.0186542
0.0183703
0.018085
0.0177983
0.0175103
0.0172209
0.0255299
0.0253968
0.0252454
0.0250789
0.0248994
0.024709
0.0245091
0.024301
0.0240855
0.0238636
0.0236359
0.023403
0.0231653
0.0229233
0.0226773
0.0224276
0.0221745
0.0219183
0.0216591
0.0213971
0.0211326
0.0208656
0.0205964
0.0203249
0.0200514
0.0197759
0.0194986
0.0192195
0.0189387
0.0186563
0.0183724
0.018087
0.0178003
0.0175121
0.0172228
0.0169321
0.0166403
0.0163473
0.0160532
0.0157581
0.015462
0.0151648
0.0148667
0.0145677
0.0142678
0.0169303
0.0166386
0.0163457
0.0160516
0.0157566
0.0154605
0.0151634
0.0148653
0.0145663
0.0142665
0.0169285
0.0166368
0.0163439
0.01605
0.015755
0.0154589
0.0151619
0.0148639
0.014565
0.0142652
0.0169255
0.016634
0.0163413
0.0160474
0.0157525
0.0154565
0.0151596
0.0148617
0.0145628
0.0142631
0.0169217
0.0166303
0.0163378
0.0160441
0.0157493
0.0154534
0.0151565
0.0148587
0.01456
0.0142604
0.0169176
0.0166264
0.016334
0.0160405
0.0157458
0.01545
0.0151532
0.0148555
0.0145569
0.0142573
0.0169138
0.0166228
0.0163305
0.0160371
0.0157425
0.0154468
0.0151501
0.0148525
0.0145539
0.0142545
0.0169105
0.0166197
0.0163276
0.0160342
0.0157397
0.0154441
0.0151475
0.0148499
0.0145514
0.014252
0.0169081
0.0166174
0.0163255
0.0160322
0.0157377
0.0154422
0.0151456
0.0148481
0.0145496
0.0142503
0.0169069
0.0166163
0.0163243
0.0160311
0.0157367
0.0154412
0.0151446
0.0148471
0.0145487
0.0142494
0.0169068
0.0166162
0.0163243
0.0160311
0.0157367
0.0154412
0.0151447
0.0148471
0.0145487
0.0142494
0.0169081
0.0166174
0.0163254
0.0160322
0.0157378
0.0154422
0.0151457
0.0148481
0.0145497
0.0142504
0.0169104
0.0166196
0.0163276
0.0160342
0.0157397
0.0154441
0.0151475
0.0148499
0.0145515
0.0142521
0.0169137
0.0166228
0.0163305
0.0160371
0.0157425
0.0154468
0.0151501
0.0148525
0.0145539
0.0142545
0.0169176
0.0166264
0.016334
0.0160405
0.0157458
0.01545
0.0151533
0.0148555
0.0145569
0.0142574
0.0169217
0.0166304
0.0163378
0.0160441
0.0157493
0.0154534
0.0151566
0.0148588
0.01456
0.0142604
0.0169256
0.016634
0.0163413
0.0160475
0.0157525
0.0154566
0.0151596
0.0148617
0.0145629
0.0142632
0.0169285
0.0166368
0.016344
0.01605
0.015755
0.015459
0.0151619
0.0148639
0.014565
0.0142652
0.0169304
0.0166386
0.0163457
0.0160517
0.0157566
0.0154605
0.0151634
0.0148654
0.0145664
0.0142665
0.0169321
0.0166403
0.0163473
0.0160533
0.0157581
0.015462
0.0151649
0.0148668
0.0145678
0.0142679
0.0139671
0.0136655
0.0133631
0.01306
0.0127561
0.0124514
0.0121461
0.01184
0.0115333
0.011226
0.010918
0.0106094
0.0103001
0.00999035
0.00967999
0.00936907
0.00905761
0.00874564
0.00843314
0.00812015
0.00780668
0.00749272
0.00717831
0.00686343
0.00654812
0.00623237
0.0059162
0.00559961
0.00528261
0.00496522
0.00464744
0.00432927
0.00401073
0.00369183
0.00337256
0.0139658
0.0136642
0.0133619
0.0130588
0.0127549
0.0124503
0.0121449
0.0118389
0.0115322
0.0112249
0.0109169
0.0106084
0.0102992
0.00998938
0.00967904
0.00936814
0.00905671
0.00874474
0.00843227
0.0081193
0.00780583
0.0074919
0.00717749
0.00686264
0.00654734
0.0062316
0.00591544
0.00559887
0.00528188
0.0049645
0.00464673
0.00432858
0.00401006
0.00369116
0.00337191
0.0139645
0.013663
0.0133607
0.0130576
0.0127537
0.0124492
0.0121439
0.0118379
0.0115313
0.0112239
0.010916
0.0106074
0.0102983
0.00998852
0.00967819
0.00936732
0.0090559
0.00874396
0.0084315
0.00811855
0.0078051
0.00749118
0.0071768
0.00686196
0.00654667
0.00623095
0.00591481
0.00559825
0.00528128
0.00496391
0.00464616
0.00432802
0.00400951
0.00369063
0.00337139
0.0139625
0.0136611
0.0133589
0.0130558
0.0127521
0.0124475
0.0121423
0.0118364
0.0115298
0.0112225
0.0109146
0.0106061
0.010297
0.00998725
0.00967696
0.00936612
0.00905474
0.00874283
0.00843041
0.00811748
0.00780407
0.00749018
0.00717582
0.006861
0.00654575
0.00623005
0.00591393
0.00559739
0.00528045
0.00496311
0.00464538
0.00432726
0.00400878
0.00368993
0.00337072
0.0139599
0.0136586
0.0133564
0.0130535
0.0127498
0.0124454
0.0121402
0.0118344
0.0115278
0.0112206
0.0109128
0.0106043
0.0102952
0.00998557
0.00967533
0.00936453
0.00905319
0.00874133
0.00842895
0.00811607
0.00780269
0.00748884
0.00717452
0.00685975
0.00654452
0.00622886
0.00591278
0.00559627
0.00527936
0.00496205
0.00464435
0.00432627
0.00400782
0.003689
0.00336984
0.013957
0.0136557
0.0133537
0.0130509
0.0127473
0.012443
0.0121379
0.0118322
0.0115257
0.0112186
0.0109108
0.0106023
0.0102933
0.00998368
0.00967349
0.00936274
0.00905145
0.00873963
0.00842729
0.00811446
0.00780113
0.00748733
0.00717305
0.00685832
0.00654314
0.00622751
0.00591146
0.005595
0.00527812
0.00496084
0.00464318
0.00432513
0.00400672
0.00368795
0.00336883
0.0139542
0.0136531
0.0133512
0.0130485
0.012745
0.0124407
0.0121358
0.0118301
0.0115237
0.0112166
0.0109088
0.0106004
0.0102915
0.00998188
0.00967172
0.00936101
0.00904976
0.00873799
0.0084257
0.00811291
0.00779962
0.00748586
0.00717163
0.00685694
0.00654179
0.00622621
0.00591019
0.00559376
0.00527692
0.00495967
0.00464204
0.00432403
0.00400566
0.00368693
0.00336786
0.0139518
0.0136508
0.013349
0.0130464
0.012743
0.0124388
0.0121339
0.0118283
0.0115219
0.0112149
0.0109072
0.0105989
0.0102899
0.00998036
0.00967023
0.00935956
0.00904834
0.0087366
0.00842435
0.00811159
0.00779835
0.00748462
0.00717043
0.00685577
0.00654066
0.0062251
0.00590912
0.00559271
0.0052759
0.00495868
0.00464108
0.0043231
0.00400476
0.00368607
0.00336705
0.0139502
0.0136492
0.0133474
0.0130449
0.0127416
0.0124375
0.0121326
0.011827
0.0115207
0.0112137
0.010906
0.0105977
0.0102888
0.00997926
0.00966917
0.00935851
0.00904732
0.00873561
0.00842338
0.00811065
0.00779744
0.00748374
0.00716957
0.00685493
0.00653984
0.00622431
0.00590835
0.00559197
0.00527517
0.00495798
0.0046404
0.00432244
0.00400412
0.00368546
0.00336647
0.0139493
0.0136484
0.0133466
0.0130441
0.0127408
0.0124367
0.0121319
0.0118263
0.0115201
0.0112131
0.0109054
0.0105971
0.0102882
0.0099787
0.00966862
0.00935798
0.0090468
0.0087351
0.00842289
0.00811017
0.00779697
0.00748328
0.00716912
0.0068545
0.00653943
0.00622391
0.00590796
0.00559158
0.0052748
0.00495761
0.00464004
0.0043221
0.0040038
0.00368515
0.00336617
0.0139493
0.0136484
0.0133466
0.0130441
0.0127408
0.0124367
0.0121319
0.0118263
0.0115201
0.0112131
0.0109054
0.0105971
0.0102882
0.00997871
0.00966863
0.00935799
0.00904681
0.00873511
0.0084229
0.00811019
0.00779698
0.0074833
0.00716914
0.00685452
0.00653944
0.00622392
0.00590797
0.00559159
0.00527481
0.00495763
0.00464006
0.00432211
0.00400381
0.00368516
0.00336619
0.0139502
0.0136492
0.0133475
0.0130449
0.0127416
0.0124375
0.0121326
0.011827
0.0115207
0.0112137
0.010906
0.0105977
0.0102888
0.0099793
0.0096692
0.00935855
0.00904737
0.00873565
0.00842343
0.0081107
0.00779748
0.00748378
0.00716961
0.00685497
0.00653988
0.00622435
0.00590839
0.005592
0.00527521
0.00495801
0.00464043
0.00432248
0.00400416
0.0036855
0.00336651
0.0139519
0.0136509
0.013349
0.0130464
0.012743
0.0124389
0.0121339
0.0118283
0.011522
0.0112149
0.0109072
0.0105989
0.01029
0.00998041
0.00967029
0.00935962
0.0090484
0.00873667
0.00842441
0.00811166
0.00779842
0.00748469
0.00717049
0.00685583
0.00654072
0.00622517
0.00590918
0.00559278
0.00527596
0.00495875
0.00464114
0.00432317
0.00400483
0.00368614
0.00336711
0.0139542
0.0136531
0.0133512
0.0130485
0.012745
0.0124408
0.0121358
0.0118301
0.0115237
0.0112166
0.0109089
0.0106005
0.0102915
0.00998195
0.0096718
0.00936109
0.00904984
0.00873807
0.00842578
0.00811299
0.00779971
0.00748595
0.00717171
0.00685702
0.00654188
0.00622629
0.00591028
0.00559384
0.005277
0.00495976
0.00464213
0.00432412
0.00400574
0.00368701
0.00336794
0.013957
0.0136558
0.0133538
0.013051
0.0127474
0.0124431
0.012138
0.0118322
0.0115258
0.0112186
0.0109108
0.0106024
0.0102934
0.00998376
0.00967357
0.00936282
0.00905153
0.00873972
0.00842739
0.00811455
0.00780123
0.00748743
0.00717315
0.00685842
0.00654324
0.00622762
0.00591157
0.0055951
0.00527822
0.00496094
0.00464328
0.00432523
0.00400682
0.00368805
0.00336893
0.0139599
0.0136586
0.0133565
0.0130536
0.0127499
0.0124455
0.0121403
0.0118345
0.0115279
0.0112207
0.0109129
0.0106044
0.0102953
0.00998565
0.00967542
0.00936462
0.00905329
0.00874142
0.00842905
0.00811617
0.0078028
0.00748895
0.00717463
0.00685986
0.00654464
0.00622898
0.00591289
0.00559639
0.00527947
0.00496216
0.00464446
0.00432638
0.00400792
0.00368911
0.00336993
0.0139626
0.0136611
0.0133589
0.0130559
0.0127521
0.0124476
0.0121424
0.0118365
0.0115299
0.0112226
0.0109147
0.0106062
0.0102971
0.00998734
0.00967706
0.00936622
0.00905484
0.00874293
0.00843051
0.00811759
0.00780418
0.00749029
0.00717593
0.00686112
0.00654586
0.00623017
0.00591405
0.00559751
0.00528057
0.00496322
0.00464549
0.00432738
0.00400889
0.00369003
0.00337082
0.0139645
0.013663
0.0133607
0.0130577
0.0127538
0.0124492
0.012144
0.011838
0.0115313
0.011224
0.0109161
0.0106075
0.0102984
0.00998861
0.00967829
0.00936742
0.00905601
0.00874407
0.00843161
0.00811866
0.00780522
0.0074913
0.00717691
0.00686208
0.00654679
0.00623107
0.00591493
0.00559837
0.0052814
0.00496403
0.00464627
0.00432813
0.00400962
0.00369074
0.0033715
0.0139658
0.0136643
0.0133619
0.0130588
0.0127549
0.0124503
0.012145
0.011839
0.0115323
0.011225
0.010917
0.0106084
0.0102993
0.00998948
0.00967914
0.00936825
0.00905681
0.00874485
0.00843238
0.00811941
0.00780595
0.00749201
0.00717761
0.00686275
0.00654746
0.00623172
0.00591556
0.00559899
0.005282
0.00496462
0.00464685
0.0043287
0.00401017
0.00369127
0.00337201
0.0139671
0.0136656
0.0133632
0.01306
0.0127561
0.0124515
0.0121462
0.0118401
0.0115334
0.011226
0.0109181
0.0106094
0.0103002
0.00999044
0.00968008
0.00936917
0.00905772
0.00874574
0.00843325
0.00812026
0.00780679
0.00749284
0.00717842
0.00686355
0.00654824
0.00623249
0.00591631
0.00559972
0.00528273
0.00496533
0.00464755
0.00432938
0.00401084
0.00369193
0.00337266
0.00305294
0.00273298
0.00241267
0.00209202
0.00177104
0.00144973
0.00112808
0.000806189
0.000483714
0.000162164
0.0030523
0.00273235
0.00241205
0.00209141
0.00177044
0.00144915
0.00112745
0.00080564
0.00048269
0.000162608
0.0030518
0.00273187
0.00241159
0.00209097
0.00177002
0.00144875
0.00112702
0.000805287
0.000481869
0.000163279
0.00305116
0.00273126
0.00241102
0.00209046
0.00176956
0.00144834
0.0011267
0.000805023
0.000481782
0.000163014
0.00305032
0.00273048
0.0024103
0.00208981
0.00176901
0.00144791
0.00112646
0.000804889
0.000482454
0.00016171
0.00304938
0.0027296
0.0024095
0.00208911
0.00176844
0.00144749
0.00112633
0.000804891
0.000483516
0.000159984
0.00304847
0.00272875
0.00240874
0.00208845
0.00176792
0.00144714
0.00112626
0.000804948
0.000484523
0.000158451
0.0030477
0.00272805
0.00240811
0.00208792
0.00176752
0.00144688
0.00112624
0.000805031
0.000485272
0.000157393
0.00304716
0.00272755
0.00240768
0.00208755
0.00176724
0.00144671
0.00112623
0.000805096
0.000485741
0.000156772
0.00304688
0.0027273
0.00240746
0.00208737
0.00176711
0.00144664
0.00112623
0.000805138
0.000485968
0.000156494
0.0030469
0.00272731
0.00240747
0.00208739
0.00176712
0.00144665
0.00112624
0.000805147
0.000485976
0.000156501
0.0030472
0.00272759
0.00240771
0.00208759
0.00176728
0.00144674
0.00112626
0.000805122
0.000485769
0.000156792
0.00304776
0.0027281
0.00240817
0.00208797
0.00176757
0.00144693
0.00112628
0.00080507
0.00048531
0.000157424
0.00304854
0.00272882
0.00240881
0.00208852
0.00176799
0.0014472
0.00112632
0.000804995
0.00048457
0.000158489
0.00304947
0.00272968
0.00240958
0.00208919
0.00176851
0.00144756
0.00112639
0.000804942
0.000483567
0.000160024
0.00305042
0.00273057
0.00241039
0.00208989
0.00176909
0.00144797
0.00112652
0.000804939
0.0004825
0.000161747
0.00305126
0.00273135
0.00241111
0.00209054
0.00176963
0.00144841
0.00112675
0.000805068
0.000481823
0.00016304
0.0030519
0.00273196
0.00241168
0.00209106
0.0017701
0.00144881
0.00112707
0.000805329
0.0004819
0.000163292
0.0030524
0.00273244
0.00241213
0.00209149
0.00177051
0.00144921
0.0011275
0.000805679
0.000482716
0.000162611
0.00305304
0.00273307
0.00241275
0.0020921
0.00177111
0.00144979
0.00112813
0.000806224
0.000483736
0.00016217
)
;

boundaryField
{
    inlet
    {
        type            zeroGradient;
    }
    outlet
    {
        type            fixedValue;
        value           uniform 0;
    }
    upperWall
    {
        type            zeroGradient;
    }
    lowerWall
    {
        type            zeroGradient;
    }
    frontAndBack
    {
        type            empty;
    }
}


// ************************************************************************* //
