/*--------------------------------*- C++ -*----------------------------------*\
| =========                 |                                                 |
| \\      /  F ield         | OpenFOAM: The Open Source CFD Toolbox           |
|  \\    /   O peration     | Version:  2406                                  |
|   \\  /    A nd           | Website:  www.openfoam.com                      |
|    \\/     M anipulation  |                                                 |
\*---------------------------------------------------------------------------*/
FoamFile
{
    version     2.0;
    format      ascii;
    arch        "LSB;label=32;scalar=64";
    class       volVectorField;
    location    "79";
    object      U;
}
// * * * * * * * * * * * * * * * * * * * * * * * * * * * * * * * * * * * * * //

dimensions      [0 1 -1 0 0 0 0];

internalField   nonuniform List<vector> 
2000
(
(0.0996624 -0.00133799 0)
(0.101319 -0.00222009 0)
(0.103218 -0.00204684 0)
(0.105646 -0.00164788 0)
(0.1079 -0.00129666 0)
(0.109751 -0.00101051 0)
(0.111299 -0.000780829 0)
(0.112633 -0.000604385 0)
(0.113786 -0.000472725 0)
(0.114777 -0.000374531 0)
(0.277083 -0.00117346 0)
(0.276202 -0.00242537 0)
(0.275587 -0.00274498 0)
(0.275442 -0.00270452 0)
(0.275643 -0.00255566 0)
(0.276024 -0.00234843 0)
(0.276507 -0.00211255 0)
(0.277057 -0.00188008 0)
(0.277644 -0.00166776 0)
(0.278243 -0.00147927 0)
(0.43721 -0.000677545 0)
(0.436763 -0.00154828 0)
(0.436224 -0.00190995 0)
(0.435697 -0.00202243 0)
(0.435301 -0.00204174 0)
(0.435037 -0.00200168 0)
(0.434868 -0.00191614 0)
(0.434771 -0.00180741 0)
(0.434734 -0.00169284 0)
(0.434745 -0.00158034 0)
(0.577296 -0.000407112 0)
(0.577076 -0.00105448 0)
(0.576742 -0.00144529 0)
(0.576301 -0.00164592 0)
(0.575893 -0.00174053 0)
(0.575566 -0.00176548 0)
(0.5753 -0.00173727 0)
(0.575075 -0.00167443 0)
(0.574887 -0.001594 0)
(0.57473 -0.00150683 0)
(0.697338 -0.000271889 0)
(0.697215 -0.000751007 0)
(0.697008 -0.00109135 0)
(0.696669 -0.00129394 0)
(0.69631 -0.00140248 0)
(0.695993 -0.00144924 0)
(0.695716 -0.00145031 0)
(0.695463 -0.00141873 0)
(0.695234 -0.00136733 0)
(0.695027 -0.00130588 0)
(0.797362 -0.000189742 0)
(0.797287 -0.000538124 0)
(0.797153 -0.000809562 0)
(0.796886 -0.000990951 0)
(0.796569 -0.00110092 0)
(0.79627 -0.00116032 0)
(0.795994 -0.00118128 0)
(0.795734 -0.00117278 0)
(0.795487 -0.001144 0)
(0.795256 -0.00110302 0)
(0.877377 -0.000132249 0)
(0.877326 -0.000380121 0)
(0.877233 -0.000584625 0)
(0.877014 -0.000732367 0)
(0.876733 -0.000828883 0)
(0.876452 -0.000885705 0)
(0.876183 -0.00091158 0)
(0.875921 -0.000913237 0)
(0.875666 -0.000897395 0)
(0.875422 -0.000870263 0)
(0.937385 -8.77862e-05 0)
(0.937348 -0.000254198 0)
(0.937279 -0.000396069 0)
(0.93709 -0.000503479 0)
(0.936834 -0.00057702 0)
(0.936569 -0.000622628 0)
(0.936308 -0.000646011 0)
(0.936047 -0.000651825 0)
(0.935788 -0.000644575 0)
(0.935536 -0.000628487 0)
(0.977391 -5.03496e-05 0)
(0.97736 -0.000146364 0)
(0.977304 -0.000229682 0)
(0.977133 -0.000294498 0)
(0.976894 -0.000340229 0)
(0.976639 -0.000369557 0)
(0.976383 -0.00038554 0)
(0.976124 -0.000390838 0)
(0.975864 -0.000388019 0)
(0.975608 -0.000379533 0)
(0.997393 -1.6427e-05 0)
(0.997366 -4.78298e-05 0)
(0.997316 -7.5299e-05 0)
(0.997153 -9.69433e-05 0)
(0.996921 -0.000112429 0)
(0.996672 -0.000122515 0)
(0.996419 -0.000128154 0)
(0.996161 -0.000130199 0)
(0.9959 -0.000129487 0)
(0.995643 -0.000126836 0)
(0.997393 1.6425e-05 0)
(0.997366 4.78252e-05 0)
(0.997316 7.52943e-05 0)
(0.997153 9.69325e-05 0)
(0.996921 0.000112419 0)
(0.996672 0.000122507 0)
(0.996419 0.000128141 0)
(0.996161 0.000130177 0)
(0.9959 0.000129458 0)
(0.995643 0.00012681 0)
(0.977391 5.03479e-05 0)
(0.97736 0.000146359 0)
(0.977304 0.000229676 0)
(0.977133 0.000294489 0)
(0.976894 0.000340216 0)
(0.976639 0.000369544 0)
(0.976383 0.000385531 0)
(0.976124 0.000390821 0)
(0.975864 0.000387982 0)
(0.975608 0.000379497 0)
(0.937385 8.77843e-05 0)
(0.937348 0.000254194 0)
(0.937279 0.000396063 0)
(0.93709 0.000503468 0)
(0.936834 0.000577009 0)
(0.936569 0.000622619 0)
(0.936308 0.000646002 0)
(0.936047 0.000651805 0)
(0.935788 0.000644532 0)
(0.935536 0.000628438 0)
(0.877377 0.000132247 0)
(0.877326 0.000380113 0)
(0.877233 0.000584618 0)
(0.877014 0.000732357 0)
(0.876733 0.00082887 0)
(0.876452 0.000885695 0)
(0.876183 0.00091158 0)
(0.875921 0.000913214 0)
(0.875666 0.000897342 0)
(0.875422 0.000870234 0)
(0.797362 0.000189739 0)
(0.797287 0.00053812 0)
(0.797153 0.000809553 0)
(0.796886 0.000990932 0)
(0.796569 0.00110091 0)
(0.79627 0.00116031 0)
(0.795994 0.00118128 0)
(0.795734 0.00117273 0)
(0.795487 0.00114393 0)
(0.795256 0.00110297 0)
(0.697338 0.000271887 0)
(0.697215 0.000751002 0)
(0.697008 0.00109133 0)
(0.696669 0.00129393 0)
(0.69631 0.00140246 0)
(0.695993 0.00144924 0)
(0.695716 0.00145032 0)
(0.695463 0.00141872 0)
(0.695234 0.00136729 0)
(0.695027 0.00130583 0)
(0.577296 0.00040711 0)
(0.577076 0.00105448 0)
(0.576742 0.00144527 0)
(0.576301 0.00164592 0)
(0.575893 0.00174051 0)
(0.575566 0.00176545 0)
(0.5753 0.00173726 0)
(0.575075 0.00167444 0)
(0.574887 0.00159402 0)
(0.57473 0.00150682 0)
(0.43721 0.000677542 0)
(0.436763 0.00154827 0)
(0.436224 0.00190995 0)
(0.435697 0.00202242 0)
(0.435301 0.00204174 0)
(0.435037 0.00200164 0)
(0.434868 0.00191607 0)
(0.434771 0.0018074 0)
(0.434734 0.00169292 0)
(0.434745 0.00158039 0)
(0.277083 0.00117345 0)
(0.276202 0.00242536 0)
(0.275587 0.00274497 0)
(0.275442 0.00270453 0)
(0.275643 0.00255568 0)
(0.276024 0.00234839 0)
(0.276507 0.00211247 0)
(0.277057 0.00188009 0)
(0.277644 0.00166788 0)
(0.278243 0.00147934 0)
(0.0996624 0.00133799 0)
(0.101319 0.00222008 0)
(0.103218 0.00204683 0)
(0.105646 0.0016479 0)
(0.1079 0.00129664 0)
(0.109751 0.00101046 0)
(0.111299 0.000780823 0)
(0.112633 0.000604427 0)
(0.113786 0.000472725 0)
(0.114777 0.000374467 0)
(0.115633 -0.00030062 0)
(0.116378 -0.000244699 0)
(0.117031 -0.000202241 0)
(0.117609 -0.000169794 0)
(0.118123 -0.000144769 0)
(0.118584 -0.000125264 0)
(0.118999 -0.000109917 0)
(0.119377 -9.77501e-05 0)
(0.119721 -8.80075e-05 0)
(0.120037 -8.00888e-05 0)
(0.120328 -7.35323e-05 0)
(0.120598 -6.80094e-05 0)
(0.12085 -6.3298e-05 0)
(0.121085 -5.92452e-05 0)
(0.121305 -5.57369e-05 0)
(0.121512 -5.26707e-05 0)
(0.121707 -4.99527e-05 0)
(0.121892 -4.74999e-05 0)
(0.122067 -4.52475e-05 0)
(0.122233 -4.31554e-05 0)
(0.122391 -4.12021e-05 0)
(0.122541 -3.93822e-05 0)
(0.122685 -3.76949e-05 0)
(0.122822 -3.61375e-05 0)
(0.122954 -3.47029e-05 0)
(0.12308 -3.33757e-05 0)
(0.123201 -3.21391e-05 0)
(0.123318 -3.09738e-05 0)
(0.12343 -2.9865e-05 0)
(0.123537 -2.88024e-05 0)
(0.123641 -2.77808e-05 0)
(0.123741 -2.68008e-05 0)
(0.123838 -2.58648e-05 0)
(0.123931 -2.49766e-05 0)
(0.124022 -2.41389e-05 0)
(0.278836 -0.00131401 0)
(0.279415 -0.00117054 0)
(0.279973 -0.00104665 0)
(0.280508 -0.000939728 0)
(0.281019 -0.000847511 0)
(0.281504 -0.000767944 0)
(0.281965 -0.000699014 0)
(0.282402 -0.00063903 0)
(0.282817 -0.000586648 0)
(0.283211 -0.000540781 0)
(0.283584 -0.000500536 0)
(0.283939 -0.000465132 0)
(0.284276 -0.000433847 0)
(0.284598 -0.000406028 0)
(0.284904 -0.000381109 0)
(0.285197 -0.000358637 0)
(0.285477 -0.000338271 0)
(0.285745 -0.000319759 0)
(0.286002 -0.000302912 0)
(0.286248 -0.000287571 0)
(0.286485 -0.000273591 0)
(0.286712 -0.000260823 0)
(0.286931 -0.000249119 0)
(0.287141 -0.000238336 0)
(0.287344 -0.000228345 0)
(0.287541 -0.000219037 0)
(0.28773 -0.000210329 0)
(0.287914 -0.000202159 0)
(0.288092 -0.000194485 0)
(0.288263 -0.000187278 0)
(0.28843 -0.000180513 0)
(0.288592 -0.000174169 0)
(0.288748 -0.000168219 0)
(0.2889 -0.000162634 0)
(0.289048 -0.000157383 0)
(0.434792 -0.00147326 0)
(0.434867 -0.00137346 0)
(0.434962 -0.00128155 0)
(0.435073 -0.00119722 0)
(0.435195 -0.00112029 0)
(0.435326 -0.00105052 0)
(0.435464 -0.000987178 0)
(0.435607 -0.000929424 0)
(0.435753 -0.000876622 0)
(0.435901 -0.000828324 0)
(0.436051 -0.00078422 0)
(0.436202 -0.000744003 0)
(0.436352 -0.00070729 0)
(0.436502 -0.000673638 0)
(0.436652 -0.000642599 0)
(0.436801 -0.000613795 0)
(0.436949 -0.000586944 0)
(0.437096 -0.000561866 0)
(0.437241 -0.000538449 0)
(0.437385 -0.000516617 0)
(0.437527 -0.00049629 0)
(0.437667 -0.000477369 0)
(0.437805 -0.000459733 0)
(0.437942 -0.000443241 0)
(0.438076 -0.000427755 0)
(0.438209 -0.000413145 0)
(0.438339 -0.000399307 0)
(0.438468 -0.000386164 0)
(0.438595 -0.000373666 0)
(0.43872 -0.00036178 0)
(0.438843 -0.000350488 0)
(0.438964 -0.000339772 0)
(0.439083 -0.000329614 0)
(0.439201 -0.000319988 0)
(0.439316 -0.000310861 0)
(0.5746 -0.00141894 0)
(0.574492 -0.00133389 0)
(0.5744 -0.00125355 0)
(0.574321 -0.00117872 0)
(0.574254 -0.00110994 0)
(0.574198 -0.00104743 0)
(0.574149 -0.000990783 0)
(0.574108 -0.000939283 0)
(0.574074 -0.000892293 0)
(0.574045 -0.000849387 0)
(0.574022 -0.000810323 0)
(0.574004 -0.000774891 0)
(0.573991 -0.000742778 0)
(0.573981 -0.00071355 0)
(0.573975 -0.00068672 0)
(0.573974 -0.000661847 0)
(0.573975 -0.000638596 0)
(0.57398 -0.000616764 0)
(0.573988 -0.000596246 0)
(0.573999 -0.000576997 0)
(0.574012 -0.000558984 0)
(0.574028 -0.00054215 0)
(0.574046 -0.000526406 0)
(0.574066 -0.000511631 0)
(0.574088 -0.000497694 0)
(0.574112 -0.000484463 0)
(0.574138 -0.00047183 0)
(0.574165 -0.000459712 0)
(0.574194 -0.00044806 0)
(0.574224 -0.000436849 0)
(0.574255 -0.000426071 0)
(0.574288 -0.000415729 0)
(0.574321 -0.000405824 0)
(0.574356 -0.000396349 0)
(0.574391 -0.000387289 0)
(0.694842 -0.00124043 0)
(0.694675 -0.00117457 0)
(0.694523 -0.00111052 0)
(0.694383 -0.00104966 0)
(0.694254 -0.000992886 0)
(0.694134 -0.000940694 0)
(0.694021 -0.000893006 0)
(0.693916 -0.000849359 0)
(0.693817 -0.000809279 0)
(0.693724 -0.000772462 0)
(0.693635 -0.000738799 0)
(0.693551 -0.000708233 0)
(0.693471 -0.000680597 0)
(0.693395 -0.00065557 0)
(0.693323 -0.000632722 0)
(0.693253 -0.000611623 0)
(0.693187 -0.000591934 0)
(0.693125 -0.00057344 0)
(0.693065 -0.000556046 0)
(0.693008 -0.00053973 0)
(0.692953 -0.000524494 0)
(0.692901 -0.000510316 0)
(0.692852 -0.000497137 0)
(0.692804 -0.000484858 0)
(0.692759 -0.000473351 0)
(0.692716 -0.000462484 0)
(0.692676 -0.000452138 0)
(0.692637 -0.000442223 0)
(0.6926 -0.000432678 0)
(0.692565 -0.000423477 0)
(0.692532 -0.000414611 0)
(0.692501 -0.000406086 0)
(0.692471 -0.00039791 0)
(0.692443 -0.000390088 0)
(0.692417 -0.000382611 0)
(0.795044 -0.00105542 0)
(0.794847 -0.00100482 0)
(0.794665 -0.000953702 0)
(0.794494 -0.000903817 0)
(0.794334 -0.000856391 0)
(0.794184 -0.000812179 0)
(0.794042 -0.000771373 0)
(0.793908 -0.000733756 0)
(0.79378 -0.000699016 0)
(0.793659 -0.000666952 0)
(0.793543 -0.000637526 0)
(0.793432 -0.000610763 0)
(0.793326 -0.000586598 0)
(0.793223 -0.000564806 0)
(0.793124 -0.000545029 0)
(0.793029 -0.000526873 0)
(0.792936 -0.000510001 0)
(0.792847 -0.000494192 0)
(0.79276 -0.000479341 0)
(0.792676 -0.000465429 0)
(0.792595 -0.00045247 0)
(0.792516 -0.000440466 0)
(0.792439 -0.000429378 0)
(0.792364 -0.000419125 0)
(0.792292 -0.00040959 0)
(0.792221 -0.000400645 0)
(0.792152 -0.000392172 0)
(0.792085 -0.000384075 0)
(0.792019 -0.000376292 0)
(0.791955 -0.000368794 0)
(0.791893 -0.000361572 0)
(0.791832 -0.000354634 0)
(0.791773 -0.000347993 0)
(0.791715 -0.000341657 0)
(0.791659 -0.000335625 0)
(0.875192 -0.000836469 0)
(0.874976 -0.000799095 0)
(0.874772 -0.000760359 0)
(0.87458 -0.000721939 0)
(0.8744 -0.000685028 0)
(0.874229 -0.00065037 0)
(0.874067 -0.000618222 0)
(0.873913 -0.000588477 0)
(0.873767 -0.000560912 0)
(0.873628 -0.000535373 0)
(0.873495 -0.000511849 0)
(0.873368 -0.000490393 0)
(0.873246 -0.000471002 0)
(0.873128 -0.000453531 0)
(0.873015 -0.000437713 0)
(0.872905 -0.000423223 0)
(0.872799 -0.00040977 0)
(0.872696 -0.000397153 0)
(0.872596 -0.000385277 0)
(0.872499 -0.000374127 0)
(0.872404 -0.000363727 0)
(0.872313 -0.000354096 0)
(0.872223 -0.000345219 0)
(0.872136 -0.000337037 0)
(0.872051 -0.000329456 0)
(0.871968 -0.000322367 0)
(0.871887 -0.000315666 0)
(0.871807 -0.000309268 0)
(0.871729 -0.000303117 0)
(0.871653 -0.000297185 0)
(0.871578 -0.000291469 0)
(0.871504 -0.000285977 0)
(0.871432 -0.000280725 0)
(0.871361 -0.000275723 0)
(0.871292 -0.000270973 0)
(0.935295 -0.000606822 0)
(0.935066 -0.000581824 0)
(0.934848 -0.000555193 0)
(0.934642 -0.000528291 0)
(0.934446 -0.000502109 0)
(0.934261 -0.00047728 0)
(0.934085 -0.000454075 0)
(0.933918 -0.000432474 0)
(0.933759 -0.000412351 0)
(0.933608 -0.000393618 0)
(0.933463 -0.000376284 0)
(0.933324 -0.000360414 0)
(0.933191 -0.000346031 0)
(0.933064 -0.000333059 0)
(0.93294 -0.000321318 0)
(0.932821 -0.000310578 0)
(0.932706 -0.000300619 0)
(0.932594 -0.000291283 0)
(0.932485 -0.00028249 0)
(0.93238 -0.000274227 0)
(0.932278 -0.000266515 0)
(0.932178 -0.000259373 0)
(0.932081 -0.000252796 0)
(0.931987 -0.000246746 0)
(0.931895 -0.000241155 0)
(0.931804 -0.000235942 0)
(0.931716 -0.000231024 0)
(0.931629 -0.000226334 0)
(0.931545 -0.000221828 0)
(0.931461 -0.000217483 0)
(0.93138 -0.000213296 0)
(0.931299 -0.000209275 0)
(0.931221 -0.000205431 0)
(0.931144 -0.000201773 0)
(0.931068 -0.000198306 0)
(0.97536 -0.000367349 0)
(0.975123 -0.000352855 0)
(0.974897 -0.000337125 0)
(0.974682 -0.000321056 0)
(0.974477 -0.000305304 0)
(0.974283 -0.000290285 0)
(0.974098 -0.000276198 0)
(0.973922 -0.00026306 0)
(0.973755 -0.00025081 0)
(0.973595 -0.000239397 0)
(0.973442 -0.000228826 0)
(0.973297 -0.000219131 0)
(0.973157 -0.000210334 0)
(0.973022 -0.000202396 0)
(0.972893 -0.000195221 0)
(0.972767 -0.000188673 0)
(0.972646 -0.000182621 0)
(0.972529 -0.000176962 0)
(0.972415 -0.000171641 0)
(0.972304 -0.000166643 0)
(0.972197 -0.000161975 0)
(0.972092 -0.000157647 0)
(0.971991 -0.000153658 0)
(0.971892 -0.000149986 0)
(0.971795 -0.000146594 0)
(0.9717 -0.000143432 0)
(0.971608 -0.000140453 0)
(0.971517 -0.000137614 0)
(0.971428 -0.000134888 0)
(0.971341 -0.000132261 0)
(0.971255 -0.00012973 0)
(0.971171 -0.000127299 0)
(0.971088 -0.000124976 0)
(0.971007 -0.000122765 0)
(0.970928 -0.00012067 0)
(0.995392 -0.000122914 0)
(0.995151 -0.000118194 0)
(0.994921 -0.000113045 0)
(0.994701 -0.000107775 0)
(0.994492 -0.000102592 0)
(0.994293 -9.76248e-05 0)
(0.994104 -9.29442e-05 0)
(0.993924 -8.85728e-05 0)
(0.993753 -8.4505e-05 0)
(0.993589 -8.07265e-05 0)
(0.993433 -7.72282e-05 0)
(0.993283 -7.40078e-05 0)
(0.99314 -7.10634e-05 0)
(0.993002 -6.83848e-05 0)
(0.992869 -6.5949e-05 0)
(0.992741 -6.37243e-05 0)
(0.992617 -6.16753e-05 0)
(0.992497 -5.97718e-05 0)
(0.99238 -5.79912e-05 0)
(0.992267 -5.63213e-05 0)
(0.992157 -5.47572e-05 0)
(0.992051 -5.32972e-05 0)
(0.991947 -5.19397e-05 0)
(0.991845 -5.06797e-05 0)
(0.991746 -4.95087e-05 0)
(0.99165 -4.84151e-05 0)
(0.991555 -4.73866e-05 0)
(0.991462 -4.64114e-05 0)
(0.991371 -4.54807e-05 0)
(0.991282 -4.45888e-05 0)
(0.991194 -4.37331e-05 0)
(0.991108 -4.29134e-05 0)
(0.991024 -4.21306e-05 0)
(0.990941 -4.13855e-05 0)
(0.99086 -4.06784e-05 0)
(0.995392 0.000122904 0)
(0.995151 0.000118191 0)
(0.994921 0.000113015 0)
(0.994701 0.000107691 0)
(0.994492 0.000102478 0)
(0.994294 9.75401e-05 0)
(0.994104 9.29333e-05 0)
(0.993924 8.86249e-05 0)
(0.993753 8.4563e-05 0)
(0.993589 8.07278e-05 0)
(0.993433 7.71447e-05 0)
(0.993283 7.3859e-05 0)
(0.99314 7.09002e-05 0)
(0.993002 6.82593e-05 0)
(0.992869 6.58897e-05 0)
(0.992741 6.37256e-05 0)
(0.992617 6.17053e-05 0)
(0.992497 5.97886e-05 0)
(0.99238 5.79614e-05 0)
(0.992267 5.62306e-05 0)
(0.992157 5.46123e-05 0)
(0.992051 5.312e-05 0)
(0.991947 5.17572e-05 0)
(0.991845 5.05147e-05 0)
(0.991746 4.9374e-05 0)
(0.991649 4.83119e-05 0)
(0.991555 4.73064e-05 0)
(0.991462 4.63409e-05 0)
(0.991371 4.54058e-05 0)
(0.991282 4.44982e-05 0)
(0.991194 4.36203e-05 0)
(0.991108 4.27765e-05 0)
(0.991024 4.19715e-05 0)
(0.990941 4.12085e-05 0)
(0.99086 4.04882e-05 0)
(0.97536 0.000367346 0)
(0.975123 0.000352875 0)
(0.974897 0.000337122 0)
(0.974682 0.000321001 0)
(0.974477 0.000305219 0)
(0.974283 0.000290224 0)
(0.974098 0.000276196 0)
(0.973922 0.000263099 0)
(0.973755 0.000250836 0)
(0.973595 0.000239359 0)
(0.973442 0.000228707 0)
(0.973297 0.000218959 0)
(0.973157 0.000210158 0)
(0.973022 0.000202263 0)
(0.972893 0.000195152 0)
(0.972767 0.000188662 0)
(0.972646 0.000182639 0)
(0.972529 0.000176975 0)
(0.972415 0.000171622 0)
(0.972304 0.000166579 0)
(0.972197 0.00016187 0)
(0.972092 0.000157515 0)
(0.971991 0.000153518 0)
(0.971892 0.000149852 0)
(0.971795 0.000146473 0)
(0.9717 0.000143325 0)
(0.971608 0.000140353 0)
(0.971517 0.000137515 0)
(0.971428 0.000134782 0)
(0.97134 0.000132142 0)
(0.971255 0.000129597 0)
(0.971171 0.000127153 0)
(0.971088 0.000124819 0)
(0.971008 0.000122601 0)
(0.970928 0.000120501 0)
(0.935295 0.000606803 0)
(0.935066 0.000581831 0)
(0.934848 0.000555175 0)
(0.934642 0.000528214 0)
(0.934446 0.000502005 0)
(0.934261 0.000477214 0)
(0.934085 0.000454075 0)
(0.933918 0.000432515 0)
(0.933759 0.000412385 0)
(0.933608 0.000393607 0)
(0.933463 0.00037622 0)
(0.933324 0.000360317 0)
(0.933191 0.000345933 0)
(0.933063 0.000332984 0)
(0.93294 0.000321272 0)
(0.932821 0.000310551 0)
(0.932706 0.000300593 0)
(0.932594 0.000291242 0)
(0.932485 0.000282427 0)
(0.93238 0.000274143 0)
(0.932278 0.000266416 0)
(0.932178 0.000259268 0)
(0.932081 0.000252692 0)
(0.931987 0.000246647 0)
(0.931895 0.000241059 0)
(0.931804 0.000235845 0)
(0.931716 0.000230921 0)
(0.931629 0.000226221 0)
(0.931544 0.000221704 0)
(0.931461 0.000217348 0)
(0.931379 0.000213153 0)
(0.931299 0.000209128 0)
(0.931221 0.000205283 0)
(0.931143 0.000201627 0)
(0.931068 0.000198161 0)
(0.875192 0.0008365 0)
(0.874976 0.000799141 0)
(0.874772 0.000760352 0)
(0.874581 0.000721862 0)
(0.8744 0.000684928 0)
(0.874229 0.0006503 0)
(0.874067 0.000618196 0)
(0.873913 0.000588471 0)
(0.873767 0.000560901 0)
(0.873628 0.000535346 0)
(0.873495 0.000511811 0)
(0.873368 0.000490357 0)
(0.873246 0.000470971 0)
(0.873128 0.000453499 0)
(0.873014 0.000437667 0)
(0.872905 0.000423153 0)
(0.872798 0.000409674 0)
(0.872695 0.000397039 0)
(0.872596 0.000385158 0)
(0.872499 0.000374017 0)
(0.872404 0.000363636 0)
(0.872313 0.000354026 0)
(0.872223 0.000345165 0)
(0.872136 0.000336989 0)
(0.872051 0.000329405 0)
(0.871968 0.000322305 0)
(0.871887 0.000315586 0)
(0.871807 0.000309168 0)
(0.871729 0.000302999 0)
(0.871652 0.000297054 0)
(0.871577 0.00029133 0)
(0.871504 0.000285836 0)
(0.871432 0.000280585 0)
(0.871361 0.000275586 0)
(0.871292 0.00027084 0)
(0.795044 0.00105544 0)
(0.794847 0.00100487 0)
(0.794665 0.000953712 0)
(0.794494 0.00090379 0)
(0.794334 0.000856359 0)
(0.794184 0.000812152 0)
(0.794042 0.000771334 0)
(0.793908 0.000733696 0)
(0.79378 0.000698949 0)
(0.793659 0.000666902 0)
(0.793543 0.000637512 0)
(0.793432 0.000610782 0)
(0.793326 0.000586626 0)
(0.793223 0.000564812 0)
(0.793124 0.000544992 0)
(0.793028 0.000526791 0)
(0.792936 0.000509888 0)
(0.792847 0.000494072 0)
(0.79276 0.000479237 0)
(0.792676 0.000465355 0)
(0.792595 0.000452427 0)
(0.792516 0.000440446 0)
(0.792439 0.000429367 0)
(0.792364 0.000419108 0)
(0.792292 0.000409555 0)
(0.792221 0.000400587 0)
(0.792152 0.000392089 0)
(0.792084 0.000383972 0)
(0.792019 0.000376175 0)
(0.791955 0.000368667 0)
(0.791893 0.000361441 0)
(0.791832 0.000354504 0)
(0.791773 0.000347866 0)
(0.791715 0.000341533 0)
(0.791658 0.000335504 0)
(0.694842 0.00124039 0)
(0.694675 0.00117454 0)
(0.694523 0.00111051 0)
(0.694383 0.00104968 0)
(0.694254 0.000992934 0)
(0.694134 0.000940717 0)
(0.694021 0.000892953 0)
(0.693916 0.000849242 0)
(0.693817 0.000809158 0)
(0.693724 0.0007724 0)
(0.693635 0.000738817 0)
(0.693551 0.000708304 0)
(0.693471 0.000680667 0)
(0.693395 0.000655592 0)
(0.693322 0.000632676 0)
(0.693253 0.000611522 0)
(0.693187 0.00059181 0)
(0.693124 0.000573328 0)
(0.693065 0.000555968 0)
(0.693007 0.000539692 0)
(0.692953 0.000524483 0)
(0.692901 0.000510313 0)
(0.692851 0.000497123 0)
(0.692804 0.00048482 0)
(0.692759 0.000473285 0)
(0.692716 0.000462395 0)
(0.692675 0.000452035 0)
(0.692637 0.000442116 0)
(0.6926 0.000432576 0)
(0.692565 0.000423383 0)
(0.692532 0.000414526 0)
(0.692501 0.000406007 0)
(0.692471 0.000397833 0)
(0.692443 0.000390008 0)
(0.692416 0.000382526 0)
(0.5746 0.00141888 0)
(0.574492 0.0013338 0)
(0.5744 0.00125352 0)
(0.574321 0.0011788 0)
(0.574254 0.00111007 0)
(0.574197 0.00104749 0)
(0.574149 0.000990711 0)
(0.574108 0.00093913 0)
(0.574074 0.000892159 0)
(0.574045 0.000849344 0)
(0.574022 0.000810378 0)
(0.574004 0.000774992 0)
(0.57399 0.000742856 0)
(0.573981 0.000713559 0)
(0.573975 0.000686655 0)
(0.573973 0.000661736 0)
(0.573975 0.000638484 0)
(0.57398 0.000616686 0)
(0.573988 0.000596216 0)
(0.573999 0.000577008 0)
(0.574012 0.000559012 0)
(0.574028 0.000542167 0)
(0.574046 0.000526392 0)
(0.574066 0.000511581 0)
(0.574088 0.000497612 0)
(0.574112 0.000484366 0)
(0.574137 0.000471733 0)
(0.574165 0.000459631 0)
(0.574193 0.000448002 0)
(0.574223 0.000436813 0)
(0.574255 0.000426051 0)
(0.574287 0.000415713 0)
(0.574321 0.000405801 0)
(0.574356 0.00039631 0)
(0.574391 0.000387231 0)
(0.434792 0.00147316 0)
(0.434867 0.00137331 0)
(0.434962 0.00128151 0)
(0.435073 0.00119733 0)
(0.435195 0.00112043 0)
(0.435326 0.00105056 0)
(0.435464 0.000987086 0)
(0.435607 0.000929285 0)
(0.435753 0.000876532 0)
(0.435901 0.000828329 0)
(0.436051 0.0007843 0)
(0.436201 0.000744094 0)
(0.436352 0.000707336 0)
(0.436502 0.000673613 0)
(0.436652 0.000642518 0)
(0.436801 0.000613696 0)
(0.436949 0.000586869 0)
(0.437096 0.000561839 0)
(0.437241 0.000538471 0)
(0.437385 0.000516666 0)
(0.437527 0.000496337 0)
(0.437667 0.000477388 0)
(0.437805 0.000459709 0)
(0.437941 0.000443177 0)
(0.438076 0.000427663 0)
(0.438208 0.000413047 0)
(0.438339 0.000399224 0)
(0.438468 0.000386109 0)
(0.438595 0.000373642 0)
(0.43872 0.000361783 0)
(0.438843 0.000350503 0)
(0.438964 0.000339787 0)
(0.439083 0.000329613 0)
(0.4392 0.000319963 0)
(0.439316 0.000310809 0)
(0.278836 0.00131391 0)
(0.279415 0.00117041 0)
(0.279973 0.00104665 0)
(0.280508 0.000939845 0)
(0.281019 0.00084761 0)
(0.281504 0.000767941 0)
(0.281965 0.000698939 0)
(0.282402 0.000638955 0)
(0.282817 0.000586624 0)
(0.28321 0.000540815 0)
(0.283584 0.0005006 0)
(0.283939 0.000465184 0)
(0.284276 0.00043386 0)
(0.284598 0.000405998 0)
(0.284904 0.000381056 0)
(0.285197 0.000358587 0)
(0.285477 0.000338246 0)
(0.285745 0.000319766 0)
(0.286002 0.000302944 0)
(0.286248 0.000287612 0)
(0.286485 0.00027362 0)
(0.286712 0.000260826 0)
(0.28693 0.000249093 0)
(0.287141 0.000238286 0)
(0.287344 0.000228284 0)
(0.287541 0.000218981 0)
(0.28773 0.000210288 0)
(0.287914 0.000202141 0)
(0.288091 0.000194488 0)
(0.288263 0.000187296 0)
(0.28843 0.000180536 0)
(0.288591 0.000174185 0)
(0.288748 0.000168221 0)
(0.2889 0.000162619 0)
(0.289048 0.00015735 0)
(0.115633 0.000300576 0)
(0.116378 0.000244727 0)
(0.117031 0.000202296 0)
(0.117609 0.000169806 0)
(0.118123 0.00014473 0)
(0.118584 0.000125221 0)
(0.119 0.00010991 0)
(0.119377 9.77746e-05 0)
(0.119721 8.80369e-05 0)
(0.120037 8.01005e-05 0)
(0.120328 7.35248e-05 0)
(0.120598 6.79948e-05 0)
(0.12085 6.32888e-05 0)
(0.121085 5.92468e-05 0)
(0.121305 5.57439e-05 0)
(0.121512 5.26752e-05 0)
(0.121707 4.99492e-05 0)
(0.121892 4.74893e-05 0)
(0.122067 4.52362e-05 0)
(0.122233 4.31498e-05 0)
(0.122391 4.12067e-05 0)
(0.122541 3.93962e-05 0)
(0.122685 3.7713e-05 0)
(0.122822 3.61527e-05 0)
(0.122954 3.47079e-05 0)
(0.12308 3.33682e-05 0)
(0.123201 3.21193e-05 0)
(0.123317 3.0947e-05 0)
(0.123429 2.98373e-05 0)
(0.123537 2.87806e-05 0)
(0.123641 2.77696e-05 0)
(0.123741 2.68017e-05 0)
(0.123838 2.58763e-05 0)
(0.123931 2.49947e-05 0)
(0.124022 2.41582e-05 0)
(0.124109 -2.33519e-05 0)
(0.124194 -2.26142e-05 0)
(0.124276 -2.1921e-05 0)
(0.124356 -2.12675e-05 0)
(0.124433 -2.0647e-05 0)
(0.124508 -2.00544e-05 0)
(0.124581 -1.94848e-05 0)
(0.124652 -1.89355e-05 0)
(0.124721 -1.84047e-05 0)
(0.124788 -1.78921e-05 0)
(0.289191 -0.000152431 0)
(0.289331 -0.000147748 0)
(0.289467 -0.000143304 0)
(0.289599 -0.000139073 0)
(0.289728 -0.000135037 0)
(0.289854 -0.000131181 0)
(0.289976 -0.000127495 0)
(0.290096 -0.000123969 0)
(0.290213 -0.0001206 0)
(0.290327 -0.00011738 0)
(0.439429 -0.000302195 0)
(0.439541 -0.000293949 0)
(0.439651 -0.000286084 0)
(0.439759 -0.000278562 0)
(0.439866 -0.000271354 0)
(0.43997 -0.000264434 0)
(0.440073 -0.000257784 0)
(0.440175 -0.000251392 0)
(0.440275 -0.000245246 0)
(0.440373 -0.000239339 0)
(0.574428 -0.000378622 0)
(0.574465 -0.000370316 0)
(0.574502 -0.000362337 0)
(0.57454 -0.000354652 0)
(0.574579 -0.000347231 0)
(0.574618 -0.000340051 0)
(0.574658 -0.000333092 0)
(0.574698 -0.000326343 0)
(0.574739 -0.000319796 0)
(0.57478 -0.000313449 0)
(0.692392 -0.000375466 0)
(0.692368 -0.000368626 0)
(0.692346 -0.000362061 0)
(0.692325 -0.000355738 0)
(0.692306 -0.000349628 0)
(0.692288 -0.000343704 0)
(0.692271 -0.000337946 0)
(0.692255 -0.00033234 0)
(0.69224 -0.000326879 0)
(0.692226 -0.000321558 0)
(0.791604 -0.000329885 0)
(0.79155 -0.000324417 0)
(0.791497 -0.000319193 0)
(0.791446 -0.000314182 0)
(0.791396 -0.000309356 0)
(0.791347 -0.000304687 0)
(0.791299 -0.000300155 0)
(0.791253 -0.000295745 0)
(0.791207 -0.000291449 0)
(0.791163 -0.000287261 0)
(0.871224 -0.000266469 0)
(0.871157 -0.000262193 0)
(0.871092 -0.000258123 0)
(0.871027 -0.000254231 0)
(0.870964 -0.000250494 0)
(0.870902 -0.000246886 0)
(0.87084 -0.000243389 0)
(0.87078 -0.000239991 0)
(0.87072 -0.000236683 0)
(0.870662 -0.000233461 0)
(0.930993 -0.000195023 0)
(0.93092 -0.000191913 0)
(0.930848 -0.000188957 0)
(0.930777 -0.000186135 0)
(0.930707 -0.000183428 0)
(0.930639 -0.000180818 0)
(0.930571 -0.00017829 0)
(0.930504 -0.000175835 0)
(0.930438 -0.000173447 0)
(0.930373 -0.000171123 0)
(0.97085 -0.000118686 0)
(0.970773 -0.000116806 0)
(0.970697 -0.00011502 0)
(0.970623 -0.000113315 0)
(0.97055 -0.000111678 0)
(0.970477 -0.000110099 0)
(0.970406 -0.00010857 0)
(0.970336 -0.000107086 0)
(0.970266 -0.000105642 0)
(0.970198 -0.000104237 0)
(0.99078 -4.00079e-05 0)
(0.990702 -3.93717e-05 0)
(0.990624 -3.87665e-05 0)
(0.990548 -3.81885e-05 0)
(0.990473 -3.76338e-05 0)
(0.990399 -3.70992e-05 0)
(0.990326 -3.65821e-05 0)
(0.990254 -3.60809e-05 0)
(0.990183 -3.55944e-05 0)
(0.990113 -3.51225e-05 0)
(0.99078 3.98089e-05 0)
(0.990702 3.91671e-05 0)
(0.990624 3.85581e-05 0)
(0.990548 3.79769e-05 0)
(0.990473 3.74186e-05 0)
(0.990399 3.68793e-05 0)
(0.990326 3.63562e-05 0)
(0.990254 3.58473e-05 0)
(0.990183 3.53516e-05 0)
(0.990113 3.48687e-05 0)
(0.97085 0.000118513 0)
(0.970773 0.00011663 0)
(0.970697 0.000114838 0)
(0.970623 0.000113126 0)
(0.970549 0.00011148 0)
(0.970477 0.000109891 0)
(0.970406 0.000108351 0)
(0.970335 0.000106854 0)
(0.970266 0.000105397 0)
(0.970198 0.00010398 0)
(0.930993 0.000194879 0)
(0.93092 0.000191766 0)
(0.930848 0.000188804 0)
(0.930777 0.000185972 0)
(0.930707 0.000183252 0)
(0.930638 0.000180627 0)
(0.93057 0.000178083 0)
(0.930503 0.000175611 0)
(0.930437 0.000173208 0)
(0.930372 0.000170871 0)
(0.871224 0.000266338 0)
(0.871157 0.000262062 0)
(0.871092 0.000257987 0)
(0.871027 0.000254088 0)
(0.870964 0.000250339 0)
(0.870901 0.000246717 0)
(0.87084 0.000243206 0)
(0.870779 0.000239792 0)
(0.87072 0.00023647 0)
(0.870661 0.000233236 0)
(0.791603 0.000329766 0)
(0.79155 0.000324299 0)
(0.791497 0.000319073 0)
(0.791446 0.000314059 0)
(0.791396 0.000309226 0)
(0.791347 0.000304549 0)
(0.791299 0.000300007 0)
(0.791252 0.000295586 0)
(0.791207 0.000291279 0)
(0.791162 0.00028708 0)
(0.692391 0.000375374 0)
(0.692368 0.000368527 0)
(0.692346 0.000361956 0)
(0.692325 0.000355629 0)
(0.692305 0.000349515 0)
(0.692287 0.000343588 0)
(0.69227 0.000337827 0)
(0.692254 0.000332217 0)
(0.692239 0.000326751 0)
(0.692226 0.000321424 0)
(0.574427 0.000378543 0)
(0.574464 0.00037022 0)
(0.574502 0.00036223 0)
(0.57454 0.000354541 0)
(0.574578 0.000347122 0)
(0.574618 0.000339947 0)
(0.574657 0.000332995 0)
(0.574698 0.000326253 0)
(0.574738 0.000319711 0)
(0.574779 0.000313364 0)
(0.439429 0.00030212 0)
(0.439541 0.000293858 0)
(0.43965 0.000285987 0)
(0.439759 0.000278468 0)
(0.439865 0.00027127 0)
(0.43997 0.000264364 0)
(0.440073 0.00025773 0)
(0.440174 0.000251349 0)
(0.440274 0.000245212 0)
(0.440373 0.000239308 0)
(0.289191 0.000152386 0)
(0.289331 0.000147696 0)
(0.289467 0.000143252 0)
(0.289599 0.000139028 0)
(0.289728 0.000135002 0)
(0.289853 0.000131157 0)
(0.289976 0.000127481 0)
(0.290095 0.000123963 0)
(0.290212 0.000120596 0)
(0.290326 0.000117375 0)
(0.124109 2.33677e-05 0)
(0.124194 2.2622e-05 0)
(0.124276 2.19195e-05 0)
(0.124356 2.12563e-05 0)
(0.124433 2.06286e-05 0)
(0.124508 2.00317e-05 0)
(0.124581 1.94619e-05 0)
(0.124652 1.89153e-05 0)
(0.124721 1.83898e-05 0)
(0.124788 1.78835e-05 0)
(0.124853 -1.7398e-05 0)
(0.124917 -1.69234e-05 0)
(0.124979 -1.6469e-05 0)
(0.125039 -1.60353e-05 0)
(0.125098 -1.56222e-05 0)
(0.125155 -1.52292e-05 0)
(0.125212 -1.48548e-05 0)
(0.125266 -1.44979e-05 0)
(0.12532 -1.41563e-05 0)
(0.125372 -1.38286e-05 0)
(0.125423 -1.35128e-05 0)
(0.125473 -1.3208e-05 0)
(0.125522 -1.29128e-05 0)
(0.12557 -1.26267e-05 0)
(0.125617 -1.23491e-05 0)
(0.125662 -1.208e-05 0)
(0.125707 -1.18191e-05 0)
(0.125751 -1.15667e-05 0)
(0.125794 -1.13226e-05 0)
(0.125836 -1.10871e-05 0)
(0.125878 -1.08598e-05 0)
(0.125918 -1.06408e-05 0)
(0.125958 -1.04297e-05 0)
(0.125997 -1.02263e-05 0)
(0.126035 -1.003e-05 0)
(0.126073 -9.84069e-06 0)
(0.12611 -9.65781e-06 0)
(0.126146 -9.4812e-06 0)
(0.126182 -9.31048e-06 0)
(0.126216 -9.1457e-06 0)
(0.126251 -8.98665e-06 0)
(0.126285 -8.8336e-06 0)
(0.126318 -8.68661e-06 0)
(0.12635 -8.54617e-06 0)
(0.126383 -8.41275e-06 0)
(0.290438 -0.000114305 0)
(0.290546 -0.000111368 0)
(0.290652 -0.000108562 0)
(0.290756 -0.00010588 0)
(0.290858 -0.000103311 0)
(0.290957 -0.000100849 0)
(0.291054 -9.84841e-05 0)
(0.291149 -9.62102e-05 0)
(0.291242 -9.40202e-05 0)
(0.291333 -9.1909e-05 0)
(0.291423 -8.98718e-05 0)
(0.29151 -8.79051e-05 0)
(0.291596 -8.60059e-05 0)
(0.29168 -8.41718e-05 0)
(0.291763 -8.24004e-05 0)
(0.291844 -8.06898e-05 0)
(0.291923 -7.90374e-05 0)
(0.292001 -7.74414e-05 0)
(0.292078 -7.58992e-05 0)