/*--------------------------------*- C++ -*----------------------------------*\
| =========                 |                                                 |
| \\      /  F ield         | OpenFOAM: The Open Source CFD Toolbox           |
|  \\    /   O peration     | Version:  2406                                  |
|   \\  /    A nd           | Website:  www.openfoam.com                      |
|    \\/     M anipulation  |                                                 |
\*---------------------------------------------------------------------------*/
FoamFile
{
    version     2.0;
    format      ascii;
    arch        "LSB;label=32;scalar=64";
    class       volVectorField;
    location    "38";
    object      U;
}
// * * * * * * * * * * * * * * * * * * * * * * * * * * * * * * * * * * * * * //

dimensions      [0 1 -1 0 0 0 0];

internalField   nonuniform List<vector> 
1900
(
(0.188724 -0.00192625 0)
(0.195693 -0.00206329 0)
(0.200978 -0.00155037 0)
(0.205194 -0.00149497 0)
(0.209965 -0.00175543 0)
(0.215928 -0.00225907 0)
(0.223678 -0.00321064 0)
(0.234372 -0.00514112 0)
(0.251511 -0.0108481 0)
(0.272522 -0.0372225 0)
(0.505241 -0.00377051 0)
(0.508831 -0.00685481 0)
(0.513841 -0.00743119 0)
(0.518808 -0.00812015 0)
(0.525297 -0.00963878 0)
(0.533905 -0.0121142 0)
(0.544932 -0.0160403 0)
(0.559015 -0.0224994 0)
(0.577246 -0.0336611 0)
(0.596047 -0.0563621 0)
(0.746075 -0.00309015 0)
(0.748356 -0.00742976 0)
(0.75155 -0.0102936 0)
(0.754548 -0.0130625 0)
(0.759085 -0.016517 0)
(0.765652 -0.0210508 0)
(0.77406 -0.0272724 0)
(0.784113 -0.0362041 0)
(0.795372 -0.049347 0)
(0.80537 -0.0692503 0)
(0.906565 -0.00271697 0)
(0.908329 -0.00752712 0)
(0.910334 -0.0116931 0)
(0.91135 -0.0158925 0)
(0.91313 -0.0207333 0)
(0.91619 -0.0266313 0)
(0.920121 -0.0340911 0)
(0.924377 -0.0437882 0)
(0.928213 -0.0564246 0)
(0.930077 -0.0725323 0)
(0.986721 -0.00245123 0)
(0.987994 -0.00713704 0)
(0.988953 -0.011685 0)
(0.988184 -0.0164461 0)
(0.987346 -0.0217933 0)
(0.986941 -0.0280555 0)
(0.986471 -0.0355874 0)
(0.985315 -0.0447546 0)
(0.982789 -0.0558018 0)
(0.977896 -0.0686607 0)
(0.98666 -0.00199286 0)
(0.987424 -0.00600629 0)
(0.987332 -0.0102747 0)
(0.984916 -0.0148984 0)
(0.981799 -0.0199949 0)
(0.978431 -0.0257871 0)
(0.974271 -0.03251 0)
(0.968713 -0.040326 0)
(0.961203 -0.0492554 0)
(0.951093 -0.0590746 0)
(0.906388 -0.00119957 0)
(0.906671 -0.00404452 0)
(0.905626 -0.00759617 0)
(0.901875 -0.0115755 0)
(0.897062 -0.0158491 0)
(0.891536 -0.0205684 0)
(0.884722 -0.0258859 0)
(0.87607 -0.0318388 0)
(0.865155 -0.0383504 0)
(0.85156 -0.0451964 0)
(0.7458 0.000163153 0)
(0.745807 -0.00117678 0)
(0.744355 -0.00394299 0)
(0.740124 -0.00706485 0)
(0.734692 -0.0101925 0)
(0.728251 -0.0134848 0)
(0.720236 -0.0170538 0)
(0.710202 -0.0208781 0)
(0.697866 -0.0248719 0)
(0.683001 -0.0288831 0)
(0.504941 0.00207221 0)
(0.505967 0.00199048 0)
(0.505755 -0.000407924 0)
(0.502694 -0.00272974 0)
(0.498227 -0.00460242 0)
(0.492554 -0.0063427 0)
(0.485299 -0.00809164 0)
(0.476221 -0.00984127 0)
(0.46522 -0.0115571 0)
(0.452243 -0.0131824 0)
(0.188507 0.00146495 0)
(0.193801 0.000991138 0)
(0.19567 4.22552e-05 0)
(0.194791 -0.000430872 0)
(0.192772 -0.000697411 0)
(0.189912 -0.000948374 0)
(0.186123 -0.0011896 0)
(0.181394 -0.00139799 0)
(0.175761 -0.00157272 0)
(0.169273 -0.00171715 0)
(-0.000209746 0.000198818 0)
(-0.00263676 0.000788151 0)
(-0.00684481 0.00110838 0)
(-0.0118037 0.0011695 0)
(-0.0166453 0.0011084 0)
(-0.0209588 0.000991179 0)
(-0.024559 0.000847391 0)
(-0.027358 0.000689105 0)
(-0.029314 0.000521032 0)
(-0.0304108 0.000345814 0)
(-0.03065 0.000166393 0)
(-0.0300497 -1.31893e-05 0)
(-0.028646 -0.000188239 0)
(-0.0264924 -0.000353919 0)
(-0.0236584 -0.000505619 0)
(-0.0202278 -0.000639361 0)
(-0.0162948 -0.000752012 0)
(-0.011961 -0.000841386 0)
(-0.00733108 -0.000906299 0)
(-0.00250896 -0.00094654 0)
(0.00240584 -0.000962402 0)
(0.00732133 -0.000955906 0)
(0.0121547 -0.000930515 0)
(0.0168339 -0.000889531 0)
(0.0213 -0.000836237 0)
(0.0255063 -0.000773944 0)
(0.0294189 -0.00070576 0)
(0.0330152 -0.000634523 0)
(0.0362835 -0.000562666 0)
(0.039221 -0.000492224 0)
(0.0418329 -0.000424779 0)
(0.0441306 -0.000361528 0)
(0.04613 -0.000303263 0)
(0.0478509 -0.000250478 0)
(0.0493151 -0.000203365 0)
(-0.000933297 0.00273167 0)
(-0.00745385 0.00689958 0)
(-0.0170397 0.00903761 0)
(-0.0277041 0.00942132 0)
(-0.0377923 0.00875442 0)
(-0.0464888 0.00753849 0)
(-0.0534029 0.00605399 0)
(-0.0583579 0.0044441 0)
(-0.0612958 0.00278274 0)
(-0.0622283 0.00111468 0)
(-0.0612132 -0.000524933 0)
(-0.0583464 -0.00210333 0)
(-0.0537553 -0.00358762 0)
(-0.0475965 -0.00494723 0)
(-0.0400509 -0.00615548 0)
(-0.0313181 -0.00719079 0)
(-0.0216104 -0.00803775 0)
(-0.0111459 -0.00868836 0)
(-0.000142579 -0.00914121 0)
(0.0111882 -0.00940128 0)
(0.0226471 -0.00947972 0)
(0.034051 -0.00939304 0)
(0.0452364 -0.00916181 0)
(0.0560626 -0.00880837 0)
(0.0664125 -0.00835604 0)
(0.0761932 -0.00782816 0)
(0.085335 -0.00724705 0)
(0.0937903 -0.00663336 0)
(0.101532 -0.0060055 0)
(0.108551 -0.0053793 0)
(0.114853 -0.00476789 0)
(0.120457 -0.00418171 0)
(0.125393 -0.00362862 0)
(0.129698 -0.00311412 0)
(0.133413 -0.00264166 0)
(-0.00148942 0.00766817 0)
(-0.0108711 0.0169544 0)
(-0.0234727 0.0210663 0)
(-0.0367006 0.0213517 0)
(-0.048572 0.019348 0)
(-0.0581942 0.0161291 0)
(-0.065174 0.0123258 0)
(-0.0693734 0.00828227 0)
(-0.0708028 0.00418759 0)
(-0.0695594 0.000157406 0)
(-0.0657962 -0.00372496 0)
(-0.0597055 -0.00738777 0)
(-0.0515096 -0.0107665 0)
(-0.0414545 -0.0138051 0)
(-0.0298024 -0.0164575 0)
(-0.0168257 -0.0186899 0)
(-0.00280107 -0.0204808 0)
(0.0119977 -0.0218228 0)
(0.0273055 -0.0227218 0)
(0.0428724 -0.0231959 0)
(0.0584664 -0.0232745 0)
(0.073878 -0.0229955 0)
(0.0889225 -0.0224028 0)
(0.103442 -0.0215444 0)
(0.117307 -0.0204699 0)
(0.130413 -0.0192287 0)
(0.142684 -0.017868 0)
(0.154066 -0.016432 0)
(0.164531 -0.0149601 0)
(0.174067 -0.0134867 0)
(0.182682 -0.0120408 0)
(0.190398 -0.0106462 0)
(0.197247 -0.00932092 0)
(0.203274 -0.00807853 0)
(0.208527 -0.006928 0)
(-0.00182945 0.0141841 0)
(-0.0125969 0.0292242 0)
(-0.0258753 0.0348064 0)
(-0.0387348 0.0341445 0)
(-0.0492149 0.0299116 0)
(-0.05662 0.023852 0)
(-0.0607478 0.016982 0)
(-0.0616253 0.00986219 0)
(-0.0594045 0.00280194 0)
(-0.0543055 -0.00401367 0)
(-0.046589 -0.0104583 0)
(-0.0365386 -0.0164278 0)
(-0.0244539 -0.0218373 0)
(-0.0106418 -0.0266173 0)
(0.00458887 -0.0307148 0)
(0.0209318 -0.0340946 0)
(0.0380914 -0.0367409 0)
(0.0557851 -0.0386566 0)
(0.0737481 -0.0398633 0)
(0.0917373 -0.0403993 0)
(0.109533 -0.040317 0)
(0.126943 -0.0396798 0)
(0.1438 -0.0385589 0)
(0.159966 -0.0370303 0)
(0.175331 -0.0351712 0)
(0.189807 -0.0330579 0)
(0.203336 -0.0307628 0)
(0.215878 -0.0283532 0)
(0.227414 -0.0258895 0)
(0.237944 -0.0234246 0)
(0.247483 -0.0210032 0)
(0.256056 -0.0186621 0)
(0.263701 -0.0164302 0)
(0.270465 -0.0143291 0)
(0.276398 -0.0123737 0)
(-0.00205141 0.0213328 0)
(-0.0127914 0.0415754 0)
(-0.02426 0.0473627 0)
(-0.0336874 0.0445296 0)
(-0.039612 0.0371335 0)
(-0.0418196 0.0275981 0)
(-0.0404601 0.0172747 0)
(-0.035808 0.00688825 0)
(-0.0281893 -0.00317505 0)
(-0.0179463 -0.0126988 0)
(-0.00542734 -0.0215326 0)
(0.0090205 -0.0295645 0)
(0.0250539 -0.0367076 0)
(0.042344 -0.0428966 0)
(0.0605755 -0.0480868 0)
(0.0794495 -0.0522554 0)
(0.0986877 -0.0554033 0)
(0.118034 -0.0575537 0)
(0.137259 -0.0587514 0)
(0.156158 -0.0590603 0)
(0.174555 -0.0585597 0)
(0.192302 -0.0573408 0)
(0.209278 -0.0555027 0)
(0.225387 -0.0531482 0)
(0.240559 -0.0503802 0)
(0.254745 -0.0472986 0)
(0.26792 -0.0439978 0)
(0.280071 -0.0405643 0)
(0.291205 -0.0370755 0)
(0.301339 -0.0335987 0)
(0.310503 -0.030191 0)
(0.318734 -0.026899 0)
(0.326076 -0.0237596 0)
(0.332577 -0.0208002 0)
(0.33829 -0.0180402 0)
(-0.00219979 0.0284432 0)
(-0.011448 0.051964 0)
(-0.0181829 0.0558017 0)
(-0.0207108 0.049299 0)
(-0.0187741 0.0379472 0)
(-0.0129331 0.024663 0)
(-0.00377895 0.0109613 0)
(0.00815904 -0.00239729 0)
(0.0224181 -0.0150385 0)
(0.0385762 -0.0267517 0)
(0.0562493 -0.0374004 0)
(0.0750814 -0.0468895 0)
(0.0947419 -0.0551504 0)
(0.114926 -0.0621374 0)
(0.135354 -0.0678277 0)
(0.155773 -0.0722229 0)
(0.175958 -0.0753493 0)
(0.195713 -0.0772578 0)
(0.214869 -0.0780214 0)
(0.233286 -0.0777329 0)
(0.250854 -0.0765001 0)
(0.267488 -0.0744416 0)
(0.283128 -0.0716824 0)
(0.297737 -0.0683493 0)
(0.311297 -0.0645667 0)
(0.323809 -0.0604537 0)
(0.335288 -0.0561208 0)
(0.345759 -0.0516686 0)
(0.355258 -0.0471857 0)
(0.363828 -0.0427486 0)
(0.371516 -0.0384213 0)
(0.378372 -0.0342556 0)
(0.384451 -0.0302919 0)
(0.389804 -0.0265603 0)
(0.394485 -0.0230812 0)
(-0.00219729 0.0352113 0)
(-0.00764506 0.058038 0)
(-0.00555615 0.0566079 0)
(0.0030512 0.0449084 0)
(0.0162969 0.0293159 0)
(0.0327123 0.0126549 0)
(0.0513529 -0.00372785 0)
(0.0715942 -0.0192101 0)
(0.0929332 -0.0335006 0)
(0.114976 -0.0464507 0)
(0.137397 -0.0579711 0)
(0.159908 -0.0680031 0)
(0.182256 -0.0765107 0)
(0.204217 -0.0834787 0)
(0.225595 -0.0889145 0)
(0.246223 -0.0928494 0)
(0.265964 -0.09534 0)
(0.284705 -0.0964667 0)
(0.302365 -0.0963322 0)
(0.318888 -0.0950571 0)
(0.334241 -0.0927757 0)
(0.348416 -0.0896308 0)
(0.361422 -0.0857691 0)
(0.373286 -0.081336 0)
(0.384048 -0.0764718 0)
(0.393759 -0.0713083 0)
(0.402475 -0.0659659 0)
(0.41026 -0.0605525 0)
(0.417179 -0.0551616 0)
(0.423297 -0.0498726 0)
(0.428679 -0.0447508 0)
(0.433389 -0.0398482 0)
(0.437485 -0.035204 0)
(0.441025 -0.0308466 0)
(0.444061 -0.0267941 0)
(-0.00164815 0.040881 0)
(0.00230638 0.0556648 0)
(0.0197805 0.0448909 0)
(0.0446225 0.0273942 0)
(0.0721603 0.00845952 0)
(0.100545 -0.0102042 0)
(0.12905 -0.0277606 0)
(0.157191 -0.0438374 0)
(0.184665 -0.0583079 0)
(0.211277 -0.0711259 0)
(0.236884 -0.0822616 0)
(0.261358 -0.0916948 0)
(0.28459 -0.0994194 0)
(0.306487 -0.105448 0)
(0.326979 -0.109816 0)
(0.346015 -0.112581 0)
(0.363567 -0.113828 0)
(0.379631 -0.113662 0)
(0.394223 -0.112211 0)
(0.407377 -0.10962 0)
(0.419147 -0.106042 0)
(0.429601 -0.101638 0)
(0.438818 -0.09657 0)
(0.446884 -0.0909938 0)
(0.453894 -0.0850578 0)
(0.45994 -0.0788991 0)
(0.465116 -0.0726405 0)
(0.469515 -0.06639 0)
(0.473223 -0.0602394 0)
(0.476322 -0.0542651 0)
(0.478887 -0.048528 0)
(0.480987 -0.0430752 0)
(0.482683 -0.0379408 0)
(0.48403 -0.0331477 0)
(0.485076 -0.0287087 0)
(0.005894 0.0340258 0)
(0.0316705 0.0333965 0)
(0.073237 0.0132515 0)
(0.118074 -0.00733249 0)
(0.160111 -0.0264035 0)
(0.198803 -0.0440895 0)
(0.234577 -0.0602387 0)
(0.267652 -0.0747208 0)
(0.298166 -0.087514 0)
(0.326257 -0.0986151 0)
(0.352039 -0.108007 0)
(0.375594 -0.115674 0)
(0.396982 -0.121615 0)
(0.41626 -0.125853 0)
(0.433493 -0.128435 0)
(0.448754 -0.129437 0)
(0.462128 -0.128961 0)
(0.473715 -0.12713 0)
(0.483627 -0.12409 0)
(0.491984 -0.119996 0)
(0.498918 -0.115017 0)
(0.504564 -0.10932 0)
(0.509057 -0.103072 0)
(0.512535 -0.0964318 0)
(0.515126 -0.0895466 0)
(0.516958 -0.08255 0)
(0.518145 -0.0755597 0)
(0.518795 -0.0686766 0)
(0.519004 -0.0619848 0)
(0.518858 -0.0555517 0)
(0.518431 -0.0494296 0)
(0.517788 -0.0436566 0)
(0.516985 -0.0382584 0)
(0.516065 -0.0332499 0)
(0.515067 -0.0286365 0)
(0.0691388 -0.0145524 0)
(0.126939 -0.0294006 0)
(0.188327 -0.0450637 0)
(0.245012 -0.0591565 0)
(0.292848 -0.0722091 0)
(0.333786 -0.0847619 0)
(0.369769 -0.0966015 0)
(0.401641 -0.107382 0)
(0.429829 -0.116887 0)
(0.454673 -0.124986 0)
(0.476454 -0.131585 0)
(0.49539 -0.136623 0)
(0.511658 -0.140076 0)
(0.525427 -0.141957 0)
(0.536862 -0.142313 0)
(0.546133 -0.141224 0)
(0.553414 -0.138801 0)
(0.558888 -0.135175 0)
(0.56274 -0.130497 0)
(0.565156 -0.12493 0)
(0.566324 -0.118641 0)
(0.566425 -0.111797 0)
(0.565633 -0.10456 0)
(0.56411 -0.0970818 0)
(0.562007 -0.0894991 0)
(0.55946 -0.0819346 0)
(0.55659 -0.0744934 0)
(0.553503 -0.0672634 0)
(0.550287 -0.0603154 0)
(0.54702 -0.053704 0)
(0.543763 -0.0474693 0)
(0.540566 -0.041638 0)
(0.537468 -0.0362255 0)
(0.534497 -0.0312375 0)
(0.531673 -0.0266715 0)
(0.333858 -0.0871948 0)
(0.361783 -0.0973315 0)
(0.395172 -0.101727 0)
(0.433157 -0.107266 0)
(0.468058 -0.113845 0)
(0.498521 -0.120936 0)
(0.525205 -0.128048 0)
(0.548411 -0.134694 0)
(0.568239 -0.140504 0)
(0.584851 -0.145231 0)
(0.598452 -0.148719 0)
(0.609244 -0.150872 0)
(0.617421 -0.15165 0)
(0.623184 -0.151059 0)
(0.626743 -0.149148 0)
(0.628318 -0.146001 0)
(0.628132 -0.141731 0)
(0.626416 -0.136473 0)
(0.623398 -0.130377 0)
(0.619298 -0.1236 0)
(0.614333 -0.116305 0)
(0.608701 -0.108647 0)
(0.602588 -0.100774 0)
(0.59616 -0.0928215 0)
(0.589564 -0.0849105 0)
(0.582926 -0.0771452 0)
(0.576353 -0.0696125 0)
(0.569931 -0.0623827 0)
(0.56373 -0.0555101 0)
(0.557803 -0.0490341 0)
(0.552187 -0.042981 0)
(0.546909 -0.0373654 0)
(0.541983 -0.0321921 0)
(0.537416 -0.027458 0)
(0.533207 -0.023153 0)
(0.610338 -0.0916406 0)
(0.614566 -0.112808 0)
(0.622459 -0.123544 0)
(0.636084 -0.130822 0)
(0.650953 -0.136825 0)
(0.664668 -0.142003 0)
(0.676652 -0.146515 0)
(0.686588 -0.150317 0)
(0.694197 -0.153251 0)
(0.699373 -0.155169 0)
(0.702152 -0.155965 0)
(0.702645 -0.155584 0)
(0.701005 -0.154013 0)
(0.69742 -0.151282 0)
(0.692104 -0.147455 0)
(0.68529 -0.142626 0)
(0.677218 -0.136915 0)
(0.668134 -0.130456 0)
(0.658277 -0.123395 0)
(0.647873 -0.11588 0)
(0.637137 -0.108057 0)
(0.626259 -0.100065 0)
(0.61541 -0.0920298 0)
(0.604736 -0.0840659 0)
(0.594359 -0.0762712 0)
(0.584375 -0.0687275 0)
(0.574862 -0.0615008 0)
(0.565873 -0.0546417 0)
(0.557446 -0.0481868 0)
(0.549602 -0.0421599 0)
(0.542348 -0.0365739 0)
(0.53568 -0.0314324 0)
(0.529586 -0.0267309 0)
(0.524047 -0.0224589 0)
(0.519038 -0.018601 0)
(0.809483 -0.0940918 0)
(0.80664 -0.113398 0)
(0.802529 -0.126038 0)
(0.800285 -0.134938 0)
(0.799041 -0.141588 0)
(0.797525 -0.146465 0)
(0.795161 -0.149901 0)
(0.791602 -0.152116 0)
(0.786553 -0.15319 0)
(0.779848 -0.153139 0)
(0.771463 -0.151972 0)
(0.761473 -0.149718 0)
(0.750016 -0.146424 0)
(0.737275 -0.142163 0)
(0.723464 -0.137027 0)
(0.708818 -0.131127 0)
(0.693576 -0.124588 0)
(0.677977 -0.117543 0)
(0.662246 -0.110125 0)
(0.646592 -0.102468 0)
(0.631201 -0.0946958 0)
(0.616234 -0.086923 0)
(0.601824 -0.0792511 0)
(0.588078 -0.0717678 0)
(0.575076 -0.0645456 0)
(0.562875 -0.0576428 0)
(0.551509 -0.0511036 0)
(0.540993 -0.0449596 0)
(0.531326 -0.0392306 0)
(0.522493 -0.0339271 0)
(0.51447 -0.0290505 0)
(0.507224 -0.0245956 0)
(0.500715 -0.0205515 0)
(0.494899 -0.0169028 0)
(0.489732 -0.013631 0)
(0.927537 -0.0907386 0)
(0.919819 -0.10671 0)
(0.909192 -0.118665 0)
(0.897793 -0.127388 0)
(0.885965 -0.133711 0)
(0.873366 -0.138015 0)
(0.859805 -0.14058 0)
(0.845201 -0.141663 0)
(0.829475 -0.141447 0)
(0.812601 -0.140055 0)
(0.794636 -0.137587 0)
(0.775707 -0.134143 0)
(0.755992 -0.129824 0)
(0.735698 -0.124741 0)
(0.715051 -0.119009 0)
(0.694284 -0.112748 0)
(0.673623 -0.106081 0)
(0.653285 -0.0991308 0)
(0.633461 -0.0920122 0)
(0.61432 -0.0848341 0)
(0.596003 -0.0776946 0)
(0.578622 -0.07068 0)
(0.562259 -0.0638636 0)
(0.546971 -0.0573058 0)
(0.532788 -0.0510545 0)
(0.51972 -0.0451452 0)
(0.507758 -0.0396031 0)
(0.496876 -0.0344431 0)
(0.487038 -0.0296722 0)
(0.478196 -0.0252902 0)
(0.470297 -0.021291 0)
(0.463283 -0.017664 0)
(0.457093 -0.0143946 0)
(0.451665 -0.011466 0)
(0.446937 -0.00885889 0)
(0.96938 -0.0823919 0)
(0.956752 -0.094886 0)
(0.940946 -0.104766 0)
(0.923194 -0.11204 0)
(0.904049 -0.117124 0)
(0.883622 -0.120296 0)
(0.862012 -0.121781 0)
(0.839368 -0.121812 0)
(0.815828 -0.120597 0)
(0.791541 -0.11831 0)
(0.766686 -0.115097 0)
(0.741476 -0.111096 0)
(0.71614 -0.106435 0)
(0.690912 -0.101239 0)
(0.666021 -0.0956254 0)
(0.641683 -0.0897078 0)
(0.618095 -0.0835928 0)
(0.595426 -0.0773789 0)
(0.57382 -0.0711555 0)
(0.553389 -0.0650016 0)
(0.534214 -0.0589852 0)
(0.51635 -0.0531634 0)
(0.499823 -0.0475821 0)
(0.484637 -0.0422771 0)
(0.470776 -0.0372745 0)
(0.458205 -0.0325919 0)
(0.446878 -0.0282391 0)
(0.436737 -0.0242196 0)
(0.427716 -0.0205317 0)
(0.419744 -0.017169 0)
(0.41275 -0.0141216 0)
(0.406657 -0.0113769 0)
(0.401393 -0.00892037 0)
(0.396884 -0.00673578 0)
(0.393061 -0.00480611 0)
(0.937701 -0.0691223 0)
(0.92076 -0.0782482 0)
(0.900721 -0.0855471 0)
(0.878344 -0.0908225 0)
(0.854189 -0.0942551 0)
(0.828592 -0.0960542 0)
(0.801849 -0.0964157 0)
(0.774264 -0.0955519 0)
(0.746131 -0.093671 0)
(0.717723 -0.0909559 0)
(0.689307 -0.0875638 0)
(0.661144 -0.0836339 0)
(0.633481 -0.0792902 0)
(0.606542 -0.0746439 0)
(0.580528 -0.069794 0)
(0.555607 -0.0648287 0)
(0.531921 -0.0598253 0)
(0.509576 -0.0548515 0)
(0.488651 -0.049965 0)
(0.469195 -0.0452143 0)
(0.451227 -0.0406387 0)
(0.434748 -0.0362696 0)
(0.419733 -0.0321301 0)
(0.406143 -0.028237 0)
(0.393924 -0.0246005 0)
(0.383013 -0.0212258 0)
(0.373336 -0.0181136 0)
(0.364816 -0.015261 0)
(0.357372 -0.0126619 0)
(0.350923 -0.0103081 0)
(0.345387 -0.00818929 0)
(0.340685 -0.00629413 0)
(0.336739 -0.00461003 0)
(0.333474 -0.00312403 0)
(0.330821 -0.00182249 0)
(0.834915 -0.0519324 0)
(0.815125 -0.057906 0)
(0.792511 -0.0625691 0)
(0.767649 -0.0657402 0)
(0.741101 -0.0675115 0)
(0.713332 -0.0680528 0)
(0.68476 -0.067543 0)
(0.655782 -0.0661689 0)
(0.626761 -0.0641117 0)
(0.598014 -0.0615298 0)
(0.569819 -0.0585555 0)
(0.542419 -0.0552989 0)
(0.51602 -0.0518531 0)
(0.49079 -0.0482957 0)
(0.466862 -0.0446919 0)
(0.444334 -0.0410955 0)
(0.423274 -0.0375509 0)
(0.403721 -0.0340945 0)
(0.385689 -0.0307556 0)
(0.36917 -0.0275571 0)
(0.354137 -0.0245165 0)
(0.340547 -0.0216463 0)
(0.328344 -0.0189548 0)
(0.317462 -0.0164467 0)
(0.307828 -0.0141233 0)
(0.299366 -0.0119836 0)
(0.291994 -0.0100242 0)
(0.285631 -0.00824022 0)
(0.280196 -0.00662543 0)
(0.275608 -0.00517247 0)
(0.271789 -0.00387342 0)
(0.268666 -0.00271966 0)
(0.266167 -0.00170242 0)
(0.264225 -0.000812511 0)
(0.262776 -4.08926e-05 0)
(0.665461 -0.0326563 0)
(0.645305 -0.0358484 0)
(0.622867 -0.0381733 0)
(0.598674 -0.0395387 0)
(0.573284 -0.0400209 0)
(0.547201 -0.0397593 0)
(0.520869 -0.0388973 0)
(0.494679 -0.0375725 0)
(0.468958 -0.0359096 0)
(0.443972 -0.0340121 0)
(0.419931 -0.0319613 0)
(0.396996 -0.0298206 0)
(0.375289 -0.02764 0)
(0.354893 -0.0254585 0)
(0.335861 -0.0233066 0)
(0.318219 -0.0212074 0)
(0.301971 -0.0191786 0)
(0.287103 -0.0172337 0)
(0.273583 -0.0153826 0)
(0.261371 -0.0136321 0)
(0.250412 -0.011987 0)
(0.240646 -0.0104497 0)
(0.232009 -0.00902124 0)
(0.22443 -0.00770083 0)
(0.217837 -0.00648684 0)
(0.212159 -0.00537651 0)
(0.207323 -0.00436651 0)
(0.203258 -0.00345282 0)
(0.199895 -0.00263117 0)
(0.197168 -0.00189684 0)
(0.195013 -0.00124507 0)
(0.193369 -0.00067084 0)
(0.19218 -0.000169193 0)
(0.191391 0.000264973 0)
(0.190954 0.000636638 0)
(0.437316 -0.0146137 0)
(0.420611 -0.0157151 0)
(0.402474 -0.0163844 0)
(0.383369 -0.0166116 0)
(0.363765 -0.0164624 0)
(0.344074 -0.016025 0)
(0.324632 -0.0153773 0)
(0.305705 -0.0145852 0)
(0.287498 -0.0137025 0)
(0.270155 -0.0127706 0)
(0.253776 -0.0118192 0)
(0.238424 -0.0108696 0)
(0.224132 -0.00993697 0)
(0.210913 -0.00903208 0)
(0.198762 -0.0081622 0)
(0.18766 -0.0073323 0)
(0.177578 -0.00654537 0)
(0.168478 -0.00580346 0)
(0.160319 -0.00510748 0)
(0.153052 -0.0044579 0)
(0.146628 -0.00385438 0)
(0.140994 -0.00329636 0)
(0.136097 -0.00278263 0)
(0.131883 -0.00231198 0)
(0.128301 -0.0018827 0)
(0.125297 -0.0014932 0)
(0.122821 -0.00114153 0)
(0.120826 -0.000825948 0)
(0.119263 -0.000544408 0)
(0.11809 -0.000295108 0)
(0.117262 -7.59909e-05 0)
(0.116742 0.000114752 0)
(0.116491 0.000279201 0)
(0.116476 0.000419146 0)
(0.116662 0.000536573 0)
(0.162003 -0.00182195 0)
(0.15409 -0.00186892 0)
(0.145742 -0.00184864 0)
(0.137199 -0.00177124 0)
(0.128683 -0.00165822 0)
(0.120365 -0.00152833 0)
(0.112367 -0.00139306 0)
(0.104771 -0.00125904 0)
(0.0976294 -0.00113006 0)
(0.0909711 -0.00100789 0)
(0.0848072 -0.000893196 0)
(0.0791374 -0.000786315 0)
(0.0739528 -0.00068756 0)
(0.0692389 -0.000597032 0)
(0.0649772 -0.000514547 0)
(0.0611466 -0.000439643 0)
(0.0577245 -0.000371749 0)
(0.0546874 -0.000310252 0)
(0.0520115 -0.000254615 0)
(0.049673 -0.000204346 0)
(0.047648 -0.000159042 0)
(0.0459132 -0.000118323 0)
(0.0444459 -8.18687e-05 0)
(0.0432239 -4.93563e-05 0)
(0.0422261 -2.05073e-05 0)
(0.0414319 4.96463e-06 0)
(0.0408219 2.7297e-05 0)
(0.0403774 4.67333e-05 0)
(0.040081 6.34679e-05 0)
(0.0399159 7.77042e-05 0)
(0.0398665 8.96042e-05 0)
(0.0399181 9.93582e-05 0)
(0.040057 0.0001071 0)
(0.0402703 0.000112995 0)
(0.0405464 0.000117176 0)
(0.0505456 -0.00016192 0)
(0.0515658 -0.000125948 0)
(0.0523988 -9.51524e-05 0)
(0.053067 -6.91339e-05 0)
(0.0535914 -4.74645e-05 0)
(0.0539914 -2.96743e-05 0)
(0.0542852 -1.53117e-05 0)
(0.0544888 -3.91964e-06 0)
(0.0546169 4.9159e-06 0)
(0.0546822 1.15947e-05 0)
(0.136585 -0.00221291 0)
(0.139263 -0.0018281 0)
(0.141493 -0.00148629 0)
(0.143325 -0.00118567 0)
(0.144802 -0.000923821 0)
(0.145968 -0.000697889 0)
(0.146865 -0.000504788 0)
(0.147528 -0.000341346 0)
(0.147991 -0.000204397 0)
(0.148286 -9.08853e-05 0)
(0.213062 -0.00587448 0)
(0.216935 -0.00491985 0)
(0.220206 -0.00406337 0)
(0.222932 -0.00330214 0)
(0.22517 -0.00263172 0)
(0.226974 -0.00204651 0)
(0.228396 -0.00154018 0)
(0.229484 -0.001106 0)
(0.230282 -0.000737079 0)
(0.230831 -0.000426614 0)
(0.281556 -0.0105731 0)
(0.285997 -0.0089315 0)
(0.28978 -0.00744874 0)
(0.292965 -0.00612137 0)
(0.29561 -0.00494328 0)
(0.29777 -0.00390645 0)
(0.299499 -0.00300151 0)
(0.300847 -0.00221823 0)
(0.301862 -0.00154602 0)
(0.302586 -0.000974185 0)
(0.34327 -0.0154913 0)
(0.347571 -0.0131591 0)
(0.351249 -0.0110437 0)
(0.354358 -0.00914094 0)
(0.356952 -0.0074433 0)
(0.359081 -0.00594055 0)
(0.360794 -0.00462069 0)
(0.362138 -0.00347051 0)
(0.363155 -0.00247615 0)
(0.363885 -0.00162355 0)
(0.398547 -0.0198667 0)
(0.40204 -0.0169218 0)
(0.405015 -0.0142458 0)
(0.407516 -0.0118329 0)
(0.409591 -0.00967352 0)
(0.411281 -0.00775531 0)
(0.412625 -0.00606378 0)
(0.413663 -0.00458308 0)
(0.414428 -0.00329664 0)
(0.414952 -0.0021876 0)
(0.446642 -0.0230561 0)
(0.448814 -0.0196351 0)
(0.450617 -0.0165272 0)
(0.45209 -0.0137241 0)
(0.453268 -0.0112135 0)
(0.454182 -0.00898023 0)
(0.454862 -0.0070074 0)
(0.455335 -0.00527666 0)
(0.455624 -0.00376906 0)
(0.455752 -0.00246551 0)
(0.485864 -0.0246285 0)
(0.486429 -0.0209046 0)
(0.486803 -0.0175291 0)
(0.487014 -0.0144898 0)
(0.487084 -0.0117708 0)
(0.487034 -0.00935412 0)
(0.486882 -0.00722004 0)
(0.486641 -0.00534796 0)
(0.486325 -0.00371687 0)
(0.485946 -0.00230591 0)
(0.514022 -0.0244163 0)
(0.512952 -0.0205812 0)
(0.511878 -0.017118 0)
(0.510812 -0.0140102 0)
(0.509765 -0.0112383 0)
(0.508744 -0.00878129 0)
(0.507754 -0.00661696 0)
(0.506798 -0.00472269 0)
(0.505878 -0.00307589 0)
(0.504994 -0.00165442 0)
(0.529011 -0.0225186 0)
(0.526518 -0.0187647 0)
(0.524196 -0.015392 0)
(0.522045 -0.0123797 0)
(0.52006 -0.00970551 0)
(0.518235 -0.00734568 0)
(0.516563 -0.00527623 0)
(0.515034 -0.00347318 0)
(0.513639 -0.00191302 0)
(0.512368 -0.000573011 0)
(0.529348 -0.0192624 0)
(0.525829 -0.0157671 0)
(0.522634 -0.0126456 0)
(0.519746 -0.00987438 0)
(0.517147 -0.00742895 0)
(0.514817 -0.00528435 0)
(0.512736 -0.00341575 0)
(0.510885 -0.0017988 0)
(0.509244 -0.000409963 0)
(0.507795 0.00077323 0)
(0.514532 -0.0151378 0)
(0.510497 -0.0120476 0)
(0.506902 -0.00930682 0)
(0.503715 -0.00689083 0)
(0.500904 -0.00477469 0)
(0.498437 -0.00293356 0)
(0.496284 -0.00134311 0)
(0.494416 2.02261e-05 0)
(0.492806 0.00117881 0)
(0.491428 0.0021538 0)
(0.485167 -0.010715 0)
(0.481156 -0.00813217 0)
(0.477653 -0.00585915 0)
(0.474615 -0.0038721 0)
(0.471998 -0.00214732 0)
(0.469762 -0.000661557 0)
(0.467869 0.000607614 0)
(0.466283 0.00168154 0)
(0.464972 0.00258045 0)
(0.463904 0.00332343 0)
(0.44285 -0.00655305 0)
(0.439344 -0.00452735 0)
(0.436365 -0.00276037 0)
(0.43386 -0.00123081 0)
(0.431779 8.22806e-05 0)
(0.430076 0.00119901 0)
(0.428711 0.00213871 0)
(0.427643 0.00291971 0)
(0.426837 0.00355942 0)
(0.42626 0.004074 0)
(0.389856 -0.00311365 0)
(0.387206 -0.00164054 0)
(0.385052 -0.000368917 0)
(0.383339 0.000718657 0)
(0.382016 0.00163911 0)
(0.381035 0.00240872 0)
(0.380354 0.00304308 0)
(0.379933 0.00355696 0)
(0.379738 0.0039642 0)
(0.379736 0.00427766 0)
(0.328713 -0.000691908 0)
(0.327088 0.00028142 0)
(0.325889 0.00111068 0)
(0.325064 0.00180901 0)
(0.324564 0.00238884 0)
(0.324345 0.00286244 0)
(0.324366 0.00324115 0)
(0.324593 0.00353597 0)
(0.324991 0.00375687 0)
(0.325533 0.00391341 0)
(0.261762 0.000621655 0)
(0.261129 0.00118404 0)
(0.260826 0.00165513 0)
(0.260807 0.00204343 0)
(0.261031 0.00235735 0)
(0.26146 0.00260472 0)
(0.262059 0.00279314 0)
(0.262799 0.00292959 0)
(0.263652 0.0030208 0)
(0.264594 0.00307277 0)
(0.190822 0.000950836 0)
(0.190952 0.00121239 0)
(0.191306 0.0014262 0)
(0.191848 0.00159685 0)
(0.192545 0.00172893 0)
(0.193369 0.00182664 0)
(0.194295 0.00189413 0)
(0.195298 0.00193518 0)
(0.19636 0.00195344 0)
(0.197463 0.00195215 0)
(0.117022 0.000633233 0)
(0.117526 0.000711114 0)
(0.118151 0.000771887 0)
(0.118874 0.000817434 0)
(0.119674 0.000849303 0)
(0.120533 0.000869242 0)
(0.121435 0.000878641 0)
(0.122366 0.00087908 0)
(0.123313 0.000871761 0)
(0.124267 0.00085807 0)
(0.0408744 0.000119811 0)
(0.0412442 0.000121036 0)
(0.0416469 0.000121013 0)
(0.0420745 0.000119875 0)
(0.0425195 0.000117776 0)
(0.0429757 0.000114841 0)
(0.0434373 0.000111216 0)
(0.0438996 0.000107013 0)
(0.0443584 0.000102366 0)
(0.0448102 9.73726e-05 0)
(0.0546961 1.64609e-05 0)
(0.0546683 1.98355e-05 0)
(0.0546074 2.19875e-05 0)
(0.0545205 2.31699e-05 0)
(0.0544138 2.35863e-05 0)
(0.0542925 2.34245e-05 0)
(0.0541607 2.28283e-05 0)
(0.0540222 2.19311e-05 0)
(0.0538798 2.08288e-05 0)
(0.0537359 1.96113e-05 0)
(0.0535923 1.83375e-05 0)
(0.0534506 1.70644e-05 0)
(0.0533119 1.58234e-05 0)
(0.0531771 1.46473e-05 0)
(0.053047 1.35482e-05 0)
(0.0529221 1.2542e-05 0)
(0.0528026 1.16279e-05 0)
(0.052689 1.08104e-05 0)
(0.0525814 1.00812e-05 0)
(0.0524798 9.438e-06 0)
(0.0523843 8.86829e-06 0)
(0.0522949 8.36669e-06 0)
(0.0522116 7.91945e-06 0)
(0.0521342 7.52026e-06 0)
(0.0520627 7.15622e-06 0)
(0.0519971 6.82185e-06 0)
(0.051937 6.50614e-06 0)
(0.0518824 6.20577e-06 0)
(0.0518331 5.91217e-06 0)
(0.0517888 5.62468e-06 0)
(0.0517495 5.33732e-06 0)
(0.0517148 5.0524e-06 0)
(0.0516845 4.76628e-06 0)
(0.0516584 4.48425e-06 0)
(0.0516361 4.20496e-06 0)
(0.148439 2.09613e-06 0)
(0.148475 7.7226e-05 0)
(0.148414 0.00013696 0)
(0.148275 0.000183523 0)
(0.148074 0.000218915 0)
(0.147825 0.000244908 0)
(0.147539 0.000263062 0)
(0.147226 0.00027473 0)
(0.146895 0.000281079 0)
(0.146551 0.000283106 0)
(0.146202 0.000281653 0)
(0.145851 0.000277429 0)
(0.145502 0.000271022 0)
(0.145159 0.000262921 0)
(0.144823 0.000253525 0)
(0.144498 0.00024316 0)
(0.144184 0.00023209 0)
(0.143882 0.00022053 0)
(0.143594 0.000208648 0)
(0.14332 0.000196584 0)
(0.143061 0.000184447 0)
(0.142816 0.00017233 0)
(0.142586 0.000160304 0)
(0.142371 0.000148434 0)
(0.142171 0.000136771 0)
(0.141986 0.000125365 0)
(0.141816 0.000114257 0)
(0.14166 0.000103488 0)
(0.141518 9.30957e-05 0)
(0.141389 8.31174e-05 0)
(0.141273 7.35895e-05 0)
(0.14117 6.45462e-05 0)
(0.141079 5.6023e-05 0)
(0.140999 4.80515e-05 0)
(0.14093 4.06649e-05 0)
(0.231168 -0.000168026 0)
(0.231326 4.49289e-05 0)
(0.231334 0.000218038 0)
(0.231218 0.000356617 0)
(0.231001 0.000465496 0)
(0.230702 0.000549036 0)
(0.23034 0.000611117 0)
(0.229928 0.000655162 0)
(0.229479 0.000684155 0)
(0.229004 0.000700686 0)
(0.228512 0.00070697 0)
(0.228011 0.000704902 0)
(0.227506 0.000696076 0)
(0.227004 0.000681839 0)
(0.226509 0.000663305 0)
(0.226024 0.000641409 0)
(0.225551 0.000616913 0)
(0.225094 0.000590451 0)
(0.224655 0.000562537 0)
(0.224234 0.000533598 0)
(0.223833 0.00050398 0)
(0.223453 0.000473978 0)
(0.223094 0.000443827 0)
(0.222756 0.00041374 0)
(0.222441 0.000383889 0)
(0.222147 0.000354437 0)
(0.221875 0.000325521 0)
(0.221625 0.000297277 0)
(0.221396 0.000269822 0)
(0.221187 0.000243278 0)
(0.220999 0.000217751 0)
(0.22083 0.000193355 0)
(0.220679 0.000170188 0)
(0.220546 0.000148353 0)
(0.22043 0.000127942 0)
(0.303059 -0.000492274 0)
(0.303318 -9.02336e-05 0)
(0.303395 0.000241398 0)
(0.303318 0.000511391 0)
(0.303115 0.000727818 0)
(0.302806 0.000898035 0)
(0.302414 0.00102866 0)
(0.301955 0.0011256 0)
(0.301444 0.00119404 0)
(0.300894 0.00123854 0)
(0.300317 0.00126305 0)
(0.299722 0.00127097 0)
(0.299118 0.00126522 0)
(0.298511 0.00124828 0)
(0.297906 0.00122224 0)
(0.29731 0.00118887 0)
(0.296726 0.00114965 0)
(0.296157 0.00110582 0)
(0.295607 0.00105841 0)
(0.295077 0.00100829 0)
(0.294569 0.000956191 0)
(0.294085 0.000902725 0)
(0.293626 0.000848419 0)
(0.293192 0.000793722 0)
(0.292785 0.000739033 0)
(0.292404 0.000684703 0)
(0.292049 0.000631052 0)
(0.291721 0.000578369 0)
(0.29142 0.000526926 0)
(0.291143 0.000476976 0)
(0.290892 0.000428758 0)
(0.290665 0.000382498 0)
(0.290462 0.000338409 0)
(0.290281 0.000296693 0)
(0.290122 0.00025754 0)
(0.364365 -0.000898819 0)
(0.36463 -0.000288485 0)
(0.364709 0.000220253 0)
(0.36463 0.000639374 0)
(0.364419 0.000979988 0)
(0.364098 0.00125229 0)
(0.363686 0.00146555 0)
(0.363201 0.00162805 0)
(0.362658 0.0017472 0)
(0.36207 0.00182952 0)
(0.36145 0.00188072 0)
(0.360807 0.00190577 0)
(0.360151 0.00190897 0)
(0.359488 0.00189401 0)
(0.358825 0.00186404 0)
(0.358168 0.00182176 0)
(0.357521 0.00176944 0)
(0.356888 0.00170903 0)
(0.356273 0.00164214 0)
(0.355678 0.00157019 0)
(0.355106 0.00149434 0)
(0.354559 0.00141562 0)
(0.354037 0.0013349 0)
(0.353542 0.00125294 0)
(0.353075 0.00117042 0)
(0.352637 0.00108795 0)
(0.352228 0.00100607 0)
(0.351847 0.000925281 0)
(0.351495 0.000846056 0)
(0.351171 0.000768824 0)
(0.350875 0.00069399 0)
(0.350606 0.000621934 0)
(0.350364 0.000553014 0)
(0.350146 0.000487563 0)
(0.349953 0.000425892 0)
(0.415267 -0.00123927 0)
(0.415398 -0.000435446 0)
(0.415372 0.000239367 0)
(0.41521 0.000799768 0)
(0.414934 0.00125936 0)
(0.414563 0.00163068 0)
(0.414111 0.00192515 0)
(0.413595 0.0021531 0)
(0.413027 0.00232376 0)
(0.41242 0.00244535 0)
(0.411782 0.0025251 0)
(0.411124 0.00256937 0)
(0.410454 0.00258368 0)
(0.409777 0.00257281 0)
(0.409101 0.00254089 0)
(0.408429 0.00249147 0)
(0.407768 0.00242758 0)