/*--------------------------------*- C++ -*----------------------------------*\
| =========                 |                                                 |
| \\      /  F ield         | OpenFOAM: The Open Source CFD Toolbox           |
|  \\    /   O peration     | Version:  2406                                  |
|   \\  /    A nd           | Website:  www.openfoam.com                      |
|    \\/     M anipulation  |                                                 |
\*---------------------------------------------------------------------------*/
FoamFile
{
    version     2.0;
    format      ascii;
    arch        "LSB;label=32;scalar=64";
    class       volScalarField;
    location    "155";
    object      p;
}
// * * * * * * * * * * * * * * * * * * * * * * * * * * * * * * * * * * * * * //

dimensions      [0 2 -2 0 0 0 0];

internalField   nonuniform List<scalar> 
190000
(
1.0189
1.01698
1.01408
1.01065
1.00697
1.00316
0.999289
0.995382
0.991457
0.98752
0.983575
0.979625
0.975671
0.971714
0.967753
0.963789
0.959821
0.95585
0.951875
0.947897
0.943914
0.939927
0.935935
0.931938
0.927935
0.923927
0.919912
0.915891
0.911862
0.907825
0.90378
0.899725
0.895661
0.891587
0.887501
0.883403
0.879292
0.875167
0.871028
0.866874
0.862703
0.858515
0.854308
0.850082
0.845836
0.841568
0.837278
0.832965
0.828627
0.824263
0.819873
0.815455
0.811008
0.806531
0.802023
0.797484
0.792911
0.788305
0.783663
0.778986
0.774272
0.76952
0.76473
0.7599
0.75503
0.750119
0.745167
0.740172
0.735136
0.730057
0.724935
0.719771
0.714564
0.709316
0.704028
0.698702
0.69334
0.687944
0.682521
0.677075
0.671613
0.666146
0.660687
0.65525
0.64986
0.644542
0.639334
0.634286
0.629461
0.624946
0.620853
0.61733
0.614559
0.612749
0.612044
0.612072
0.611538
0.612061
0.621601
0.554958
1.02142
1.01779
1.01424
1.01063
1.0069
1.00307
0.9992
0.995294
0.991369
0.987431
0.983484
0.979531
0.975571
0.971608
0.96764
0.963668
0.959692
0.955712
0.951728
0.94774
0.943747
0.939749
0.935746
0.931738
0.927723
0.923703
0.919675
0.915641
0.911599
0.907548
0.903489
0.89942
0.895341
0.891251
0.88715
0.883036
0.878909
0.874768
0.870613
0.866441
0.862253
0.858047
0.853823
0.849579
0.845314
0.841028
0.836719
0.832386
0.828028
0.823644
0.819234
0.814795
0.810327
0.805829
0.801299
0.796736
0.79214
0.78751
0.782843
0.77814
0.773399
0.768619
0.763799
0.758938
0.754035
0.749089
0.7441
0.739067
0.733988
0.728864
0.723693
0.718476
0.713212
0.707901
0.702544
0.697142
0.691695
0.686206
0.680677
0.675111
0.669514
0.66389
0.658248
0.652597
0.646951
0.641326
0.635741
0.630222
0.624797
0.619502
0.61437
0.60943
0.604684
0.600064
0.595313
0.589687
0.581763
0.570067
0.547702
0.470285
1.02268
1.01833
1.0144
1.01066
1.00687
1.00301
0.999126
0.995215
0.991286
0.987343
0.983391
0.979431
0.975466
0.971494
0.967518
0.963537
0.959552
0.955562
0.951568
0.947569
0.943564
0.939555
0.93554
0.931518
0.927491
0.923457
0.919416
0.915367
0.91131
0.907245
0.90317
0.899085
0.89499
0.890884
0.886766
0.882635
0.878491
0.874332
0.870158
0.865969
0.861762
0.857537
0.853294
0.849031
0.844746
0.84044
0.836111
0.831758
0.82738
0.822975
0.818543
0.814082
0.809592
0.805071
0.800518
0.795932
0.791311
0.786655
0.781962
0.777231
0.772462
0.767652
0.7628
0.757906
0.752968
0.747986
0.742957
0.737881
0.732757
0.727584
0.72236
0.717085
0.711758
0.706379
0.700946
0.695459
0.689919
0.684325
0.678677
0.672977
0.667225
0.661424
0.655575
0.64968
0.643744
0.637768
0.631755
0.625703
0.619607
0.61345
0.607193
0.600758
0.593995
0.586623
0.578118
0.567519
0.553256
0.53303
0.501586
0.444652
1.02323
1.01867
1.01457
1.01074
1.00688
1.00299
0.999085
0.99516
0.99122
0.98727
0.983311
0.979344
0.975371
0.971392
0.967408
0.963419
0.959425
0.955426
0.951423
0.947413
0.943399
0.939379
0.935353
0.93132
0.927281
0.923235
0.919182
0.915121
0.911051
0.906972
0.902883
0.898785
0.894676
0.890555
0.886422
0.882276
0.878116
0.873942
0.869752
0.865546
0.861323
0.857082
0.852822
0.848541
0.84424
0.839916
0.835569
0.831198
0.826801
0.822377
0.817926
0.813446
0.808936
0.804394
0.79982
0.795212
0.790569
0.78589
0.781173
0.776417
0.771621
0.766783
0.761903
0.756978
0.752008
0.746991
0.741926
0.736811
0.731644
0.726425
0.721152
0.715823
0.710437
0.704992
0.699488
0.693921
0.688291
0.682597
0.676836
0.671006
0.665107
0.659134
0.653085
0.646956
0.640741
0.63443
0.628012
0.621464
0.614754
0.60783
0.600609
0.592956
0.584658
0.575373
0.564563
0.551386
0.534629
0.512711
0.483223
0.442006
1.02354
1.0189
1.01472
1.01082
1.00692
1.00299
0.999061
0.995119
0.991168
0.987207
0.983239
0.979265
0.975284
0.971297
0.967305
0.963308
0.959305
0.955298
0.951284
0.947266
0.943242
0.939211
0.935175
0.931132
0.927082
0.923024
0.918959
0.914885
0.910803
0.906712
0.90261
0.898499
0.894376
0.890242
0.886095
0.881934
0.87776
0.873572
0.869367
0.865146
0.860908
0.856651
0.852375
0.848079
0.843761
0.839421
0.835058
0.830669
0.826255
0.821814
0.817345
0.812847
0.808318
0.803757
0.799164
0.794536
0.789872
0.785171
0.780431
0.775652
0.770832
0.765968
0.761061
0.756108
0.751107
0.746057
0.740957
0.735805
0.730598
0.725335
0.720015
0.714634
0.709191
0.703684
0.69811
0.692466
0.686751
0.680959
0.675088
0.669134
0.663091
0.656954
0.650713
0.644361
0.637882
0.631259
0.624468
0.617473
0.610225
0.60265
0.594645
0.586058
0.576669
0.566159
0.554081
0.539822
0.522604
0.501582
0.475857
0.444599
1.02373
1.01905
1.01483
1.01089
1.00695
1.003
0.999046
0.995088
0.991124
0.987153
0.983175
0.979192
0.975203
0.971208
0.967208
0.963202
0.959191
0.955175
0.951153
0.947125
0.943091
0.939051
0.935004
0.930951
0.92689
0.922821
0.918745
0.91466
0.910566
0.906462
0.902349
0.898224
0.894089
0.889941
0.885781
0.881608
0.87742
0.873217
0.868999
0.864764
0.860511
0.85624
0.851949
0.847638
0.843305
0.83895
0.834571
0.830167
0.825737
0.82128
0.816794
0.812279
0.807732
0.803154
0.798542
0.793895
0.789212
0.78449
0.77973
0.774929
0.770085
0.765198
0.760265
0.755285
0.750256
0.745175
0.740042
0.734855
0.72961
0.724306
0.71894
0.71351
0.708014
0.702447
0.696807
0.69109
0.685292
0.679409
0.673434
0.667362
0.661185
0.654893
0.648476
0.641917
0.6352
0.628299
0.621182
0.613806
0.606112
0.598021
0.589425
0.58018
0.570087
0.55889
0.546257
0.53179
0.515057
0.495698
0.473543
0.448894
1.02384
1.01915
1.01491
1.01094
1.00698
1.00301
0.999036
0.995063
0.991087
0.987105
0.983119
0.979127
0.975129
0.971126
0.967118
0.963104
0.959085
0.95506
0.951029
0.946992
0.942949
0.938899
0.934843
0.930779
0.926708
0.922629
0.918542
0.914446
0.91034
0.906225
0.9021
0.897964
0.893816
0.889657
0.885484
0.881298
0.877097
0.872882
0.86865
0.864402
0.860136
0.855851
0.851547
0.847222
0.842875
0.838505
0.834112
0.829693
0.825249
0.820776
0.816275
0.811745
0.807182
0.802587
0.797959
0.793294
0.788593
0.783853
0.779073
0.774252
0.769387
0.764478
0.759521
0.754516
0.74946
0.744352
0.739188
0.733968
0.728688
0.723345
0.717938
0.712463
0.706916
0.701294
0.695593
0.689809
0.683935
0.677967
0.671898
0.665719
0.65942
0.652991
0.646416
0.639678
0.632756
0.62562
0.618236
0.610556
0.602522
0.594057
0.58506
0.575408
0.564942
0.553471
0.540776
0.526627
0.51083
0.493309
0.474221
0.454152
1.0239
1.01921
1.01496
1.01098
1.007
1.00301
0.999028
0.995043
0.991056
0.987065
0.983069
0.979068
0.975063
0.971052
0.967036
0.963014
0.958987
0.954953
0.950914
0.946868
0.942816
0.938757
0.934692
0.930618
0.926538
0.922449
0.918351
0.914245
0.910129
0.906003
0.901867
0.897719
0.89356
0.889389
0.885205
0.881007
0.876794
0.872567
0.868323
0.864063
0.859784
0.855487
0.85117
0.846832
0.842472
0.83809
0.833683
0.829251
0.824793
0.820307
0.815792
0.811247
0.80667
0.80206
0.797416
0.792736
0.788018
0.783262
0.778464
0.773625
0.768741
0.763811
0.758833
0.753805
0.748726
0.743591
0.7384
0.73315
0.727838
0.722461
0.717016
0.7115
0.705908
0.700237
0.694481
0.688636
0.682696
0.676653
0.6705
0.664227
0.657824
0.651277
0.64457
0.637684
0.630596
0.623276
0.615688
0.607787
0.599518
0.590812
0.581586
0.57174
0.561158
0.549711
0.537272
0.523732
0.509043
0.49328
0.476715
0.45992
1.02393
1.01924
1.015
1.01101
1.00702
1.00302
0.999023
0.995027
0.99103
0.98703
0.983026
0.979018
0.975005
0.970986
0.966962
0.962933
0.958897
0.954856
0.950809
0.946755
0.942694
0.938627
0.934552
0.93047
0.926379
0.922281
0.918174
0.914057
0.909932
0.905796
0.901649
0.897491
0.893322
0.88914
0.884945
0.880736
0.876512
0.872273
0.868018
0.863747
0.859457
0.855148
0.850819
0.84647
0.842098
0.837704
0.833285
0.828841
0.824371
0.819872
0.815345
0.810787
0.806197
0.801574
0.796916
0.792222
0.78749
0.782718
0.777905
0.77305
0.768149
0.763201
0.758204
0.753156
0.748055
0.742898
0.737683
0.732407
0.727067
0.72166
0.716182
0.710629
0.704998
0.699284
0.693481
0.687584
0.681587
0.675481
0.669258
0.662908
0.656419
0.649777
0.642966
0.635966
0.628754
0.621301
0.613573
0.605531
0.597124
0.588298
0.578985
0.569114
0.558605
0.547384
0.535389
0.522592
0.509029
0.494842
0.480319
0.465938
1.02394
1.01926
1.01502
1.01103
1.00703
1.00302
0.99902
0.995016
0.991011
0.987003
0.982992
0.978976
0.974955
0.970929
0.966898
0.962861
0.958818
0.95477
0.950714
0.946652
0.942584
0.938508
0.934425
0.930334
0.926235
0.922127
0.918011
0.913886
0.90975
0.905605
0.901449
0.897281
0.893102
0.88891
0.884705
0.880486
0.876252
0.872003
0.867738
0.863455
0.859155
0.854836
0.850497
0.846137
0.841755
0.83735
0.83292
0.828466
0.823984
0.819475
0.814936
0.810367
0.805766
0.801131
0.796461
0.791755
0.78701
0.782225
0.777399
0.772529
0.767613
0.76265
0.757637
0.752572
0.747453
0.742277
0.737041
0.731743
0.726379
0.720946
0.715441
0.709858
0.704194
0.698445
0.692603
0.686664
0.68062
0.674464
0.668186
0.661776
0.655222
0.64851
0.641624
0.634545
0.627251
0.619716
0.61191
0.603798
0.595341
0.586494
0.57721
0.567441
0.557139
0.54627
0.534818
0.522806
0.510312
0.497499
0.48463
0.472086
1.02395
1.01927
1.01503
1.01104
1.00704
1.00303
0.99902
0.99501
0.990998
0.986983
0.982965
0.978942
0.974915
0.970882
0.966844
0.9628
0.95875
0.954694
0.950632
0.946562
0.942486
0.938403
0.934311
0.930212
0.926105
0.921989
0.917864
0.91373
0.909586
0.905432
0.901267
0.89709
0.892902
0.8887
0.884486
0.880258
0.876015
0.871757
0.867482
0.86319
0.858881
0.854552
0.850204
0.845834
0.841443
0.837028
0.83259
0.828125
0.823635
0.819116
0.814567
0.809988
0.805377
0.800733
0.796053
0.791336
0.78658
0.781785
0.776947
0.772065
0.767138
0.762162
0.757136
0.752057
0.746923
0.741731
0.736479
0.731163
0.72578
0.720326
0.714799
0.709193
0.703504
0.697727
0.691856
0.685885
0.679806
0.673613
0.667296
0.660844
0.654246
0.647489
0.640557
0.633434
0.626098
0.618529
0.610699
0.602583
0.594148
0.585363
0.576197
0.566622
0.556616
0.546171
0.535305
0.524067
0.512554
0.500926
0.48941
0.478304
1.02395
1.01928
1.01505
1.01106
1.00706
1.00304
0.999026
0.99501
0.990993
0.986972
0.982947
0.978918
0.974885
0.970846
0.966801
0.962751
0.958694
0.954632
0.950562
0.946486
0.942402
0.938311
0.934213
0.930106
0.925991
0.921867
0.917735
0.913593
0.90944
0.905278
0.901104
0.89692
0.892723
0.888513
0.884291
0.880054
0.875803
0.871536
0.867253
0.862953
0.858635
0.854298
0.849941
0.845564
0.841164
0.836741
0.832295
0.827822
0.823323
0.818796
0.81424
0.809653
0.805034
0.800381
0.795692
0.790967
0.786203
0.781399
0.776552
0.771661
0.766724
0.761738
0.756702
0.751612
0.746467
0.741264
0.735999
0.73067
0.725273
0.719805
0.714262
0.708639
0.702932
0.697136
0.691245
0.685253
0.679153
0.672937
0.666597
0.660122
0.653502
0.646724
0.639775
0.632639
0.6253
0.617739
0.609935
0.601867
0.593514
0.584856
0.575873
0.566555
0.556899
0.546916
0.536642
0.526141
0.515513
0.504904
0.494507
0.484554
1.02396
1.0193
1.01506
1.01107
1.00707
1.00306
0.999037
0.995018
0.990995
0.98697
0.98294
0.978905
0.974866
0.970821
0.966771
0.962714
0.958651
0.954582
0.950506
0.946423
0.942333
0.938235
0.93413
0.930016
0.925894
0.921763
0.917623
0.913474
0.909314
0.905144
0.900963
0.896771
0.892567
0.88835
0.884119
0.879875
0.875616
0.871342
0.867052
0.862745
0.858419
0.854075
0.849711
0.845327
0.84092
0.83649
0.832037
0.827558
0.823052
0.818518
0.813955
0.809362
0.804736
0.800077
0.795382
0.79065
0.78588
0.781069
0.776216
0.771319
0.766375
0.761382
0.756339
0.751242
0.746089
0.740878
0.735605
0.730268
0.724863
0.719386
0.713833
0.708201
0.702484
0.696678
0.690777
0.684776
0.678666
0.672442
0.666094
0.659614
0.652992
0.646218
0.639278
0.63216
0.624851
0.617335
0.609598
0.601625
0.593401
0.584917
0.576164
0.567144
0.557867
0.548358
0.538662
0.528846
0.519011
0.509283
0.499823
0.490813
1.02397
1.01932
1.01508
1.0111
1.0071
1.00308
0.999057
0.995034
0.991008
0.986978
0.982943
0.978904
0.974859
0.970809
0.966753
0.962691
0.958622
0.954547
0.950465
0.946376
0.94228
0.938176
0.934064
0.929944
0.925815
0.921678
0.917531
0.913375
0.909209
0.905032
0.900844
0.896645
0.892434
0.88821
0.883973
0.879723
0.875457
0.871177
0.86688
0.862566
0.858235
0.853884
0.849514
0.845124
0.840712
0.836276
0.831817
0.827333
0.822822
0.818283
0.813715
0.809117
0.804487
0.799823
0.795124
0.790388
0.785613
0.780798
0.775941
0.77104
0.766092
0.761096
0.756049
0.750948
0.745792
0.740577
0.735301
0.729961
0.724552
0.719072
0.713517
0.707883
0.702164
0.696357
0.690456
0.684456
0.67835
0.672131
0.665791
0.659324
0.65272
0.64597
0.639063
0.631991
0.624741
0.617303
0.609666
0.601823
0.593765
0.585489
0.576998
0.5683
0.559415
0.550375
0.541229
0.532046
0.522917
0.513953
0.505287
0.497063
1.024
1.01934
1.01511
1.01113
1.00713
1.00311
0.999086
0.995061
0.991031
0.986997
0.982958
0.978914
0.974865
0.97081
0.966749
0.962682
0.958608
0.954528
0.95044
0.946346
0.942244
0.938134
0.934016
0.92989
0.925756
0.921612
0.91746
0.913297
0.909125
0.904942
0.900748
0.896543
0.892326
0.888097
0.883854
0.879597
0.875326
0.87104
0.866738
0.862419
0.858082
0.853727
0.849352
0.844957
0.84054
0.836101
0.831637
0.827149
0.822634
0.818092
0.813521
0.80892
0.804287
0.79962
0.794919
0.79018
0.785404
0.780587
0.775729
0.770826
0.765878
0.760881
0.755833
0.750733
0.745577
0.740363
0.735089
0.72975
0.724344
0.718867
0.713316
0.707686
0.701974
0.696175
0.690284
0.684296
0.678205
0.672005
0.665689
0.65925
0.652682
0.645976
0.639125
0.63212
0.624954
0.617621
0.610113
0.602427
0.594561
0.586518
0.578307
0.569942
0.561448
0.552863
0.544235
0.535631
0.527132
0.518835
0.510849
0.50329
1.02403
1.01938
1.01515
1.01117
1.00717
1.00315
0.999127
0.995099
0.991066
0.987029
0.982987
0.978939
0.974885
0.970826
0.96676
0.962689
0.95861
0.954525
0.950432
0.946333
0.942225
0.93811
0.933987
0.929856
0.925716
0.921567
0.917409
0.913242
0.909064
0.904876
0.900677
0.896467
0.892244
0.88801
0.883762
0.879501
0.875225
0.870934
0.866628
0.862304
0.857964
0.853604
0.849226
0.844827
0.840407
0.835965
0.831499
0.827008
0.822491
0.817947
0.813374
0.808771
0.804137
0.79947
0.794768
0.79003
0.785254
0.780438
0.775581
0.77068
0.765733
0.760739
0.755695
0.750598
0.745447
0.740238
0.734969
0.729637
0.724239
0.718772
0.713231
0.707614
0.701916
0.696134
0.690262
0.684296
0.678232
0.672063
0.665784
0.659389
0.652872
0.646229
0.639451
0.632535
0.625474
0.618266
0.610908
0.6034
0.595745
0.58795
0.580028
0.571998
0.563889
0.555738
0.547594
0.539518
0.531582
0.523869
0.516471
0.509482
1.02408
1.01943
1.0152
1.01123
1.00723
1.00321
0.999179
0.99515
0.991115
0.987074
0.983029
0.978977
0.97492
0.970857
0.966787
0.962711
0.958628
0.954539
0.950442
0.946338
0.942226
0.938106
0.933978
0.929842
0.925698
0.921544
0.917381
0.913209
0.909027
0.904834
0.900631
0.896416
0.892189
0.88795
0.883699
0.879433
0.875154
0.870859
0.866549
0.862223
0.857879
0.853517
0.849136
0.844735
0.840313
0.835869
0.831401
0.82691
0.822392
0.817848
0.813275
0.808672
0.804039
0.799373
0.794673
0.789937
0.785164
0.780351
0.775497
0.770601
0.765659
0.760671
0.755633
0.750544
0.745401
0.740202
0.734944
0.729624
0.724239
0.718787
0.713264
0.707666
0.70199
0.696232
0.690389
0.684456
0.678428
0.672302
0.666072
0.659735
0.653285
0.646718
0.64003
0.633219
0.626281
0.619215
0.612022
0.604706
0.597273
0.589734
0.582104
0.574406
0.566668
0.558928
0.551233
0.543637
0.536206
0.529009
0.522124
0.515628
1.02414
1.0195
1.01527
1.01129
1.0073
1.00327
0.999246
0.995214
0.991177
0.987134
0.983086
0.979032
0.974971
0.970904
0.966831
0.962751
0.958664
0.954571
0.95047
0.946361
0.942246
0.938122
0.93399
0.92985
0.925701
0.921543
0.917377
0.9132
0.909014
0.904818
0.90061
0.896392
0.892162
0.88792
0.883665
0.879396
0.875114
0.870817
0.866504
0.862176
0.85783
0.853467
0.849084
0.844682
0.840259
0.835815
0.831347
0.826856
0.822339
0.817796
0.813224
0.808624
0.803993
0.799331
0.794634
0.789903
0.785134
0.780327
0.77548
0.770591
0.765658
0.760678
0.755651
0.750573
0.745442
0.740257
0.735014
0.729711
0.724345
0.718913
0.713413
0.707841
0.702195
0.69647
0.690663
0.684771
0.678791
0.672718
0.666549
0.66028
0.653909
0.647432
0.640848
0.634154
0.627352
0.620441
0.613425
0.606311
0.599107
0.591826
0.584486
0.57711
0.569728
0.562375
0.555094
0.547936
0.540957
0.534219
0.527784
0.521719
1.02422
1.01958
1.01535
1.01138
1.00738
1.00335
0.999327
0.995294
0.991255
0.98721
0.983159
0.979102
0.975038
0.970968
0.966892
0.962809
0.958719
0.954621
0.950517
0.946405
0.942286
0.938158
0.934023
0.929879
0.925727
0.921566
0.917396
0.913216
0.909027
0.904827
0.900617
0.896396
0.892163
0.887918
0.883661
0.87939
0.875106
0.870807
0.866493
0.862164
0.857817
0.853453
0.84907
0.844668
0.840246
0.835802
0.831336
0.826847
0.822332
0.817792
0.813224
0.808627
0.804001
0.799343
0.794653
0.789928
0.785167
0.780368
0.77553
0.77065
0.765728
0.760761
0.755747
0.750683
0.745569
0.740401
0.735178
0.729897
0.724555
0.71915
0.713679
0.708139
0.702528
0.696844
0.691082
0.685239
0.679315
0.673304
0.667205
0.661016
0.654734
0.648358
0.641888
0.635323
0.628666
0.621919
0.615088
0.60818
0.601207
0.594184
0.587128
0.580063
0.573017
0.566026
0.559129
0.55237
0.545799
0.539468
0.533433
0.527747
1.02432
1.01967
1.01545
1.01147
1.00748
1.00345
0.999423
0.995389
0.991348
0.987302
0.983248
0.979189
0.975123
0.97105
0.966971
0.962885
0.958792
0.954692
0.950584
0.946469
0.942347
0.938216
0.934078
0.929931
0.925776
0.921612
0.91744
0.913257
0.909065
0.904863
0.900651
0.896428
0.892193
0.887947
0.883688
0.879416
0.875131
0.870831
0.866517
0.862187
0.857841
0.853477
0.849095
0.844695
0.840274
0.835833
0.831369
0.826883
0.822372
0.817836
0.813273
0.808682
0.804062
0.799411
0.794729
0.790012
0.785261
0.780473
0.775646
0.770779
0.765871
0.760919
0.755921
0.750876
0.745782
0.740636
0.735437
0.730181
0.724868
0.719495
0.714058
0.708557
0.702988
0.69735
0.69164
0.685855
0.679994
0.674054
0.668034
0.661932
0.655748
0.649482
0.643134
0.636706
0.630201
0.623624
0.616981
0.610283
0.60354
0.596769
0.589988
0.583221
0.576495
0.569841
0.563297
0.556902
0.550699
0.544735
0.539055
0.533704
1.02444
1.01979
1.01556
1.01159
1.00759
1.00357
0.999536
0.995501
0.991459
0.98741
0.983355
0.979293
0.975225
0.97115
0.967068
0.96298
0.958884
0.954782
0.950672
0.946554
0.942429
0.938296
0.934156
0.930007
0.925849
0.921683
0.917508
0.913324
0.90913
0.904927
0.900713
0.896488
0.892253
0.888005
0.883746
0.879474
0.875188
0.870889
0.866575
0.862246
0.857901
0.853539
0.84916
0.844762
0.840344
0.835906
0.831447
0.826965
0.822459
0.817929
0.813373
0.808789
0.804177
0.799535
0.794862
0.790157
0.785417
0.780642
0.775829
0.770978
0.766086
0.761152
0.756174
0.751151
0.74608
0.74096
0.735788
0.730563
0.725283
0.719946
0.71455
0.709092
0.703571
0.697985
0.692333
0.686612
0.680821
0.674959
0.669024
0.663018
0.656939
0.650789
0.64457
0.638284
0.631936
0.625532
0.619079
0.612589
0.606074
0.599549
0.593033
0.586549
0.580123
0.573784
0.567565
0.561502
0.555633
0.549998
0.544635
0.539584
1.02457
1.01992
1.01569
1.01172
1.00772
1.0037
0.999667
0.99563
0.991587
0.987536
0.983479
0.979416
0.975346
0.971269
0.967185
0.963094
0.958997
0.954892
0.95078
0.94666
0.942533
0.938399
0.934256
0.930105
0.925946
0.921779
0.917602
0.913417
0.909222
0.905018
0.900803
0.896578
0.892342
0.888095
0.883836
0.879564
0.875279
0.870981
0.866669
0.862342
0.857999
0.85364
0.849264
0.844869
0.840456
0.836023
0.831569
0.827093
0.822594
0.818071
0.813523
0.808948
0.804346
0.799715
0.795053
0.790361
0.785635
0.780874
0.776078
0.771245
0.766372
0.761459
0.756505
0.751506
0.746462
0.74137
0.736231
0.73104
0.725798
0.720501
0.715149
0.70974
0.704272
0.698744
0.693155
0.687504
0.681789
0.67601
0.670168
0.664262
0.658293
0.652265
0.646178
0.640038
0.63385
0.62762
0.621357
0.615072
0.608778
0.602491
0.59623
0.590014
0.58387
0.577824
0.571905
0.566146
0.56058
0.555241
0.550164
0.545381
1.02473
1.02008
1.01585
1.01187
1.00787
1.00385
0.999815
0.995777
0.991732
0.987681
0.983622
0.979557
0.975485
0.971407
0.967321
0.963229
0.959129
0.955023
0.950909
0.946788
0.94266
0.938524
0.93438
0.930228
0.926068
0.921899
0.917722
0.913536
0.909341
0.905136
0.900922
0.896697
0.892462
0.888215
0.883957
0.879687
0.875404
0.871108
0.866798
0.862474
0.858135
0.853779
0.849407
0.845018
0.84061
0.836182
0.831735
0.827266
0.822776
0.818261
0.813723
0.809159
0.804568
0.79995
0.795302
0.790624
0.785914
0.781171
0.776393
0.77158
0.766729
0.76184
0.756911
0.75194
0.746926
0.741867
0.736762
0.73161
0.726408
0.721157
0.715853
0.710497
0.705087
0.699621
0.6941
0.688523
0.682889
0.677199
0.671452
0.665651
0.659798
0.653894
0.647944
0.641951
0.635923
0.629867
0.623791
0.617707
0.611628
0.60557
0.59955
0.593589
0.587709
0.581934
0.576292
0.570811
0.565521
0.560451
0.555631
0.551089
1.0249
1.02025
1.01602
1.01204
1.00804
1.00401
0.999981
0.995942
0.991896
0.987843
0.983784
0.979717
0.975644
0.971564
0.967477
0.963383
0.959283
0.955175
0.95106
0.946938
0.942808
0.938671
0.934527
0.930374
0.926214
0.922045
0.917868
0.913682
0.909487
0.905283
0.901069
0.896845
0.892611
0.888366
0.88411
0.879842
0.875562
0.871269
0.866963
0.862642
0.858307
0.853957
0.84959
0.845207
0.840805
0.836385
0.831946
0.827486
0.823004
0.8185
0.813973
0.809421
0.804843
0.800239
0.795607
0.790945
0.786253
0.781529
0.776773
0.771982
0.767156
0.762293
0.757391
0.752451
0.74747
0.742446
0.73738
0.732269
0.727112
0.721909
0.716658
0.711358
0.706009
0.70061
0.695161
0.689662
0.684113
0.678515
0.672868
0.667176
0.661439
0.655662
0.649849
0.644005
0.638136
0.632251
0.626359
0.620471
0.6146
0.608761
0.602971
0.597249
0.591615
0.586093
0.580706
0.575481
0.570442
0.565616
0.561028
0.556703
1.02509
1.02044
1.0162
1.01223
1.00823
1.0042
1.00017
0.996126
0.992079
0.988025
0.983964
0.979896
0.975822
0.971741
0.967653
0.963558
0.959456
0.955348
0.951232
0.94711
0.94298
0.938842
0.934697
0.930545
0.926384
0.922216
0.918039
0.913854
0.90966
0.905457
0.901245
0.897023
0.892791
0.888548
0.884295
0.88003
0.875753
0.871464
0.867162
0.862847
0.858517
0.854173
0.849812
0.845436
0.841042
0.836631
0.8322
0.82775
0.823279
0.818787
0.814272
0.809734
0.805171
0.800582
0.795967
0.791324
0.786652
0.781949
0.777216
0.772449
0.76765
0.762815
0.757945
0.753037
0.748091
0.743106
0.738081
0.733014
0.727905
0.722754
0.717558
0.712318
0.707034
0.701705
0.696331
0.690913
0.685452
0.679949
0.674404
0.668822
0.663205
0.657556
0.65188
0.646183
0.640472
0.634755
0.629042
0.623343
0.617671
0.612041
0.606469
0.600972
0.595569
0.590281
0.58513
0.580138
0.575329
0.570725
0.566348
0.562219
1.02531
1.02065
1.01641
1.01244
1.00843
1.00441
1.00037
0.996328
0.99228
0.988225
0.984163
0.980094
0.976019
0.971937
0.967848
0.963753
0.959651
0.955542
0.951426
0.947303
0.943173
0.939036
0.934891
0.930739
0.92658
0.922412
0.918237
0.914053
0.90986
0.905659
0.901449
0.89723
0.893
0.888761
0.884511
0.88025
0.875978
0.871694
0.867397
0.863087
0.858764
0.854426
0.850073
0.845705
0.84132
0.836918
0.832498
0.828059
0.8236
0.819121
0.81462
0.810097
0.80555
0.800979
0.796382
0.791759
0.787108
0.782429
0.77772
0.77298
0.768209
0.763405
0.758568
0.753696
0.748788
0.743843
0.738862
0.733842
0.728784
0.723686
0.718549
0.713372
0.708155
0.702898
0.697603
0.692269
0.686897
0.681491
0.67605
0.670579
0.665081
0.65956
0.654021
0.64847
0.642914
0.637361
0.631821
0.626304
0.620824
0.615392
0.610025
0.604739
0.599552
0.594481
0.589548
0.584771
0.580172
0.57577
0.571585
0.567634
1.02554
1.02088
1.01664
1.01266
1.00866
1.00463
1.00059
0.99655
0.9925
0.988444
0.984381
0.980312
0.976236
0.972153
0.968064
0.963968
0.959866
0.955757
0.951641
0.947518
0.943389
0.939252
0.935109
0.930957
0.926799
0.922633
0.918459
0.914277
0.910087
0.905889
0.901682
0.897465
0.893239
0.889004
0.884758
0.880502
0.876235
0.871957
0.867666
0.863363
0.859047
0.854717
0.850372
0.846013
0.841638
0.837247
0.832838
0.828411
0.823966
0.819501
0.815015
0.810508
0.805979
0.801427
0.79685
0.792249
0.787621
0.782967
0.778284
0.773573
0.768833
0.764061
0.759259
0.754424
0.749556
0.744655
0.739719
0.734749
0.729743
0.724702
0.719625
0.714513
0.709366
0.704184
0.698968
0.693719
0.68844
0.683131
0.677795
0.672436
0.667057
0.661663
0.656259
0.65085
0.645445
0.640052
0.634679
0.629337
0.624039
0.618796
0.613623
0.608535
0.603548
0.59868
0.593947
0.589368
0.584961
0.580744
0.576733
0.572944
1.02579
1.02113
1.01689
1.01291
1.0089
1.00487
1.00083
0.996789
0.992739
0.988682
0.984618
0.980548
0.976472
0.972389
0.968299
0.964204
0.960101
0.955993
0.951877
0.947755
0.943627
0.939491
0.935349
0.931199
0.927042
0.922878
0.918707
0.914528
0.910341
0.906145
0.901941
0.897729
0.893508
0.889277
0.885036
0.880786
0.876524
0.872252
0.867969
0.863673
0.859365
0.855044
0.850709
0.84636
0.841996
0.837616
0.83322
0.828807
0.824376
0.819926
0.815457
0.810968
0.806457
0.801925
0.79737
0.792792
0.788189
0.783561
0.778907
0.774226
0.769517
0.76478
0.760014
0.755219
0.750393
0.745536
0.740649
0.735729
0.730778
0.725796
0.720782
0.715736
0.71066
0.705554
0.700419
0.695257
0.69007
0.68486
0.679629
0.674381
0.66912
0.663851
0.658579
0.653311
0.648053
0.642813
0.637601
0.632427
0.627302
0.622237
0.617247
0.612344
0.607545
0.602864
0.598316
0.59392
0.589689
0.58564
0.581788
0.578146
1.02607
1.0214
1.01715
1.01317
1.00917
1.00513
1.00109
0.997048
0.992996
0.988938
0.984874
0.980804
0.976727
0.972644
0.968554
0.964459
0.960357
0.956249
0.952134
0.948013
0.943886
0.939752
0.935611
0.931464
0.927309
0.923148
0.918979
0.914803
0.91062
0.906428
0.902228
0.89802
0.893804
0.889578
0.885344
0.881099
0.876845
0.87258
0.868304
0.864017
0.859718
0.855406
0.851082
0.846744
0.842392
0.838024
0.833642
0.829243
0.824828
0.820395
0.815943
0.811473
0.806982
0.802472
0.79794
0.793386
0.788809
0.784209
0.779584
0.774935
0.77026
0.765559
0.760832
0.756077
0.751295
0.746484
0.741646
0.73678
0.731885
0.726962
0.722012
0.717035
0.712031
0.707002
0.701949
0.696875
0.69178
0.686668
0.681541
0.676404
0.671259
0.666113
0.660971
0.655838
0.650722
0.645631
0.640573
0.635559
0.630598
0.625702
0.620883
0.616155
0.611529
0.607022
0.602646
0.598417
0.594348
0.590453
0.586746
0.583238
1.02636
1.02169
1.01744
1.01346
1.00945
1.00541
1.00137
0.997324
0.993272
0.989213
0.985148
0.981077
0.977001
0.972918
0.968829
0.964734
0.960632
0.956525
0.952412
0.948292
0.944167
0.940035
0.935896
0.931751
0.927599
0.923441
0.919276
0.915103
0.910924
0.906737
0.902542
0.898339
0.894128
0.889909
0.88568
0.881443
0.877196
0.872939
0.868672
0.864394
0.860104
0.855803
0.85149
0.847164
0.842825
0.838471
0.834103
0.82972
0.825321
0.820905
0.816473
0.812022
0.807553
0.803065
0.798557
0.794029
0.78948
0.784908
0.780315
0.775699
0.771059
0.766395
0.761707
0.756995
0.752258
0.747495
0.742708
0.737895
0.733058
0.728197
0.723311
0.718403
0.713472
0.708521
0.703551
0.698563
0.693561
0.688546
0.683522
0.678494
0.673464
0.668438
0.663421
0.65842
0.653442
0.648493
0.643583
0.63872
0.633915
0.629178
0.62452
0.619954
0.615491
0.611145
0.606928
0.602852
0.598932
0.595179
0.591604
0.588218
1.02667
1.022
1.01774
1.01376
1.00975
1.00571
1.00167
0.997619
0.993565
0.989506
0.985441
0.98137
0.977293
0.97321
0.969121
0.965027
0.960927
0.956821
0.952709
0.948592
0.944468
0.940338
0.936202
0.93206
0.927912
0.923757
0.919595
0.915427
0.911252
0.90707
0.902881
0.898684
0.894479
0.890266
0.886045
0.881815
0.877576
0.873328
0.86907
0.864802
0.860523
0.856234
0.851932
0.847619
0.843293
0.838954
0.834602
0.830235
0.825853
0.821457
0.817044
0.812614
0.808168
0.803703
0.799221
0.794719
0.790198
0.785657
0.781096
0.776514
0.77191
0.767285
0.762638
0.757969
0.753278
0.748564
0.743829
0.739071
0.734293
0.729493
0.724673
0.719834
0.714977
0.710103
0.705215
0.700315
0.695404
0.690486
0.685564
0.680641
0.675723
0.670815
0.66592
0.661046
0.656199
0.651387
0.646618
0.6419
0.637242
0.632654
0.628148
0.623733
0.619422
0.615225
0.611154
0.607221
0.603437
0.599813
0.596359
0.593085
1.027
1.02232
1.01806
1.01407
1.01006
1.00602
1.00198
0.99793
0.993876
0.989816
0.98575
0.981679
0.977603
0.97352
0.969433
0.965339
0.96124
0.957136
0.953026
0.94891
0.944789
0.940662
0.936529
0.93239
0.928245
0.924095
0.919938
0.915774
0.911604
0.907427
0.903244
0.899053
0.894855
0.89065
0.886436
0.882215
0.877985
0.873746
0.869498
0.865241
0.860974
0.856696
0.852407
0.848108
0.843796
0.839473
0.835137
0.830787
0.826424
0.822046
0.817654
0.813247
0.808824
0.804384
0.799927
0.795454
0.790962
0.786453
0.781925
0.777377
0.772811
0.768226
0.763621
0.758996
0.754352
0.749688
0.745005
0.740303
0.735583
0.730846
0.726092
0.721322
0.716539
0.711743
0.706936
0.702122
0.697301
0.692478
0.687656
0.682838
0.678029
0.673233
0.668457
0.663705
0.658985
0.654304
0.649668
0.645086
0.640568
0.636121
0.631756
0.627483
0.623312
0.619254
0.615318
0.611516
0.607857
0.604352
0.601009
0.597836
1.02735
1.02266
1.0184
1.01441
1.0104
1.00635
1.00231
0.998259
0.994204
0.990143
0.986077
0.982006
0.97793
0.973848
0.969761
0.965669
0.961572
0.957469
0.953361
0.949248
0.945129
0.941005
0.936876
0.932741
0.9286
0.924454
0.920301
0.916143
0.911979
0.907808
0.903631
0.899447
0.895256
0.891059
0.886854
0.882641
0.878421
0.874192
0.869955
0.865709
0.861453
0.857188
0.852914
0.848628
0.844332
0.840025
0.835705
0.831374
0.82703
0.822673
0.818302
0.813918
0.809519
0.805105
0.800675
0.79623
0.791769
0.787292
0.782798
0.778287
0.773758
0.769213
0.764651
0.760071
0.755474
0.750861
0.746231
0.741586
0.736925
0.73225
0.727562
0.722862
0.718152
0.713433
0.708707
0.703977
0.699245
0.694515
0.68979
0.685074
0.680371
0.675685
0.671022
0.666388
0.661789
0.657232
0.652723
0.648271
0.643884
0.63957
0.635337
0.631197
0.627156
0.623226
0.619416
0.615734
0.612191