/*--------------------------------*- C++ -*----------------------------------*\
| =========                 |                                                 |
| \\      /  F ield         | OpenFOAM: The Open Source CFD Toolbox           |
|  \\    /   O peration     | Version:  2406                                  |
|   \\  /    A nd           | Website:  www.openfoam.com                      |
|    \\/     M anipulation  |                                                 |
\*---------------------------------------------------------------------------*/
FoamFile
{
    version     2.0;
    format      ascii;
    arch        "LSB;label=32;scalar=64";
    class       volVectorField;
    location    "49";
    object      U;
}
// * * * * * * * * * * * * * * * * * * * * * * * * * * * * * * * * * * * * * //

dimensions      [0 1 -1 0 0 0 0];

internalField   nonuniform List<vector> 
1964
(
(0.0996231 -0.00151036 0)
(0.101614 -0.00194311 0)
(0.103822 -0.00137915 0)
(0.105964 -0.000874204 0)
(0.107606 -0.000573057 0)
(0.108822 -0.000386952 0)
(0.109765 -0.00026572 0)
(0.110515 -0.000189869 0)
(0.111117 -0.000143833 0)
(0.111611 -0.000114004 0)
(0.112024 -9.2175e-05 0)
(0.112377 -7.59189e-05 0)
(0.112682 -6.53334e-05 0)
(0.11295 -6.00646e-05 0)
(0.11319 -5.7979e-05 0)
(0.113409 -5.67269e-05 0)
(0.113615 -5.47868e-05 0)
(0.113811 -5.25287e-05 0)
(0.114002 -5.12425e-05 0)
(0.114194 -5.27781e-05 0)
(0.114393 -5.8328e-05 0)
(0.114607 -6.87659e-05 0)
(0.114845 -8.42533e-05 0)
(0.11512 -0.00010534 0)
(0.115446 -0.000132705 0)
(0.115843 -0.000168311 0)
(0.116338 -0.000214843 0)
(0.116966 -0.000276784 0)
(0.11777 -0.000359777 0)
(0.118813 -0.000471817 0)
(0.120176 -0.000623006 0)
(0.121967 -0.000827136 0)
(0.124332 -0.00110225 0)
(0.127465 -0.0014727 0)
(0.131628 -0.00197067 0)
(0.137166 -0.00263844 0)
(0.144536 -0.00353018 0)
(0.154332 -0.00471234 0)
(0.167314 -0.00626166 0)
(0.184423 -0.00825716 0)
(0.206774 -0.0107626 0)
(0.235595 -0.0137937 0)
(0.27211 -0.0172721 0)
(0.31723 -0.0209218 0)
(0.371275 -0.024258 0)
(0.433245 -0.0263297 0)
(0.500397 -0.0261732 0)
(0.276663 -0.00166469 0)
(0.275939 -0.00305051 0)
(0.275865 -0.00303689 0)
(0.276285 -0.00262698 0)
(0.276988 -0.00219556 0)
(0.277796 -0.00180057 0)
(0.278609 -0.00146075 0)
(0.27938 -0.00118759 0)
(0.280091 -0.000976939 0)
(0.280737 -0.000816657 0)
(0.281322 -0.00069355 0)
(0.281852 -0.000597281 0)
(0.282332 -0.000521293 0)
(0.282768 -0.000462362 0)
(0.283168 -0.0004179 0)
(0.28354 -0.000385692 0)
(0.283891 -0.000363395 0)
(0.284226 -0.000350038 0)
(0.284553 -0.000345518 0)
(0.28488 -0.00035133 0)
(0.285216 -0.000369392 0)
(0.285571 -0.000402883 0)
(0.285958 -0.000455203 0)
(0.286394 -0.000531625 0)
(0.286902 -0.000638399 0)
(0.287509 -0.000785054 0)
(0.288252 -0.000983582 0)
(0.289178 -0.00125127 0)
(0.290352 -0.00161032 0)
(0.291857 -0.00209144 0)
(0.293803 -0.0027345 0)
(0.296336 -0.00359344 0)
(0.299647 -0.00473864 0)
(0.303988 -0.00626363 0)
(0.309685 -0.00828916 0)
(0.317164 -0.0109708 0)
(0.32697 -0.014502 0)
(0.339793 -0.0191159 0)
(0.356493 -0.0250756 0)
(0.378112 -0.0326501 0)
(0.405871 -0.0420619 0)
(0.441128 -0.0533994 0)
(0.485323 -0.0664885 0)
(0.53965 -0.0806367 0)
(0.605075 -0.0946454 0)
(0.681061 -0.10576 0)
(0.765346 -0.111121 0)
(0.436899 -0.00088495 0)
(0.436418 -0.00191096 0)
(0.435908 -0.00222451 0)
(0.4354 -0.00223291 0)
(0.435115 -0.00214698 0)
(0.43506 -0.0020046 0)
(0.435152 -0.00182663 0)
(0.435329 -0.00164148 0)
(0.43556 -0.00146826 0)
(0.435825 -0.00131452 0)
(0.436108 -0.00118054 0)
(0.4364 -0.00106381 0)
(0.436691 -0.000962751 0)
(0.436977 -0.000877762 0)
(0.437256 -0.000809544 0)
(0.437531 -0.00075787 0)
(0.437802 -0.000721499 0)
(0.438074 -0.000699577 0)
(0.438349 -0.000692347 0)
(0.438631 -0.000702007 0)
(0.438927 -0.000732353 0)
(0.439244 -0.000789029 0)
(0.439593 -0.000879228 0)
(0.439991 -0.00101241 0)
(0.440454 -0.00120074 0)
(0.441007 -0.00146055 0)
(0.441684 -0.00181354 0)
(0.442525 -0.0022891 0)
(0.443586 -0.00292634 0)
(0.444941 -0.00377771 0)
(0.446685 -0.00491255 0)
(0.448945 -0.00642267 0)
(0.451885 -0.00842846 0)
(0.455723 -0.011087 0)
(0.460739 -0.0146011 0)
(0.467297 -0.0192288 0)
(0.475869 -0.0252916 0)
(0.487058 -0.0331771 0)
(0.501634 -0.0433303 0)
(0.52057 -0.0562233 0)
(0.545076 -0.0722767 0)
(0.576622 -0.0917494 0)
(0.616989 -0.114473 0)
(0.667906 -0.139577 0)
(0.731944 -0.165353 0)
(0.808971 -0.186988 0)
(0.899826 -0.201041 0)
(0.577057 -0.000493524 0)
(0.576854 -0.00124591 0)
(0.576541 -0.00164033 0)
(0.576028 -0.00179006 0)
(0.575571 -0.00182375 0)
(0.57526 -0.00178865 0)
(0.57505 -0.00170554 0)
(0.574904 -0.00159739 0)
(0.574806 -0.0014836 0)
(0.574752 -0.0013752 0)
(0.574736 -0.00127596 0)
(0.57475 -0.00118562 0)
(0.574785 -0.00110425 0)
(0.574835 -0.00103341 0)
(0.574897 -0.000975823 0)
(0.574972 -0.000933031 0)
(0.57506 -0.000905873 0)
(0.575161 -0.000894539 0)
(0.575276 -0.000900601 0)
(0.575406 -0.000926914 0)
(0.575554 -0.000978987 0)
(0.575724 -0.00106403 0)
(0.575923 -0.00119241 0)
(0.57616 -0.00137682 0)
(0.576447 -0.00163467 0)
(0.576801 -0.00198791 0)
(0.577244 -0.00246658 0)
(0.577804 -0.00310968 0)
(0.578517 -0.00397006 0)
(0.579434 -0.00511687 0)
(0.580619 -0.00664265 0)
(0.582158 -0.00866825 0)
(0.584164 -0.0113532 0)
(0.586786 -0.0149047 0)
(0.590219 -0.0195914 0)
(0.594724 -0.0257569 0)
(0.600649 -0.0338358 0)
(0.60846 -0.0443652 0)
(0.618793 -0.0579888 0)
(0.632529 -0.075446 0)
(0.650872 -0.0974954 0)
(0.675535 -0.124835 0)
(0.70876 -0.157614 0)
(0.753419 -0.195368 0)
(0.814089 -0.235478 0)
(0.890873 -0.270538 0)
(0.996129 -0.299175 0)
(0.697136 -0.000316605 0)
(0.697056 -0.000862235 0)
(0.696906 -0.00121671 0)
(0.696516 -0.00139412 0)
(0.696097 -0.001468 0)
(0.695762 -0.00148039 0)
(0.695494 -0.00144873 0)
(0.695261 -0.00138878 0)
(0.695056 -0.0013162 0)
(0.694879 -0.00124215 0)
(0.694732 -0.0011716 0)
(0.694612 -0.00110582 0)
(0.694511 -0.00104548 0)
(0.694424 -0.00099289 0)
(0.694348 -0.000951078 0)
(0.694284 -0.000922805 0)
(0.694234 -0.000909603 0)
(0.694198 -0.000912888 0)
(0.694174 -0.000934555 0)
(0.694164 -0.000978461 0)
(0.694166 -0.00105037 0)
(0.694182 -0.00115901 0)
(0.694214 -0.00131565 0)
(0.694267 -0.00153559 0)
(0.694345 -0.00183831 0)
(0.694455 -0.0022499 0)
(0.694606 -0.00280428 0)
(0.69481 -0.00354692 0)
(0.695082 -0.00453756 0)
(0.695443 -0.00585591 0)
(0.695919 -0.00760678 0)
(0.696547 -0.00992895 0)
(0.697374 -0.0130043 0)
(0.698468 -0.0170718 0)
(0.699918 -0.0224429 0)
(0.701853 -0.0295226 0)
(0.704457 -0.038834 0)
(0.708004 -0.0510483 0)
(0.712913 -0.0670167 0)
(0.719863 -0.0878067 0)
(0.729896 -0.114701 0)
(0.744924 -0.149235 0)
(0.767426 -0.192748 0)
(0.803169 -0.246623 0)
(0.856466 -0.309026 0)
(0.937967 -0.371379 0)
(1.06919 -0.442254 0)
(0.797183 -0.000214585 0)
(0.797161 -0.00060304 0)
(0.797103 -0.000887764 0)
(0.796806 -0.00105647 0)
(0.796439 -0.00114492 0)
(0.796121 -0.00118146 0)
(0.79585 -0.00117924 0)
(0.795599 -0.00114926 0)
(0.795363 -0.00110384 0)
(0.795145 -0.00105308 0)
(0.79495 -0.00100245 0)
(0.794778 -0.000954017 0)
(0.794622 -0.000909057 0)
(0.794476 -0.000869975 0)
(0.794337 -0.000839906 0)
(0.794205 -0.000821842 0)
(0.794083 -0.000817881 0)
(0.79397 -0.000829898 0)
(0.793864 -0.000860227 0)
(0.793764 -0.00091284 0)
(0.793666 -0.000993671 0)
(0.793569 -0.00111141 0)
(0.793471 -0.0012776 0)
(0.79337 -0.00150769 0)
(0.793264 -0.00182171 0)
(0.793149 -0.00224622 0)
(0.793021 -0.002816 0)
(0.792875 -0.00357733 0)
(0.792703 -0.00459127 0)
(0.792494 -0.00593896 0)
(0.792236 -0.00772751 0)
(0.791911 -0.0100988 0)
(0.7915 -0.0132399 0)
(0.790976 -0.017398 0)
(0.790313 -0.022899 0)
(0.789485 -0.0301736 0)
(0.788476 -0.0397913 0)
(0.787303 -0.0525078 0)
(0.786051 -0.0693313 0)
(0.784983 -0.091617 0)
(0.784606 -0.121202 0)
(0.786405 -0.160621 0)
(0.792076 -0.213326 0)
(0.810363 -0.284156 0)
(0.840613 -0.378987 0)
(0.933209 -0.496524 0)
(1.05609 -0.685754 0)
(0.877212 -0.000146332 0)
(0.877218 -0.000418126 0)
(0.877211 -0.000632814 0)
(0.876975 -0.000774455 0)
(0.87665 -0.000858164 0)
(0.876354 -0.000900663 0)
(0.876089 -0.000911238 0)
(0.875835 -0.000897926 0)
(0.875587 -0.00087023 0)
(0.87535 -0.000836406 0)
(0.875132 -0.000801374 0)
(0.874935 -0.000767151 0)
(0.874751 -0.000735122 0)
(0.874575 -0.000707302 0)
(0.874403 -0.00068655 0)
(0.874236 -0.000675562 0)
(0.874074 -0.000676646 0)
(0.873918 -0.000691723 0)
(0.873764 -0.000723321 0)
(0.873608 -0.000775041 0)
(0.873445 -0.000852491 0)
(0.87327 -0.000963372 0)
(0.873076 -0.00111837 0)
(0.872856 -0.00133134 0)
(0.872602 -0.00162079 0)
(0.872299 -0.00201076 0)
(0.871931 -0.00253327 0)
(0.871477 -0.00323037 0)
(0.870905 -0.00415811 0)
(0.870176 -0.00539045 0)
(0.869239 -0.00702579 0)
(0.868027 -0.00919426 0)
(0.866449 -0.0120688 0)
(0.864392 -0.0158791 0)
(0.861707 -0.0209313 0)
(0.858208 -0.0276354 0)
(0.853659 -0.0365443 0)
(0.847776 -0.0484102 0)
(0.840219 -0.0642709 0)
(0.830637 -0.0855803 0)
(0.818626 -0.114439 0)
(0.804185 -0.15391 0)
(0.786707 -0.20892 0)
(0.771237 -0.286782 0)
(0.750236 -0.402557 0)
(0.801426 -0.573215 0)
(0.76498 -0.893611 0)
(0.937231 -9.57006e-05 0)
(0.93725 -0.000276032 0)
(0.93727 -0.000424726 0)
(0.937074 -0.000529167 0)
(0.93678 -0.000595279 0)
(0.936501 -0.000632251 0)
(0.936244 -0.000645866 0)
(0.935991 -0.000641638 0)
(0.935737 -0.000626254 0)
(0.935488 -0.000605658 0)
(0.935256 -0.000583448 0)
(0.935042 -0.000561251 0)
(0.934841 -0.000540157 0)
(0.934647 -0.000521785 0)
(0.934454 -0.000508331 0)
(0.934264 -0.000502058 0)
(0.934078 -0.000504926 0)
(0.933893 -0.000518733 0)
(0.933706 -0.000545601 0)
(0.933512 -0.000588559 0)
(0.933303 -0.000652025 0)
(0.933071 -0.00074221 0)
(0.932807 -0.000867519 0)
(0.932497 -0.00103911 0)
(0.932127 -0.00127164 0)
(0.931676 -0.00158444 0)
(0.931116 -0.00200302 0)
(0.930411 -0.00256115 0)
(0.929511 -0.00330359 0)
(0.928352 -0.00428973 0)
(0.92685 -0.00559845 0)
(0.924892 -0.00733461 0)
(0.92233 -0.00963789 0)
(0.91897 -0.012695 0)
(0.914556 -0.0167567 0)
(0.908752 -0.0221623 0)
(0.901115 -0.0293748 0)
(0.891067 -0.0390339 0)
(0.877841 -0.0520379 0)
(0.860438 -0.0696651 0)
(0.837486 -0.0937916 0)
(0.807227 -0.127159 0)
(0.766644 -0.174171 0)
(0.71273 -0.24108 0)
(0.632191 -0.341388 0)
(0.532532 -0.498411 0)
(0.202447 -0.707074 0)
(0.977242 -5.44002e-05 0)
(0.977268 -0.000157649 0)
(0.977302 -0.000244842 0)
(0.977129 -0.000308238 0)
(0.976854 -0.000349993 0)
(0.976587 -0.000374745 0)
(0.976337 -0.000385436 0)
(0.976085 -0.000385169 0)
(0.975828 -0.000377853 0)
(0.975573 -0.000366974 0)
(0.975332 -0.000354688 0)
(0.975108 -0.000342074 0)
(0.974897 -0.000329918 0)
(0.97469 -0.000319308 0)
(0.974485 -0.000311665 0)
(0.97428 -0.000308472 0)
(0.974077 -0.000311047 0)
(0.973874 -0.000320622 0)
(0.973665 -0.000338613 0)
(0.973445 -0.000366996 0)
(0.973205 -0.000408599 0)
(0.972935 -0.000467405 0)
(0.972621 -0.000548799 0)
(0.972249 -0.000659953 0)
(0.971799 -0.00081031 0)
(0.971244 -0.00101233 0)
(0.970547 -0.00128248 0)
(0.969664 -0.00164255 0)
(0.96853 -0.00212144 0)
(0.967063 -0.00275753 0)
(0.965154 -0.00360186 0)
(0.962658 -0.00472239 0)
(0.959384 -0.00620987 0)
(0.955077 -0.0081861 0)
(0.9494 -0.0108154 0)
(0.941902 -0.0143214 0)
(0.931982 -0.0190113 0)
(0.918829 -0.0253125 0)
(0.901345 -0.0338281 0)
(0.878029 -0.0454181 0)
(0.846789 -0.0613321 0)
(0.804731 -0.0833631 0)
(0.747552 -0.114179 0)
(0.669609 -0.157174 0)
(0.560601 -0.217613 0)
(0.413031 -0.295929 0)
(0.163444 -0.36264 0)
(0.997247 -1.76591e-05 0)
(0.997276 -5.1348e-05 0)
(0.997317 -8.00912e-05 0)
(0.997154 -0.00010131 0)
(0.996888 -0.000115508 0)
(0.996627 -0.000124121 0)
(0.99638 -0.00012805 0)
(0.99613 -0.000128316 0)
(0.995871 -0.000126187 0)
(0.995614 -0.000122758 8.39293e-35)
(0.995369 -0.000118735 0)
(0.99514 -0.000114539 0)
(0.994923 -0.000110509 0)
(0.994711 -0.000107043 0)
(0.994499 -0.00010461 0)
(0.994287 -0.000103692 8.32195e-35)
(0.994075 -0.000104735 0)
(0.993862 -0.000108174 0)
(0.993643 -0.000114516 0)
(0.99341 -0.000124454 0)
(0.993154 -0.000138967 0)
(0.992863 -0.000159421 0)
(0.992525 -0.000187666 0)
(0.992121 -0.000226165 -8.23305e-35)
(0.991629 -0.000278173 0)
(0.991019 -0.000347991 0)
(0.990252 -0.000441303 0)
(0.989276 -0.000565641 0)
(0.98802 -0.000730994 0)
(0.986392 -0.000950642 0)
(0.98427 -0.00124223 0)
(0.981492 -0.00162931 0)
(0.977844 -0.00214334 0)
(0.973039 -0.0028266 0)
(0.966695 -0.00373631 0)
(0.958303 -0.00495048 0)
(0.947172 -0.00657661 0)
(0.93237 -0.0087646 0)
(0.912619 -0.0117259 0)
(0.886163 -0.0157616 0)
(0.850547 -0.0213041 0)
(0.802378 -0.0289648 -1.27753e-34)
(0.736806 -0.0396087 0)
(0.647592 -0.0543068 0)
(0.525153 -0.0743407 0)
(0.365354 -0.0998318 0)
(0.130018 -0.114803 0)
(0.997247 1.77326e-05 0)
(0.997276 5.12292e-05 0)
(0.997317 7.9997e-05 0)
(0.997154 0.000101251 0)
(0.996888 0.000115511 0)
(0.996627 0.000124281 0)
(0.99638 0.000128368 0)
(0.99613 0.000128657 0)
(0.995871 0.000126472 0)
(0.995614 0.000123078 -8.39293e-35)
(0.995369 0.000119238 0)
(0.99514 0.000115255 0)
(0.994923 0.000111329 0)
(0.994711 0.000107829 0)
(0.994499 0.000105308 0)
(0.994287 0.000104342 -8.32195e-35)
(0.994075 0.000105416 0)
(0.993862 0.000108941 0)
(0.993643 0.000115376 0)
(0.99341 0.000125363 0)
(0.993154 0.000139862 0)
(0.992863 0.000160238 0)
(0.992525 0.000188362 0)
(0.992121 0.000226722 8.23305e-35)
(0.991629 0.000278599 0)
(0.991019 0.000348306 0)
(0.990252 0.000441537 0)
(0.989276 0.000565822 0)
(0.98802 0.000731143 0)
(0.986392 0.000950759 0)
(0.98427 0.0012423 0)
(0.981493 0.0016293 0)
(0.977844 0.00214321 0)
(0.973039 0.00282633 0)
(0.966696 0.00373584 0)
(0.958303 0.00494979 0)
(0.947172 0.00657564 0)
(0.93237 0.00876333 0)
(0.912619 0.0117243 0)
(0.886163 0.0157597 0)
(0.850547 0.0213022 0)
(0.802378 0.0289635 1.27753e-34)
(0.736806 0.0396081 0)
(0.647592 0.054308 0)
(0.525152 0.0743414 0)
(0.365357 0.0998361 0)
(0.130016 0.114805 0)
(0.977242 5.44727e-05 0)
(0.977268 0.000157531 0)
(0.977302 0.000244749 0)
(0.977129 0.000308173 0)
(0.976854 0.000349995 0)
(0.976587 0.000374909 0)
(0.976337 0.000385764 0)
(0.976085 0.000385518 0)
(0.975828 0.000378127 0)
(0.975573 0.000367249 0)
(0.975332 0.000355114 0)
(0.975109 0.000342691 0)
(0.974897 0.000330639 0)
(0.97469 0.000320022 0)
(0.974485 0.000312337 0)
(0.97428 0.000309147 0)
(0.974077 0.000311795 0)
(0.973874 0.000321485 0)
(0.973666 0.000339583 0)
(0.973446 0.000368019 0)
(0.973206 0.000409606 0)
(0.972935 0.000468327 0)
(0.972621 0.000549586 0)
(0.97225 0.000660581 0)
(0.971799 0.000810783 0)
(0.971244 0.00101268 0)
(0.970548 0.00128272 0)
(0.969664 0.00164272 0)
(0.96853 0.00212156 0)
(0.967064 0.00275761 0)
(0.965155 0.00360188 0)
(0.962659 0.00472233 0)
(0.959384 0.00620972 0)
(0.955077 0.00818581 0)
(0.9494 0.010815 0)
(0.941902 0.0143207 0)
(0.931982 0.0190104 0)
(0.918829 0.0253114 0)
(0.901345 0.0338267 0)
(0.87803 0.0454165 0)
(0.84679 0.0613306 0)
(0.804733 0.0833621 0)
(0.747553 0.114179 0)
(0.669609 0.157174 0)
(0.560603 0.217616 0)
(0.413032 0.295934 0)
(0.163445 0.362641 0)
(0.937231 9.57744e-05 0)
(0.93725 0.000275916 0)
(0.93727 0.000424642 0)
(0.937074 0.000529107 0)
(0.93678 0.000595285 0)
(0.936501 0.000632414 0)
(0.936244 0.000646199 0)
(0.935991 0.000642019 0)
(0.935736 0.000626584 0)
(0.935489 0.00060599 0)
(0.935256 0.000583901 0)
(0.935042 0.000561838 0)
(0.934841 0.000540783 0)
(0.934647 0.000522356 0)
(0.934454 0.000508829 0)
(0.934265 0.000502537 0)
(0.934078 0.000505459 0)
(0.933894 0.000519368 0)
(0.933707 0.000546342 0)
(0.933513 0.000589377 0)
(0.933304 0.000652869 0)
(0.933072 0.000743028 0)
(0.932807 0.000868263 0)
(0.932498 0.00103975 0)
(0.932128 0.00127217 0)
(0.931677 0.00158487 0)
(0.931117 0.00200335 0)
(0.930412 0.0025614 0)
(0.929512 0.00330376 0)
(0.928353 0.00428983 0)
(0.926851 0.00559847 0)
(0.924893 0.00733453 0)
(0.922331 0.0096377 0)
(0.918971 0.0126947 0)
(0.914557 0.0167563 0)
(0.908753 0.0221616 0)
(0.901116 0.0293739 0)
(0.891067 0.0390329 0)
(0.877842 0.0520366 0)
(0.860438 0.0696636 0)
(0.837487 0.0937899 0)
(0.80723 0.127158 0)
(0.766646 0.17417 0)
(0.712732 0.24108 0)
(0.632193 0.34139 0)
(0.532533 0.498412 0)
(0.202447 0.707081 0)
(0.877212 0.0001464 0)
(0.877218 0.000418012 0)
(0.87721 0.000632718 0)
(0.876975 0.000774385 0)
(0.87665 0.000858146 0)
(0.876354 0.000900752 0)
(0.876089 0.000911452 0)
(0.875835 0.000898219 0)
(0.875587 0.000870549 0)
(0.87535 0.000836836 0)
(0.875133 0.000801984 0)
(0.874935 0.000767937 0)
(0.874751 0.000735954 0)
(0.874575 0.000708107 0)
(0.874403 0.000687273 0)
(0.874236 0.000676235 0)
(0.874075 0.000677271 0)
(0.873919 0.000692345 0)
(0.873765 0.000723928 0)
(0.873609 0.00077567 0)
(0.873446 0.00085311 0)
(0.87327 0.00096401 0)
(0.873077 0.00111897 0)
(0.872857 0.00133195 0)
(0.872602 0.00162134 0)
(0.8723 0.00201128 0)
(0.871932 0.00253371 0)
(0.871478 0.00323075 0)
(0.870906 0.00415838 0)
(0.870178 0.00539064 0)
(0.869241 0.00702584 0)
(0.868028 0.0091942 0)
(0.86645 0.0120686 0)
(0.864393 0.0158787 0)
(0.861708 0.0209308 0)
(0.858209 0.0276349 0)
(0.85366 0.0365437 0)
(0.847776 0.0484094 0)
(0.84022 0.0642701 0)
(0.830638 0.0855793 0)
(0.818628 0.114438 0)
(0.804188 0.153909 0)
(0.78671 0.20892 0)
(0.77124 0.286783 0)
(0.750237 0.402557 0)
(0.801435 0.57322 0)
(0.764996 0.893613 0)
(0.797183 0.000214648 0)
(0.797161 0.000602937 0)
(0.797103 0.000887683 0)
(0.796806 0.00105646 0)
(0.796439 0.00114497 0)
(0.796122 0.00118154 0)
(0.79585 0.00117935 0)
(0.795598 0.00114937 0)
(0.795362 0.00110394 0)
(0.795145 0.0010532 0)
(0.794951 0.00100266 0)
(0.794779 0.000954326 0)
(0.794622 0.000909492 0)
(0.794476 0.000870529 0)
(0.794336 0.000840594 0)
(0.794205 0.00082258 0)
(0.794083 0.000818621 0)
(0.793971 0.000830542 0)
(0.793865 0.000860792 0)
(0.793765 0.000913304 0)
(0.793667 0.000994125 0)
(0.79357 0.00111185 0)
(0.793472 0.0012781 0)
(0.793371 0.00150821 0)
(0.793265 0.0018223 0)
(0.79315 0.00224678 0)
(0.793023 0.00281655 0)
(0.792877 0.00357777 0)
(0.792705 0.00459162 0)
(0.792496 0.00593914 0)
(0.792237 0.00772758 0)
(0.791913 0.0100987 0)
(0.791501 0.0132397 0)
(0.790977 0.0173977 0)
(0.790315 0.0228987 0)
(0.789486 0.0301732 0)
(0.788477 0.0397909 0)
(0.787304 0.0525074 0)
(0.786052 0.0693309 0)
(0.784984 0.0916166 0)
(0.784609 0.121202 0)
(0.786409 0.160621 0)
(0.79208 0.213325 0)
(0.810366 0.284156 0)
(0.840619 0.378987 0)
(0.933211 0.496524 0)
(1.05609 0.685751 0)
(0.697136 0.000316653 0)
(0.697056 0.000862142 0)
(0.696906 0.00121663 0)
(0.696516 0.00139413 0)
(0.696097 0.00146811 0)
(0.695763 0.00148056 0)
(0.695494 0.00144903 0)
(0.69526 0.00138922 0)
(0.695055 0.00131675 0)
(0.694879 0.00124263 0)
(0.694733 0.00117192 0)
(0.694613 0.00110598 0)
(0.694511 0.00104567 0)
(0.694424 0.000993266 0)
(0.694348 0.00095171 0)
(0.694285 0.000923563 0)
(0.694235 0.000910343 0)
(0.694199 0.000913467 0)
(0.694175 0.000934967 0)
(0.694165 0.000978732 0)
(0.694167 0.00105063 0)
(0.694182 0.00115931 0)
(0.694215 0.00131609 0)
(0.694268 0.00153613 0)
(0.694346 0.00183895 0)
(0.694456 0.00225054 0)
(0.694608 0.00280488 0)
(0.694812 0.00354736 0)
(0.695084 0.00453785 0)
(0.695445 0.00585599 0)
(0.695921 0.00760672 0)
(0.696548 0.00992874 0)
(0.697376 0.0130041 0)
(0.69847 0.0170715 0)
(0.69992 0.0224426 0)
(0.701855 0.0295224 0)
(0.704458 0.0388339 0)
(0.708005 0.0510483 0)
(0.712915 0.0670168 0)
(0.719865 0.0878068 0)
(0.729899 0.114701 0)
(0.744928 0.149235 0)
(0.767431 0.192746 0)
(0.803174 0.246621 0)
(0.856468 0.309023 0)
(0.937973 0.371375 0)
(1.0692 0.442253 0)
(0.577057 0.00049356 0)
(0.576854 0.00124582 0)
(0.576541 0.00164023 0)
(0.576028 0.00179004 0)
(0.575572 0.00182371 0)
(0.57526 0.00178853 0)
(0.57505 0.00170546 0)
(0.574903 0.00159757 0)
(0.574806 0.00148406 0)
(0.574753 0.00137569 0)
(0.574736 0.00127618 0)
(0.57475 0.00118567 0)
(0.574785 0.00110434 0)
(0.574835 0.00103384 0)
(0.574898 0.000976482 0)
(0.574973 0.000933786 0)
(0.575061 0.000906418 0)
(0.575162 0.000894858 0)
(0.575277 0.00090065 0)
(0.575407 0.000926946 0)
(0.575555 0.000979045 0)
(0.575725 0.00106436 0)
(0.575924 0.0011929 0)
(0.576161 0.00137757 0)
(0.576449 0.0016354 0)
(0.576803 0.00198868 0)
(0.577246 0.0024671 0)
(0.577806 0.00311007 0)
(0.578519 0.00397012 0)
(0.579436 0.00511685 0)
(0.580621 0.0066424 0)
(0.58216 0.00866807 0)
(0.584166 0.011353 0)
(0.586787 0.0149046 0)
(0.590221 0.0195914 0)
(0.594726 0.0257572 0)
(0.60065 0.0338362 0)
(0.608462 0.0443658 0)
(0.618795 0.0579896 0)
(0.632531 0.0754467 0)
(0.650876 0.0974961 0)
(0.67554 0.124835 0)
(0.708766 0.157614 0)
(0.753424 0.195366 0)
(0.814095 0.235477 0)
(0.890878 0.270538 0)
(0.996137 0.299174 0)
(0.436899 0.000884984 0)
(0.436418 0.0019109 0)
(0.435907 0.00222449 0)
(0.4354 0.00223302 0)
(0.435114 0.00214706 0)
(0.43506 0.00200457 0)
(0.435152 0.00182655 0)
(0.435329 0.0016416 0)
(0.43556 0.00146861 0)
(0.435825 0.00131478 0)
(0.436109 0.00118054 0)
(0.4364 0.00106373 0)
(0.436691 0.000962988 0)
(0.436977 0.000878349 0)
(0.437256 0.000810302 0)
(0.437531 0.00075838 0)
(0.437803 0.000721674 0)
(0.438075 0.000699367 0)
(0.438349 0.000692099 0)
(0.438631 0.000701862 0)
(0.438927 0.000732605 0)
(0.439244 0.000789582 0)
(0.439594 0.000880103 0)
(0.439992 0.0010133 0)
(0.440455 0.00120158 0)
(0.441009 0.00146108 0)
(0.441685 0.00181384 0)
(0.442526 0.00228905 0)
(0.443588 0.00292619 0)
(0.444942 0.00377743 0)
(0.446686 0.00491239 0)
(0.448946 0.0064226 0)
(0.451887 0.00842861 0)
(0.455724 0.0110873 0)
(0.46074 0.0146016 0)
(0.467299 0.0192295 0)
(0.475871 0.0252923 0)
(0.48706 0.0331781 0)
(0.501637 0.0433313 0)
(0.520573 0.0562245 0)
(0.54508 0.0722777 0)
(0.576628 0.0917498 0)
(0.616997 0.114473 0)
(0.667914 0.139577 0)
(0.731952 0.165351 0)
(0.80898 0.186985 0)
(0.899833 0.201037 0)
(0.276663 0.0016647 0)
(0.275939 0.00305042 0)
(0.275864 0.00303689 0)
(0.276285 0.00262715 0)
(0.276988 0.00219583 0)
(0.277796 0.00180076 0)
(0.278609 0.00146093 0)
(0.27938 0.00118794 0)
(0.28009 0.000977422 0)
(0.280737 0.000816933 0)
(0.281322 0.00069363 0)
(0.281852 0.000597403 0)
(0.282332 0.000521724 0)
(0.282768 0.000462897 0)
(0.283169 0.000418319 0)
(0.28354 0.000385736 0)
(0.283891 0.000363199 0)
(0.284226 0.00034976 0)
(0.284553 0.000345471 0)
(0.284881 0.000351561 0)
(0.285216 0.000369966 0)
(0.285571 0.000403543 0)
(0.285959 0.000455904 0)
(0.286395 0.000532075 0)
(0.286903 0.000638699 0)
(0.28751 0.000785049 0)
(0.288253 0.00098353 0)
(0.289179 0.0012511 0)
(0.290353 0.00161031 0)
(0.291858 0.00209147 0)
(0.293805 0.00273477 0)
(0.296338 0.00359375 0)
(0.299649 0.00473916 0)
(0.303989 0.00626409 0)
(0.309687 0.00828975 0)
(0.317166 0.0109713 0)
(0.326972 0.0145027 0)
(0.339796 0.0191166 0)
(0.356497 0.0250766 0)
(0.378116 0.0326513 0)
(0.405876 0.0420629 0)
(0.441135 0.0534003 0)
(0.485332 0.0664883 0)
(0.539659 0.0806358 0)
(0.605084 0.0946431 0)
(0.681069 0.105757 0)
(0.765351 0.111115 0)
(0.099623 0.00151035 0)
(0.101614 0.00194307 0)
(0.103822 0.00137921 0)
(0.105963 0.000874248 0)
(0.107605 0.000572868 0)
(0.108822 0.00038675 0)
(0.109764 0.000265791 0)
(0.110514 0.000189924 0)
(0.111117 0.000143506 0)
(0.11161 0.000113477 0)
(0.112024 9.20925e-05 0)
(0.112376 7.6479e-05 0)
(0.112681 6.61673e-05 0)
(0.11295 6.0432e-05 0)
(0.11319 5.76275e-05 0)
(0.113409 5.57808e-05 0)
(0.113614 5.38781e-05 0)
(0.11381 5.20708e-05 0)
(0.114002 5.15451e-05 0)
(0.114194 5.36028e-05 0)
(0.114393 5.94139e-05 0)
(0.114607 6.96006e-05 0)
(0.114845 8.46975e-05 0)
(0.11512 0.000105196 0)
(0.115446 0.000132231 0)
(0.115843 0.00016759 0)
(0.116338 0.000214278 0)
(0.116965 0.00027642 0)
(0.11777 0.00035984 0)
(0.118813 0.000472152 0)
(0.120176 0.000623632 0)
(0.121967 0.000827823 0)
(0.124332 0.00110293 0)
(0.127466 0.00147321 0)
(0.131629 0.00197098 0)
(0.137167 0.00263859 0)
(0.144537 0.00353019 0)
(0.154334 0.00471247 0)
(0.167317 0.00626197 0)
(0.184427 0.00825763 0)
(0.206779 0.010763 0)
(0.235602 0.0137938 0)
(0.272116 0.0172717 0)
(0.317236 0.0209211 0)
(0.37128 0.0242574 0)
(0.43325 0.0263285 0)
(0.500402 0.0261725 0)
(0.567781 -0.022672 0)
(0.62812 -0.0156259 0)
(0.674477 -0.00676224 0)
(0.703366 0.00196987 0)
(0.715503 0.0099959 0)
(0.71107 0.0171383 0)
(0.852967 -0.106091 0)
(0.935626 -0.0891784 0)
(1.00555 -0.0657231 0)
(1.05979 -0.0413146 0)
(1.09866 -0.0182152 0)
(1.12519 0.0028888 0)
(1.00046 -0.196068 0)
(1.09753 -0.168425 0)
(1.17793 -0.130053 0)
(1.23865 -0.0907139 0)
(1.28209 -0.0539259 0)
(1.31102 -0.021386 0)
(1.12824 -0.294525 0)
(1.25276 -0.255406 0)
(1.3406 -0.201098 0)
(1.39274 -0.14395 0)
(1.4206 -0.0899853 0)
(1.43292 -0.0433516 0)
(1.24586 -0.432805 0)
(1.36136 -0.364063 0)
(1.39184 -0.274761 0)
(1.37477 -0.185016 0)
(1.34503 -0.107978 0)
(1.31717 -0.0496031 0)
(1.23397 -0.629799 0)
(1.16801 -0.43697 0)
(1.00453 -0.260587 0)
(0.872215 -0.131596 0)
(0.785895 -0.0446257 0)
(0.732873 0.00908623 0)
(0.774034 -0.572712 0)
(0.367179 -0.169579 0)
(0.0475256 0.0280907 0)
(0.0167951 0.0571412 0)
(0.0355306 0.0495142 0)
(0.0581337 0.0395062 0)
(0.774043 0.572715 0)
(0.3672 0.16958 0)
(0.0475483 -0.028089 0)
(0.0168095 -0.0571456 0)
(0.0355447 -0.0495246 0)
(0.0581571 -0.0395195 0)
(1.23398 0.62979 0)
(1.16802 0.436968 0)
(1.00453 0.260585 0)
(0.872223 0.131596 0)
(0.785904 0.0446311 0)
(0.732885 -0.00908376 0)
(1.24586 0.432802 0)
(1.36136 0.364066 0)
(1.39184 0.27477 0)
(1.37478 0.185025 0)
(1.34503 0.107983 0)
(1.31715 0.0496018 0)
(1.12825 0.294527 0)
(1.25276 0.255405 0)
(1.3406 0.201096 0)
(1.39273 0.143942 0)
(1.42059 0.0899664 0)
(1.43291 0.0433344 0)
(1.00046 0.19606 0)
(1.09753 0.168416 0)
(1.17792 0.130041 0)
(1.23864 0.0907043 0)
(1.28209 0.0539237 0)
(1.31103 0.0213958 0)
(0.852972 0.106085 0)
(0.935628 0.0891745 0)
(1.00555 0.0657237 0)
(1.05979 0.0413241 0)
(1.09867 0.0182308 0)
(1.1252 -0.00287366 0)
(0.567786 0.0226748 0)
(0.628125 0.0156354 0)
(0.674482 0.00677764 0)
(0.703371 -0.00195712 0)
(0.715505 -0.00999861 0)
(0.711069 -0.0171625 0)
(0.692806 0.0227852 0)
(0.664164 0.0263661 0)
(0.62815 0.0278382 0)
(0.58727 0.0275621 0)
(0.54355 0.0259942 0)
(0.498599 0.0235649 0)
(0.45369 0.0206664 0)
(0.409805 0.017623 0)
(0.367687 0.0146594 0)
(0.327891 0.0119036 0)
(0.290828 0.00941613 0)
(0.256789 0.00722085 0)
(0.225955 0.00532664 0)
(0.198406 0.00373674 0)
(0.174125 0.00244977 0)
(0.153005 0.00145502 0)
(0.134864 0.000728127 0)
(0.119462 0.000229817 0)
(0.106528 -8.95572e-05 0)
(0.0957803 -0.000283069 0)
(0.0869532 -0.000398796 0)
(0.0798048 -0.00047478 0)
(0.0741244 -0.000536071 0)
(0.0697311 -0.000596369 0)
(0.0664694 -0.000660249 0)
(0.0642039 -0.000727223 0)
(0.0628137 -0.000794007 0)
(0.0621896 -0.00085713 0)
(0.062231 -0.000914467 0)
(0.0628438 -0.000963414 0)
(0.0639406 -0.00100079 0)
(0.0654434 -0.00102672 0)
(0.0672853 -0.00104408 0)
(0.0694051 -0.00105379 0)
(0.0717447 -0.0010546 0)
(0.0742498 -0.00104715 0)
(0.0768717 -0.00103288 0)
(0.0795691 -0.00101265 0)
(0.0823056 -0.000986795 0)
(0.0850494 -0.000956026 0)
(0.0877729 -0.000921092 0)
(0.0904529 -0.00088295 0)
(0.0930699 -0.000842104 0)
(0.0956064 -0.000798675 0)
(0.0980594 -0.000756997 0)
(0.100339 -0.000668063 0)
(0.103156 -0.000853805 0)
(1.14045 0.0212105 0)
(1.14507 0.0362458 0)
(1.14004 0.0480966 0)
(1.12625 0.0571382 0)
(1.10446 0.0636838 0)
(1.07549 0.0679867 0)
(1.04019 0.0703185 0)
(0.999414 0.0709623 0)
(0.954054 0.0701781 0)
(0.90501 0.0681909 0)
(0.853224 0.0651968 0)
(0.799672 0.0613723 0)
(0.745353 0.0568851 0)
(0.691261 0.0519047 0)
(0.638364 0.0466088 0)
(0.587559 0.0411806 0)
(0.53963 0.035799 0)
(0.495215 0.030624 0)
(0.454776 0.0257838 0)
(0.418584 0.0213653 0)
(0.38673 0.0174129 0)
(0.359141 0.013933 0)
(0.335618 0.0109041 0)
(0.315873 0.00828744 0)
(0.299563 0.00603736 0)
(0.286326 0.0041078 0)
(0.275803 0.00245671 0)
(0.267649 0.00104749 0)
(0.261548 -0.000149733 0)
(0.257214 -0.00116089 0)
(0.254388 -0.00201051 0)
(0.252856 -0.00272057 0)
(0.252419 -0.00330586 0)
(0.252879 -0.00377341 0)
(0.254066 -0.00412999 0)
(0.255838 -0.00438946 0)
(0.258076 -0.0045686 0)
(0.260676 -0.00467946 0)
(0.263547 -0.00473048 0)
(0.26661 -0.00472953 0)
(0.269796 -0.00468389 0)
(0.27305 -0.004601 0)
(0.276321 -0.00448599 0)
(0.279572 -0.00435054 0)
(0.2828 -0.00418582 0)
(0.285752 -0.00403607 0)
(0.289736 -0.00377735 0)
(1.32856 0.00580026 0)
(1.33859 0.0278428 0)
(1.34313 0.0459106 0)
(1.34295 0.0610076 0)
(1.33814 0.0736706 0)
(1.32868 0.0842131 0)
(1.3145 0.0928639 0)
(1.29552 0.0997691 0)
(1.27165 0.105 0)
(1.2429 0.108583 0)
(1.20941 0.110524 0)
(1.17152 0.110824 0)
(1.12971 0.109499 0)
(1.08464 0.106602 0)
(1.03714 0.102238 0)
(0.988122 0.0965759 0)
(0.938573 0.0898397 0)
(0.88947 0.0822957 0)
(0.841729 0.0742316 0)
(0.796159 0.065933 0)
(0.753419 0.057663 0)
(0.713996 0.0496463 0)
(0.678203 0.0420589 0)
(0.646189 0.0350254 0)
(0.617954 0.0286217 0)
(0.593385 0.0228807 0)
(0.572279 0.017802 0)
(0.554376 0.0133606 0)
(0.539379 0.00951593 0)
(0.526982 0.00621808 0)
(0.516878 0.00341288 0)
(0.508764 0.00104653 0)
(0.502359 -0.000928332 0)
(0.497419 -0.00255525 0)
(0.493739 -0.00387657 0)
(0.491136 -0.0049299 0)
(0.489421 -0.00574757 0)
(0.488429 -0.00635828 0)
(0.488014 -0.00678875 0)
(0.488058 -0.00706587 0)
(0.488457 -0.0072144 0)
(0.489128 -0.00725735 0)
(0.489995 -0.00721093 0)
(0.491013 -0.00710787 0)
(0.492112 -0.00691774 0)
(0.493248 -0.00685072 0)
(0.494783 -0.00620118 0)
(1.43613 -0.00614012 0)
(1.43539 0.0227107 0)
(1.43326 0.045766 0)
(1.43017 0.0646885 0)
(1.42594 0.0803893 0)
(1.42043 0.0936235 0)
(1.41344 0.105012 0)
(1.40462 0.114932 0)
(1.39359 0.123536 0)
(1.37995 0.130825 0)
(1.36337 0.136704 0)
(1.34361 0.141016 0)
(1.32053 0.143585 0)
(1.29417 0.144259 0)
(1.26473 0.142949 0)
(1.23257 0.139657 0)
(1.1982 0.134483 0)
(1.16224 0.127628 0)
(1.12536 0.119371 0)
(1.08828 0.110046 0)
(1.05167 0.100011 0)
(1.01615 0.0896191 0)
(0.982239 0.0791963 0)
(0.950357 0.0690201 0)
(0.92079 0.0593118 0)
(0.893713 0.0502336 0)
(0.869192 0.0418917 0)
(0.847206 0.034343 0)
(0.827664 0.0276049 0)
(0.810421 0.0216639 0)
(0.795303 0.0164851 0)
(0.782113 0.0120198 0)
(0.770647 0.0082102 0)
(0.760707 0.00499372 0)
(0.75209 0.00230631 0)
(0.744608 8.89301e-05 0)
(0.738108 -0.00171111 0)
(0.73245 -0.00314504 0)
(0.727521 -0.00426091 0)
(0.723215 -0.00510201 0)
(0.719429 -0.00570705 0)