/*--------------------------------*- C++ -*----------------------------------*\
| =========                 |                                                 |
| \\      /  F ield         | OpenFOAM: The Open Source CFD Toolbox           |
|  \\    /   O peration     | Version:  2406                                  |
|   \\  /    A nd           | Website:  www.openfoam.com                      |
|    \\/     M anipulation  |                                                 |
\*---------------------------------------------------------------------------*/
FoamFile
{
    version     2.0;
    format      ascii;
    arch        "LSB;label=32;scalar=64";
    class       surfaceScalarField;
    location    "33";
    object      phi;
}
// * * * * * * * * * * * * * * * * * * * * * * * * * * * * * * * * * * * * * //

dimensions      [0 3 -1 0 0 0 0];

oriented        oriented;

internalField   nonuniform List<scalar> 
3470
(
0.0193906
-0.000390608
0.0198766
-0.000486044
0.0203274
-0.000450775
0.0208064
-0.000479068
0.0213776
-0.000571234
0.0221026
-0.000725054
0.0230822
-0.000979627
0.0245035
-0.00142124
0.0268092
-0.00230567
-0.00496905
0.0317781
0.0509425
-0.000333111
0.0511799
-0.000723552
0.0516449
-0.000915778
0.0522781
-0.00111235
0.0530936
-0.00138679
0.0541366
-0.00176815
0.0554759
-0.00231891
0.0572119
-0.00315723
0.0594003
-0.0044942
-0.00680556
0.0612368
0.0749685
-0.000301659
0.0750412
-0.000796302
0.0753013
-0.001176
0.0757413
-0.00155233
0.0763571
-0.00200263
0.0771586
-0.00256975
0.0781525
-0.00331288
0.0793165
-0.00432129
0.0805268
-0.00570448
-0.00760031
0.0813215
0.0909819
-0.000283575
0.0909791
-0.000793552
0.0910641
-0.00126114
0.0912543
-0.00174254
0.0915436
-0.00229202
0.0919226
-0.00294882
0.0923674
-0.00375775
0.092819
-0.00477295
0.0931572
-0.00604268
-0.00759103
0.0931479
0.0989657
-0.000249303
0.0988894
-0.000717303
0.0988193
-0.00119116
0.0987729
-0.00169622
0.0987394
-0.00225848
0.0986979
-0.0029074
0.0986145
-0.00367446
0.0984294
-0.00458787
0.0980491
-0.00566236
-0.00688488
0.0973429
0.0989351
-0.000184443
0.0987723
-0.000554558
0.0985568
-0.000975669
0.0982999
-0.00143945
0.0979845
-0.00194306
0.0975842
-0.00250719
0.0970633
-0.00315354
0.0963688
-0.00389339
0.0954311
-0.00472465
-0.00562548
0.0941717
0.0908926
-7.70962e-05
0.0906392
-0.000301153
0.090303
-0.000639525
0.0898842
-0.00102074
0.0893577
-0.00141657
0.0886952
-0.00184476
0.0878619
-0.00232024
0.0868129
-0.00284436
0.0854974
-0.00340916
-0.00399588
0.0838678
0.0748313
9.16062e-05
0.0745221
7.97326e-06
0.0741425
-0.00025993
0.073661
-0.000539353
0.0730435
-0.000799067
0.0722625
-0.00106376
0.0712871
-0.00134484
0.0700831
-0.00164037
0.0686183
-0.00194432
-0.00224629
0.0668687
0.050792
0.000299634
0.0505996
0.000200346
0.0503498
-1.02579e-05
0.0499666
-0.000156145
0.04943
-0.00026254
0.048728
-0.000361764
0.0478441
-0.000460898
0.0467621
-0.000558336
0.0454701
-0.000652382
-0.000740658
0.0439645
0.0192996
0.0195
0.0194897
0.0193336
0.019071
0.0187092
0.0182484
0.01769
0.0170376
0.016297
-0.000125149
0.000125154
-0.000491421
0.000366286
-0.000982955
0.00049154
-0.00149724
0.000514282
-0.00197603
0.000478771
-0.00238896
0.000412903
-0.0027199
0.000330912
-0.00295937
0.000239431
-0.00310103
0.000141614
-0.00314045
3.93699e-05
-0.00307486
-6.56368e-05
-0.0029033
-0.00017161
-0.00262677
-0.000276564
-0.00224823
-0.000378553
-0.00177239
-0.000475846
-0.00120532
-0.000567038
-0.000554012
-0.000651251
0.000174222
-0.000728143
0.000972297
-0.000797949
0.00183389
-0.000861432
0.00275414
-0.000920047
0.0037301
-0.000975727
0.00476113
-0.00103077
0.00584903
-0.00108761
0.00699796
-0.00114861
0.00821393
-0.00121566
0.00950393
-0.00128967
0.0108741
-0.00136989
0.0123276
-0.00145313
0.0138606
-0.00153272
0.0154586
-0.0015977
0.0170911
-0.00163233
0.0187082
-0.00161689
0.0202385
-0.00153025
-0.00135617
0.0215947
-0.000405973
0.000531142
-0.00127126
0.00123159
-0.00233533
0.00155561
-0.00340886
0.00158779
-0.00437518
0.00144504
-0.00516927
0.00120693
-0.00575652
0.000918072
-0.00611884
0.000601661
-0.00624726
0.000269933
-0.00613854
-6.94565e-05
-0.00579366
-0.000410612
-0.00521766
-0.000747689
-0.00441916
-0.00107512
-0.0034099
-0.00138782
-0.00220419
-0.00168151
-0.000817958
-0.00195316
0.000732064
-0.00220109
0.00242894
-0.00242476
0.00425708
-0.00262574
0.00620332
-0.00280724
0.00825759
-0.00297382
0.0104137
-0.00313124
0.0126697
-0.00328619
0.0150285
-0.00344567
0.017497
-0.00361646
0.0200862
-0.00380408
0.0228089
-0.00401166
0.0256779
-0.0042382
0.028702
-0.00447666
0.0318812
-0.00471127
0.0351993
-0.00491531
0.0386165
-0.00504909
0.0420607
-0.00506085
0.0454218
-0.0048912
-0.00448802
0.0485537
-0.000603989
0.00113514
-0.00176925
0.00239686
-0.00310733
0.00289369
-0.00438363
0.00286407
-0.00546325
0.00252462
-0.00627415
0.00201777
-0.00678148
0.00142534
-0.00697144
0.000791567
-0.00684233
0.000140759
-0.00639966
-0.000512188
-0.0056544
-0.00115593
-0.0046217
-0.00178043
-0.00332001
-0.00237682
-0.00177019
-0.00293763
5.42258e-06
-0.00345706
0.00198345
-0.00393109
0.00414058
-0.00435806
0.00645537
-0.00473934
0.00890859
-0.00507869
0.0114842
-0.00538256
0.0141704
-0.00565956
0.0169598
-0.00592027
0.0198506
-0.00617651
0.0228462
-0.00644078
0.0259554
-0.0067251
0.0291917
-0.00703984
0.0325723
-0.00739172
0.0361161
-0.00778148
0.0398403
-0.00820042
0.0437559
-0.00862644
0.04786
-0.00901911
0.0521266
-0.00931546
0.0564937
-0.00942786
0.0608505
-0.00924807
-0.00866907
0.0650316
-0.000702008
0.00183716
-0.0019591
0.00365396
-0.00329032
0.00422489
-0.00444566
0.00401939
-0.0053032
0.00338214
-0.00580923
0.00252376
-0.00594649
0.00156257
-0.00571728
0.00056233
-0.00513425
-0.000442302
-0.00421596
-0.00143051
-0.00298531
-0.00238659
-0.00146777
-0.00329798
0.000309579
-0.00415416
0.00231867
-0.00494671
0.00453116
-0.00566951
0.00691976
-0.00631961
0.009459
-0.00689719
0.0121258
-0.00740601
0.0149005
-0.00785317
0.0177673
-0.0082491
0.020715
-0.00860704
0.0237377
-0.00894271
0.0268351
-0.00927349
0.0300124
-0.00961773
0.0332811
-0.00999345
0.0366586
-0.0104169
0.0401677
-0.0109005
0.043836
-0.0114494
0.0476937
-0.0120578
0.0517699
-0.0127024
0.056086
-0.013335
0.0606437
-0.013873
0.0654066
-0.0141908
0.0702733
-0.0141146
-0.0134497
0.0750538
-0.00071931
0.00255647
-0.00185858
0.00479322
-0.00289148
0.00525777
-0.00360202
0.00472992
-0.00391862
0.00369872
-0.00382968
0.00243479
-0.0033493
0.00108218
-0.00250274
-0.000284249
-0.00131933
-0.00162572
0.000169051
-0.00291889
0.00192965
-0.00414719
0.00392924
-0.00529757
0.00613503
-0.00635995
0.00851525
-0.00732691
0.0110399
-0.00819415
0.0136813
-0.00896091
0.0164144
-0.00963033
0.019218
-0.0102095
0.0220745
-0.0107096
0.0249708
-0.0111453
0.0278988
-0.0115348
0.0308554
-0.0118991
0.0338433
-0.0122612
0.0368712
-0.0126454
0.0399543
-0.0130763
0.0431149
-0.0135773
0.0463832
-0.0141685
0.0497979
-0.0148639
0.0534063
-0.0156661
0.0572634
-0.0165593
0.0614268
-0.0174983
0.0659446
-0.0183907
0.0708295
-0.0190756
0.0760037
-0.0192889
-0.0186733
0.0812274
-0.000664717
0.00322118
-0.00145355
0.00558203
-0.00185725
0.00566143
-0.00177642
0.00464905
-0.00123894
0.00316122
-0.000295638
0.00149149
0.00100231
-0.00021578
0.00260793
-0.00188988
0.00447793
-0.00349572
0.00657179
-0.00501276
0.00885161
-0.00642701
0.0112819
-0.00772785
0.0138294
-0.00890749
0.0164636
-0.00996113
0.0191568
-0.0108874
0.0218847
-0.0116887
0.0246262
-0.0123719
0.0273647
-0.0129479
0.0300873
-0.0134321
0.0327858
-0.0138437
0.0354567
-0.0142056
0.0381011
-0.0145435
0.0407259
-0.0148858
0.0433434
-0.0152627
0.0459728
-0.0157055
0.0486413
-0.0162456
0.0513863
-0.0169134
0.0542583
-0.0177357
0.057324
-0.0187316
0.0606701
-0.0199053
0.0644044
-0.0212323
0.068649
-0.0226349
0.0735117
-0.0239381
0.0789924
-0.0247693
-0.0244405
0.0847597
-0.000497269
0.00371844
-0.000597556
0.00568227
5.9428e-05
0.00500442
0.00132035
0.00338811
0.00300999
0.00147158
0.00501369
-0.000512213
0.00725462
-0.00245671
0.00967489
-0.00431014
0.0122275
-0.00604838
0.0148737
-0.00765889
0.0175794
-0.00913274
0.0203145
-0.010463
0.0230521
-0.0116451
0.0257682
-0.0126773
0.0284423
-0.0135615
0.0310574
-0.0143039
0.0336002
-0.0149147
0.0360611
-0.0154088
0.0384343
-0.0158054
0.0407182
-0.0161276
0.0429149
-0.0164022
0.0450307
-0.0166592
0.0470763
-0.0169313
0.0490672
-0.0172536
0.0510254
-0.0176635
0.0529808
-0.0182009
0.0549751
-0.0189076
0.0570673
-0.0198278
0.0593416
-0.0210057
0.0619187
-0.0224822
0.0649688
-0.024282
0.0687191
-0.0263848
0.0734339
-0.0286523
0.0792769
-0.0306116
-0.0309399
0.0857769
-5.21202e-05
0.00377054
0.00121304
0.00441706
0.00354741
0.00267
0.00638551
0.000549973
0.00943657
-0.0015795
0.0125754
-0.00365108
0.0157344
-0.00561569
0.0188705
-0.00744624
0.0219549
-0.00913281
0.0249659
-0.0106699
0.0278852
-0.0120521
0.0306967
-0.0132745
0.0333862
-0.0143346
0.035942
-0.0152331
0.038355
-0.0159745
0.0406187
-0.0165676
0.0427299
-0.0170259
0.0446884
-0.0173672
0.0464967
-0.0176137
0.0481605
-0.0177914
0.049688
-0.0179297
0.0510901
-0.0180613
0.0523805
-0.0182216
0.0535762
-0.0184492
0.0546987
-0.018786
0.0557764
-0.0192785
0.0568487
-0.0199798
0.0579738
-0.0209528
0.0592423
-0.022274
0.0607995
-0.024039
0.0628807
-0.0263626
0.0658525
-0.0293559
0.0702054
-0.0330042
0.0762727
-0.0366779
-0.0377705
0.0831046
0.00146196
0.00230853
0.00551395
0.000364903
0.0101636
-0.00197975
0.0147185
-0.00400502
0.019022
-0.00588306
0.0230483
-0.00767739
0.0268047
-0.00937215
0.0303049
-0.0109464
0.0335599
-0.0123879
0.0365772
-0.0136873
0.0393609
-0.0148358
0.0419133
-0.0158269
0.0442361
-0.0166575
0.0463317
-0.0173288
0.0482037
-0.0178465
0.0498574
-0.0182214
0.0513001
-0.0184686
0.0525408
-0.018608
0.0535906
-0.0186635
0.0544615
-0.0186623
0.0551671
-0.0186353
0.0557215
-0.0186157
0.0561396
-0.0186397
0.0564371
-0.0187466
0.0566311
-0.01898
0.0567421
-0.0193895
0.0567974
-0.020035
0.0568377
-0.020993
0.056932
-0.0223681
0.0572051
-0.0243118
0.0578946
-0.0270515
0.0594525
-0.0309129
0.0626437
-0.0361942
0.0681478
-0.0421806
-0.0431543
0.0735328
0.00890807
-0.00659968
0.0164685
-0.00719574
0.0226773
-0.00818865
0.0280069
-0.00933471
0.0326591
-0.0105354
0.0367588
-0.0117771
0.0403952
-0.0130086
0.0436283
-0.0141795
0.0464962
-0.0152559
0.0490246
-0.0162157
0.0512319
-0.0170432
0.053133
-0.017728
0.0547411
-0.0182657
0.0560694
-0.0186571
0.0571315
-0.0189087
0.0579422
-0.0190321
0.0585173
-0.0190437
0.0588735
-0.0189642
0.0590279
-0.0188179
0.0589976
-0.0186321
0.0587993
-0.0184369
0.0584482
-0.0182646
0.0579579
-0.0181495
0.0573402
-0.0181289
0.0566043
-0.0182441
0.0557574
-0.0185426
0.0548052
-0.0190828
0.0537539
-0.0199418
0.0526143
-0.0212285
0.0514116
-0.0231088
0.0502064
-0.0258458
0.0491436
-0.029849
0.0485526
-0.0356023
0.0492
-0.0428268
-0.0453011
0.0513473
0.0345824
-0.00940413
0.0386368
-0.0112503
0.0426201
-0.012172
0.0463331
-0.0130478
0.0497195
-0.0139219
0.052731
-0.0147887
0.0553587
-0.0156363
0.057614
-0.0164348
0.0595111
-0.0171531
0.0610637
-0.0177683
0.0622856
-0.0182651
0.0631916
-0.018634
0.0637977
-0.0188719
0.0641215
-0.018981
0.064182
-0.0189692
0.0639993
-0.0188495
0.0635945
-0.0186389
0.0629887
-0.0183584
0.0622026
-0.0180318
0.0612556
-0.0176851
0.0601648
-0.0173462
0.0589444
-0.0170442
0.0576047
-0.0168099
0.0561513
-0.0166756
0.0545839
-0.0166768
0.052895
-0.0168538
0.0510673
-0.0172553
0.0490695
-0.0179441
0.0468468
-0.019006
0.0443002
-0.0205621
0.041232
-0.0227774
0.0372064
-0.0258231
0.0312071
-0.0296023
0.020801
-0.0324207
-0.0245001
0.0617474
-0.00991482
0.0626493
-0.0121523
0.0639823
-0.0135052
0.0654581
-0.0145236
0.0669164
-0.0153803
0.0682394
-0.0161117
0.0693465
-0.0167435
0.0701945
-0.0172828
0.0707634
-0.017722
0.0710463
-0.0180513
0.0710455
-0.0182643
0.0707699
-0.0183584
0.0702336
-0.0183356
0.0694548
-0.0182021
0.0684542
-0.0179686
0.0672545
-0.0176498
0.0658789
-0.0172634
0.0643503
-0.0168299
0.06269
-0.0163716
0.0609171
-0.0159122
0.0590467
-0.0154759
0.0570899
-0.0150875
0.055052
-0.0147721
0.0529318
-0.0145556
0.0507202
-0.0144654
0.0483976
-0.0145315
0.0459306
-0.0147886
0.0432654
-0.0152792
0.0403149
-0.0160559
0.036934
-0.0171816
0.032867
-0.0187108
0.027645
-0.0206011
0.0204338
-0.0223917
0.0101793
-0.0221667
-0.014321
0.0812922
-0.00988556
0.0810034
-0.0118636
0.0807853
-0.013287
0.0806146
-0.014353
0.0804277
-0.0151934
0.0801633
-0.0158473
0.0797617
-0.016342
0.0791788
-0.0166998
0.0783885
-0.0169317
0.0773795
-0.0170423
0.0761513
-0.017036
0.0747118
-0.0169189
0.0730756
-0.0166994
0.071262
-0.0163885
0.0692933
-0.016
0.0671932
-0.0155497
0.0649854
-0.0150555
0.062692
-0.0145365
0.0603328
-0.0140124
0.0579237
-0.0135032
0.0554763
-0.0130285
0.0529964
-0.0126077
0.0504838
-0.0122596
0.0479308
-0.0120028
0.0453212
-0.0118561
0.0426282
-0.0118388
0.0398111
-0.011972
0.03681
-0.0122786
0.0335358
-0.0127823
0.0298535
-0.0134998
0.0255543
-0.0144121
0.0203257
-0.0153734
0.0137992
-0.0158658
0.00608078
-0.0144494
-0.00824035
0.0925811
-0.00931872
0.0916251
-0.0109076
0.0904999
-0.0121617
0.0892632
-0.0131163
0.0879118
-0.013842
0.0864349
-0.0143704
0.084816
-0.0147231
0.0830391
-0.0149229
0.0810958
-0.0149884
0.0789869
-0.0149334
0.0767207
-0.0147698
0.074312
-0.0145102
0.0717803
-0.0141676
0.0691481
-0.0137563
0.0664393
-0.0132912
0.0636777
-0.0127881
0.0608856
-0.0122634
0.0580824
-0.0117333
0.0552836
-0.0112138
0.0525005
-0.0107202
0.0497387
-0.0102669
0.0469984
-0.00986765
0.0442734
-0.00953487
0.0415507
-0.00928038
0.0388095
-0.00911525
0.0360203
-0.00905002
0.0331424
-0.00909466
0.0301209
-0.00925771
0.026881
-0.00954298
0.0233197
-0.00993926
0.0192988
-0.0103919
0.014657
-0.0107324
0.00932256
-0.0105326
0.00375518
-0.0088831
-0.00448532
0.0962036
-0.00817931
0.094679
-0.00938296
0.0928847
-0.0103674
0.0908838
-0.0111153
0.0886992
-0.0116574
0.0863465
-0.0120177
0.0838384
-0.012215
0.0811858
-0.0122703
0.0784017
-0.0122042
0.0755031
-0.0120347
0.0725107
-0.0117774
0.0694481
-0.0114475
0.0663399
-0.0110594
0.0632111
-0.0106275
0.0600856
-0.0101656
0.0569847
-0.00968731
0.0539268
-0.0092055
0.0509258
-0.00873242
0.0479913
-0.00827944
0.0451279
-0.00785693
0.042335
-0.00747423
0.0396067
-0.00713958
0.0369318
-0.00686021
0.0342934
-0.00664238
0.0316692
-0.00649139
0.0290302
-0.00641152
0.0263407
-0.00640562
0.023556
-0.00647366
0.0206212
-0.0066088
0.0174685
-0.00678733
0.0140218
-0.00694582
0.0102248
-0.00693636
0.00614906
-0.00645791
0.00228121
-0.00501631
-0.00220424
0.0925338
-0.00654141
0.0905326
-0.00738161
0.0882318
-0.00806668
0.0856881
-0.00857152
0.0829391
-0.00890843
0.0800175
-0.00909611
0.076955
-0.00915243
0.0737816
-0.00909682
0.0705264
-0.00894906
0.0672188
-0.00872696
0.0638874
-0.00844606
0.0605602
-0.00812022
0.0572628
-0.00776202
0.0540183
-0.00738301
0.0508463
-0.00699368
0.0477626
-0.0066036
0.0447785
-0.00622141
0.0419008
-0.00585483
0.0391318
-0.00551065
0.0364695
-0.00519478
0.0339073
-0.00491221
0.0314346
-0.00466711
0.0290368
-0.0044628
0.0266959
-0.0043018
0.02439
-0.00418585
0.0220937
-0.00411571
0.0197783
-0.00409072
0.0174113
-0.00410727
0.014957
-0.0041551
0.0123779
-0.00420895
0.00964416
-0.00421278
0.0067628
-0.00405573
0.00385642
-0.00355256
0.00132328
-0.00248406
-0.000881057
0.0818959
-0.00456947
0.0795936
-0.00507926
0.077007
-0.00548006
0.07419
-0.0057545
0.0711911
-0.00590955
0.0680556
-0.00596057
0.0648268
-0.00592358
0.061545
-0.00581494
0.0582465
-0.00565055
0.0549639
-0.00544441
0.0517261
-0.00520823
0.0485577
-0.0049518
0.0454791
-0.00468347
0.0425065
-0.00441044
0.0396517
-0.00413887
0.0369221
-0.00387409
0.0343212
-0.00362062
0.0318486
-0.00338231
0.0295001
-0.00316235
0.0272685
-0.00296335
0.0251434
-0.00278739
0.023112
-0.00263598
0.021159
-0.00251017
0.0192674
-0.00241051
0.0174182
-0.00233705
0.0155913
-0.00228924
0.0137656
-0.00226554
0.0119199
-0.00226218
0.0100345
-0.00227028
0.00809481
-0.00226986
0.00610155
-0.00222013
0.00409426
-0.00204914
0.00219781
-0.0016569
0.000689119
-0.00097608
-0.000192018
0.0648276
-0.00252845
0.0625148
-0.00276649
0.0599742
-0.00293947
0.0572601
-0.00304031
0.0544257
-0.00307515
0.0515204
-0.00305527
0.0485889
-0.00299198
0.0456697
-0.00289578
0.0427952
-0.00277609
0.0399915
-0.00264075
0.0372791
-0.00249588
0.0346736
-0.00234628
0.0321858
-0.00219577
0.0298228
-0.00204748
0.0275878
-0.00190393
0.0254807
-0.00176717
0.0234988
-0.00163886
0.0216367
-0.00152032
0.0198867
-0.00141255
0.0182394
-0.00131633
0.0166839
-0.00123215
0.0152079
-0.00116032
0.0137983
-0.00110089
0.0124411
-0.00105373
0.0111222
-0.00101849
0.00982712
-0.000994612
0.00854216
-0.00098105
0.00725506
-0.000975603
0.00595734
-0.0009731
0.00464887
-0.000961941
0.00334717
-0.000918988
0.00210324
-0.000805784
0.00102194
-0.000576302
0.000269464
-0.000224204
7.73787e-05
0.0422543
-0.00081831
0.0403661
-0.000878318
0.0383416
-0.000914995
0.0362288
-0.000927506
0.0340732
-0.000919502
0.031914
-0.000895996
0.0297834
-0.000861451
0.0277071
-0.000819504
0.0257042
-0.000773138
0.023788
-0.000724592
0.0219675
-0.000675465
0.0202481
-0.00062687
0.0186319
-0.000579663
0.0171188
-0.000534488
0.0157067
-0.000491859
0.0143915
-0.000452138
0.0131681
-0.000415608
0.0120301
-0.000382441
0.0109701
-0.000352769
0.00998023
-0.000326636
0.00905189
-0.000304058
0.00817628
-0.000284971
0.00734439
-0.000269289
0.00654722
-0.000256861
0.00577592
-0.000247527
0.00502202
-0.000241082
0.00427784
-0.000237258
0.00353728
-0.000235465
0.00279793
-0.000234186
0.00206527
-0.00022971
0.0013602
-0.000214349
0.000729189
-0.000175226
0.000249928
-9.75611e-05
9.68204e-06
1.56199e-05
8.70107e-05
0.0154787
0.0146003
0.0136853
0.0127578
0.0118383
0.0109423
0.0100809
0.00926138
0.00848824
0.00776364
0.00708817
0.00646129
0.00588162
0.00534712
0.00485525
0.0044031
0.00398747
0.00360501
0.00325222
0.00292555
0.00262146
0.00233646
0.00206713
0.00181023
0.00156267
0.00132154
0.00108423
0.000848716
0.000614479
0.000384719
0.000170321
-4.95746e-06
-0.000102581
-8.70107e-05
0.0226858
-0.00109101
0.0234412
-0.0007555
0.0238334
-0.000392186
0.0238766
-4.3282e-05
0.0236111
0.000265345
0.0230869
0.000524162
0.0223545
0.00073223
0.0214616
0.000892919
0.0204496
0.00101197
0.00109498
0.0193545
0.0512885
-0.00382586
0.0534783
-0.00294539
0.0550375
-0.00195145
0.0559465
-0.000952543
0.0562297
-1.80321e-05
0.0559372
0.000816543
0.0551343
0.00153492
0.0538922
0.00213496
0.0522804
0.00262373
0.00300991
0.0503654
0.0688218
-0.0076161
0.072026
-0.00614969
0.0745366
-0.00446222
0.0763246
-0.00274064
0.0774016
-0.00109517
0.0778009
0.000417145
0.0775698
0.001766
0.0767633
0.00294136
0.0754372
0.00394981
0.00480029
0.0736468
0.0794461
-0.0120085
0.0831867
-0.00989034
0.0861741
-0.00744964
0.0884135
-0.00498012
0.0899436
-0.00262538
0.0908171
-0.000456411
0.0910912
0.00149197
0.0908127
0.00321984
0.090015
0.00474752
0.00609307
0.0887222
0.085976
-0.0167573
0.0898507
-0.013765
0.0927952
-0.0103943
0.0949092
-0.00709411
0.0963151
-0.00403126
0.0971402
-0.00128151
0.0974937
0.00113853
0.0974401
0.00327341
0.096997
0.0051907
0.00694086
0.0961493
0.089688
-0.0216854
0.0931595
-0.0172365
0.0953328
-0.0125675
0.0965508
-0.00831199
0.0971275
-0.0046078
0.0973285
-0.00148232
0.0973295
0.00113753
0.0972009
0.00340215
0.0969231
0.00546847
0.00745742
0.0964066
0.0903056
-0.0262135
0.0921583
-0.0190887
0.0922967
-0.0127053
0.0916121
-0.0076269
0.090712
-0.00370727
0.0899689
-0.000739005
0.0895341
0.00157257
0.0893967
0.00353958
0.0894309
0.00543439
0.0075046
0.0893837
0.0851406
-0.0282484
0.0829736
-0.0169206
0.0796092
-0.00933995
0.0765359
-0.00455273
0.0743436
-0.00151431
0.0731638
0.000441231
0.0728904
0.00184622
0.0733347
0.00309546
0.0742286
0.0045404
0.00669931
0.0750338
0.0678104
-0.022525
0.0594314
-0.00854065
0.0532298
-0.00313741
0.0495509
-0.000873039
0.0478644
0.000172797
0.0475855
0.000720547
0.0483081
0.00112389
0.0498238
0.00157974
0.0519947
0.00236944
0.00468524
0.0540085
0.0288225
0.020282
0.0171447
0.0162718
0.0164447
0.0171653
0.0182892
0.0198689
0.0222383
0.0269234
0.0182089
0.00114563
0.0170434
0.00116546
0.0158871
0.00115641
0.0147639
0.00112316
0.0136914
0.00107257
0.0126803
0.00101112
0.0117367
0.000943705
0.0108629
0.000873859
0.0100588
0.000804124
0.0093227
0.0007362
0.0086517
0.000671066
0.00804255
0.000609226
0.00749172
0.000550905
0.00699563
0.000496174
0.0065507
0.000445006
0.00615346
0.00039732
0.00580053
0.000352998
0.00548868
0.000311914
0.0052148
0.000273934
0.00497591
0.000238926
0.00476919
0.000206754
0.00459192
0.000177289
0.00444152
0.000150399
0.00431554
0.000125957
0.00421168
0.000103833
0.00412772
8.39091e-05
0.00406159
6.60596e-05
0.00401133
5.0172e-05
0.00397511
3.61278e-05
0.00395118
2.38211e-05
0.00393791
1.31412e-05
0.0039338
3.99018e-06
0.0039374
-3.73392e-06
0.00394739
-1.01209e-05
-1.5262e-05
0.00396252
0.0482132
0.00329785
0.0458921
0.00348664
0.0434714
0.00357715
0.0410152
0.00357946
0.0385765
0.00351137
0.0361962
0.0033915
0.0339045
0.00323555
0.0317223
0.00305623
0.0296629
0.00286367
0.0277339
0.00266543
0.0259383
0.00246677
0.0242765
0.00227126
0.0227463
0.00208126
0.0213443
0.00189835
0.020066
0.00172355
0.018906
0.00155751
0.0178586
0.0014006
0.0169176
0.001253
0.0160769
0.00111477
0.0153301
0.000985863
0.0146708
0.000866165
0.0140926
0.000755484
0.0135895
0.000653579
0.0131552
0.000560169
0.012784
0.000474942
0.0124702
0.000397559
0.0122085
0.000327669
0.0119935
0.000264908
0.0118205
0.000208908
0.0116847
0.000159298
0.0115819
0.000115714
0.0115078
7.77947e-05
0.0114585
4.51921e-05
0.0114305
1.75706e-05
-5.38894e-06
0.0114203
0.0714529
0.00549177
0.0689288
0.00601084
0.0661579
0.00634807
0.0632227
0.00651473
0.060196
0.0065382
0.0571395
0.00644814
0.0541046
0.00627066
0.0511324
0.00602859
0.0482548
0.00574144
0.0454955
0.00542484
0.0428718
0.00509069
0.0403953
0.00474792
0.0380735
0.00440329
0.0359102
0.00406192
0.0339062
0.00372768
0.0320605
0.00340347
0.0303698
0.0030915
0.0288296
0.0027934
0.0274342
0.00251037
0.0261769
0.00224323
0.0250507
0.00199251
0.0240478
0.00175845
0.0231603
0.0015411
0.0223802
0.00134029
0.0216994
0.00115573
0.0211099
0.000986993
0.0206039
0.000833543
0.0201738
0.000694791
0.0198124
0.000570083
0.0195127
0.000458737
0.0192681
0.000360047
0.0190723
0.000273301
0.0189194
0.000197795
0.0188038
0.000132842
7.77804e-05
0.0187203
0.0869648
0.00724925
0.0847984
0.00817731
0.0822998
0.00884668
0.079546
0.00926868
0.0766041
0.00948025
0.073534
0.00951834
0.07039
0.00941475
0.06722
0.00919873
0.0640653
0.00889634
0.0609611
0.00852922
0.0579371
0.00811481
0.055018
0.00766729
0.0522232
0.0071983
0.0495679
0.00671742
0.0470632
0.00623258
0.0447165
0.00575031
0.0425322
0.00527603
0.0405116
0.00481418
0.0386538
0.00436836
0.0369557
0.00394144
0.0354128
0.0035356
0.0340189
0.00315242
0.0327671
0.00279298
0.0316495
0.00245786
0.0306579
0.00214729
0.0297837
0.00186114
0.0290181
0.00159901
0.0283524
0.0013603
0.0277781
0.00114421
0.0272867
0.00094985
0.0268703
0.000776212
0.026521
0.000622248
0.0262316
0.000486882
0.0259951
0.000369038
0.000267664
0.0258048
0.0948829
0.00851569
0.0932339
0.00982636
0.0912715
0.0108092
0.089054
0.0114863
0.0866236
0.0119108
0.084018
0.012124
0.0812743
0.0121585
0.078428
0.0120451
0.0755134
0.011811
0.0725643
0.0114785
0.0696129
0.0110663
0.0666898
0.0105906
0.0638224
0.0100658
0.0610355
0.00950453
0.0583499
0.00891833
0.055783
0.00831736
0.0533485
0.00771071
0.0510564
0.00710639
0.0489135
0.00651137
0.0469235
0.00593155
0.0450874
0.00537184
0.0434037
0.00483618
0.0418691
0.00432758
0.0404787
0.00384826
0.0392262
0.00339969
0.0381046
0.00298267
0.037106
0.0025975
0.0362221
0.00224396
0.0354446
0.00192151
0.0347649
0.00162927
0.0341747
0.00136618
0.0336656
0.00113098
0.0332298
0.000922338
0.0328596
0.000738855
0.000579123
0.0325478
0.0955616
0.00936078
0.094422
0.0109661
0.0930707
0.0121605
0.0915452
0.0130117
0.0898541
0.0136019
0.088004
0.0139742
0.0860029
0.0141597
0.0838609
0.0141872
0.0815927
0.0140792
0.0792183
0.0138529
0.076762
0.0135227
0.0742505
0.0131022
0.0717117
0.0126046
0.0691735
0.0120428
0.0666624
0.0114295
0.0642029
0.010777
0.0618165
0.0100972
0.0595216
0.00940131
0.0573333
0.00869977
0.055263
0.00800188
0.053319
0.00731585
0.0515065
0.00664868
0.0498279
0.00600616
0.0482832
0.00539289
0.0468704
0.00481237
0.0455859
0.0042671
0.0444245
0.00375867
0.0433804
0.00328789
0.0424467
0.00285491
0.0416163
0.00245937
0.0408818
0.00210043
0.0402354
0.00177697
0.0396698
0.0014876
0.0391775
0.00123079
0.00100492
0.0387513
0.0890238
0.00972068
0.0884548
0.011535
0.0878192
0.0127961
0.0871297
0.0137011
0.086358
0.0143736
0.085477
0.0148551
0.0844613
0.0151753
0.083292
0.0153565
0.0819609
0.0154103
0.0804706
0.0153432
0.0788324
0.0151609
0.0770641
0.0148704
0.0751885
0.0144802
0.0732313
0.0140001
0.0712195
0.0134413
0.0691803
0.0128162
0.0671397
0.0121378
0.0651216
0.0114193
0.0631475
0.0106738
0.0612358
0.0099136
0.0594015
0.00915003
0.0576568
0.00839335
0.0560104
0.00765244
0.0544684
0.00693478
0.0530341
0.00624648
0.0517087
0.00559229
0.0504914
0.00497572
0.0493799
0.00439917
0.0483705
0.00386405
0.0474586
0.00337095
0.0466389
0.00291975
0.0459058
0.00250981
0.045253
0.00214002
0.0446744
0.00180901
0.00151517
0.0441637
0.0753112
0.00944318
0.0755013
0.0113447
0.0758259
0.0124713
0.0762254
0.0133014
0.076619
0.0139798
0.0769368
0.0145372
0.0771183
0.0149936
0.077122
0.0153527
0.0769251
0.015607
0.0765197
0.0157485
0.0759084
0.0157721
0.0751023
0.0156765
0.0741187
0.0154636
0.0729798
0.0151389
0.0717105
0.0147105
0.0703372
0.0141894
0.0688869
0.013588
0.0673857
0.0129203
0.0658587
0.0122008
0.0643284
0.0114438
0.0628151
0.0106632
0.0613361
0.00987217
0.0599059
0.00908242
0.0585362
0.00830435
0.0572356
0.00754681
0.0560106
0.00681712
0.054865
0.00612107
0.0538008
0.00546304
0.0528185
0.00484614
0.0519168
0.00427235
0.0510935
0.00374267
0.0503457
0.00325733
0.0496695
0.00281588
0.0490607
0.0024174
0.00206059
0.048515
0.0549798
0.00847153
0.0563756
0.0099487
0.0581626
0.010684
0.0600685
0.0113953
0.0619396
0.0121085
0.0636685
0.0128082
0.065186
0.0134759
0.0664572
0.0140814
0.0674671
0.014597
0.0682127
0.0150027
0.0686989
0.0152858
0.0689366
0.0154386
0.0689418
0.0154583
0.068734
0.0153466
0.0683353
0.015109
0.0677701
0.0147545
0.0670634
0.0142945
0.0662409
0.0137426
0.0653278
0.0131137
0.064348
0.0124234
0.063324
0.011687
0.0622761
0.0109199
0.0612224
0.0101359
0.0601784
0.00934808
0.0591573
0.00856773
0.0581696
0.00780461
0.0572236
0.00706683
0.0563255
0.0063609
0.0554795
0.00569181
0.0546884
0.0050632
0.0539533
0.00447748
0.0532744
0.00393604
0.0526506
0.00343939
0.0520804
0.00298736
0.00257924
0.0515615
0.0298442
0.00555037
0.0338481
0.00594444
0.0378027
0.00672901
0.0415152
0.00768259
0.0449272
0.00869617
0.0479987
0.00973651
0.0507251
0.0107493
0.0531185
0.0116878
0.0551932
0.0125221
0.0569626
0.0132332
0.0584403
0.0138079
0.0596408
0.0142379
0.06058
0.0145189
0.061275
0.0146514
0.0617444
0.0146394
0.0620085
0.0144902
0.0620885
0.0142143
0.0620065
0.0138244
0.061785
0.013335
0.0614463
0.0127619
0.0610118
0.0121213
0.0605021
0.0114293
0.0599362
0.0107017
0.0593311
0.00995291
0.0587023
0.00919632
0.0580631
0.00844366
0.0574247
0.00770505
0.0567965
0.00698892
0.056186
0.0063021
0.0555992
0.00564988
0.0550403
0.00503618
0.0545125
0.00446368
0.0540177
0.00393403
0.0535569
0.00344801
0.00300568
0.0531304
0.00766935
-0.00211916
0.0143236
-0.000710243
0.0198811
0.00117116
0.0247114
0.00285196
0.0289754
0.00443195
0.0327734
0.00593826
0.0361786
0.00734402
0.0392402
0.00862593
0.0419905
0.00977161
0.0444511
0.0107725
0.0466377
0.0116212
0.0485632
0.0123122
0.050239
0.0128429
0.0516768
0.0132135
0.0528888
0.0134272
0.0538883
0.0134905
0.0546901
0.0134123
0.05531
0.0132043
0.0557649
0.0128799
0.0560724
0.0124542
0.0562503
0.0119433
0.056316
0.0113634
0.0562869
0.0107306
0.0561792
0.0100605
0.056008
0.00936739
0.0557872
0.00866433
0.0555293
0.00796286
0.0552452
0.00727291
0.0549445
0.00660278
0.0546351
0.0059592
0.0543238
0.00534744
0.0540161
0.00477145
0.0537161
0.004234
0.0534273
0.00373686
0.00328099
0.053152
0.00130162
-0.00342094
0.00481291
-0.00422189
0.00885105
-0.0028673
0.0128231
-0.00112037
0.016593
0.000661837
0.0201369
0.0023941
0.0234589
0.0040219
0.0265687
0.00551597
0.0294749
0.00686527
0.0321829
0.00806427
0.0346957
0.00910825
0.0370145
0.00999334
0.0391399
0.0107173
0.0410732
0.01128
0.0428165
0.0116837
0.0443736
0.0119332
0.0457501
0.0120357
0.0469531
0.012001
0.0479917
0.0118411
0.0488764
0.0115694
0.0496186
0.0112009
0.0502308
0.0107511
0.0507258
0.0102355
0.0511166
0.00966962
0.051416
0.00906795
0.0516364
0.00844402
0.0517892
0.00781005
0.0518854
0.00717679
0.0519348
0.0065535
0.0519462
0.00594793
0.0519274
0.00536637
0.0518852
0.00481377
0.0518255
0.00429386
0.0517533
0.00380932
0.00336192
0.0516725
-4.47868e-05
-0.00337628
0.00102225
-0.00528922
0.0029947
-0.00484002
0.00539865
-0.00352458
0.00798552
-0.00192525
0.0106467
-0.00026733
0.0133252
0.00134324
0.0159847
0.00285639
0.0186005
0.00424926
0.0211542
0.00551045
0.0236298
0.0066326
0.0260127
0.00761029
0.02829
0.00843985
0.0304505
0.00911946
0.0324847
0.0096494
0.0343855
0.0100322
0.0361482
0.0102729
0.0377702
0.0103789
0.0392514
0.0103598
0.0405938
0.0102269
0.0418014
0.00999328
0.0428797
0.00967272
0.0438357
0.00927955
0.0446773
0.00882809
0.0454132
0.00833224
0.0460522
0.00780514
0.0466036
0.00725889
0.0470762
0.00670437
0.0474789
0.00615115
0.0478197
0.00560742
0.0481064
0.00508004
0.0483459
0.00457456
0.0485448
0.00409538
0.0487086
0.0036458
0.00322824
0.0488427
-0.000454806
-0.00292157
-0.000601143
-0.00514313
-0.000115317
-0.00532608
0.000880023
-0.00452013
0.00223713
-0.00328256
0.00385659
-0.00188698
0.00567096
-0.000471297
0.00763046
0.000896752
0.00969517
0.00218443
0.0118316
0.00337389
0.0140105
0.00445365
0.0162052
0.00541547
0.0183917
0.00625328
0.0205481
0.00696296
0.022655
0.0075424
0.0246955
0.00799166
0.0266553
0.00831312
0.0285227
0.0085115
0.0302887
0.00859373
0.031947
0.00856867
0.0334936
0.00844679
0.0349267
0.0082397
0.0362467
0.00795973
0.0374556
0.00761947
0.0385567
0.0072314
0.0395546
0.00680753
0.0404548
0.00635912
0.0412631
0.00589648
0.0419859
0.00542881
0.0426297
0.00496418
0.0432008
0.00450942
0.0437056
0.00407026
0.0441503
0.00365129
0.0445405
0.00325613