/*--------------------------------*- C++ -*----------------------------------*\
| =========                 |                                                 |
| \\      /  F ield         | OpenFOAM: The Open Source CFD Toolbox           |
|  \\    /   O peration     | Version:  2406                                  |
|   \\  /    A nd           | Website:  www.openfoam.com                      |
|    \\/     M anipulation  |                                                 |
\*---------------------------------------------------------------------------*/
FoamFile
{
    version     2.0;
    format      ascii;
    arch        "LSB;label=32;scalar=64";
    class       volScalarField;
    location    "28";
    object      p;
}
// * * * * * * * * * * * * * * * * * * * * * * * * * * * * * * * * * * * * * //

dimensions      [0 2 -2 0 0 0 0];

internalField   nonuniform List<scalar> 
1800
(
1.53522
1.49869
1.45943
1.41978
1.37788
1.33313
1.28484
1.23189
1.17285
1.09032
1.54487
1.50156
1.45913
1.41892
1.37692
1.33214
1.28433
1.23276
1.17575
1.10929
1.55128
1.50448
1.46011
1.4201
1.37887
1.33515
1.28936
1.24185
1.19315
1.1453
1.5571
1.50893
1.46363
1.4243
1.38456
1.34294
1.30044
1.25817
1.21737
1.18034
1.56321
1.51451
1.46896
1.43046
1.39233
1.35302
1.3138
1.27602
1.24083
1.20973
1.5687
1.51992
1.47469
1.43701
1.40022
1.36285
1.32623
1.29163
1.25989
1.23185
1.57238
1.52398
1.47957
1.4425
1.40653
1.37049
1.33558
1.30285
1.27288
1.24612
1.57322
1.52606
1.48286
1.446
1.41023
1.3748
1.34071
1.30875
1.27933
1.25278
1.5695
1.52566
1.48418
1.44713
1.41101
1.37553
1.34147
1.3094
1.27969
1.25265
1.55986
1.52251
1.48365
1.44656
1.40997
1.37412
1.33964
1.30702
1.27664
1.24887
1.09747
1.09678
1.0983
1.10271
1.10942
1.11769
1.1268
1.13607
1.14495
1.15297
1.15981
1.16524
1.16915
1.1715
1.17234
1.17177
1.16993
1.16696
1.16305
1.15836
1.15304
1.14724
1.14108
1.13468
1.12812
1.12149
1.11484
1.10822
1.10166
1.09519
1.08882
1.08257
1.07643
1.07041
1.06451
1.09826
1.09752
1.09895
1.10303
1.10921
1.11683
1.12526
1.13392
1.1423
1.14994
1.15652
1.16181
1.16567
1.16806
1.16902
1.16862
1.16699
1.16428
1.16063
1.1562
1.15115
1.14561
1.1397
1.13354
1.12719
1.12075
1.11427
1.1078
1.10137
1.09501
1.08873
1.08255
1.07647
1.0705
1.06464
1.09669
1.09604
1.0976
1.10172
1.10776
1.11512
1.12325
1.13161
1.13973
1.14717
1.15361
1.15881
1.16265
1.16508
1.16612
1.16584
1.16436
1.16183
1.15838
1.15417
1.14933
1.14401
1.13831
1.13234
1.12619
1.11993
1.11361
1.10728
1.10097
1.09472
1.08854
1.08244
1.07643
1.07051
1.06469
1.09147
1.09138
1.09365
1.09844
1.10499
1.1127
1.12106
1.12956
1.13773
1.14519
1.15161
1.15679
1.1606
1.163
1.16402
1.16376
1.16232
1.15984
1.15647
1.15236
1.14765
1.14245
1.1369
1.13108
1.12508
1.11896
1.11277
1.10658
1.10039
1.09425
1.08817
1.08216
1.07623
1.07038
1.06461
1.08211
1.0834
1.08727
1.09349
1.1012
1.10979
1.11877
1.12768
1.1361
1.14367
1.15011
1.15525
1.15897
1.16128
1.16221
1.16187
1.16038
1.15788
1.15452
1.15046
1.14581
1.14072
1.13528
1.12959
1.12372
1.11774
1.1117
1.10564
1.09959
1.09357
1.0876
1.08169
1.07585
1.07009
1.06439
1.068
1.07199
1.07877
1.08736
1.09689
1.10681
1.11668
1.12614
1.13485
1.14251
1.14891
1.15391
1.15746
1.15957
1.16033
1.15983
1.15822
1.15565
1.15227
1.14822
1.14363
1.13862
1.1333
1.12774
1.12202
1.1162
1.11032
1.10442
1.09852
1.09265
1.08682
1.08104
1.07531
1.06965
1.06404
1.04823
1.05704
1.06867
1.08078
1.09273
1.10428
1.11517
1.12517
1.13408
1.14171
1.14793
1.15266
1.1559
1.15771
1.15819
1.15746
1.15568
1.153
1.14957
1.14552
1.14099
1.13608
1.13088
1.12548
1.11994
1.1143
1.10861
1.1029
1.09718
1.09149
1.08582
1.08019
1.0746
1.06906
1.06357
1.01854
1.03746
1.05767
1.0746
1.08941
1.10274
1.1146
1.12499
1.1339
1.14129
1.14712
1.15141
1.1542
1.15558
1.15569
1.15467
1.15267
1.14986
1.14637
1.14234
1.13788
1.13309
1.12805
1.12284
1.11749
1.11207
1.1066
1.1011
1.0956
1.0901
1.08463
1.07917
1.07375
1.06835
1.06299
0.96227
1.01029
1.04663
1.06984
1.0877
1.10272
1.11531
1.12577
1.13436
1.14122
1.14644
1.15009
1.15227
1.15312
1.15278
1.15142
1.1492
1.14625
1.14272
1.13872
1.13435
1.12971
1.12487
1.11987
1.11476
1.10958
1.10436
1.0991
1.09383
1.08856
1.08329
1.07803
1.07278
1.06754
1.06232
0.890526
0.987397
1.04223
1.07004
1.08951
1.1052
1.11777
1.12771
1.13552
1.14151
1.14584
1.14865
1.15009
1.15032
1.14949
1.14777
1.14532
1.14225
1.1387
1.13477
1.13054
1.12608
1.12145
1.1167
1.11185
1.10694
1.10198
1.09698
1.09196
1.08693
1.08188
1.07682
1.07176
1.06669
1.06162
0.987703
1.02225
1.06075
1.08202
1.0978
1.11138
1.12239
1.13092
1.13737
1.14208
1.14525
1.14706
1.14766
1.14721
1.14588
1.14382
1.14116
1.13801
1.13448
1.13065
1.12659
1.12235
1.11797
1.11348
1.10891
1.10427
1.09959
1.09486
1.09009
1.08529
1.08046
1.07561
1.07073
1.06583
1.06091
1.05512
1.06308
1.08433
1.09879
1.11017
1.12035
1.12874
1.13511
1.1397
1.1428
1.14461
1.14529
1.145
1.14388
1.14208
1.13971
1.13689
1.13371
1.13025
1.12656
1.12269
1.11869
1.11457
1.11035
1.10606
1.10171
1.09729
1.09282
1.0883
1.08374
1.07912
1.07446
1.06976
1.06502
1.06024
1.10972
1.10396
1.11134
1.1187
1.12511
1.13109
1.13609
1.13976
1.14215
1.14344
1.14379
1.14332
1.14216
1.14042
1.1382
1.1356
1.13269
1.12953
1.12618
1.12266
1.11902
1.11526
1.11141
1.10747
1.10345
1.09936
1.0952
1.09098
1.08669
1.08233
1.07791
1.07343
1.06889
1.0643
1.05965
1.1524
1.14032
1.13831
1.13902
1.14033
1.14194
1.14332
1.1441
1.1442
1.14368
1.14262
1.14109
1.13917
1.13692
1.13439
1.13165
1.12872
1.12564
1.12243
1.11912
1.1157
1.11219
1.1086
1.10492
1.10116
1.09732
1.09339
1.08939
1.0853
1.08113
1.07688
1.07256
1.06816
1.06369
1.05915
1.18521
1.16991
1.16169
1.15684
1.15353
1.15113
1.14917
1.14728
1.14529
1.14318
1.14093
1.13855
1.13605
1.13344
1.13074
1.12795
1.12508
1.12214
1.11911
1.11601
1.11283
1.10957
1.10622
1.10278
1.09925
1.09562
1.0919
1.08808
1.08417
1.08016
1.07606
1.07187
1.06759
1.06322
1.05877
1.20866
1.19131
1.17901
1.16996
1.16294
1.15732
1.15266
1.14863
1.14502
1.1417
1.13859
1.13564
1.1328
1.13003
1.1273
1.12457
1.12184
1.11907
1.11626
1.11339
1.11044
1.10741
1.10428
1.10105
1.09772
1.09428
1.09074
1.08708
1.08331
1.07943
1.07545
1.07136
1.06717
1.06289
1.05851
1.22312
1.20429
1.18932
1.17738
1.16772
1.15983
1.15331
1.14784
1.14317
1.13913
1.13557
1.13236
1.12943
1.12668
1.12406
1.1215
1.11897
1.11643
1.11385
1.11121
1.10849
1.10567
1.10275
1.09971
1.09656
1.09328
1.08987
1.08635
1.0827
1.07892
1.07504
1.07103
1.06692
1.06269
1.05837
1.2294
1.20943
1.19277
1.17905
1.16778
1.15855
1.15101
1.14481
1.13969
1.13541
1.13178
1.12864
1.12586
1.12332
1.12094
1.11865
1.11639
1.11411
1.11179
1.10939
1.10689
1.10429
1.10156
1.09869
1.09569
1.09256
1.08928
1.08586
1.08231
1.07862
1.07481
1.07087
1.06681
1.06264
1.05835
1.22858
1.2077
1.19002
1.17534
1.16332
1.15359
1.14577
1.13951
1.13449
1.13043
1.12711
1.12432
1.12192
1.11977
1.11777
1.11585
1.11393
1.11198
1.10995
1.10782
1.10556
1.10317
1.10063
1.09794
1.09509
1.09208
1.08892
1.0856
1.08213
1.07852
1.07476
1.07088
1.06686
1.06272
1.05846
1.22406
1.20247
1.18419
1.16908
1.15685
1.1471
1.13944
1.13348
1.12885
1.12524
1.1224
1.12009
1.11816
1.11645
1.11487
1.11333
1.11177
1.11013
1.10839
1.10651
1.10448
1.10229
1.09992
1.09738
1.09466
1.09177
1.08871
1.08548
1.08208
1.07853
1.07483
1.07098
1.06699
1.06288
1.05864
1.05872
1.05304
1.04746
1.04197
1.03657
1.03125
1.02599
1.02081
1.01568
1.01061
1.05888
1.05322
1.04765
1.04217
1.03677
1.03144
1.02619
1.021
1.01587
1.01079
1.05897
1.05333
1.04778
1.04231
1.03692
1.0316
1.02634
1.02115
1.01602
1.01094
1.05893
1.05333
1.04781
1.04236
1.03699
1.03168
1.02644
1.02125
1.01612
1.01103
1.05877
1.05323
1.04775
1.04234
1.03699
1.0317
1.02647
1.02129
1.01617
1.01109
1.0585
1.05302
1.0476
1.04224
1.03693
1.03167
1.02646
1.0213
1.01618
1.0111
1.05813
1.05273
1.04738
1.04207
1.03681
1.03159
1.02641
1.02126
1.01615
1.01108
1.05766
1.05236
1.04709
1.04186
1.03665
1.03147
1.02632
1.0212
1.01611
1.01103
1.05712
1.05193
1.04676
1.0416
1.03646
1.03133
1.02622
1.02112
1.01604
1.01097
1.05654
1.05147
1.04639
1.04132
1.03624
1.03117
1.0261
1.02103
1.01596
1.0109
1.05597
1.05101
1.04603
1.04104
1.03603
1.03101
1.02598
1.02093
1.01588
1.01082
1.05542
1.05057
1.04569
1.04077
1.03583
1.03086
1.02586
1.02085
1.01581
1.01075
1.05494
1.05019
1.04539
1.04054
1.03566
1.03073
1.02577
1.02077
1.01575
1.01069
1.05455
1.04988
1.04515
1.04036
1.03553
1.03064
1.0257
1.02073
1.01571
1.01065
1.05425
1.04965
1.04497
1.04024
1.03544
1.03058
1.02567
1.02071
1.0157
1.01064
1.05405
1.0495
1.04487
1.04017
1.03541
1.03057
1.02568
1.02072
1.01572
1.01066
1.05395
1.04944
1.04485
1.04018
1.03543
1.03061
1.02572
1.02078
1.01577
1.01072
1.05397
1.04948
1.04491
1.04025
1.03552
1.0307
1.02582
1.02088
1.01588
1.01082
1.0541
1.04963
1.04507
1.04041
1.03568
1.03087
1.02599
1.02104
1.01603
1.01097
1.05429
1.04983
1.04527
1.04062
1.03589
1.03107
1.02619
1.02123
1.01622
1.01115
1.00559
1.00061
0.995684
0.990797
0.985952
0.981152
0.976396
0.971689
0.967036
0.962443
0.957917
0.953469
0.949109
0.944852
0.940712
0.936708
0.93286
0.929189
0.925719
0.922477
0.919491
0.916788
0.9144
0.912356
0.910691
0.909442
0.908656
0.908398
0.908757
0.909846
0.91179
0.914652
0.918295
0.922085
0.924748
1.00576
1.00079
0.995854
0.990968
0.986127
0.981333
0.976588
0.971897
0.967264
0.962696
0.958203
0.953793
0.949481
0.94528
0.941207
0.937281
0.933523
0.929957
0.926609
0.923507
0.920681
0.918162
0.915982
0.914174
0.91277
0.911805
0.911315
0.911342
0.911937
0.91316
0.91507
0.917687
0.920943
0.924505
0.927381
1.00591
1.00093
0.995994
0.991107
0.986268
0.981478
0.97674
0.972059
0.96744
0.962891
0.958421
0.954042
0.949765
0.945607
0.941586
0.937721
0.934036
0.930556
0.927308
0.924324
0.921635
0.919275
0.91728
0.915682
0.914515
0.913808
0.913586
0.913869
0.914678
0.916031
0.917949
0.920471
0.923688
0.927697
0.931586
1.006
1.00102
0.996081
0.99119
0.986347
0.981553
0.976812
0.972128
0.967508
0.962959
0.958491
0.954116
0.949846
0.945698
0.94169
0.937844
0.934182
0.930732
0.927523
0.924586
0.921957
0.919672
0.917767
0.916278
0.915238
0.914673
0.914602
0.915032
0.915966
0.917406
0.919378
0.921969
0.925502
0.930575
0.936104
1.00605
1.00106
0.996118
0.991217
0.986362
0.981554
0.976797
0.972096
0.967458
0.962889
0.958398
0.953999
0.949703
0.945528
0.94149
0.937612
0.933916
0.930431
0.927186
0.924214
0.92155
0.919232
0.917299
0.915786
0.914729
0.914153
0.914074
0.914497
0.915419
0.916844
0.918808
0.921474
0.925439
0.931877
0.939484
1.00606
1.00107
0.996108
0.99119
0.986314
0.981481
0.976696
0.971962
0.967285
0.962672
0.958133
0.953678
0.94932
0.945075
0.940959
0.936992
0.933198
0.929603
0.926235
0.923127
0.920313
0.91783
0.915716
0.914008
0.912738
0.911933
0.91161
0.911774
0.912423
0.91357
0.915268
0.917765
0.92194
0.929827
0.939753
1.00604
1.00103
0.996056
0.991114
0.986208
0.981339
0.97651
0.971725
0.96699
0.96231
0.957694
0.953151
0.948693
0.944333
0.940087
0.935972
0.932009
0.928221
0.924634
0.921277
0.918181
0.915379
0.912902
0.910784
0.909052
0.907726
0.906818
0.906328
0.906253
0.906604
0.907452
0.90909
0.912845
0.921817
0.933821
1.00599
1.00097
0.995968
0.990996
0.986051
0.981135
0.976249
0.971397
0.966584
0.961815
0.957096
0.952434
0.947839
0.943322
0.938895
0.934572
0.93037
0.926307
0.922404
0.918683
0.915168
0.91188
0.908844
0.906077
0.903591
0.901388
0.899455
0.897763
0.896274
0.894962
0.893852
0.893286
0.895009
0.904192
0.91878
1.00592
1.00088
0.995854
0.990846
0.985855
0.980882
0.975928
0.970997
0.96609
0.961212
0.956367
0.95156
0.946797
0.942085
0.937433
0.932851
0.928348
0.923937
0.919629
0.915438
0.911374
0.907446
0.903657
0.900003
0.896465
0.893002
0.889542
0.885977
0.882152
0.877884
0.872991
0.867553
0.863472
0.869608
0.893645
1.00583
1.00078
0.995724
0.990676
0.985633
0.980597
0.975568
0.970547
0.965536
0.960536
0.955549
0.950577
0.945624
0.94069
0.935781
0.9309
0.926049
0.921231
0.91645
0.911703
0.906987
0.902289
0.897589
0.892846
0.887995
0.882926
0.877468
0.871353
0.864174
0.855319
0.843891
0.828669
0.809061
0.791327
0.803817
1.00575
1.00067
0.995588
0.990498
0.985403
0.980301
0.975193
0.970079
0.964958
0.959829
0.954693
0.949547
0.94439
0.939221
0.934037
0.928834
0.923607
0.91835
0.913052
0.907697
0.902264
0.896716
0.891002
0.885041
0.878709
0.871815
0.864057
0.854955
0.843718
0.829011
0.808452
0.777576
0.727698
0.6412
0.483357
1.00567
1.00057
0.995459
0.990328
0.98518
0.980014
0.974828
0.969622
0.964393
0.959137
0.953853
0.948534
0.943175
0.93777
0.932309
0.926783
0.921177
0.915473
0.909649
0.903674
0.897506
0.891086
0.884331
0.87712
0.869278
0.860537
0.850487
0.838485
0.823495
0.803796
0.776465
0.73642
0.675051
0.578989
0.440516
1.0056
1.00049
0.995347
0.990178
0.984982
0.979756
0.974499
0.969207
0.963878
0.958505
0.953082
0.947602
0.942055
0.936429
0.930709
0.924878
0.918912
0.912786
0.906462
0.899896
0.893027
0.885775
0.87803
0.869642
0.860391
0.849966
0.8379
0.823499
0.805694
0.78284
0.752409
0.710605
0.652198
0.571147
0.466411
1.00556
1.00043
0.995262
0.990061
0.984822
0.979545
0.974226
0.968862
0.963446
0.957971
0.95243
0.94681
0.9411
0.935281
0.929335
0.923238
0.916958
0.910459
0.903694
0.896605
0.889116
0.88113
0.872516
0.863101
0.852645
0.840817
0.827145
0.810959
0.791292
0.766761
0.735422
0.694671
0.641387
0.572548
0.488112
1.00554
1.0004
0.995212
0.989984
0.984713
0.979395
0.974028
0.968606
0.963122
0.957568
0.951933
0.946204
0.940365
0.934395
0.92827
0.921959
0.915428
0.908631
0.901511
0.894
0.886011
0.877432
0.86812
0.857887
0.846487
0.833587
0.818742
0.801342
0.780565
0.7553
0.724109
0.685216
0.636721
0.577135
0.507088
1.00556
1.0004
0.995204
0.989957
0.984662
0.979316
0.973915
0.968453
0.962923
0.957315
0.951616
0.945812
0.939885
0.933811
0.927562
0.921106
0.9144
0.907394
0.900026
0.892218
0.883873
0.874873
0.865064
0.854254
0.842194
0.828564
0.812949
0.794813
0.773466
0.748038
0.717472
0.680577
0.636216
0.583712
0.523746
1.00561
1.00045
0.995241
0.989983
0.984675
0.979313
0.973892
0.968409
0.962854
0.957217
0.951485
0.945644
0.939671
0.933544
0.927233
0.920701
0.913904
0.906789
0.899287
0.891319
0.882779
0.873546
0.863458
0.852324
0.839892
0.825861
0.809837
0.791349
0.769803
0.744508
0.714663
0.679451
0.638152
0.590447
0.536827
1.00571
1.00054
0.99533
0.990067
0.984754
0.979386
0.973961
0.968473
0.962914
0.957274
0.95154
0.945695
0.939721
0.933591
0.927278
0.920742
0.913942
0.906817
0.899305
0.891317
0.882754
0.873483
0.863351
0.852154
0.839656
0.825547
0.809468
0.790965
0.76952
0.744521
0.715327
0.68129
0.64191
0.596972
0.546827
1.00585
1.00069
0.995473
0.99021
0.984898
0.979535
0.974118
0.968641
0.963097
0.957477
0.951769
0.945956
0.940021
0.933939
0.927682
0.921215
0.914494
0.907466
0.900065
0.892209
0.883796
0.874703
0.864772
0.85381
0.841574
0.827769
0.812031
0.793926
0.772938
0.748492
0.719969
0.686775
0.648435
0.604744
0.555933
1.00603
1.00086
0.995647
0.990385
0.985078
0.979723
0.974319
0.96886
0.96334
0.95775
0.95208
0.946315
0.940438
0.934427
0.928256
0.921892
0.915294
0.908414
0.901188
0.893541
0.885376
0.876575
0.866986
0.856423
0.844649
0.831372
0.816227
0.798776
0.778493
0.75478
0.726987
0.694472
0.656699
0.613385
0.564677
0.141208
0.13527
0.159926
0.154781
0.140691
0.123323
0.101966
0.0767965
0.0486532
0.0176962
0.262266
0.201862
0.188338
0.171204
0.150331
0.128342
0.104317
0.0777059
0.0485783
0.0174131
0.342381
0.265499
0.226169
0.19548
0.166321
0.138341
0.110229
0.0809112
0.0498701
0.017572
0.393079
0.318204
0.266622
0.225339
0.188162
0.153588
0.120259
0.0869676
0.0528342
0.018122
0.430854
0.362177
0.305711
0.257178
0.213096
0.172096
0.133093
0.0950671
0.0570261
0.0190485
0.45909
0.396118
0.338543
0.285841
0.236707
0.190396
0.146264
0.103627
0.0615929
0.0201551
0.478973
0.420119
0.362887
0.308069
0.255648
0.205489
0.157384
0.110982
0.0655585
0.0211096
0.492535
0.436009
0.379138
0.323133
0.268606
0.215883
0.165061
0.116044
0.0682295
0.0217049
0.502814
0.446796
0.389505
0.332305
0.276157
0.221651
0.169085
0.118476
0.0693248
0.0218947
0.511301
0.454586
0.396176
0.337599
0.280017
0.224186
0.170495
0.118991
0.0693865
0.0218655
)
;

boundaryField
{
    inlet
    {
        type            zeroGradient;
    }
    outlet
    {
        type            fixedValue;
        value           uniform 0;
    }
    upperWall
    {
        type            zeroGradient;
    }
    lowerWall
    {
        type            zeroGradient;
    }
    frontAndBack
    {
        type            empty;
    }
}


// ************************************************************************* //
