/*--------------------------------*- C++ -*----------------------------------*\
| =========                 |                                                 |
| \\      /  F ield         | OpenFOAM: The Open Source CFD Toolbox           |
|  \\    /   O peration     | Version:  2406                                  |
|   \\  /    A nd           | Website:  www.openfoam.com                      |
|    \\/     M anipulation  |                                                 |
\*---------------------------------------------------------------------------*/
FoamFile
{
    version     2.0;
    format      ascii;
    arch        "LSB;label=32;scalar=64";
    class       surfaceScalarField;
    location    "28";
    object      phi;
}
// * * * * * * * * * * * * * * * * * * * * * * * * * * * * * * * * * * * * * //

dimensions      [0 3 -1 0 0 0 0];

oriented        oriented;

internalField   nonuniform List<scalar> 
3480
(
0.0193528
-0.000352772
0.0197399
-0.000387148
0.020089
-0.000349103
0.0204769
-0.000387842
0.0209686
-0.00049174
0.021647
-0.000678431
0.0226644
-0.00101744
0.0243195
-0.00165506
0.0273743
-0.00305487
-0.0072985
0.0346727
0.0509948
-0.000347617
0.0512772
-0.000669531
0.0517381
-0.000809993
0.0523493
-0.000999064
0.0531547
-0.00129715
0.0542317
-0.00175542
0.055701
-0.00248681
0.0577476
-0.0037017
0.0605259
-0.00583334
-0.00977364
0.063001
0.0749812
-0.00032886
0.07511
-0.000798356
0.0754344
-0.00113441
0.0759355
-0.00150013
0.0766217
-0.0019834
0.0775207
-0.00265443
0.078659
-0.00362518
0.0800226
-0.00506539
0.0814086
-0.0072193
-0.0103891
0.082024
0.0909759
-0.000304742
0.0909928
-0.000815311
0.0911226
-0.00126425
0.0913695
-0.0017471
0.0917248
-0.00233867
0.0921768
-0.00310642
0.0926897
-0.00413816
0.0931668
-0.00554253
0.093381
-0.00743351
-0.00988204
0.092874
0.0989512
-0.000255924
0.0988631
-0.000727254
0.0987975
-0.00119871
0.0987635
-0.00171312
0.098742
-0.00231717
0.0987006
-0.003065
0.098579
-0.00401663
0.0982679
-0.00523143
0.097586
-0.0067516
-0.0085654
0.0962694
0.0989139
-0.000169794
0.0987219
-0.000535321
0.0984851
-0.000961869
0.0982063
-0.00143434
0.0978577
-0.00196863
0.0973979
-0.0026051
0.0967621
-0.00338086
0.0958534
-0.0043227
0.0945402
-0.00543835
-0.00669483
0.0926697
0.0908696
-3.94133e-05
0.0905936
-0.000259303
0.0902416
-0.000609856
0.0897999
-0.000992602
0.0892322
-0.00140092
0.0884945
-0.00186747
0.0875274
-0.00241372
0.0862535
-0.00304871
0.0845833
-0.00376816
-0.00454287
0.0824314
0.0748276
0.000132972
0.0745381
3.02143e-05
0.0741764
-0.000248166
0.0736964
-0.000512546
0.0730598
-0.000764302
0.0722285
-0.00103617
0.0711552
-0.0013404
0.0697857
-0.00167925
0.068066
-0.00204837
-0.00243106
0.0659542
0.0508459
0.000287092
0.0507115
0.000164645
0.050486
-2.27325e-05
0.0501156
-0.00014214
0.0495872
-0.000235874
0.0488808
-0.000329761
0.0479697
-0.000429287
0.0468252
-0.000534735
0.0454217
-0.000644848
-0.000754872
0.0437455
0.0192871
0.0194517
0.019429
0.0192869
0.019051
0.0187212
0.018292
0.0177572
0.0171124
0.0163575
-0.000143703
0.000143702
-0.000468226
0.000324515
-0.000827054
0.000358827
-0.00111132
0.000284275
-0.0012656
0.000154286
-0.00127135
5.77277e-06
-0.00113287
-0.000138441
-0.000867362
-0.000265449
-0.000498535
-0.000368753
-5.24089e-05
-0.000446032
0.000445318
-0.000497616
0.000970924
-0.000525479
0.00150368
-0.000532615
0.00202637
-0.000522541
0.00252544
-0.00049891
0.00299086
-0.00046526
0.00341585
-0.000424829
0.00379645
-0.000380447
0.00413107
-0.000334474
0.00442
-0.000288799
0.00466497
-0.000244854
0.00486873
-0.000203665
0.00503471
-0.000165896
0.00516669
-0.000131928
0.00526863
-0.000101899
0.00534442
-7.57781e-05
0.00539781
-5.3402e-05
0.00543231
-3.45251e-05
0.00545112
-1.88452e-05
0.0054571
-6.03799e-06
0.0054528
4.23103e-06
0.00544043
1.22849e-05
0.00542191
1.84347e-05
0.00539885
2.29661e-05
2.61426e-05
0.00537261
-0.0003547
0.000498387
-0.00101328
0.000983102
-0.00167697
0.00102253
-0.00214807
0.000755406
-0.00232339
0.000329662
-0.00217078
-0.000146754
-0.00170391
-0.000605193
-0.000963086
-0.00100611
-1.66891e-06
-0.00132996
0.00112274
-0.00157019
0.00235387
-0.00172846
0.00364036
-0.00181165
0.00493755
-0.00182945
0.00620835
-0.00179297
0.00742342
-0.0017136
0.00856082
-0.00160229
0.00960543
-0.00146906
0.010548
-0.00132268
0.0113844
-0.00117054
0.0121146
-0.00101862
0.0127415
-0.000871525
0.0132707
-0.000732636
0.0137092
-0.000604252
0.0140652
-0.00048776
0.0143472
-0.000383809
0.0145639
-0.00029247
0.0147238
-0.000213387
0.0148351
-0.000145897
0.0149053
-8.91393e-05
0.0149413
-4.21379e-05
0.0149492
-3.86771e-06
0.0149346
2.66987e-05
0.0149023
5.05556e-05
0.0148564
6.86444e-05
8.18371e-05
0.0148005
-0.000461278
0.000959679
-0.0012324
0.00175423
-0.00191675
0.00170691
-0.00228857
0.00112728
-0.00224571
0.000286864
-0.00177007
-0.000622315
-0.000895147
-0.00148001
0.000317464
-0.00221858
0.00179401
-0.00280634
0.00345872
-0.0032347
0.00524005
-0.00350956
0.00707391
-0.00364525
0.00890544
-0.0036607
0.0106895
-0.00357679
0.0123908
-0.00341456
0.0139828
-0.00319403
0.0154475
-0.00293338
0.0167736
-0.00264853
0.0179562
-0.00235289
0.0189952
-0.00205737
0.0198944
-0.0017705
0.0206606
-0.0014986
0.0213025
-0.00124606
0.0218305
-0.00101564
0.0222556
-0.000808741
0.0225888
-0.000625704
0.0228415
-0.000466049
0.0230243
-0.000328705
0.0231473
-0.000212195
0.0232199
-0.000114791
0.0232505
-3.46371e-05
0.0232469
3.01596e-05
0.0232159
8.14607e-05
0.0231633
0.000121049
0.000150602
0.0230944
-0.000485533
0.0014452
-0.00118652
0.00245525
-0.00165243
0.00217285
-0.001675
0.00114988
-0.00119421
-0.000193877
-0.000232786
-0.00158367
0.00114348
-0.0028562
0.00285031
-0.0039253
0.0047996
-0.0047555
0.00690764
-0.0053426
0.00909918
-0.00570094
0.0113094
-0.00585526
0.0134843
-0.00583543
0.0155808
-0.00567309
0.0175658
-0.00539931
0.0194152
-0.00504321
0.021113
-0.00463098
0.0226501
-0.00418541
0.0240231
-0.00372566
0.0252332
-0.00326732
0.0262855
-0.00282261
0.0271877
-0.00240063
0.0279496
-0.0020078
0.0285823
-0.00164818
0.0290976
-0.00132394
0.0295076
-0.0010357
0.0298245
-0.000782903
0.0300599
-0.000564095
0.0302249
-0.000377219
0.0303299
-0.000219814
0.0303844
-8.91979e-05
0.0303971
1.7402e-05
0.0303757
0.00010274
0.0303271
0.000169484
0.000220166
0.0302574
-0.000446414
0.00189164
-0.000893218
0.002902
-0.000887596
0.00216723
-0.000302401
0.000564688
0.000835843
-0.00133211
0.00243991
-0.00318772
0.00440413
-0.00482037
0.00662431
-0.00614544
0.00900627
-0.00713738
0.0114687
-0.00780498
0.0139438
-0.00817594
0.0163764
-0.00828771
0.0187229
-0.00818181
0.0209503
-0.0079003
0.0230345
-0.0074834
0.0249596
-0.0069681
0.026716
-0.00638726
0.0283
-0.0057692
0.0297121
-0.00513761
0.0309566
-0.00451164
0.0320404
-0.00390626
0.0329725
-0.0033326
0.0337633
-0.0027985
0.0344241
-0.00230892
0.0349668
-0.0018665
0.0354031
-0.00147197
0.0357449
-0.00112461
0.0360034
-0.000822585
0.0361894
-0.000563286
0.0363132
-0.000343587
0.036384
-0.000160056
0.0364105
-9.12493e-06
0.0364004
0.000112776
0.0363606
0.00020913
0.000283265
0.0362974
-0.000323931
0.00221551
-0.000274325
0.00285235
0.00051653
0.00137631
0.00199922
-0.000918051
0.00401088
-0.00334381
0.00638698
-0.00556384
0.00898791
-0.00742131
0.0117024
-0.00885989
0.0144444
-0.00987943
0.0171489
-0.0105094
0.0197668
-0.0107938
0.0222625
-0.0107833
0.0246105
-0.0105298
0.0267941
-0.0100838
0.0288035
-0.00949272
0.0306345
-0.00879897
0.0322873
-0.0080399
0.0337654
-0.00724727
0.0350753
-0.00644737
0.0362251
-0.00566129
0.0372243
-0.00490533
0.0380833
-0.00419149
0.038813
-0.0035281
0.0394245
-0.00292034
0.0399288
-0.00237079
0.0403369
-0.00187999
0.0406592
-0.00144685
0.0409057
-0.00106906
0.0410859
-0.000743491
0.0412087
-0.000466402
0.0412823
-0.000233726
0.0413144
-4.12341e-05
0.0413118
0.00011532
0.0412808
0.00024009
0.000337063
0.0412269
-2.28228e-05
0.00223831
0.000922466
0.00190693
0.00292577
-0.000627119
0.00561919
-0.00361158
0.00867433
-0.00639903
0.0118707
-0.00876028
0.0150663
-0.010617
0.0181714
-0.011965
0.0211307
-0.0128388
0.0239113
-0.01329
0.0264947
-0.0133772
0.0288721
-0.0131607
0.0310419
-0.0126995
0.0330071
-0.0120491
0.0347747
-0.0112603
0.0363539
-0.0103781
0.0377556
-0.00944152
0.0389916
-0.00848323
0.0400742
-0.00752995
0.0410158
-0.00660276
0.0418282
-0.00571771
0.0425231
-0.00488636
0.0431116
-0.00411648
0.0436039
-0.00341265
0.04401
-0.00277683
0.044339
-0.00220893
0.0445994
-0.00170725
0.0447993
-0.00126893
0.0449461
-0.000890262
0.0450466
-0.000566973
0.0451074
-0.000294476
0.0451341
-6.80341e-05
0.0451323
0.000117099
0.0451068
0.000265561
0.000381814
0.045062
0.000697327
0.0015409
0.00330592
-0.000701851
0.00708659
-0.00440794
0.0112331
-0.0077582
0.0153383
-0.0105044
0.019221
-0.0126431
0.0228041
-0.0142001
0.0260617
-0.0152228
0.0289938
-0.015771
0.0316129
-0.0159091
0.0339373
-0.0157017
0.0359888
-0.0152122
0.0377899
-0.0145006
0.0393638
-0.013623
0.0407332
-0.0126296
0.0419197
-0.0115646
0.0429439
-0.0104657
0.0438246
-0.00936392
0.044579
-0.00828428
0.0452223
-0.00724609
0.0457682
-0.0062636
0.0462286
-0.00534674
0.0466139
-0.00450175
0.0469332
-0.00373188
0.0471943
-0.00303794
0.0474042
-0.00241884
0.0475691
-0.0018721
0.0476943
-0.00139415
0.0477848
-0.000980744
0.0478449
-0.000627143
0.0478788
-0.000328367
0.0478901
-7.93384e-05
0.0478822
0.000124997
0.0478581
0.000289559
0.000419076
0.0478208
0.0027573
-0.00121647
0.00843129
-0.00637604
0.0143782
-0.010355
0.0198044
-0.0131846
0.0245657
-0.0152658
0.0286817
-0.0167593
0.0322126
-0.0177311
0.0352245
-0.0182348
0.0377797
-0.0183264
0.0399352
-0.0180646
0.041742
-0.0175087
0.043247
-0.0167172
0.0444922
-0.015746
0.0455161
-0.0146469
0.0463529
-0.0134665
0.0470332
-0.012245
0.0475837
-0.0110163
0.0480276
-0.00980785
0.0483845
-0.00864115
0.0486706
-0.00753225
0.0488995
-0.00649253
0.0490821
-0.00552932
0.049227
-0.00464668
0.0493411
-0.003846
0.0494298
-0.0031266
0.0494971
-0.00248621
0.0495464
-0.00192141
0.0495802
-0.00142797
0.0496006
-0.00100111
0.0496092
-0.000635761
0.0496075
-0.00032669
0.0495968
-6.86563e-05
0.0495783
0.000143501
0.0495531
0.000314778
0.000449957
0.0495222
0.0112389
-0.0124555
0.0200719
-0.0152092
0.0268472
-0.0171305
0.0322457
-0.0185833
0.0365951
-0.0196154
0.0401059
-0.0202702
0.042931
-0.0205563
0.0451856
-0.0204895
0.0469611
-0.0201021
0.0483342
-0.0194378
0.0493711
-0.0185456
0.0501299
-0.0174761
0.0506623
-0.0162784
0.0510135
-0.0149982
0.051223
-0.0136761
0.0513246
-0.0123466
0.0513466
-0.0110384
0.0513126
-0.00977392
0.0512414
-0.00857005
0.0511479
-0.0074388
0.0510433
-0.00638798
0.0509359
-0.00542192
0.0508313
-0.00454216
0.0507334
-0.00374807
0.0506441
-0.0030374
0.0505646
-0.00240668
0.0504948
-0.00185163
0.0504342
-0.00136743
0.050382
-0.00094895
0.0503372
-0.000590909
0.0502985
-0.000288017
0.0502649
-3.50615e-05
0.0502354
0.00017303
0.050209
0.000341123
0.000473862
0.0501851
0.0375987
-0.0153817
0.0414378
-0.0190484
0.0449886
-0.0206814
0.0480452
-0.02164
0.0505642
-0.0221345
0.0525413
-0.0222475
0.0540167
-0.0220319
0.0550502
-0.021523
0.0557052
-0.0207572
0.0560441
-0.0197768
0.0561259
-0.0186276
0.0560055
-0.0173558
0.0557323
-0.0160053
0.0553497
-0.0146157
0.0548951
-0.0132216
0.0543998
-0.0118514
0.0538891
-0.0105278
0.0533829
-0.00926777
0.0528961
-0.00808336
0.0524395
-0.00698228
0.0520202
-0.00596872
0.0516422
-0.005044
0.0513072
-0.00420728
0.0510152
-0.00345607
0.0507645
-0.00278673
0.0505526
-0.00219483
0.0503763
-0.00167543
0.0502322
-0.00122337
0.0501166
-0.000833343
0.0500258
-0.000500107
0.0499563
-0.00021851
0.0499048
1.64382e-05
0.0498684
0.000209522
0.0498442
0.000365296
0.000488084
0.04983
0.062953
-0.0153337
0.062984
-0.0190795
0.0633442
-0.0210417
0.0637546
-0.0220505
0.0640527
-0.0224327
0.064143
-0.0223378
0.0639859
-0.0218749
0.0635844
-0.0211216
0.0629654
-0.0201383
0.0621674
-0.0189788
0.0612334
-0.0176936
0.0602063
-0.0163288
0.0591265
-0.0149255
0.0580293
-0.0135186
0.0569447
-0.0121371
0.0558968
-0.0108036
0.054904
-0.00953508
0.0539795
-0.00834337
0.0531319
-0.00723588
0.052366
-0.00621644
0.0516832
-0.00528601
0.0510825
-0.0044434
0.050561
-0.00368582
0.0501142
-0.00300937
0.0497368
-0.00240946
0.049423
-0.00188106
0.0491665
-0.00141895
0.048961
-0.00101792
0.0488005
-0.000672789
0.0486789
-0.00037858
0.0485909
-0.000130496
0.0485314
7.60293e-05
0.0484956
0.000245322
0.0484795
0.000381465
0.000488314
0.0484793
0.0810035
-0.0143132
0.0793848
-0.0174608
0.077755
-0.0194119
0.0761693
-0.0204648
0.0745896
-0.0208529
0.0729719
-0.0207202
0.0712862
-0.0201892
0.0695257
-0.0193611
0.0677034
-0.018316
0.0658444
-0.0171197
0.0639789
-0.0158282
0.0621385
-0.0144884
0.0603521
-0.0131391
0.0586446
-0.0118112
0.0570359
-0.0105284
0.0555404
-0.00930815
0.0541675
-0.00816223
0.052922
-0.00709794
0.0518049
-0.00611884
0.050814
-0.00522563
0.0499447
-0.00441686
0.0491908
-0.00368953
0.0485445
-0.00303963
0.0479975
-0.00246247
0.0475411
-0.00195306
0.0471662
-0.00150626
0.0468642
-0.001117
0.0466266
-0.000780324
0.0464453
-0.000491511
0.0463128
-0.00024607
0.0462221
-3.9768e-05
0.0461668
0.00013137
0.0461411
0.000271066
0.0461398
0.00038281
0.00046988
0.0461583
0.0912291
-0.0126683
0.0888375
-0.0150692
0.0861381
-0.0167125
0.0833172
-0.0176439
0.0804503
-0.017986
0.0775757
-0.0178456
0.0747149
-0.0173284
0.0718871
-0.0165333
0.069115
-0.0155439
0.0664241
-0.0144289
0.0638402
-0.0132443
0.0613865
-0.0120347
0.0590824
-0.010835
0.0569423
-0.00967113
0.0549755
-0.00856164
0.0531863
-0.00751899
0.0515746
-0.00655066
0.0501369
-0.00566027
0.0488665
-0.00484852
0.0477548
-0.00411398
0.0467916
-0.00345372
0.0459658
-0.00286382
0.0452659
-0.00233981
0.0446803
-0.00187692
0.0441975
-0.00147032
0.0438064
-0.00111526
0.0434966
-0.000807174
0.043258
-0.000541744
0.0430814
-0.000314913
0.0429582
-0.0001229
0.0428807
3.7806e-05
0.0428416
0.000170466
0.0428347
0.000278102
0.042854
0.000363536
0.0004294
0.0428946
0.0941112
-0.0105099
0.0912601
-0.0122181
0.0879858
-0.0134381
0.0844783
-0.0141363
0.080861
-0.0143686
0.0772236
-0.0142082
0.0736321
-0.0137368
0.0701358
-0.0130369
0.0667743
-0.0121823
0.0635796
-0.0112341
0.0605764
-0.010241
0.0577828
-0.00924103
0.0552099
-0.0082621
0.0528629
-0.00732412
0.0507415
-0.00644028
0.048841
-0.00561851
0.0471531
-0.00486277
0.0456668
-0.00417405
0.0443695
-0.00355126
0.0432473
-0.00299184
0.0422859
-0.00249236
0.0414709
-0.00204884
0.0407881
-0.00165705
0.0402238
-0.00131273
0.0397652
-0.00101172
0.0393999
-0.000750053
0.0391167
-0.00052399
0.038905
-0.000330068
0.0387552
-0.00016508
0.0386584
-2.60881e-05
0.0386067
8.96141e-05
0.0385927
0.000184503
0.03861
0.000260872
0.0386528
0.000320839
0.000366381
0.0387159
0.0901407
-0.00798088
0.0870228
-0.00910005
0.0834844
-0.00989964
0.0796871
-0.0103388
0.0757631
-0.0104444
0.0718216
-0.0102666
0.06795
-0.00986507
0.064215
-0.00930185
0.060666
-0.00863319
0.0573378
-0.0079058
0.0542532
-0.00715634
0.0514245
-0.00641231
0.0488557
-0.0056933
0.0465441
-0.00501243
0.0444815
-0.00437774
0.0426564
-0.00379342
0.0410545
-0.00326084
0.0396599
-0.00277945
0.0384559
-0.00234737
0.0374259
-0.00196189
0.0365534
-0.00161984
0.0358223
-0.00131786
0.0352178
-0.00105252
0.0347255
-0.000820499
0.0343324
-0.000618634
0.0340263
-0.00044397
0.0337961
-0.000293775
0.0336316
-0.000165555
0.0335236
-5.70296e-05
0.0334637
3.3867e-05
0.0334443
0.000109017
0.0334587
0.000170137
0.0335009
0.000218801
0.0335654
0.00025646
0.00028446
0.0336474
0.0797549
-0.00530438
0.0766038
-0.00594888
0.0730974
-0.00639315
0.06937
-0.00661135
0.0655455
-0.00661984
0.0617315
-0.00645256
0.0580163
-0.00614978
0.0544669
-0.00575235
0.0511306
-0.00529689
0.0480381
-0.00481322
0.0452059
-0.00432414
0.0426397
-0.00384607
0.0403366
-0.00339026
0.0382879
-0.00296369
0.0364804
-0.00257023
0.0348983
-0.0022114
0.0335246
-0.00188712
0.0323413
-0.00159625
0.0313309
-0.00133699
0.0304762
-0.00110718
0.0297607
-0.000904467
0.0291693
-0.000726479
0.0286877
-0.000570911
0.0283028
-0.000435554
0.0280025
-0.000318375
0.0277761
-0.000217481
0.0276135
-0.000131172
0.0275059
-5.78878e-05
0.0274452
3.75505e-06
0.0274241
5.50238e-05
0.0274362
9.70443e-05
0.0274756
0.000130854
0.0275372
0.000157386
0.0276163
0.000177509
0.000192018
0.0277089
0.0634426
-0.00279281
0.0605796
-0.0030858
0.0574592
-0.00327278
0.0541917
-0.00334378
0.0508819
-0.00331003
0.047621
-0.00319156
0.0444818
-0.00301061
0.041518
-0.00278858
0.0387651
-0.00254395
0.0362431
-0.00229123
0.03396
-0.00204102
0.0319145
-0.00180062
0.0300989
-0.00157469
0.028501
-0.00136588
0.0271061
-0.00117535
0.0258979
-0.00100326
0.0248598
-0.000849054
0.0239753
-0.0007118
0.0232285
-0.000590313
0.0226046
-0.000483313
0.0220897
-0.000389491
0.0216707
-0.00030758
0.0213362
-0.000236369
0.0210754
-0.000174744
0.0208788
-0.000121675
0.0207376
-7.624e-05
0.0206441
-3.7597e-05
0.0205914
-5.00604e-06
0.020573
2.22057e-05
0.0205836
4.46294e-05
0.020618
6.28048e-05
0.0206718
7.72116e-05
0.0207411
8.82914e-05
0.0208223
9.64453e-05
0.000102047
0.0209125
0.0418073
-0.000854577
0.0396516
-0.000930057
0.03735
-0.00097123
0.0349832
-0.000976888
0.0326254
-0.00095225
0.0303385
-0.000904692
0.0281694
-0.000841504
0.0261501
-0.000769207
0.0242992
-0.000693055
0.0226248
-0.00061694
0.0211273
-0.000543489
0.019801
-0.000474388
0.0186369
-0.000410574
0.0176234
-0.00035249
0.0167482
-0.000300184
0.0159984
-0.000253491
0.0153614
-0.00021208
0.0148251
-0.000175568
0.0143783
-0.000143516
0.0140105
-0.00011551
0.0137121
-9.1126e-05
0.0134745
-6.99876e-05
0.0132899
-5.1728e-05
0.0131512
-3.60338e-05
0.0130522
-2.26043e-05
0.0129872
-1.11905e-05
0.0129512
-1.55358e-06
0.0129398
6.49952e-06
0.012949
1.31572e-05
0.0129752
1.85686e-05
0.0130152
2.28834e-05
0.0130664
2.62195e-05
0.0131261
2.87e-05
0.0131923
3.04219e-05
3.1491e-05
0.013263
0.0155029
0.0145729
0.0136016
0.0126248
0.0116725
0.0107678
0.00992632
0.00915711
0.00846405
0.00784711
0.00730362
0.00682922
0.00641865
0.00606615
0.00576596
0.00551246
0.00530038
0.00512481
0.00498129
0.00486578
0.00477465
0.00470466
0.00465294
0.00461691
0.00459431
0.00458313
0.00458158
0.00458809
0.00460126
0.00461985
0.00464275
0.00466899
0.0046977
0.00472814
0.00475965
0.00534432
2.81983e-05
0.00531488
2.93446e-05
0.00528503
2.97663e-05
0.00525532
2.96281e-05
0.00522617
2.90739e-05
0.00519788
2.82313e-05
0.00517061
2.72124e-05
0.00514444
2.61172e-05
0.00511937
2.50348e-05
2.40461e-05
0.0050953
0.0147375
9.09307e-05
0.01467
9.66459e-05
0.0145999
9.96287e-05
0.0145289
0.000100457
0.0144582
9.96427e-05
0.0143886
9.76447e-05
0.0143208
9.4869e-05
0.0142551
9.16809e-05
0.0141917
8.84072e-05
8.53464e-05
0.0141303
0.0230135
0.000171668
0.0229243
0.000185664
0.0228298
0.000193875
0.0227327
0.000197461
0.0226347
0.000197461
0.0225374
0.000194812
0.0224418
0.000190351
0.0223485
0.000184835
0.0222579
0.000178948
0.000173311
0.0221699
0.0301718
0.000257152
0.0300747
0.000282625
0.0299699
0.000298586
0.0298603
0.000306855
0.0297486
0.00030908
0.0296365
0.000306754
0.0295255
0.000301228
0.0294165
0.000293723
0.02931
0.000285353
0.000277137
0.0292061
0.0362162
0.000338317
0.0361215
0.000377206
0.0360173
0.000402628
0.035907
0.000417055
0.0357932
0.000422747
0.0356781
0.000421765
0.0355632
0.000415984
0.0354497
0.000407116
0.0353383
0.000396727
0.000386257
0.0352291
0.0411551
0.000410018
0.0410697
0.000462497
0.0409745
0.000497794
0.0408725
0.000518952
0.0407663
0.000528773
0.0406582
0.000529829
0.0405496
0.00052448
0.0404417
0.000514892
0.0403353
0.000503058
0.00049082
0.0402307
0.0450018
0.0004701
0.0449298
0.000534417
0.0448491
0.0005785
0.0447621
0.000605827
0.0446712
0.000619618
0.0445781
0.00062285
0.0444842
0.000618272
0.0443906
0.000608423
0.044298
0.000595654
0.000582148
0.0442066
0.0477728
0.00051805
0.0477165
0.000590735
0.0476538
0.000641128
0.0475866
0.000672964
0.0475164
0.000689725
0.0474446
0.00069465
0.0473721
0.000690749
0.0472996
0.000680816
0.0472278
0.000667457
0.000653105
0.0471568
0.0494866
0.000553594
0.0494473
0.000629997
0.0494052
0.000683228
0.049361
0.0007171
0.0493156
0.000735184
0.0492694
0.00074082
0.049223
0.000737128
0.0491767
0.000727027
0.0491309
0.00071325
0.000698365
0.0490856
0.0501631
0.000575655
0.0501424
0.000650679
0.0501228
0.000702874
0.0501039
0.000735954
0.0500857
0.000753411
0.050068
0.000758526
0.0500508
0.000754384
0.0500339
0.000743885
0.0500174
0.000729759
0.000714586
0.0500012
0.0498237
0.000581981
0.0498236
0.00065086
0.0498281
0.000698384
0.0498361
0.000728008
0.0498465
0.000742998
0.0498587
0.000746434
0.0498719
0.000741225
0.0498857
0.000730123
0.0498997
0.000715728
0.000700515
0.0499138
0.0484918
0.000569509
0.0485143
0.000628492
0.0485442
0.000668513
0.0485796
0.00069265
0.0486189
0.000703817
0.0486606
0.000704778
0.0487037
0.000698153
0.0487475
0.00068643
0.0487913
0.000671976
0.000657053
0.0488348
0.0461925
0.000535363
0.046239
0.000582167
0.0462945
0.000613047
0.0463566
0.000630613
0.0464232
0.000637344
0.0464925
0.000635597
0.0465631
0.00062762
0.046634
0.000615554
0.0467046
0.00060145
0.000587269
0.0467744
0.0429519
0.000478168
0.043022
0.00051217
0.0431015
0.00053361
0.0431876
0.000544583
0.043278
0.000547083
0.0433707
0.000543015
0.0434642
0.000534197
0.0435575
0.000522376
0.0436498
0.000509223
0.000496354
0.0437407
0.0387948
0.000399344
0.0388856
0.000421471
0.0389849
0.00043441
0.0390899
0.000439732
0.0391981
0.000438933
0.0393078
0.00043345
0.0394174
0.000424659
0.039526
0.000413887
0.0396329
0.000402406
0.000391456
0.0397379
0.0337428
0.000304063
0.0338479
0.000316452
0.0339597
0.000322756
0.0340755
0.000324044
0.0341932
0.000321349
0.0343111
0.000315651
0.034428
0.000307906
0.0345429
0.000299027
0.0346555
0.000289906
0.0002814
0.0347656
0.0278114
0.000201664
0.0279209
0.000207151
0.0280346
0.000209146
0.0281505
0.000208293
0.0282668
0.000205202
0.0283821
0.00020047
0.0284954
0.000194663
0.0286062
0.000188341
0.0287142
0.000182036
0.000176276
0.0288193
0.0210089
0.000105444
0.0211093
0.000106967
0.0212117
0.000106929
0.0213145
0.000105629
0.0214165
0.000103359
0.0215167
0.000100396
0.0216144
9.70145e-05
0.0217094
9.34746e-05
0.0218015
9.00359e-05
8.69464e-05
0.0218908
0.0133366
3.19911e-05
0.0134117
3.20173e-05
0.0134872
3.16458e-05
0.013562
3.09648e-05
0.0136354
3.00456e-05
0.0137069
2.89713e-05
0.0137762
2.78095e-05
0.0138431
2.66392e-05
0.0139077
2.55244e-05
2.45408e-05
0.0139701
0.00479166
0.00482369
0.00485536
0.00488634
0.00491639
0.00494538
0.00497319
0.00499984
0.00502537
0.00504992
0.00507205
2.32245e-05
0.0050494
2.26389e-05
0.00502705
2.23537e-05
0.00500462
2.24318e-05
0.0049817
2.29344e-05
0.00495779
2.39246e-05
0.00493234
2.54659e-05
0.00490474
2.76272e-05
0.00487428
3.04801e-05
0.00484021
3.41049e-05
0.00480165
3.85866e-05
0.00475765
4.40221e-05
0.00470717
5.05142e-05
0.00464901
5.81799e-05
0.0045819
6.71427e-05
0.00450438
7.75411e-05
0.00441489
8.95196e-05
0.00431167
0.000103238
0.00419283
0.000118864
0.00405627
0.000136585
0.00389968
0.000156604
0.00372054
0.00017916
0.00351603
0.000204528
0.00328303
0.000233029
0.00301807
0.000264969
0.00271759
0.000300498
0.0023784
0.000339213
0.00199903
0.000379377
0.00158247
0.000416576
0.00114059
0.000441905
0.000700294
0.000440315
0.000309187
0.000391135
3.4738e-05
0.000274454
-5.95821e-05
9.43318e-05
-5.9582e-05
0.0140707
8.27705e-05
0.0140124
8.09344e-05
0.0139547
8.00777e-05
0.0138967
8.04334e-05
0.0138374
8.22293e-05
0.0137757
8.56972e-05
0.0137101
9.10745e-05
0.0136392
9.8613e-05
0.0135611
0.000108581
0.013474
0.000121272
0.0133757
0.000137006
0.0132636
0.000156142
0.0131352
0.000179071
0.0129872
0.000206234
0.0128163
0.000238113
0.0126186
0.000275246
0.01239
0.000318218
0.0121256
0.000367675
0.0118202
0.000424323
0.0114679
0.000488941
0.0110622
0.00056239
0.0105958
0.000645631
0.0100606
0.000739718
0.00944796
0.000845739
0.0087484
0.000964582
0.0079526
0.00109635
0.00705282
0.00123904
0.00604613
0.00138611
0.00494024
0.00152251
0.00376275
0.00161945
0.00257304
0.0016301
0.00147263
0.00149159
0.000602497
0.00114464
0.000103587
0.000593236
4.40057e-05
0.0220841
0.0001685
0.0219999
0.000165047
0.0219165
0.000163458
0.0218328
0.000164222
0.0217472
0.000167817
0.0216582
0.000174729
0.0215638
0.000185455
0.0214619
0.000200521
0.0213501
0.000220489
0.0212254
0.000245972
0.0210848
0.000277648
0.0209248
0.000316269
0.0207412
0.000362675
0.0205297
0.000417807
0.0202852
0.000482717
0.0200019
0.000558582
0.0196734
0.000646712
0.0192926
0.000748567
0.0188512
0.000865772
0.0183401
0.00100013
0.0177489
0.00115366
0.017066
0.00132857
0.0162785
0.00152729
0.0153721
0.00175221
0.0143314
0.00200528
0.013141
0.00228682
0.011787
0.00259306
0.0102615
0.00291171
0.00856941
0.00321468
0.00674057
0.00344839
0.00484594
0.0035248
0.00301541
0.00332222
0.00144595
0.00271411
0.000377662
0.00166156
0.000421668
0.0291046
0.000270015
0.0290047
0.000264864
0.0289056
0.000262517
0.028806
0.000263776
0.0287044
0.000269431
0.0285989
0.000280278
0.0284872
0.000297135
0.0283669
0.000320865
0.028235
0.000352393
0.0280883
0.000392731
0.027923
0.000442998
0.0277349
0.000504444
0.0275191
0.000578475
0.0272703
0.000666676
0.0269822
0.000770839
0.0266479
0.000892986
0.0262592
0.0010354
0.0258072
0.00120066
0.0252814
0.00139167
0.0246699
0.00161169
0.0239592
0.00186441
0.0231339
0.00215391
0.0221766
0.00248467
0.0210676
0.00286127
0.0197852
0.00328773
0.0183063
0.0037658
0.0166079
0.00429155
0.0146708
0.00484885
0.0124871
0.00539845
0.0100733
0.00586231
0.00749214
0.00610605
0.00488431
0.00593009
0.00250319
0.00509531
0.000728988
0.0034358
0.00115067
0.035122
0.00037704
0.0350165
0.000370326
0.0349117
0.000367302
0.0348063
0.000369114
0.0346988
0.000376889
0.0345873
0.000391765
0.0344696
0.000414911
0.0343429
0.00044756
0.0342043
0.00049104
0.0340502
0.000546802
0.0338768
0.000616458
0.0336795
0.000701819
0.0334531
0.00080493
0.0331917
0.000928116
0.0328885
0.00107403
0.0325359
0.00124569
0.0321248
0.00144654
0.031645
0.00168051
0.0310846
0.0019521
0.0304299
0.00226643
0.0296651
0.00262932
0.0287716
0.00304738
0.0277284
0.00352797
0.0265108
0.00407897
0.0250905
0.004708
0.0234358
0.00542055
0.0215116
0.00621582
0.0192819
0.00707865
0.0167155
0.00796494
0.0137995
0.00877841
0.0105666
0.009339
0.00714512
0.00935173
0.00383534
0.00840521
0.00119153
0.00607973
0.00234221
0.0401278
0.000479894
0.0400262
0.000471889
0.0399251
0.000468342
0.0398235
0.000470737
0.0397198
0.000480537
0.0396123
0.00049922
0.0394989
0.000528306
0.0393771
0.000569403
0.0392439
0.000624241
0.039096
0.000694719
0.0389296
0.000782954
0.0387401
0.000891334
0.0385225
0.00102257
0.0382709
0.00117977
0.0379784
0.0013665
0.0376373
0.00158684
0.0372384
0.00184553
0.0367709
0.002148
0.0362225
0.00250054
0.0355786
0.00291039
0.034822
0.00338595
0.0339325
0.00393689
0.0328863
0.00457425
0.0316549
0.0053104
0.0302046
0.00615842
0.0284947
0.00713041
0.0264773
0.00823336
0.0240956
0.00946038
0.0212873
0.0107733
0.0179942
0.0120716
0.0141914
0.0131419
0.00995516
0.0135881
0.00559551
0.012765
0.00185305
0.00982245
0.00419531
0.0441165
0.00056995
0.0440274
0.000560986
0.0439386
0.000557099
0.0438492
0.000560075
0.0437581
0.000571681
0.0436636
0.000593702
0.0435639
0.000627981
0.0434568
0.000676467
0.0433398
0.000741267
0.0432099
0.000824697
0.0430635
0.000929353
0.0428967
0.00105817
0.0427048
0.0012145
0.0424824
0.00140221
0.0422231
0.00162576
0.0419197
0.00189032
0.0415634
0.00220188
0.041144
0.00256744
0.0406494
0.00299513
0.0400654
0.00349448
0.0393747
0.00407662
0.038557
0.00475463
0.0375875
0.00554382
0.036436
0.00646198
0.0350651
0.00752927
0.0334283
0.00876725
0.0314661
0.0101957
0.029102
0.0118245
0.0262391
0.0136363
0.0227614
0.0155495
0.0185547
0.0173488
0.0135793
0.0185635
0.0080615
0.0182833
0.00288526
0.014999
0.00708064
0.0470867
0.000640046
0.0470172
0.00063045
0.0469478
0.000626396
0.046878
0.000629908
0.0468067
0.000642995
0.0467327
0.00066769
0.0466546
0.000706101
0.0465706
0.000760462
0.0464787
0.000833192
0.0463764
0.000926967
0.046261
0.00104479
0.0461291
0.00119007
0.0459769
0.00136674
0.0457998
0.00157933
0.0455925
0.00183311
0.0453486
0.00213422
0.0450607
0.00248985
0.0447197
0.00290844
0.044315
0.00339987
0.0438336
0.00397585
0.0432601
0.0046502
0.0425753
0.00543938
0.0417561
0.00636307
0.0407733
0.00744479
0.0395901
0.00871256
0.0381583
0.0101991
0.0364135
0.0119404
0.0342669
0.0139712
0.0315934
0.0163099
0.0282186
0.0189243
0.0239147
0.0216528
0.0184417
0.024037
0.0117431
0.0249821
0.00460813
0.0221345
0.0116888
0.0490409
0.000684798
0.0489964
0.000674861
0.0489521
0.00067078
0.0489072
0.000674731
0.0488613
0.000688882
0.0488136
0.000715435
0.048763
0.000756679
0.0487084
0.000815051
0.0486484
0.000893199
0.0485813
0.000994063
0.0485052
0.00112095
0.0484176
0.00127765
0.0483158
0.00146853
0.0481965
0.00169865
0.0480557
0.00197394
0.0478886
0.00230135
0.0476894
0.00268905
0.0474512
0.00314665
0.0471655
0.00368557
0.0468221
0.00431931
0.0464083
0.00506404
0.0459086
0.00593912
0.0453036
0.00696802
0.0445691
0.00817937
0.0436734
0.0096083
0.0425744
0.011298
0.0412138
0.0133011
0.0395063
0.0156787
0.0373222
0.018494
0.0344571
0.0217895
0.0305884
0.0255216
0.0252314
0.029394
0.0177737
0.0324401
0.0080389
0.0318693
0.0197277
0.0499852
0.000700816
0.0499692
0.000690794
0.0499532
0.000686793
0.0499369
0.00069104
0.04992
0.000705765
0.0499022
0.000733243
0.0498831
0.000775849
0.049862
0.000836122
0.0498384
0.000916834
0.0498113
0.00102107
0.04978
0.00115233
0.049743
0.00131461
0.049699
0.00151258
0.049646
0.00175164
0.0495818
0.00203817
0.0495035
0.00237965
0.0494076
0.00278494
0.0492897
0.00326452
0.0491445
0.00383082
0.0489652
0.00449867
0.0487434
0.00528584
0.0484688
0.00621373
0.0481284
0.00730837
0.0477061
0.00860173
0.0471808
0.0101336
0.0465248
0.011954
0.0456996
0.0141263
0.0446481
0.0167302
0.0432788
0.0198633
0.0414351
0.0236332
0.0388337
0.0281229
0.0349489
0.0332788
0.0288025
0.0385862
0.0184421
0.0422295
0.0381697
0.0499278
0.000686844
0.0499416
0.000676986
0.0499553
0.00067315
0.0499688
0.000677516
0.0499823
0.000692275
0.0499959
0.000719671
0.0500097
0.000762063
0.0500238
0.000821979
0.0500384
0.000902196
0.0500537
0.00100582
0.0500696
0.00113639
0.0500863
0.00129797
0.0501035
0.0014953
0.0501212
0.00173395
0.050139
0.00202045
0.0501561
0.00236254
0.0501716
0.00276938
0.0501843