/*--------------------------------*- C++ -*----------------------------------*\
| =========                 |                                                 |
| \\      /  F ield         | OpenFOAM: The Open Source CFD Toolbox           |
|  \\    /   O peration     | Version:  2406                                  |
|   \\  /    A nd           | Website:  www.openfoam.com                      |
|    \\/     M anipulation  |                                                 |
\*---------------------------------------------------------------------------*/
FoamFile
{
    version     2.0;
    format      ascii;
    arch        "LSB;label=32;scalar=64";
    class       volVectorField;
    location    "28";
    object      U;
}
// * * * * * * * * * * * * * * * * * * * * * * * * * * * * * * * * * * * * * //

dimensions      [0 1 -1 0 0 0 0];

internalField   nonuniform List<vector> 
1800
(
(0.187362 -0.00141311 0)
(0.195049 -0.00122822 0)
(0.199364 -0.00101848 0)
(0.202721 -0.00111217 0)
(0.206916 -0.00140897 0)
(0.212565 -0.0020173 0)
(0.220557 -0.00326308 0)
(0.232958 -0.00604297 0)
(0.256221 -0.0153662 0)
(0.290626 -0.0568944 0)
(0.503467 -0.00381905 0)
(0.509916 -0.00602165 0)
(0.515337 -0.00624601 0)
(0.520197 -0.00714171 0)
(0.526937 -0.00907915 0)
(0.53617 -0.0123937 0)
(0.5486 -0.0181068 0)
(0.565717 -0.0282907 0)
(0.589952 -0.0476551 0)
(0.616831 -0.0889353 0)
(0.743976 -0.00352913 0)
(0.748847 -0.00764843 0)
(0.753031 -0.0101446 0)
(0.75664 -0.0129676 0)
(0.762217 -0.0169639 0)
(0.770108 -0.0227984 0)
(0.78028 -0.0316551 0)
(0.792839 -0.0455168 0)
(0.807292 -0.0677005 0)
(0.819109 -0.103544 0)
(0.904433 -0.00316933 0)
(0.908342 -0.0082282 0)
(0.911063 -0.0123874 0)
(0.912442 -0.0168365 0)
(0.915092 -0.0224205 0)
(0.919205 -0.0298742 0)
(0.92421 -0.0402235 0)
(0.929437 -0.0548619 0)
(0.933556 -0.0754793 0)
(0.933265 -0.103559 0)
(0.984591 -0.00280587 0)
(0.987724 -0.00788051 0)
(0.988996 -0.0126837 0)
(0.988021 -0.0178722 0)
(0.98739 -0.0240639 0)
(0.98721 -0.0318821 0)
(0.986657 -0.042067 0)
(0.984806 -0.0554308 0)
(0.980327 -0.0726631 0)
(0.971002 -0.0938639 0)
(0.984517 -0.00216236 0)
(0.98698 -0.00649281 0)
(0.986904 -0.0111058 0)
(0.983861 -0.0161781 0)
(0.980394 -0.0220316 0)
(0.976514 -0.0291308 0)
(0.971308 -0.0379483 0)
(0.963859 -0.0488826 0)
(0.953078 -0.0621186 0)
(0.937527 -0.0773433 0)
(0.904218 -0.00109314 0)
(0.906226 -0.00410858 0)
(0.90515 -0.00801484 0)
(0.900718 -0.012355 0)
(0.895383 -0.0171648 0)
(0.889028 -0.0227813 0)
(0.880747 -0.0294801 0)
(0.869752 -0.0374115 0)
(0.855239 -0.0465504 0)
(0.836318 -0.0565448 0)
(0.743659 0.000555791 0)
(0.745794 -0.000992771 0)
(0.744563 -0.00412557 0)
(0.739904 -0.00742346 0)
(0.734091 -0.0107742 0)
(0.726904 -0.014484 0)
(0.717567 -0.0187189 0)
(0.705493 -0.0235173 0)
(0.690163 -0.0288129 0)
(0.671085 -0.0343623 0)
(0.503161 0.00235559 0)
(0.506897 0.00171743 0)
(0.506907 -0.000828908 0)
(0.503505 -0.00291815 0)
(0.498831 -0.00466752 0)
(0.492755 -0.0064397 0)
(0.484774 -0.00834318 0)
(0.474567 -0.0103918 0)
(0.461876 -0.0125558 0)
(0.446494 -0.0147305 0)
(0.187235 0.00116834 0)
(0.193547 0.000546632 0)
(0.194948 -2.54144e-05 0)
(0.193841 -0.000315721 0)
(0.191857 -0.000546406 0)
(0.189056 -0.000775175 0)
(0.185289 -0.00100619 0)
(0.180486 -0.0012319 0)
(0.174596 -0.00144681 0)
(0.167592 -0.00164295 0)
(-0.000409685 0.000398534 0)
(-0.00295836 0.000879843 0)
(-0.0065277 0.000985045 0)
(-0.00990873 0.00081761 0)
(-0.0121845 0.000529575 0)
(-0.0129991 0.000203669 0)
(-0.0123108 -0.000110532 0)
(-0.0102461 -0.000385863 0)
(-0.00702064 -0.000609052 0)
(-0.00289039 -0.000775501 0)
(0.00188145 -0.000885707 0)
(0.00704526 -0.00094411 0)
(0.0123774 -0.000957851 0)
(0.0176876 -0.000935246 0)
(0.0228218 -0.000884753 0)
(0.0276625 -0.000814552 0)
(0.0321265 -0.00073192 0)
(0.0361609 -0.000643127 0)
(0.0397389 -0.000553166 0)
(0.0428549 -0.0004659 0)
(0.04552 -0.000384027 0)
(0.0477573 -0.000309336 0)
(0.0495983 -0.000242767 0)
(0.0510799 -0.000184683 0)
(0.052241 -0.000134937 0)
(0.0531212 -9.31007e-05 0)
(0.0537592 -5.85003e-05 0)
(0.0541912 -3.03863e-05 0)
(0.0544509 -7.9358e-06 0)
(0.0545686 9.63558e-06 0)
(0.0545716 2.30929e-05 0)
(0.0544835 3.31135e-05 0)
(0.054325 4.03233e-05 0)
(0.0541136 4.52527e-05 0)
(0.0538642 4.83721e-05 0)
(-0.000990268 0.00301055 0)
(-0.00669917 0.00622152 0)
(-0.0136887 0.00672536 0)
(-0.0197143 0.00526384 0)
(-0.0231046 0.00276762 0)
(-0.0232291 -8.02757e-05 0)
(-0.0200587 -0.00284724 0)
(-0.013905 -0.0052846 0)
(-0.00526179 -0.00726709 0)
(0.00530016 -0.00874933 0)
(0.0172018 -0.00973737 0)
(0.0299004 -0.0102701 0)
(0.0429127 -0.0104054 0)
(0.0558291 -0.0102106 0)
(0.0683177 -0.00975539 0)
(0.0801231 -0.00910704 0)
(0.0910617 -0.00832722 0)
(0.101014 -0.00746981 0)
(0.109914 -0.00658001 0)
(0.117744 -0.00569404 0)
(0.124519 -0.00483962 0)
(0.130286 -0.0040367 0)
(0.135107 -0.00329852 0)
(0.13906 -0.00263273 0)
(0.142229 -0.00204248 0)
(0.144702 -0.0015275 0)
(0.146566 -0.00108503 0)
(0.147904 -0.000710549 0)
(0.148794 -0.000398494 0)
(0.149309 -0.000142712 0)
(0.149515 6.31254e-05 0)
(0.149469 0.000225251 0)
(0.149223 0.000349639 0)
(0.148823 0.000441865 0)
(0.148306 0.000507048 0)
(-0.00131981 0.00718781 0)
(-0.00849139 0.013657 0)
(-0.0162523 0.0138762 0)
(-0.0219283 0.00994206 0)
(-0.0237128 0.00387343 0)
(-0.0210838 -0.0028533 0)
(-0.0142019 -0.00929413 0)
(-0.0035939 -0.014906 0)
(0.0100335 -0.0194224 0)
(0.0259149 -0.0227582 0)
(0.0433049 -0.0249429 0)
(0.0615203 -0.0260757 0)
(0.0799641 -0.0262943 0)
(0.0981364 -0.0257545 0)
(0.115636 -0.0246154 0)
(0.132155 -0.0230292 0)
(0.147473 -0.0211353 0)
(0.161446 -0.0190556 0)
(0.173996 -0.0168929 0)
(0.1851 -0.0147307 0)
(0.194779 -0.0126338 0)
(0.203087 -0.0106501 0)
(0.210105 -0.00881233 0)
(0.215929 -0.00714076 0)
(0.220668 -0.00564523 0)
(0.224432 -0.00432749 0)
(0.227336 -0.00318317 0)
(0.229488 -0.00220352 0)
(0.230993 -0.00137685 0)
(0.231949 -0.000689769 0)
(0.232446 -0.000128021 0)
(0.232563 0.00032274 0)
(0.232374 0.000676516 0)
(0.231943 0.00094661 0)
(0.231323 0.00114543 0)
(-0.00149801 0.0120903 0)
(-0.00872824 0.0214511 0)
(-0.0150586 0.0202146 0)
(-0.0178134 0.0125239 0)
(-0.0155556 0.00178442 0)
(-0.00821633 -0.00965227 0)
(0.00366982 -0.0203339 0)
(0.0193005 -0.0294573 0)
(0.0377892 -0.0366612 0)
(0.0582651 -0.0418635 0)
(0.0799281 -0.0451531 0)
(0.102076 -0.0467182 0)
(0.124115 -0.0467992 0)
(0.145561 -0.0456573 0)
(0.166035 -0.0435533 0)
(0.185254 -0.040734 0)
(0.20302 -0.0374228 0)
(0.21921 -0.0338152 0)
(0.233763 -0.0300757 0)
(0.246672 -0.0263387 0)
(0.257969 -0.022709 0)
(0.26772 -0.0192651 0)
(0.276016 -0.0160617 0)
(0.282961 -0.0131336 0)
(0.288672 -0.0104989 0)
(0.293269 -0.00816272 0)
(0.296875 -0.00611978 0)
(0.299609 -0.00435747 0)
(0.301585 -0.00285803 0)
(0.30291 -0.00160039 0)
(0.303685 -0.000561754 0)
(0.304001 0.000281305 0)
(0.303939 0.000951921 0)
(0.303574 0.0014724 0)
(0.302969 0.00186379 0)
(-0.00162039 0.0169205 0)
(-0.00762731 0.0276814 0)
(-0.0102105 0.0231839 0)
(-0.00734308 0.0103739 0)
(0.00142958 -0.0057699 0)
(0.0153945 -0.0221134 0)
(0.0335025 -0.0368534 0)
(0.0546688 -0.0490801 0)
(0.0778901 -0.0584509 0)
(0.102288 -0.0649663 0)
(0.127119 -0.068825 0)
(0.151772 -0.0703332 0)
(0.175755 -0.0698476 0)
(0.19869 -0.0677387 0)
(0.220294 -0.0643666 0)
(0.24037 -0.0600659 0)
(0.258793 -0.0551363 0)
(0.275499 -0.0498373 0)
(0.290473 -0.0443874 0)
(0.303743 -0.0389636 0)
(0.315366 -0.0337047 0)
(0.325422 -0.0287147 0)
(0.334011 -0.0240665 0)
(0.341241 -0.0198069 0)
(0.34723 -0.0159609 0)
(0.352096 -0.012536 0)
(0.355959 -0.00952607 0)
(0.358933 -0.00691489 0)
(0.36113 -0.00467907 0)
(0.362656 -0.0027905 0)
(0.363606 -0.00121838 0)
(0.364073 6.92655e-05 0)
(0.364136 0.00110434 0)
(0.363871 0.00191788 0)
(0.363342 0.00253946 0)
(-0.00163778 0.0210726 0)
(-0.00473235 0.0303884 0)
(-0.000569341 0.0200512 0)
(0.0111133 0.000769363 0)
(0.028994 -0.0210112 0)
(0.0513108 -0.0417505 0)
(0.0765053 -0.0596297 0)
(0.103321 -0.0738726 0)
(0.130782 -0.0843147 0)
(0.158146 -0.0911314 0)
(0.184853 -0.0946778 0)
(0.210489 -0.0953957 0)
(0.234753 -0.0937579 0)
(0.25744 -0.090234 0)
(0.278419 -0.0852679 0)
(0.297624 -0.079264 0)
(0.315037 -0.0725794 0)
(0.33068 -0.0655205 0)
(0.344603 -0.0583421 0)
(0.35688 -0.05125 0)
(0.367601 -0.0444045 0)
(0.376866 -0.0379245 0)
(0.384784 -0.0318933 0)
(0.391463 -0.0263636 0)
(0.397016 -0.0213632 0)
(0.401552 -0.0168992 0)
(0.405179 -0.0129632 0)
(0.407999 -0.00953488 0)
(0.410111 -0.00658553 0)
(0.411605 -0.00408071 0)
(0.412567 -0.00198265 0)
(0.413078 -0.000252016 0)
(0.413209 0.00115068 0)
(0.413027 0.00226402 0)
(0.412589 0.00312502 0)
(-0.00129218 0.0239898 0)
(0.00178073 0.026878 0)
(0.0171565 0.00730923 0)
(0.0415181 -0.0193253 0)
(0.0709233 -0.0460157 0)
(0.102609 -0.0696338 0)
(0.134844 -0.0888652 0)
(0.166519 -0.103362 0)
(0.196942 -0.113286 0)
(0.225696 -0.119052 0)
(0.25254 -0.121185 0)
(0.27735 -0.120251 0)
(0.300079 -0.116816 0)
(0.320738 -0.111421 0)
(0.33938 -0.104567 0)
(0.356087 -0.0966982 0)
(0.370963 -0.0882044 0)
(0.384122 -0.0794141 0)
(0.395685 -0.0705978 0)
(0.405777 -0.0619713 0)
(0.414519 -0.0537001 0)
(0.422029 -0.0459056 0)
(0.42842 -0.0386708 0)
(0.4338 -0.0320465 0)
(0.43827 -0.0260571 0)
(0.441924 -0.0207056 0)
(0.444851 -0.015979 0)
(0.447134 -0.0118518 0)
(0.44885 -0.00828959 0)
(0.45007 -0.00525241 0)
(0.450861 -0.00269665 0)
(0.451285 -0.000577082 0)
(0.451397 0.0011517 0)
(0.451249 0.00253414 0)
(0.450887 0.00361299 0)
(0.000182983 0.0237159 0)
(0.0168474 0.0119084 0)
(0.0502057 -0.0200544 0)
(0.0912778 -0.053115 0)
(0.133266 -0.0821087 0)
(0.173485 -0.105667 0)
(0.210921 -0.123529 0)
(0.245154 -0.135964 0)
(0.276085 -0.143495 0)
(0.303796 -0.14674 0)
(0.328457 -0.146345 0)
(0.350276 -0.142948 0)
(0.369479 -0.137159 0)
(0.386295 -0.129548 0)
(0.400955 -0.12063 0)
(0.413681 -0.110859 0)
(0.424686 -0.100625 0)
(0.434167 -0.090253 0)
(0.442303 -0.0800065 0)
(0.449257 -0.0700918 0)
(0.455172 -0.0606638 0)
(0.460178 -0.0518327 0)
(0.464383 -0.0436709 0)
(0.467886 -0.036219 0)
(0.47077 -0.0294921 0)
(0.47311 -0.0234853 0)
(0.47497 -0.0181779 0)
(0.476408 -0.0135382 0)
(0.477475 -0.0095262 0)
(0.478218 -0.00609678 0)
(0.478679 -0.00320174 0)
(0.478896 -0.00079159 0)
(0.478905 0.00118314 0)
(0.478738 0.00277076 0)
(0.478425 0.00401773 0)
(0.011074 0.00513416 0)
(0.055027 -0.0284546 0)
(0.11377 -0.0694235 0)
(0.17214 -0.102708 0)
(0.223486 -0.128309 0)
(0.267745 -0.14735 0)
(0.305811 -0.160541 0)
(0.338382 -0.168515 0)
(0.366081 -0.171927 0)
(0.389501 -0.171433 0)
(0.409187 -0.167678 0)
(0.425633 -0.161285 0)
(0.439282 -0.152847 0)
(0.450536 -0.14291 0)
(0.459758 -0.131965 0)
(0.467273 -0.120441 0)
(0.473366 -0.1087 0)
(0.478286 -0.0970401 0)
(0.482247 -0.0856963 0)
(0.485426 -0.0748488 0)
(0.487972 -0.0646281 0)
(0.490007 -0.0551224 0)
(0.491626 -0.0463846 0)
(0.492907 -0.0384386 0)
(0.49391 -0.0312857 0)
(0.494681 -0.0249097 0)
(0.495258 -0.0192809 0)
(0.495668 -0.0143605 0)
(0.495935 -0.010103 0)
(0.496076 -0.0064591 0)
(0.496107 -0.00337732 0)
(0.496042 -0.00080562 0)
(0.495893 0.00130756 0)
(0.495672 0.00301231 0)
(0.495389 0.0043567 0)
(0.0866239 -0.0608573 0)
(0.162744 -0.109609 0)
(0.23565 -0.140639 0)
(0.297648 -0.162158 0)
(0.346476 -0.177499 0)
(0.385329 -0.188013 0)
(0.416671 -0.194135 0)
(0.441848 -0.196188 0)
(0.461814 -0.194593 0)
(0.477385 -0.189847 0)
(0.489278 -0.182486 0)
(0.498118 -0.173053 0)
(0.504453 -0.162073 0)
(0.508765 -0.150035 0)
(0.511479 -0.137377 0)
(0.512957 -0.124476 0)
(0.513512 -0.111647 0)
(0.513401 -0.0991413 0)
(0.512835 -0.0871528 0)
(0.51198 -0.0758233 0)
(0.510967 -0.0652496 0)
(0.509891 -0.0554907 0)
(0.50882 -0.0465749 0)
(0.507801 -0.0385061 0)
(0.506862 -0.0312693 0)
(0.506017 -0.0248359 0)
(0.505272 -0.019167 0)
(0.504622 -0.0142168 0)
(0.504061 -0.00993551 0)
(0.503579 -0.00627076 0)
(0.503164 -0.00316955 0)
(0.502805 -0.000579094 0)
(0.502492 0.00155227 0)
(0.502215 0.00327432 0)
(0.501965 0.00463467 0)
(0.3753 -0.154316 0)
(0.400491 -0.184104 0)
(0.431769 -0.198501 0)
(0.465915 -0.208174 0)
(0.494508 -0.214331 0)
(0.516863 -0.217203 0)
(0.533924 -0.216895 0)
(0.546325 -0.213542 0)
(0.554628 -0.207411 0)
(0.559449 -0.198885 0)
(0.561408 -0.188414 0)
(0.561084 -0.176466 0)
(0.558999 -0.163502 0)
(0.55562 -0.149943 0)
(0.55135 -0.136164 0)
(0.546532 -0.122481 0)
(0.541447 -0.109149 0)
(0.53632 -0.0963674 0)
(0.531325 -0.0842794 0)
(0.526587 -0.072984 0)
(0.522195 -0.0625406 0)
(0.518202 -0.052977 0)
(0.514636 -0.0442961 0)
(0.511504 -0.0364814 0)
(0.508796 -0.0295026 0)
(0.506491 -0.0233196 0)
(0.504559 -0.0178856 0)
(0.502967 -0.0131499 0)
(0.501677 -0.00905971 0)
(0.500654 -0.00556188 0)
(0.499861 -0.00260365 0)
(0.499264 -0.000133481 0)
(0.498832 0.00189837 0)
(0.498535 0.00353945 0)
(0.498349 0.00483499 0)
(0.635275 -0.156585 0)
(0.631791 -0.19591 0)
(0.630944 -0.214832 0)
(0.6353 -0.22432 0)
(0.63955 -0.228092 0)
(0.641625 -0.22757 0)
(0.641252 -0.223624 0)
(0.638411 -0.216835 0)
(0.633235 -0.207676 0)
(0.626049 -0.196615 0)
(0.617278 -0.184121 0)
(0.607366 -0.170647 0)
(0.596736 -0.156612 0)
(0.58577 -0.142388 0)
(0.574795 -0.128291 0)
(0.564081 -0.114575 0)
(0.55384 -0.101437 0)
(0.544228 -0.0890197 0)
(0.535352 -0.0774195 0)
(0.527278 -0.0666927 0)
(0.520035 -0.0568634 0)
(0.513624 -0.0479309 0)
(0.508023 -0.0398755 0)
(0.503194 -0.032664 0)
(0.499088 -0.0262539 0)
(0.495648 -0.0205967 0)
(0.492812 -0.0156409 0)
(0.490518 -0.0113334 0)
(0.488702 -0.00762136 0)
(0.487306 -0.00445288 0)
(0.486272 -0.00177771 0)
(0.485546 0.00045242 0)
(0.485081 0.00228345 0)
(0.484831 0.00375895 0)
(0.484758 0.00492013 0)
(0.818766 -0.150264 0)
(0.803864 -0.185028 0)
(0.785766 -0.205472 0)
(0.769446 -0.216258 0)
(0.75389 -0.220205 0)
(0.738003 -0.218933 0)
(0.721479 -0.213702 0)
(0.704223 -0.205481 0)
(0.686264 -0.195011 0)
(0.667788 -0.182914 0)
(0.649084 -0.169728 0)
(0.630477 -0.155924 0)
(0.612274 -0.141905 0)
(0.59475 -0.128 0)
(0.578128 -0.114472 0)
(0.562579 -0.101522 0)
(0.54822 -0.0892923 0)
(0.535122 -0.0778759 0)
(0.523312 -0.0673258 0)
(0.512781 -0.0576626 0)
(0.503495 -0.0488816 0)
(0.495397 -0.04096 0)
(0.488417 -0.0338618 0)
(0.482472 -0.0275424 0)
(0.477478 -0.0219524 0)
(0.473343 -0.0170397 0)
(0.469981 -0.0127519 0)
(0.467303 -0.00903707 0)
(0.465228 -0.00584519 0)
(0.463678 -0.00312826 0)
(0.462578 -0.000840629 0)
(0.461863 0.00106077 0)
(0.461472 0.00261649 0)
(0.461349 0.00386464 0)
(0.461446 0.00484115 0)
(0.923217 -0.136392 0)
(0.902228 -0.163889 0)
(0.875593 -0.182252 0)
(0.84747 -0.192609 0)
(0.818929 -0.196509 0)
(0.79016 -0.195212 0)
(0.761405 -0.189898 0)
(0.732896 -0.181615 0)
(0.704835 -0.171225 0)
(0.677456 -0.15943 0)
(0.651019 -0.14681 0)
(0.625775 -0.133836 0)
(0.601944 -0.120882 0)
(0.579694 -0.108237 0)
(0.559144 -0.0961134 0)
(0.54036 -0.0846605 0)
(0.523361 -0.0739731 0)
(0.508128 -0.0641036 0)
(0.494608 -0.0550708 0)
(0.482721 -0.0468685 0)
(0.472374 -0.0394724 0)
(0.463457 -0.0328458 0)
(0.455858 -0.0269444 0)
(0.44946 -0.0217191 0)
(0.444146 -0.0171195 0)
(0.439804 -0.0130949 0)
(0.436325 -0.00959641 0)
(0.433607 -0.00657675 0)
(0.431553 -0.00399152 0)
(0.430075 -0.00179887 0)
(0.42909 4.0212e-05 0)
(0.428524 0.00156217 0)
(0.428309 0.00280087 0)
(0.428384 0.00378805 0)
(0.428696 0.00455334 0)
(0.953987 -0.117051 0)
(0.928551 -0.137281 0)
(0.897203 -0.151632 0)
(0.86278 -0.159947 0)
(0.826879 -0.16295 0)
(0.790413 -0.161495 0)
(0.75411 -0.15652 0)
(0.71855 -0.148946 0)
(0.684171 -0.139584 0)
(0.651319 -0.129106 0)
(0.620275 -0.118054 0)
(0.591253 -0.106852 0)
(0.5644 -0.0958209 0)
(0.539795 -0.0851938 0)
(0.517461 -0.0751302 0)
(0.497369 -0.0657311 0)
(0.479451 -0.0570517 0)
(0.463611 -0.0491127 0)
(0.449727 -0.0419095 0)
(0.437665 -0.0354198 0)
(0.427283 -0.0296094 0)
(0.418436 -0.0244369 0)
(0.410982 -0.0198572 0)
(0.40478 -0.0158238 0)
(0.399697 -0.0122907 0)
(0.395607 -0.00921334 0)
(0.392392 -0.00654973 0)
(0.389943 -0.0042604 0)
(0.388158 -0.00230873 0)
(0.386946 -0.000660889 0)
(0.386222 0.000714346 0)
(0.38591 0.00184572 0)
(0.385942 0.00275985 0)
(0.386256 0.00348143 0)
(0.386798 0.0040335 0)
(0.915699 -0.0931788 0)
(0.887238 -0.107016 0)
(0.853492 -0.116969 0)
(0.816382 -0.122614 0)
(0.777453 -0.124282 0)
(0.737873 -0.122555 0)
(0.698606 -0.118131 0)
(0.660422 -0.111735 0)
(0.623896 -0.104026 0)
(0.589438 -0.0955547 0)
(0.55733 -0.0867572 0)
(0.527742 -0.0779661 0)
(0.500754 -0.0694224 0)
(0.476366 -0.0612916 0)
(0.45452 -0.0536784 0)
(0.435115 -0.0466416 0)
(0.418018 -0.0402051 0)
(0.403076 -0.0343686 0)
(0.390125 -0.0291148 0)
(0.378997 -0.0244155 0)
(0.369524 -0.0202356 0)
(0.361545 -0.0165372 0)
(0.354903 -0.0132807 0)
(0.349453 -0.0104277 0)
(0.345058 -0.00794071 0)
(0.341591 -0.00578486 0)
(0.338935 -0.00392741 0)
(0.336986 -0.00233859 0)
(0.335645 -0.000990773 0)
(0.334825 0.0001409 0)
(0.334447 0.0010794 0)
(0.334438 0.00184548 0)
(0.334736 0.00245846 0)
(0.335281 0.00293593 0)
(0.336025 0.00329448 0)
(0.81223 -0.0665024 0)
(0.782916 -0.0750175 0)
(0.749295 -0.0809966 0)
(0.712772 -0.084113 0)
(0.674706 -0.0845563 0)
(0.636262 -0.082731 0)
(0.598416 -0.0791324 0)
(0.561946 -0.0742723 0)
(0.52742 -0.0686151 0)
(0.495217 -0.0625436 0)
(0.465565 -0.0563548 0)
(0.43857 -0.0502665 0)
(0.414238 -0.0444303 0)
(0.392506 -0.0389436 0)
(0.373261 -0.0338625 0)
(0.356354 -0.0292124 0)
(0.341619 -0.0249972 0)
(0.328878 -0.0212058 0)
(0.317953 -0.0178183 0)
(0.308669 -0.0148086 0)
(0.300857 -0.0121485 0)
(0.29436 -0.0098082 0)
(0.289029 -0.00775895 0)
(0.284727 -0.00597273 0)
(0.281329 -0.00442362 0)
(0.278721 -0.00308735 0)
(0.2768 -0.00194204 0)
(0.27547 -0.000967509 0)
(0.274647 -0.00014581 0)
(0.274255 0.000539557 0)
(0.274226 0.00110324 0)
(0.274497 0.00155883 0)
(0.275014 0.00191848 0)
(0.275728 0.00219362 0)
(0.276596 0.0023946 0)
(0.647949 -0.0396654 0)
(0.620917 -0.0440196 0)
(0.590741 -0.0468817 0)
(0.55852 -0.048098 0)
(0.52538 -0.0478079 0)
(0.492316 -0.0462776 0)
(0.460155 -0.0438151 0)
(0.429527 -0.0407242 0)
(0.400873 -0.0372718 0)
(0.374463 -0.0336704 0)
(0.350428 -0.0300785 0)
(0.328795 -0.0266069 0)
(0.309514 -0.0233285 0)
(0.29248 -0.0202861 0)
(0.277554 -0.0175005 0)
(0.264579 -0.0149768 0)
(0.253388 -0.0127095 0)
(0.243815 -0.0106867 0)
(0.235696 -0.0088926 0)
(0.228879 -0.00730937 0)
(0.223217 -0.00591875 0)
(0.218578 -0.00470257 0)
(0.214838 -0.00364361 0)
(0.211887 -0.00272565 0)
(0.209622 -0.0019339 0)
(0.207953 -0.00125476 0)
(0.206798 -0.000676105 0)
(0.206083 -0.00018692 0)
(0.205743 0.000222539 0)
(0.205717 0.000561098 0)
(0.205953 0.000836609 0)
(0.206405 0.00105624 0)
(0.20703 0.00122645 0)
(0.207791 0.0013532 0)
(0.208655 0.00144198 0)
(0.428371 -0.0167084 0)
(0.40777 -0.0182193 0)
(0.385298 -0.019071 0)
(0.361762 -0.019238 0)
(0.337967 -0.0188129 0)
(0.314607 -0.0179312 0)
(0.292227 -0.0167312 0)
(0.27122 -0.0153394 0)
(0.251833 -0.0138593 0)
(0.234195 -0.0123692 0)
(0.21834 -0.0109231 0)
(0.204237 -0.00955655 0)
(0.191809 -0.00828982 0)
(0.180949 -0.00713308 0)
(0.171536 -0.00608848 0)
(0.163441 -0.00515363 0)
(0.156537 -0.00432269 0)
(0.150699 -0.00358857 0)
(0.14581 -0.00294299 0)
(0.141761 -0.00237794 0)
(0.138452 -0.00188521 0)
(0.135792 -0.00145741 0)
(0.133699 -0.00108734 0)
(0.132099 -0.000768779 0)
(0.130925 -0.000495792 0)
(0.130118 -0.000263407 0)
(0.129625 -6.68809e-05 0)
(0.129398 9.7668e-05 0)
(0.129397 0.000233981 0)
(0.129582 0.000345088 0)
(0.12992 0.00043397 0)
(0.130383 0.000503047 0)
(0.130943 0.00055476 0)
(0.131578 0.000591122 0)
(0.132267 0.000614213 0)
(0.159513 -0.00180005 0)
(0.15053 -0.00188818 0)
(0.140948 -0.00189167 0)
(0.131133 -0.00182032 0)
(0.121425 -0.00169651 0)
(0.112093 -0.00154167 0)
(0.10333 -0.00137292 0)
(0.0952572 -0.00120306 0)
(0.0879379 -0.00104062 0)
(0.0813879 -0.00089029 0)
(0.0755913 -0.000754212 0)
(0.070511 -0.000632973 0)
(0.0660974 -0.000526313 0)
(0.0622943 -0.000433388 0)
(0.0590433 -0.00035306 0)
(0.056287 -0.000284011 0)
(0.0539707 -0.000224939 0)
(0.0520431 -0.000174587 0)
(0.0504576 -0.000131842 0)
(0.0491714 -9.56924e-05 0)
(0.0481463 -6.52679e-05 0)
(0.047348 -3.97894e-05 0)
(0.0467459 -1.85907e-05 0)
(0.0463129 -1.07574e-06 0)
(0.046025 1.32632e-05 0)
(0.0458607 2.48806e-05 0)
(0.0458011 3.41615e-05 0)
(0.0458296 4.14507e-05 0)
(0.0459312 4.70383e-05 0)
(0.0460929 5.11843e-05 0)
(0.0463029 5.41076e-05 0)
(0.0465508 5.60045e-05 0)
(0.0468276 5.70392e-05 0)
(0.0471251 5.73587e-05 0)
(0.0474364 5.70869e-05 0)
(0.0535891 5.00658e-05 0)
(0.0532985 5.06677e-05 0)
(0.0530004 5.04442e-05 0)
(0.0527014 4.96264e-05 0)
(0.0524062 4.8397e-05 0)
(0.0521184 4.69198e-05 0)
(0.0518402 4.53232e-05 0)
(0.0515729 4.37279e-05 0)
(0.0513168 4.22356e-05 0)
(0.0510713 4.09481e-05 0)
(0.147705 0.000549808 0)
(0.147047 0.000574292 0)
(0.146354 0.00058418 0)
(0.145645 0.000582735 0)
(0.144934 0.000572837 0)
(0.144231 0.000557031 0)
(0.143543 0.000537571 0)
(0.142875 0.00051646 0)
(0.142229 0.000495495 0)
(0.141605 0.000476293 0)
(0.230564 0.00128434 0)
(0.229705 0.00137369 0)
(0.228781 0.00142277 0)
(0.227817 0.00143994 0)
(0.226837 0.00143263 0)
(0.225858 0.0014075 0)
(0.224891 0.00137049 0)
(0.223946 0.00132692 0)
(0.223026 0.00128159 0)
(0.222133 0.00123889 0)
(0.30218 0.00214564 0)
(0.301256 0.00233589 0)
(0.300238 0.00245089 0)
(0.299159 0.00250543 0)
(0.298048 0.00251287 0)
(0.296924 0.0024852 0)
(0.295806 0.00243326 0)
(0.294705 0.0023668 0)
(0.293626 0.00229468 0)
(0.292575 0.00222498 0)
(0.362607 0.0029968 0)
(0.361717 0.00331561 0)
(0.360713 0.00351952 0)
(0.359633 0.00363012 0)
(0.358507 0.00366704 0)
(0.357358 0.00364811 0)
(0.356204 0.00358948 0)
(0.35506 0.00350585 0)
(0.353935 0.00341062 0)
(0.352831 0.00331607 0)
(0.411949 0.00376863 0)
(0.411153 0.00422754 0)
(0.410242 0.00453201 0)
(0.409248 0.00470992 0)
(0.408202 0.00478682 0)
(0.407126 0.00478609 0)
(0.406038 0.00472909 0)
(0.404954 0.00463535 0)
(0.403881 0.0045228 0)
(0.402826 0.00440795 0)
(0.450353 0.00442883 0)
(0.449684 0.00501984 0)
(0.448913 0.00542159 0)
(0.448068 0.00566709 0)
(0.447174 0.00578682 0)
(0.44625 0.00580886 0)
(0.445312 0.00575902 0)
(0.444373 0.0056611 0)
(0.44344 0.00553703 0)
(0.442519 0.00540715 0)
(0.477992 0.00496832 0)
(0.477465 0.00566427 0)
(0.476865 0.00614474 0)
(0.476211 0.00644626 0)
(0.475521 0.00660276 0)
(0.474808 0.00664572 0)
(0.474084 0.00660427 0)
(0.473357 0.00650542 0)
(0.472635 0.00637424 0)
(0.47192 0.00623409 0)
(0.495054 0.00538652 0)
(0.494678 0.0061451 0)
(0.494269 0.0066732 0)
(0.493835 0.00700904 0)
(0.493385 0.00718831 0)
(0.492926 0.00724432 0)
(0.492462 0.0072081 0)
(0.491998 0.00710858 0)
(0.491537 0.00697276 0)
(0.491081 0.00682598 0)
(0.501737 0.00567861 0)
(0.501524 0.00644902 0)
(0.501324 0.00698635 0)
(0.501132 0.00732866 0)
(0.500947 0.00751166 0)
(0.500767 0.00756886 0)
(0.500593 0.00753165 0)
(0.500422 0.00742947 0)
(0.500256 0.00728995 0)
(0.500092 0.00713915 0)
(0.498251 0.00582793 0)
(0.498223 0.00655889 0)
(0.498248 0.00706625 0)
(0.498314 0.00738623 0)
(0.498408 0.00755293 0)
(0.498523 0.00759853 0)
(0.498651 0.0075533 0)
(0.498787 0.0074458 0)
(0.498927 0.00730299 0)
(0.499068 0.00715043 0)
(0.484828 0.00580598 0)
(0.485009 0.00645338 0)
(0.485276 0.00689715 0)
(0.485608 0.00717025 0)
(0.485985 0.00730383 0)
(0.486393 0.00732737 0)
(0.486819 0.00726876 0)
(0.487255 0.00715445 0)
(0.487694 0.00700954 0)
(0.488131 0.00685792 0)
(0.46172 0.00557983 0)
(0.462131 0.00611265 0)
(0.462648 0.00646977 0)
(0.463242 0.00667984 0)
(0.46389 0.00676998 0)
(0.464573 0.00676597 0)
(0.465276 0.0066923 0)
(0.465986 0.00657232 0)
(0.466695 0.00642827 0)
(0.467397 0.00628146 0)
(0.429195 0.00512466 0)
(0.429841 0.00552824 0)
(0.430597 0.00578899 0)
(0.431432 0.00593047 0)
(0.43232 0.00597515 0)
(0.433239 0.00594439 0)
(0.434174 0.00585864 0)
(0.43511 0.00573738 0)
(0.436039 0.00559938 0)
(0.436956 0.00546257 0)
(0.387519 0.00443761 0)
(0.388376 0.0047141 0)
(0.389335 0.00488219 0)
(0.390363 0.00496021 0)
(0.391434 0.00496556 0)
(0.392528 0.00491496 0)
(0.393628 0.00482438 0)
(0.394721 0.00470919 0)
(0.395799 0.00458413 0)
(0.396859 0.00446349 0)
(0.336922 0.00354939 0)
(0.337933 0.00371526 0)
(0.339025 0.00380575 0)
(0.340169 0.00383403 0)
(0.341341 0.00381255 0)
(0.342523 0.0037534 0)
(0.343699 0.00366806 0)
(0.34486 0.00356774 0)
(0.345998 0.00346313 0)
(0.347111 0.00336472 0)
(0.27758 0.00253132 0)
(0.278647 0.00261291 0)
(0.279769 0.00264822 0)
(0.280922 0.0026455 0)
(0.282087 0.00261288 0)
(0.283248 0.00255798 0)
(0.284393 0.00248835 0)
(0.285515 0.00241108 0)
(0.286609 0.00233327 0)
(0.287674 0.00226161 0)
(0.209594 0.00149795 0)
(0.210583 0.00152594 0)
(0.211601 0.00153057 0)
(0.212631 0.00151626 0)
(0.213658 0.00148726 0)
(0.214671 0.00144767 0)
(0.215662 0.00140146 0)
(0.216626 0.00135251 0)
(0.217561 0.00130456 0)
(0.218468 0.00126128 0)
(0.132992 0.000625795 0)
(0.133739 0.000627719 0)
(0.134494 0.000621595 0)
(0.135248 0.000609126 0)
(0.13599 0.000591821 0)
(0.136716 0.000571279 0)
(0.137421 0.000548926 0)
(0.138102 0.000526274 0)
(0.138759 0.000504674 0)
(0.139394 0.000485575 0)
(0.0477553 5.63357e-05 0)
(0.0480766 5.52019e-05 0)
(0.048396 5.3775e-05 0)
(0.0487099 5.21361e-05 0)
(0.0490156 5.03636e-05 0)
(0.0493112 4.85311e-05 0)
(0.0495953 4.67152e-05 0)
(0.0498677 4.49936e-05 0)
(0.0501284 4.34439e-05 0)
(0.0503784 4.21505e-05 0)
(0.0508352 3.99518e-05 0)
(0.0506063 3.93441e-05 0)
(0.050382 3.921e-05 0)
(0.050159 3.96514e-05 0)
(0.0499333 4.07581e-05 0)
(0.0497003 4.26436e-05 0)
(0.0494549 4.54079e-05 0)
(0.0491911 4.91813e-05 0)
(0.0489025 5.40782e-05 0)
(0.0485818 6.02492e-05 0)
(0.0482207 6.78262e-05 0)
(0.0478103 7.69818e-05 0)
(0.0473405 8.78651e-05 0)
(0.0468002 0.000100668 0)
(0.046177 0.000115552 0)
(0.0454574 0.000132717 0)
(0.0446263 0.000152324 0)
(0.0436672 0.000174568 0)
(0.0425617 0.000199599 0)
(0.04129 0.000227614 0)
(0.0398302 0.000258788 0)
(0.0381582 0.000293418 0)
(0.0362472 0.000331892 0)
(0.0340676 0.000374874 0)
(0.0315862 0.000423244 0)
(0.0287669 0.000478019 0)
(0.0255736 0.000539596 0)
(0.0219785 0.000606198 0)
(0.0179816 0.000670623 0)
(0.013646 0.000715352 0)
(0.00915387 0.000706878 0)
(0.00487655 0.000592572 0)
(0.0014196 0.000307831 0)
(-0.000497998 -0.000156786 0)
(-0.000497259 -0.000508364 0)
(0.141001 0.00046034 0)
(0.140413 0.000449007 0)
(0.139835 0.000443597 0)
(0.139259 0.000445359 0)
(0.138675 0.000455533 0)
(0.138073 0.00047536 0)
(0.13744 0.000506133 0)
(0.136761 0.000549206 0)
(0.136021 0.000606038 0)
(0.1352 0.000678209 0)
(0.134279 0.000767458 0)
(0.133233 0.000875698 0)
(0.132037 0.00100504 0)
(0.130663 0.00115782 0)
(0.129077 0.00133657 0)
(0.127244 0.0015441 0)
(0.125124 0.00178341 0)
(0.122671 0.00205776 0)
(0.119836 0.00237069 0)
(0.116562 0.00272603 0)
(0.112789 0.00312808 0)
(0.108447 0.00358166 0)
(0.103461 0.00409228 0)
(0.0977446 0.00466594 0)
(0.0912072 0.00530799 0)
(0.0837527 0.00601981 0)
(0.0752899 0.00679115 0)
(0.065755 0.00758502 0)
(0.0551537 0.00831271 0)
(0.0436375 0.00880109 0)
(0.0316119 0.00876522 0)
(0.0198656 0.00782393 0)
(0.00965845 0.00563286 0)
(0.00260735 0.00230384 0)
(-0.000173372 -0.000570467 0)
(0.221265 0.00120281 0)
(0.220417 0.00117709 0)
(0.219582 0.00116528 0)
(0.218749 0.00117077 0)
(0.217906 0.00119695 0)
(0.217037 0.0012472 0)
(0.216125 0.00132501 0)
(0.21515 0.00143409 0)
(0.214088 0.00157838 0)
(0.212912 0.0017622 0)
(0.211594 0.00199025 0)
(0.2101 0.00226782 0)
(0.208392 0.00260071 0)
(0.206429 0.00299544 0)
(0.204162 0.00345921 0)
(0.201537 0.00400003 0)
(0.198495 0.00462673 0)
(0.194968 0.00534908 0)
(0.190878 0.00617778 0)
(0.18614 0.00712472 0)
(0.180655 0.00820299 0)
(0.174315 0.00942714 0)
(0.166997 0.0108129 0)
(0.158565 0.012376 0)
(0.14887 0.0141288 0)
(0.137753 0.0160714 0)
(0.125062 0.0181732 0)
(0.110674 0.0203389 0)
(0.0945508 0.0223538 0)
(0.0768312 0.0238128 0)
(0.0579722 0.0240626 0)
(0.0389281 0.0222295 0)
(0.0213529 0.0174802 0)
(0.00776555 0.009799 0)
(0.000453311 0.00167448 0)
(0.291548 0.00216514 0)
(0.290543 0.00212211 0)
(0.289551 0.00210246 0)
(0.288561 0.00211252 0)
(0.287559 0.00215854 0)
(0.286528 0.0022468 0)
(0.285448 0.00238377 0)
(0.284295 0.00257626 0)
(0.283041 0.00283159 0)
(0.281657 0.00315774 0)
(0.280107 0.00356351 0)
(0.278351 0.00405872 0)
(0.276344 0.00465436 0)
(0.274035 0.00536277 0)
(0.271367 0.00619782 0)
(0.268273 0.00717507 0)
(0.264679 0.00831197 0)
(0.2605 0.00962804 0)
(0.255638 0.0111451 0)
(0.249983 0.0128875 0)
(0.243407 0.0148825 0)
(0.235769 0.0171601 0)
(0.226902 0.0197528 0)
(0.216623 0.0226932 0)
(0.204723 0.0260079 0)
(0.190977 0.0297028 0)
(0.175147 0.0337334 0)
(0.157009 0.0379491 0)
(0.136404 0.0420038 0)
(0.113331 0.045233 0)
(0.0881151 0.0465346 0)
(0.061662 0.0443542 0)
(0.035887 0.0370011 0)
(0.0144105 0.0237001 0)
(0.00124774 0.00701637 0)
(0.351751 0.00323356 0)
(0.350689 0.00317371 0)
(0.34964 0.00314657 0)
(0.348593 0.00316186 0)
(0.347533 0.00322915 0)
(0.346443 0.00335805 0)
(0.345303 0.00355846 0)
(0.344088 0.00384084 0)
(0.342769 0.00421637 0)
(0.341315 0.00469733 0)
(0.339688 0.0052973 0)
(0.337846 0.00603149 0)
(0.335741 0.00691702 0)
(0.333317 0.00797331 0)
(0.330512 0.00922235 0)
(0.327254 0.0106891 0)
(0.323459 0.0124018 0)
(0.319031 0.0143926 0)
(0.313862 0.0166978 0)
(0.307823 0.0193586 0)
(0.300768 0.0224213 0)
(0.292526 0.0259382 0)
(0.2829 0.0299662 0)
(0.271662 0.034565 0)
(0.258548 0.0397885 0)
(0.243259 0.0456665 0)
(0.225457 0.0521656 0)
(0.204776 0.0591145 0)
(0.18086 0.0660759 0)
(0.153441 0.0721555 0)
(0.122517 0.0757702 0)
(0.088698 0.0744879 0)
(0.0539348 0.0652158 0)
(0.0230628 0.0453929 0)
(0.00234826 0.0163443 0)
(0.401788 0.00430613 0)
(0.400767 0.00423173 0)
(0.399756 0.0041984 0)
(0.398746 0.00421936 0)
(0.397723 0.00430762 0)
(0.396672 0.00447628 0)
(0.395574 0.00473883 0)
(0.394404 0.00510952 0)
(0.393137 0.00560365 0)
(0.39174 0.00623803 0)
(0.390179 0.00703131 0)
(0.388411 0.0080045 0)
(0.386388 0.0091814 0)
(0.384058 0.0105891 0)
(0.381356 0.0122587 0)
(0.378209 0.0142257 0)
(0.374533 0.0165307 0)
(0.370229 0.0192205 0)
(0.365183 0.0223485 0)
(0.359261 0.0259761 0)
(0.352304 0.0301738 0)
(0.344129 0.0350217 0)
(0.334515 0.0406103 0)
(0.323205 0.0470381 0)
(0.309889 0.0544045 0)
(0.294199 0.0627902 0)
(0.275695 0.0722146 0)