/*--------------------------------*- C++ -*----------------------------------*\
| =========                 |                                                 |
| \\      /  F ield         | OpenFOAM: The Open Source CFD Toolbox           |
|  \\    /   O peration     | Version:  2406                                  |
|   \\  /    A nd           | Website:  www.openfoam.com                      |
|    \\/     M anipulation  |                                                 |
\*---------------------------------------------------------------------------*/
FoamFile
{
    version     2.0;
    format      ascii;
    arch        "LSB;label=32;scalar=64";
    class       volScalarField;
    location    "62";
    object      p;
}
// * * * * * * * * * * * * * * * * * * * * * * * * * * * * * * * * * * * * * //

dimensions      [0 2 -2 0 0 0 0];

internalField   nonuniform List<scalar> 
2000
(
1.39787
1.38527
1.37199
1.35867
1.34504
1.33119
1.31724
1.30325
1.28922
1.27518
1.40139
1.38639
1.37211
1.35865
1.34499
1.33112
1.31718
1.3032
1.28918
1.27515
1.40315
1.387
1.37215
1.35865
1.34498
1.33108
1.31713
1.30315
1.28915
1.27512
1.40401
1.38742
1.37224
1.35869
1.345
1.33107
1.31711
1.30313
1.28912
1.27509
1.40458
1.38778
1.37234
1.35874
1.34504
1.33108
1.31709
1.3031
1.2891
1.27507
1.40501
1.38807
1.37244
1.3588
1.34508
1.33109
1.31708
1.30308
1.28908
1.27505
1.40531
1.3883
1.37254
1.35885
1.34512
1.3311
1.31707
1.30307
1.28906
1.27503
1.40552
1.38847
1.37261
1.3589
1.34516
1.33112
1.31707
1.30306
1.28904
1.27501
1.40566
1.38858
1.37266
1.35893
1.34518
1.33113
1.31707
1.30305
1.28903
1.275
1.40572
1.38863
1.37269
1.35895
1.3452
1.33114
1.31707
1.30305
1.28903
1.275
1.40572
1.38863
1.37269
1.35895
1.3452
1.33113
1.31707
1.30305
1.28903
1.275
1.40566
1.38858
1.37266
1.35893
1.34518
1.33113
1.31707
1.30305
1.28903
1.275
1.40552
1.38847
1.37261
1.3589
1.34516
1.33112
1.31707
1.30306
1.28904
1.27501
1.40531
1.3883
1.37254
1.35885
1.34512
1.3311
1.31707
1.30307
1.28906
1.27503
1.40501
1.38807
1.37244
1.3588
1.34508
1.33109
1.31708
1.30308
1.28908
1.27505
1.40458
1.38778
1.37234
1.35874
1.34504
1.33108
1.31709
1.3031
1.2891
1.27507
1.40401
1.38742
1.37224
1.35869
1.345
1.33107
1.3171
1.30313
1.28912
1.27509
1.40315
1.387
1.37215
1.35865
1.34497
1.33108
1.31713
1.30315
1.28915
1.27512
1.40139
1.38639
1.37211
1.35865
1.34499
1.33112
1.31718
1.3032
1.28918
1.27515
1.39787
1.38527
1.37198
1.35867
1.34504
1.33119
1.31724
1.30325
1.28922
1.27518
1.26112
1.24705
1.23298
1.2189
1.20482
1.19074
1.17665
1.16257
1.14848
1.13439
1.1203
1.10621
1.09212
1.07803
1.06394
1.04985
1.03576
1.02167
1.00758
0.993486
0.979394
0.965303
0.951211
0.93712
0.923028
0.908936
0.894845
0.880753
0.866661
0.852569
0.838477
0.824385
0.810293
0.796201
0.782109
1.26109
1.24703
1.23296
1.21889
1.20481
1.19073
1.17665
1.16256
1.14848
1.13439
1.1203
1.10621
1.09212
1.07803
1.06394
1.04985
1.03576
1.02167
1.00758
0.993486
0.979394
0.965303
0.951211
0.93712
0.923028
0.908936
0.894845
0.880753
0.866661
0.852569
0.838477
0.824386
0.810294
0.796202
0.78211
1.26107
1.24701
1.23295
1.21888
1.2048
1.19072
1.17664
1.16256
1.14847
1.13438
1.1203
1.10621
1.09212
1.07803
1.06394
1.04985
1.03576
1.02167
1.00758
0.993485
0.979394
0.965303
0.951211
0.93712
0.923028
0.908937
0.894845
0.880753
0.866661
0.85257
0.838478
0.824386
0.810294
0.796202
0.78211
1.26105
1.247
1.23293
1.21887
1.20479
1.19071
1.17663
1.16255
1.14847
1.13438
1.12029
1.10621
1.09212
1.07803
1.06394
1.04985
1.03576
1.02167
1.00758
0.993485
0.979394
0.965302
0.951211
0.93712
0.923028
0.908937
0.894845
0.880753
0.866662
0.85257
0.838478
0.824386
0.810294
0.796202
0.78211
1.26103
1.24698
1.23292
1.21885
1.20478
1.19071
1.17663
1.16255
1.14846
1.13438
1.12029
1.1062
1.09211
1.07803
1.06394
1.04985
1.03576
1.02167
1.00758
0.993484
0.979393
0.965302
0.951211
0.93712
0.923028
0.908937
0.894845
0.880753
0.866662
0.85257
0.838478
0.824386
0.810294
0.796202
0.78211
1.26101
1.24696
1.2329
1.21884
1.20477
1.1907
1.17662
1.16254
1.14846
1.13437
1.12029
1.1062
1.09211
1.07802
1.06393
1.04985
1.03576
1.02167
1.00757
0.993484
0.979393
0.965302
0.951211
0.937119
0.923028
0.908936
0.894845
0.880753
0.866662
0.85257
0.838478
0.824386
0.810294
0.796202
0.78211
1.26099
1.24694
1.23289
1.21882
1.20476
1.19069
1.17661
1.16253
1.14845
1.13437
1.12028
1.1062
1.09211
1.07802
1.06393
1.04984
1.03575
1.02166
1.00757
0.993483
0.979392
0.965301
0.95121
0.937119
0.923027
0.908936
0.894844
0.880753
0.866661
0.85257
0.838478
0.824386
0.810294
0.796202
0.78211
1.26097
1.24692
1.23287
1.21881
1.20475
1.19068
1.1766
1.16252
1.14844
1.13436
1.12028
1.10619
1.09211
1.07802
1.06393
1.04984
1.03575
1.02166
1.00757
0.993482
0.979391
0.9653
0.951209
0.937118
0.923027
0.908935
0.894844
0.880752
0.866661
0.852569
0.838478
0.824386
0.810294
0.796202
0.78211
1.26096
1.24691
1.23286
1.2188
1.20474
1.19067
1.1766
1.16252
1.14844
1.13436
1.12028
1.10619
1.0921
1.07802
1.06393
1.04984
1.03575
1.02166
1.00757
0.993481
0.97939
0.9653
0.951209
0.937117
0.923026
0.908935
0.894843
0.880752
0.86666
0.852569
0.838477
0.824385
0.810294
0.796202
0.78211
1.26095
1.24691
1.23285
1.2188
1.20473
1.19066
1.17659
1.16252
1.14844
1.13436
1.12027
1.10619
1.0921
1.07802
1.06393
1.04984
1.03575
1.02166
1.00757
0.99348
0.97939
0.965299
0.951208
0.937117
0.923025
0.908934
0.894843
0.880751
0.86666
0.852568
0.838476
0.824385
0.810293
0.796201
0.78211
1.26095
1.24691
1.23285
1.2188
1.20473
1.19066
1.17659
1.16252
1.14844
1.13436
1.12027
1.10619
1.0921
1.07802
1.06393
1.04984
1.03575
1.02166
1.00757
0.99348
0.979389
0.965298
0.951207
0.937116
0.923025
0.908933
0.894842
0.88075
0.866659
0.852567
0.838476
0.824384
0.810292
0.796201
0.782109
1.26096
1.24691
1.23286
1.2188
1.20474
1.19067
1.17659
1.16252
1.14844
1.13436
1.12027
1.10619
1.0921
1.07802
1.06393
1.04984
1.03575
1.02166
1.00757
0.993479
0.979389
0.965298
0.951207
0.937115
0.923024
0.908933
0.894841
0.88075
0.866658
0.852567
0.838475
0.824383
0.810292
0.7962
0.782108
1.26097
1.24692
1.23287
1.21881
1.20475
1.19067
1.1766
1.16252
1.14844
1.13436
1.12028
1.10619
1.09211
1.07802
1.06393
1.04984
1.03575
1.02166
1.00757
0.993479
0.979389
0.965297
0.951206
0.937115
0.923024
0.908932
0.894841
0.880749
0.866658
0.852566
0.838474
0.824383
0.810291
0.7962
0.782108
1.26099
1.24694
1.23289
1.21882
1.20476
1.19068
1.17661
1.16253
1.14845
1.13437
1.12028
1.10619
1.09211
1.07802
1.06393
1.04984
1.03575
1.02166
1.00757
0.99348
0.979389
0.965297
0.951206
0.937115
0.923023
0.908932
0.89484
0.880749
0.866657
0.852566
0.838474
0.824382
0.810291
0.796199
0.782108
1.26101
1.24696
1.2329
1.21884
1.20477
1.19069
1.17662
1.16254
1.14845
1.13437
1.12028
1.1062
1.09211
1.07802
1.06393
1.04984
1.03575
1.02166
1.00757
0.99348
0.979389
0.965297
0.951206
0.937115
0.923023
0.908932
0.89484
0.880748
0.866657
0.852565
0.838474
0.824382
0.81029
0.796199
0.782107
1.26103
1.24698
1.23292
1.21885
1.20478
1.1907
1.17663
1.16254
1.14846
1.13437
1.12029
1.1062
1.09211
1.07802
1.06393
1.04984
1.03575
1.02166
1.00757
0.99348
0.979389
0.965298
0.951206
0.937115
0.923023
0.908932
0.89484
0.880748
0.866657
0.852565
0.838474
0.824382
0.81029
0.796199
0.782107
1.26105
1.247
1.23293
1.21886
1.20479
1.19071
1.17663
1.16255
1.14846
1.13438
1.12029
1.1062
1.09211
1.07802
1.06393
1.04984
1.03575
1.02166
1.00757
0.993481
0.979389
0.965298
0.951206
0.937115
0.923023
0.908932
0.89484
0.880748
0.866657
0.852565
0.838474
0.824382
0.81029
0.796199
0.782107
1.26107
1.24701
1.23295
1.21888
1.2048
1.19072
1.17664
1.16255
1.14847
1.13438
1.12029
1.10621
1.09212
1.07803
1.06394
1.04985
1.03575
1.02166
1.00757
0.993481
0.97939
0.965298
0.951207
0.937115
0.923024
0.908932
0.89484
0.880749
0.866657
0.852565
0.838474
0.824382
0.810291
0.796199
0.782108
1.26109
1.24703
1.23296
1.21889
1.20481
1.19073
1.17665
1.16256
1.14847
1.13439
1.1203
1.10621
1.09212
1.07803
1.06394
1.04985
1.03576
1.02166
1.00757
0.993482
0.97939
0.965299
0.951207
0.937116
0.923024
0.908932
0.894841
0.880749
0.866658
0.852566
0.838474
0.824383
0.810291
0.7962
0.782108
1.26112
1.24705
1.23298
1.2189
1.20482
1.19074
1.17665
1.16257
1.14848
1.13439
1.1203
1.10621
1.09212
1.07803
1.06394
1.04985
1.03576
1.02167
1.00757
0.993483
0.979391
0.965299
0.951208
0.937116
0.923025
0.908933
0.894841
0.88075
0.866658
0.852566
0.838475
0.824383
0.810292
0.7962
0.782109
0.768017
0.753925
0.739833
0.725741
0.711648
0.697556
0.683464
0.669372
0.655279
0.641187
0.768017
0.753925
0.739833
0.725741
0.711649
0.697556
0.683464
0.669372
0.655279
0.641187
0.768018
0.753926
0.739833
0.725741
0.711649
0.697557
0.683464
0.669372
0.65528
0.641187
0.768018
0.753926
0.739834
0.725741
0.711649
0.697557
0.683465
0.669372
0.65528
0.641188
0.768018
0.753926
0.739834
0.725742
0.711649
0.697557
0.683465
0.669373
0.65528
0.641188
0.768018
0.753926
0.739834
0.725742
0.71165
0.697557
0.683465
0.669373
0.655281
0.641188
0.768018
0.753926
0.739834
0.725742
0.71165
0.697558
0.683465
0.669373
0.655281
0.641189
0.768018
0.753926
0.739834
0.725742
0.71165
0.697558
0.683466
0.669373
0.655281
0.641189
0.768018
0.753926
0.739834
0.725742
0.71165
0.697558
0.683466
0.669374
0.655282
0.641189
0.768018
0.753926
0.739834
0.725742
0.71165
0.697558
0.683466
0.669374
0.655282
0.64119
0.768017
0.753925
0.739834
0.725742
0.71165
0.697558
0.683466
0.669374
0.655282
0.64119
0.768017
0.753925
0.739833
0.725742
0.71165
0.697558
0.683466
0.669375
0.655283
0.641191
0.768016
0.753925
0.739833
0.725741
0.71165
0.697558
0.683466
0.669375
0.655283
0.641191
0.768016
0.753924
0.739833
0.725741
0.71165
0.697558
0.683466
0.669375
0.655283
0.641191
0.768016
0.753924
0.739833
0.725741
0.71165
0.697558
0.683467
0.669375
0.655283
0.641192
0.768016
0.753924
0.739833
0.725741
0.71165
0.697558
0.683467
0.669375
0.655284
0.641192
0.768016
0.753924
0.739833
0.725741
0.71165
0.697558
0.683467
0.669375
0.655284
0.641192
0.768016
0.753925
0.739833
0.725742
0.71165
0.697559
0.683467
0.669376
0.655284
0.641192
0.768017
0.753925
0.739834
0.725742
0.711651
0.697559
0.683468
0.669376
0.655284
0.641193
0.768017
0.753926
0.739834
0.725743
0.711651
0.69756
0.683468
0.669376
0.655285
0.641193
0.627095
0.613003
0.59891
0.584818
0.570726
0.556634
0.542542
0.52845
0.514358
0.500266
0.486174
0.472082
0.45799
0.443899
0.429807
0.415715
0.401623
0.387531
0.37344
0.359348
0.345256
0.331164
0.317072
0.30298
0.288888
0.274796
0.260704
0.246612
0.23252
0.218428
0.204335
0.190243
0.176151
0.162059
0.147967
0.627095
0.613003
0.59891
0.584818
0.570726
0.556634
0.542542
0.52845
0.514358
0.500266
0.486174
0.472082
0.45799
0.443899
0.429807
0.415715
0.401623
0.387531
0.37344
0.359348
0.345256
0.331164
0.317072
0.30298
0.288888
0.274796
0.260704
0.246612
0.23252
0.218428
0.204335
0.190243
0.176151
0.162059
0.147967
0.627095
0.613003
0.598911
0.584818
0.570726
0.556634
0.542542
0.52845
0.514358
0.500266
0.486174
0.472082
0.45799
0.443898
0.429807
0.415715
0.401623
0.387531
0.373439
0.359348
0.345256
0.331164
0.317072
0.30298
0.288888
0.274796
0.260704
0.246612
0.23252
0.218428
0.204335
0.190243
0.176151
0.162059
0.147967
0.627095
0.613003
0.598911
0.584819
0.570726
0.556634
0.542542
0.52845
0.514358
0.500266
0.486174
0.472082
0.45799
0.443898
0.429807
0.415715
0.401623
0.387531
0.373439
0.359347
0.345256
0.331164
0.317072
0.30298
0.288888
0.274796
0.260704
0.246612
0.23252
0.218427
0.204335
0.190243
0.176151
0.162059
0.147967
0.627096
0.613003
0.598911
0.584819
0.570727
0.556634
0.542542
0.52845
0.514358
0.500266
0.486174
0.472082
0.45799
0.443898
0.429807
0.415715
0.401623
0.387531
0.373439
0.359347
0.345256
0.331164
0.317072
0.30298
0.288888
0.274796
0.260704
0.246612
0.23252
0.218427
0.204335
0.190243
0.176151
0.162059
0.147967
0.627096
0.613004
0.598911
0.584819
0.570727
0.556635
0.542543
0.52845
0.514358
0.500266
0.486174
0.472082
0.457991
0.443899
0.429807
0.415715
0.401623
0.387531
0.373439
0.359347
0.345255
0.331164
0.317072
0.30298
0.288888
0.274796
0.260704
0.246612
0.232519
0.218427
0.204335
0.190243
0.176151
0.162059
0.147966
0.627096
0.613004
0.598912
0.58482
0.570727
0.556635
0.542543
0.528451
0.514359
0.500267
0.486175
0.472083
0.457991
0.443899
0.429807
0.415715
0.401623
0.387531
0.373439
0.359347
0.345255
0.331163
0.317072
0.30298
0.288888
0.274795
0.260703
0.246611
0.232519
0.218427
0.204335
0.190243
0.176151
0.162059
0.147966
0.627097
0.613005
0.598912
0.58482
0.570728
0.556636
0.542544
0.528452
0.514359
0.500267
0.486175
0.472083
0.457991
0.443899
0.429807
0.415715
0.401623
0.387531
0.373439
0.359347
0.345255
0.331163
0.317071
0.302979
0.288887
0.274795
0.260703
0.246611
0.232519
0.218427
0.204335
0.190243
0.17615
0.162058
0.147966
0.627097
0.613005
0.598913
0.584821
0.570729
0.556637
0.542544
0.528452
0.51436
0.500268
0.486176
0.472084
0.457992
0.4439
0.429808
0.415716
0.401624
0.387532
0.37344
0.359347
0.345255
0.331163
0.317071
0.302979
0.288887
0.274795
0.260703
0.246611
0.232519
0.218427
0.204335
0.190242
0.17615
0.162058
0.147966
0.627098
0.613006
0.598914
0.584822
0.570729
0.556637
0.542545
0.528453
0.514361
0.500269
0.486177
0.472084
0.457992
0.4439
0.429808
0.415716
0.401624
0.387532
0.37344
0.359348
0.345255
0.331163
0.317071
0.302979
0.288887
0.274795
0.260703
0.246611
0.232518
0.218426
0.204334
0.190242
0.17615
0.162058
0.147966
0.627098
0.613006
0.598914
0.584822
0.57073
0.556638
0.542546
0.528454
0.514362
0.50027
0.486177
0.472085
0.457993
0.443901
0.429809
0.415716
0.401624
0.387532
0.37344
0.359348
0.345255
0.331163
0.317071
0.302979
0.288887
0.274795
0.260702
0.24661
0.232518
0.218426
0.204334
0.190242
0.17615
0.162058
0.147966
0.627099
0.613007
0.598915
0.584823
0.570731
0.556639
0.542547
0.528455
0.514362
0.50027
0.486178
0.472086
0.457994
0.443901
0.429809
0.415717
0.401624
0.387532
0.37344
0.359348
0.345255
0.331163
0.317071
0.302979
0.288887
0.274794
0.260702
0.24661
0.232518
0.218426
0.204334
0.190242
0.17615
0.162058
0.147966
0.627099
0.613007
0.598916
0.584824
0.570732
0.55664
0.542547
0.528455
0.514363
0.500271
0.486179
0.472086
0.457994
0.443902
0.429809
0.415717
0.401625
0.387532
0.37344
0.359348
0.345255
0.331163
0.317071
0.302979
0.288886
0.274794
0.260702
0.24661
0.232518
0.218426
0.204334
0.190241
0.176149
0.162057
0.147965
0.6271
0.613008
0.598916
0.584824
0.570732
0.55664
0.542548
0.528456
0.514364
0.500272
0.486179
0.472087
0.457995
0.443902
0.42981
0.415717
0.401625
0.387533
0.37344
0.359348
0.345255
0.331163
0.317071
0.302978
0.288886
0.274794
0.260702
0.24661
0.232518
0.218425
0.204333
0.190241
0.176149
0.162057
0.147965
0.6271
0.613008
0.598916
0.584825
0.570733
0.556641
0.542549
0.528456
0.514364
0.500272
0.48618
0.472087
0.457995
0.443902
0.42981
0.415718
0.401625
0.387533
0.37344
0.359348
0.345255
0.331163
0.317071
0.302978
0.288886
0.274794
0.260702
0.24661
0.232517
0.218425
0.204333
0.190241
0.176149
0.162057
0.147965
0.6271
0.613009
0.598917
0.584825
0.570733
0.556641
0.542549
0.528457
0.514364
0.500272
0.48618
0.472088
0.457995
0.443903
0.42981
0.415718
0.401625
0.387533
0.37344
0.359348
0.345255
0.331163
0.317071
0.302978
0.288886
0.274794
0.260702
0.246609
0.232517
0.218425
0.204333
0.190241
0.176149
0.162057
0.147965
0.627101
0.613009
0.598917
0.584825
0.570733
0.556641
0.542549
0.528457
0.514365
0.500272
0.48618
0.472088
0.457995
0.443903
0.42981
0.415718
0.401625
0.387533
0.37344
0.359348
0.345255
0.331163
0.317071
0.302978
0.288886
0.274794
0.260701
0.246609
0.232517
0.218425
0.204333
0.190241
0.176149
0.162057
0.147965
0.627101
0.613009
0.598917
0.584825
0.570733
0.556641
0.542549
0.528457
0.514365
0.500272
0.48618
0.472088
0.457995
0.443903
0.42981
0.415718
0.401625
0.387533
0.37344
0.359348
0.345255
0.331163
0.317071
0.302978
0.288886
0.274794
0.260701
0.246609
0.232517
0.218425
0.204333
0.190241
0.176149
0.162057
0.147965
0.627101
0.613009
0.598917
0.584826
0.570734
0.556641
0.542549
0.528457
0.514365
0.500272
0.48618
0.472088
0.457995
0.443903
0.42981
0.415718
0.401625
0.387533
0.37344
0.359348
0.345255
0.331163
0.31707
0.302978
0.288886
0.274794
0.260701
0.246609
0.232517
0.218425
0.204333
0.190241
0.176149
0.162057
0.147965
0.627101
0.61301
0.598918
0.584826
0.570734
0.556642
0.542549
0.528457
0.514365
0.500273
0.48618
0.472088
0.457995
0.443903
0.42981
0.415718
0.401625
0.387532
0.37344
0.359348
0.345255
0.331163
0.31707
0.302978
0.288886
0.274793
0.260701
0.246609
0.232517
0.218425
0.204333
0.190241
0.176149
0.162057
0.147965
0.133874
0.119782
0.10569
0.091598
0.0775058
0.0634137
0.0493217
0.0352298
0.0211372
0.00704521
0.133875
0.119782
0.10569
0.091598
0.0775059
0.0634137
0.0493216
0.0352306
0.0211369
0.00704399
0.133875
0.119782
0.10569
0.0915981
0.077506
0.0634137
0.0493214
0.0352311
0.021137
0.00704403
0.133874
0.119782
0.10569
0.091598
0.077506
0.0634137
0.0493215
0.0352309
0.0211367
0.00704405
0.133874
0.119782
0.10569
0.091598
0.077506
0.0634137
0.0493215
0.035231
0.0211363
0.00704406
0.133874
0.119782
0.10569
0.0915979
0.0775059
0.0634136
0.0493215
0.035231
0.021136
0.0070442
0.133874
0.119782
0.10569
0.0915978
0.0775058
0.0634135
0.0493214
0.035231
0.0211356
0.00704434
0.133874
0.119782
0.10569
0.0915977
0.0775057
0.0634134
0.0493214
0.0352309
0.0211354
0.00704448
0.133874
0.119782
0.10569
0.0915976
0.0775056
0.0634134
0.0493214
0.035231
0.0211353
0.00704462
0.133874
0.119782
0.10569
0.0915976
0.0775056
0.0634134
0.0493214
0.0352311
0.0211353
0.00704474
0.133874
0.119782
0.10569
0.0915975
0.0775055
0.0634134
0.0493215
0.0352311
0.0211355
0.00704482
0.133874
0.119781
0.105689
0.0915975
0.0775056
0.0634135
0.0493216
0.0352313
0.0211357
0.00704486
0.133873
0.119781
0.105689
0.0915975
0.0775056
0.0634136
0.0493217
0.0352314
0.0211361
0.00704486
0.133873
0.119781
0.105689
0.0915976
0.0775057
0.0634137
0.0493218
0.0352316
0.0211365
0.00704482
0.133873
0.119781
0.105689
0.0915976
0.0775058
0.0634138
0.0493219
0.0352316
0.0211369
0.00704475
0.133873
0.119781
0.10569
0.0915976
0.0775059
0.0634138
0.0493219
0.0352316
0.0211373
0.00704463
0.133873
0.119781
0.10569
0.0915977
0.0775059
0.0634139
0.0493219
0.0352315
0.0211376
0.00704463
0.133873
0.119781
0.10569
0.0915977
0.0775059
0.063414
0.0493217
0.0352317
0.021138
0.00704458
0.133873
0.119781
0.10569
0.0915977
0.0775059
0.0634138
0.0493219
0.0352312
0.0211377
0.00704445
0.133873
0.119781
0.10569
0.0915977
0.0775058
0.0634139
0.0493221
0.0352304
0.0211379
0.00704563
)
;

boundaryField
{
    inlet
    {
        type            zeroGradient;
    }
    outlet
    {
        type            fixedValue;
        value           uniform 0;
    }
    upperWall
    {
        type            zeroGradient;
    }
    lowerWall
    {
        type            zeroGradient;
    }
    frontAndBack
    {
        type            empty;
    }
}


// ************************************************************************* //
