/*--------------------------------*- C++ -*----------------------------------*\
| =========                 |                                                 |
| \\      /  F ield         | OpenFOAM: The Open Source CFD Toolbox           |
|  \\    /   O peration     | Version:  2406                                  |
|   \\  /    A nd           | Website:  www.openfoam.com                      |
|    \\/     M anipulation  |                                                 |
\*---------------------------------------------------------------------------*/
FoamFile
{
    version     2.0;
    format      ascii;
    arch        "LSB;label=32;scalar=64";
    class       volVectorField;
    location    "62";
    object      U;
}
// * * * * * * * * * * * * * * * * * * * * * * * * * * * * * * * * * * * * * //

dimensions      [0 1 -1 0 0 0 0];

internalField   nonuniform List<vector> 
2000
(
(0.0968484 -0.000352472 0)
(0.0988107 -0.000229806 0)
(0.0995267 -0.000143023 0)
(0.0998408 -9.45507e-05 0)
(0.100073 -5.73773e-05 0)
(0.100239 -3.32056e-05 0)
(0.100349 -2.00501e-05 0)
(0.100424 -1.29879e-05 0)
(0.100478 -8.841e-06 0)
(0.100518 -6.21512e-06 0)
(0.275522 -0.000959008 0)
(0.277314 -0.00109097 0)
(0.277987 -0.000742369 0)
(0.27823 -0.000504907 0)
(0.278508 -0.000353592 0)
(0.278766 -0.000245238 0)
(0.278963 -0.000171237 0)
(0.279112 -0.000122851 0)
(0.279227 -9.05154e-05 0)
(0.279317 -6.79692e-05 0)
(0.435556 -0.000736146 0)
(0.436992 -0.00109906 0)
(0.437404 -0.000945392 0)
(0.437404 -0.000760933 0)
(0.437552 -0.000603784 0)
(0.437761 -0.000465106 0)
(0.437944 -0.000353367 0)
(0.438096 -0.000269786 0)
(0.438222 -0.000207923 0)
(0.438327 -0.000161445 0)
(0.575683 -0.000482168 0)
(0.576966 -0.000902794 0)
(0.577262 -0.000923801 0)
(0.577075 -0.000842793 0)
(0.577067 -0.000735965 0)
(0.57717 -0.000614301 0)
(0.577282 -0.000498156 0)
(0.577385 -0.000399873 0)
(0.577482 -0.000320163 0)
(0.577568 -0.00025603 0)
(0.695784 -0.000323655 0)
(0.697005 -0.000693204 0)
(0.697291 -0.000791825 0)
(0.69701 -0.000788694 0)
(0.696883 -0.000741164 0)
(0.696884 -0.000659541 0)
(0.69691 -0.000564463 0)
(0.696943 -0.000473243 0)
(0.696986 -0.000392304 0)
(0.697032 -0.000322591 0)
(0.795861 -0.000219995 0)
(0.797047 -0.000510055 0)
(0.797363 -0.00062547 0)
(0.797053 -0.000663056 0)
(0.796858 -0.000658811 0)
(0.796786 -0.000616578 0)
(0.79674 -0.000551388 0)
(0.796706 -0.000479649 0)
(0.79669 -0.00040997 0)
(0.796687 -0.000345769 0)
(0.875916 -0.000147955 0)
(0.877077 -0.000360169 0)
(0.877429 -0.000462575 0)
(0.877122 -0.000512049 0)
(0.876897 -0.000529857 0)
(0.876784 -0.00051508 0)
(0.876689 -0.00047661 0)
(0.876604 -0.000427067 0)
(0.876537 -0.0003744 0)
(0.876488 -0.000322649 0)
(0.935955 -9.51985e-05 0)
(0.937095 -0.000238468 0)
(0.937477 -0.000315168 0)
(0.937184 -0.000358862 0)
(0.93695 -0.000381776 0)
(0.936817 -0.00038119 0)
(0.936695 -0.000361545 0)
(0.936575 -0.000331185 0)
(0.936472 -0.000296012 0)
(0.936387 -0.000259412 0)
(0.975979 -5.34543e-05 0)
(0.977105 -0.000135948 0)
(0.977506 -0.000182597 0)
(0.977225 -0.000211391 0)
(0.976991 -0.000228732 0)
(0.976852 -0.000232257 0)
(0.976716 -0.000223814 0)
(0.976577 -0.000207998 0)
(0.976451 -0.00018831 0)
(0.976343 -0.000166891 0)
(0.995991 -1.72379e-05 0)
(0.997109 -4.41157e-05 0)
(0.997519 -5.96609e-05 0)
(0.997246 -6.95752e-05 0)
(0.997013 -7.58652e-05 0)
(0.996872 -7.76301e-05 0)
(0.996731 -7.53476e-05 0)
(0.996583 -7.04689e-05 0)
(0.996448 -6.41398e-05 0)
(0.996328 -5.70821e-05 0)
(0.995991 1.73052e-05 0)
(0.997109 4.43102e-05 0)
(0.997519 5.99932e-05 0)
(0.997246 7.00416e-05 0)
(0.997013 7.6456e-05 0)
(0.996872 7.83411e-05 0)
(0.996731 7.6182e-05 0)
(0.996583 7.14373e-05 0)
(0.996448 6.52587e-05 0)
(0.996328 5.83698e-05 0)
(0.975979 5.35182e-05 0)
(0.977105 0.000136135 0)
(0.977506 0.000182915 0)
(0.977225 0.000211839 0)
(0.976991 0.000229302 0)
(0.976852 0.000232943 0)
(0.976716 0.000224618 0)
(0.976577 0.00020893 0)
(0.976452 0.000189385 0)
(0.976343 0.000168127 0)
(0.935955 9.52598e-05 0)
(0.937095 0.000238644 0)
(0.937477 0.000315465 0)
(0.937184 0.000359275 0)
(0.93695 0.000382298 0)
(0.936817 0.000381819 0)
(0.936695 0.000362286 0)
(0.936575 0.000332043 0)
(0.936472 0.000297001 0)
(0.936388 0.000260547 0)
(0.875916 0.000148011 0)
(0.877077 0.000360329 0)
(0.877429 0.000462836 0)
(0.877122 0.000512408 0)
(0.876897 0.000530313 0)
(0.876784 0.000515632 0)
(0.87669 0.000477261 0)
(0.876604 0.000427821 0)
(0.876538 0.000375266 0)
(0.876489 0.000323639 0)
(0.795861 0.000220048 0)
(0.797047 0.000510191 0)
(0.797363 0.000625692 0)
(0.797053 0.000663356 0)
(0.796858 0.000659193 0)
(0.796786 0.000617045 0)
(0.79674 0.000551938 0)
(0.796707 0.000480282 0)
(0.796691 0.00041069 0)
(0.796688 0.000346587 0)
(0.695784 0.000323693 0)
(0.697005 0.000693315 0)
(0.697291 0.000791996 0)
(0.69701 0.000788929 0)
(0.696883 0.000741469 0)
(0.696884 0.000659917 0)
(0.69691 0.000564904 0)
(0.696944 0.000473744 0)
(0.696987 0.000392866 0)
(0.697033 0.00032322 0)
(0.575683 0.000482199 0)
(0.576966 0.000902876 0)
(0.577262 0.000923931 0)
(0.577075 0.000842965 0)
(0.577067 0.000736181 0)
(0.577171 0.000614567 0)
(0.577282 0.000498469 0)
(0.577386 0.000400227 0)
(0.577482 0.000320552 0)
(0.577569 0.000256459 0)
(0.435556 0.000736167 0)
(0.436992 0.00109912 0)
(0.437404 0.000945476 0)
(0.437404 0.000761039 0)
(0.437552 0.000603906 0)
(0.437761 0.000465247 0)
(0.437945 0.000353534 0)
(0.438096 0.000269978 0)
(0.438223 0.000208133 0)
(0.438328 0.000161671 0)
(0.275522 0.000959014 0)
(0.277314 0.001091 0)
(0.277987 0.000742408 0)
(0.278231 0.000504954 0)
(0.278508 0.000353636 0)
(0.278766 0.000245281 0)
(0.278964 0.00017129 0)
(0.279112 0.000122916 0)
(0.279227 9.05867e-05 0)
(0.279317 6.80438e-05 0)
(0.0968484 0.000352473 0)
(0.0988107 0.000229819 0)
(0.0995267 0.000143029 0)
(0.0998408 9.45505e-05 0)
(0.100073 5.73771e-05 0)
(0.100239 3.32063e-05 0)
(0.100349 2.005e-05 0)
(0.100424 1.2988e-05 0)
(0.100478 8.84099e-06 0)
(0.100518 6.21477e-06 0)
(0.100548 -4.48935e-06 0)
(0.100571 -3.32352e-06 0)
(0.100588 -2.51104e-06 0)
(0.100602 -1.92553e-06 0)
(0.100613 -1.49114e-06 0)
(0.100622 -1.16251e-06 0)
(0.100628 -9.11241e-07 0)
(0.100634 -7.17928e-07 0)
(0.100638 -5.68188e-07 0)
(0.100641 -4.51373e-07 0)
(0.100644 -3.59398e-07 0)
(0.100646 -2.86535e-07 0)
(0.100648 -2.28386e-07 0)
(0.100649 -1.81903e-07 0)
(0.10065 -1.44527e-07 0)
(0.100651 -1.14525e-07 0)
(0.100652 -9.02686e-08 0)
(0.100653 -7.07431e-08 0)
(0.100653 -5.48651e-08 0)
(0.100653 -4.20605e-08 0)
(0.100653 -3.15874e-08 0)
(0.100654 -2.31561e-08 0)
(0.100654 -1.62316e-08 0)
(0.100654 -1.06988e-08 0)
(0.100654 -6.14484e-09 0)
(0.100654 -2.55682e-09 0)
(0.100654 4.11868e-10 0)
(0.100654 2.71196e-09 0)
(0.100653 4.65004e-09 0)
(0.100653 6.13503e-09 0)
(0.100653 7.44643e-09 0)
(0.100653 8.46228e-09 0)
(0.100653 9.43972e-09 0)
(0.100653 1.02313e-08 0)
(0.100653 1.10721e-08 0)
(0.279387 -5.17603e-05 0)
(0.279442 -3.98771e-05 0)
(0.279485 -3.10285e-05 0)
(0.279519 -2.43385e-05 0)
(0.279547 -1.92036e-05 0)
(0.279568 -1.52124e-05 0)
(0.279586 -1.20837e-05 0)
(0.2796 -9.61922e-06 0)
(0.279611 -7.67109e-06 0)
(0.27962 -6.12533e-06 0)
(0.279627 -4.8933e-06 0)
(0.279633 -3.90672e-06 0)
(0.279637 -3.11322e-06 0)
(0.279641 -2.47276e-06 0)
(0.279644 -1.9543e-06 0)
(0.279646 -1.53356e-06 0)
(0.279648 -1.19126e-06 0)
(0.279649 -9.12035e-07 0)
(0.27965 -6.83548e-07 0)
(0.279651 -4.95997e-07 0)
(0.279651 -3.41507e-07 0)
(0.279652 -2.13876e-07 0)
(0.279652 -1.08112e-07 0)
(0.279652 -2.02964e-08 0)
(0.279652 5.2761e-08 0)
(0.279652 1.13559e-07 0)
(0.279651 1.64177e-07 0)
(0.279651 2.06235e-07 0)
(0.279651 2.41108e-07 0)
(0.27965 2.69848e-07 0)
(0.27965 2.93364e-07 0)
(0.279649 3.12323e-07 0)
(0.279649 3.27311e-07 0)
(0.279648 3.38722e-07 0)
(0.279648 3.46906e-07 0)
(0.438412 -0.000126101 0)
(0.438481 -9.90399e-05 0)
(0.438537 -7.81968e-05 0)
(0.438582 -6.20258e-05 0)
(0.438618 -4.93727e-05 0)
(0.438647 -3.93939e-05 0)
(0.438671 -3.14799e-05 0)
(0.43869 -2.51828e-05 0)
(0.438705 -2.01612e-05 0)
(0.438718 -1.61473e-05 0)
(0.438727 -1.29291e-05 0)
(0.438735 -1.034e-05 0)
(0.438742 -8.24965e-06 0)
(0.438747 -6.55694e-06 0)
(0.438751 -5.18236e-06 0)
(0.438754 -4.06351e-06 0)
(0.438756 -3.15035e-06 0)
(0.438758 -2.4031e-06 0)
(0.43876 -1.78948e-06 0)
(0.438761 -1.28394e-06 0)
(0.438761 -8.65675e-07 0)
(0.438762 -5.18449e-07 0)
(0.438762 -2.28962e-07 0)
(0.438762 1.30143e-08 0)
(0.438762 2.16001e-07 0)
(0.438761 3.86427e-07 0)
(0.438761 5.29803e-07 0)
(0.43876 6.50155e-07 0)
(0.43876 7.51069e-07 0)
(0.438759 8.35011e-07 0)
(0.438758 9.04303e-07 0)
(0.438758 9.60374e-07 0)
(0.438757 1.0047e-06 0)
(0.438756 1.038e-06 0)
(0.438755 1.06117e-06 0)
(0.577642 -0.000204629 0)
(0.577705 -0.000163626 0)
(0.577758 -0.000131017 0)
(0.577801 -0.000105078 0)
(0.577837 -8.43858e-05 0)
(0.577866 -6.78154e-05 0)
(0.57789 -5.451e-05 0)
(0.57791 -4.38131e-05 0)
(0.577926 -3.52085e-05 0)
(0.577938 -2.82807e-05 0)
(0.577949 -2.26933e-05 0)
(0.577957 -1.81758e-05 0)
(0.577964 -1.45137e-05 0)
(0.577969 -1.15372e-05 0)
(0.577973 -9.11226e-06 0)
(0.577977 -7.13197e-06 0)
(0.577979 -5.51079e-06 0)
(0.577981 -4.17968e-06 0)
(0.577983 -3.08303e-06 0)
(0.577984 -2.17592e-06 0)
(0.577984 -1.42242e-06 0)
(0.577984 -7.93656e-07 0)
(0.577985 -2.66703e-07 0)
(0.577984 1.76812e-07 0)
(0.577984 5.51379e-07 0)
(0.577983 8.68645e-07 0)
(0.577983 1.13771e-06 0)
(0.577982 1.36592e-06 0)
(0.577981 1.55889e-06 0)
(0.57798 1.72114e-06 0)
(0.577979 1.85601e-06 0)
(0.577978 1.96615e-06 0)
(0.577977 2.05339e-06 0)
(0.577976 2.11917e-06 0)
(0.577974 2.16434e-06 0)
(0.697076 -0.000263666 0)
(0.697116 -0.000214653 0)
(0.697151 -0.000174365 0)
(0.697181 -0.00014147 0)
(0.697207 -0.000114677 0)
(0.697229 -9.28602e-05 0)
(0.697247 -7.51022e-05 0)
(0.697262 -6.06636e-05 0)
(0.697275 -4.89397e-05 0)
(0.697285 -3.94265e-05 0)
(0.697293 -3.17038e-05 0)
(0.697299 -2.54259e-05 0)
(0.697305 -2.03127e-05 0)
(0.697309 -1.61395e-05 0)
(0.697312 -1.27264e-05 0)
(0.697315 -9.92907e-06 0)
(0.697317 -7.63052e-06 0)
(0.697318 -5.73609e-06 0)
(0.697319 -4.16891e-06 0)
(0.69732 -2.86677e-06 0)
(0.69732 -1.77956e-06 0)
(0.69732 -8.67096e-07 0)
(0.69732 -9.72614e-08 0)
(0.697319 5.55488e-07 0)
(0.697319 1.11144e-06 0)
(0.697318 1.58661e-06 0)
(0.697317 1.99365e-06 0)
(0.697316 2.3424e-06 0)
(0.697315 2.64048e-06 0)
(0.697314 2.8937e-06 0)
(0.697312 3.10637e-06 0)
(0.697311 3.28161e-06 0)
(0.697309 3.42159e-06 0)
(0.697308 3.52772e-06 0)
(0.697306 3.60084e-06 0)
(0.796691 -0.000288575 0)
(0.796698 -0.000238986 0)
(0.796707 -0.000196861 0)
(0.796716 -0.00016155 0)
(0.796725 -0.000132175 0)
(0.796733 -0.000107841 0)
(0.79674 -8.77518e-05 0)
(0.796746 -7.12255e-05 0)
(0.796751 -5.76747e-05 0)
(0.796755 -4.65888e-05 0)
(0.796759 -3.75275e-05 0)
(0.796762 -3.01179e-05 0)
(0.796764 -2.40518e-05 0)
(0.796766 -1.90777e-05 0)
(0.796767 -1.49915e-05 0)
(0.796768 -1.16278e-05 0)
(0.796769 -8.8515e-06 0)
(0.796769 -6.55235e-06 0)
(0.796769 -4.64034e-06 0)
(0.796769 -3.0423e-06 0)
(0.796769 -1.69909e-06 0)
(0.796768 -5.63174e-07 0)
(0.796768 4.03404e-07 0)
(0.796767 1.23082e-06 0)
(0.796766 1.94293e-06 0)
(0.796765 2.55844e-06 0)
(0.796764 3.09195e-06 0)
(0.796763 3.55465e-06 0)
(0.796761 3.95498e-06 0)
(0.79676 4.29914e-06 0)
(0.796758 4.59154e-06 0)
(0.796757 4.83507e-06 0)
(0.796755 5.03151e-06 0)
(0.796753 5.18174e-06 0)
(0.796752 5.286e-06 0)
(0.876451 -0.000274212 0)
(0.876424 -0.000230555 0)
(0.876403 -0.00019231 0)
(0.876387 -0.000159451 0)
(0.876375 -0.000131562 0)
(0.876366 -0.000108076 0)
(0.876359 -8.84224e-05 0)
(0.876354 -7.20694e-05 0)
(0.87635 -5.85321e-05 0)
(0.876347 -4.73678e-05 0)
(0.876344 -3.81788e-05 0)
(0.876342 -3.0619e-05 0)
(0.87634 -2.43955e-05 0)
(0.876338 -1.92653e-05 0)
(0.876337 -1.50289e-05 0)
(0.876336 -1.15225e-05 0)
(0.876334 -8.61162e-06 0)
(0.876333 -6.18539e-06 0)
(0.876332 -4.15294e-06 0)
(0.876331 -2.44006e-06 0)
(0.87633 -9.86622e-07 0)
(0.876329 2.55714e-07 0)
(0.876328 1.32551e-06 0)
(0.876327 2.25328e-06 0)
(0.876326 3.06296e-06 0)
(0.876324 3.77311e-06 0)
(0.876323 4.39791e-06 0)
(0.876322 4.94795e-06 0)
(0.87632 5.43086e-06 0)
(0.876319 5.85189e-06 0)
(0.876317 6.2143e-06 0)
(0.876315 6.51983e-06 0)
(0.876314 6.76899e-06 0)
(0.876312 6.96141e-06 0)
(0.87631 7.09612e-06 0)
(0.936317 -0.000223656 0)
(0.936258 -0.000190339 0)
(0.936211 -0.000160375 0)
(0.936172 -0.000134079 0)
(0.93614 -0.000111371 0)
(0.936114 -9.19728e-05 0)
(0.936093 -7.5543e-05 0)
(0.936076 -6.17329e-05 0)
(0.936062 -5.02007e-05 0)
(0.936051 -4.06174e-05 0)
(0.936042 -3.26757e-05 0)
(0.936034 -2.61003e-05 0)
(0.936028 -2.06533e-05 0)
(0.936023 -1.61345e-05 0)
(0.936019 -1.23774e-05 0)
(0.936015 -9.24411e-06 0)
(0.936012 -6.62047e-06 0)
(0.936009 -4.41192e-06 0)
(0.936007 -2.54055e-06 0)
(0.936005 -9.42568e-07 0)
(0.936003 4.337e-07 0)
(0.936002 1.62972e-06 0)
(0.936 2.67838e-06 0)
(0.935999 3.60542e-06 0)
(0.935997 4.43072e-06 0)
(0.935996 5.1693e-06 0)
(0.935994 5.83215e-06 0)
(0.935993 6.427e-06 0)
(0.935992 6.9588e-06 0)
(0.93599 7.43028e-06 0)
(0.935989 7.84233e-06 0)
(0.935987 8.19444e-06 0)
(0.935985 8.48502e-06 0)
(0.935984 8.71173e-06 0)
(0.935982 8.87179e-06 0)
(0.976249 -0.000145281 0)
(0.976169 -0.000124641 0)
(0.976102 -0.00010571 0)
(0.976045 -8.88314e-05 0)
(0.975998 -7.40616e-05 0)
(0.975959 -6.13022e-05 0)
(0.975927 -5.03897e-05 0)
(0.9759 -4.11374e-05 0)
(0.975879 -3.33497e-05 0)
(0.975861 -2.68288e-05 0)
(0.975846 -2.13837e-05 0)
(0.975834 -1.6839e-05 0)
(0.975824 -1.30406e-05 0)
(0.975816 -9.85743e-06 0)
(0.975809 -7.17938e-06 0)
(0.975804 -4.91475e-06 0)
(0.975799 -2.98713e-06 0)
(0.975796 -1.33309e-06 0)
(0.975792 9.97576e-08 0)
(0.97579 1.35419e-06 0)
(0.975787 2.46473e-06 0)
(0.975785 3.45873e-06 0)
(0.975783 4.35751e-06 0)
(0.975782 5.17725e-06 0)
(0.97578 5.92987e-06 0)
(0.975779 6.62367e-06 0)
(0.975777 7.26392e-06 0)
(0.975776 7.85338e-06 0)
(0.975775 8.39265e-06 0)
(0.975774 8.88061e-06 0)
(0.975772 9.31472e-06 0)
(0.975771 9.69136e-06 0)
(0.97577 1.00061e-05 0)
(0.975768 1.02542e-05 0)
(0.975767 1.04307e-05 0)
(0.996223 -4.98322e-05 0)
(0.996131 -4.28084e-05 0)
(0.996053 -3.62884e-05 0)
(0.995988 -3.04119e-05 0)
(0.995932 -2.52165e-05 0)
(0.995886 -2.06819e-05 0)
(0.995847 -1.67615e-05 0)
(0.995816 -1.33978e-05 0)
(0.99579 -1.05277e-05 0)
(0.995768 -8.08523e-06 0)
(0.99575 -6.00532e-06 0)
(0.995736 -4.22724e-06 0)
(0.995724 -2.69713e-06 0)
(0.995714 -1.36892e-06 0)
(0.995706 -2.03802e-07 0)
(0.9957 8.30538e-07 0)
(0.995694 1.76106e-06 0)
(0.99569 2.61e-06 0)
(0.995686 3.39552e-06 0)
(0.995683 4.13204e-06 0)
(0.995681 4.83074e-06 0)
(0.995679 5.4998e-06 0)
(0.995677 6.14485e-06 0)
(0.995675 6.7691e-06 0)
(0.995674 7.37383e-06 0)
(0.995673 7.95841e-06 0)
(0.995672 8.52073e-06 0)
(0.995671 9.05716e-06 0)
(0.99567 9.56299e-06 0)
(0.995669 1.00324e-05 0)
(0.995668 1.04588e-05 0)
(0.995667 1.08352e-05 0)
(0.995666 1.1154e-05 0)
(0.995665 1.14077e-05 0)
(0.995664 1.15891e-05 0)
(0.996223 5.13064e-05 0)
(0.996132 4.44879e-05 0)
(0.996054 3.81945e-05 0)
(0.995988 3.25691e-05 0)
(0.995932 2.7652e-05 0)
(0.995886 2.34251e-05 0)
(0.995848 1.98435e-05 0)
(0.995816 1.6851e-05 0)
(0.99579 1.43855e-05 0)
(0.995769 1.23829e-05 0)
(0.995751 1.07804e-05 0)
(0.995737 9.51991e-06 0)
(0.995725 8.54971e-06 0)
(0.995715 7.82558e-06 0)
(0.995708 7.30989e-06 0)
(0.995701 6.97118e-06 0)
(0.995696 6.78269e-06 0)
(0.995692 6.72201e-06 0)
(0.995689 6.76982e-06 0)
(0.995686 6.90975e-06 0)
(0.995683 7.1273e-06 0)
(0.995682 7.40986e-06 0)
(0.99568 7.74575e-06 0)
(0.995679 8.12437e-06 0)
(0.995678 8.53529e-06 0)
(0.995677 8.96859e-06 0)
(0.995676 9.4141e-06 0)
(0.995676 9.86186e-06 0)
(0.995675 1.03014e-05 0)
(0.995675 1.07226e-05 0)
(0.995675 1.11147e-05 0)
(0.995674 1.14675e-05 0)
(0.995674 1.17705e-05 0)
(0.995674 1.2014e-05 0)
(0.995673 1.21885e-05 0)
(0.97625 0.000146695 0)
(0.97617 0.00012625 0)
(0.976102 0.000107536 0)
(0.976046 9.0897e-05 0)
(0.975999 7.63923e-05 0)
(0.97596 6.39259e-05 0)
(0.975928 5.33361e-05 0)
(0.975902 4.44373e-05 0)
(0.97588 3.70349e-05 0)
(0.975863 3.09329e-05 0)
(0.975848 2.59424e-05 0)
(0.975837 2.18904e-05 0)
(0.975827 1.86249e-05 0)
(0.975819 1.60163e-05 0)
(0.975813 1.39559e-05 0)
(0.975808 1.23525e-05 0)
(0.975804 1.113e-05 0)
(0.975801 1.02246e-05 0)
(0.975798 9.58298e-06 0)
(0.975796 9.16018e-06 0)
(0.975795 8.91875e-06 0)
(0.975794 8.82685e-06 0)
(0.975793 8.85761e-06 0)
(0.975792 8.98764e-06 0)
(0.975792 9.19655e-06 0)
(0.975792 9.46583e-06 0)
(0.975791 9.7788e-06 0)
(0.975791 1.01196e-05 0)
(0.975792 1.04737e-05 0)
(0.975792 1.08266e-05 0)
(0.975792 1.11651e-05 0)
(0.975792 1.14759e-05 0)
(0.975793 1.1747e-05 0)
(0.975793 1.19666e-05 0)
(0.975793 1.21241e-05 0)
(0.936317 0.000224952 0)
(0.936259 0.000191814 0)
(0.936212 0.000162046 0)
(0.936173 0.000135967 0)
(0.936141 0.000113499 0)
(0.936116 9.43655e-05 0)
(0.936095 7.82276e-05 0)
(0.936079 6.4737e-05 0)
(0.936065 5.35535e-05 0)
(0.936054 4.4349e-05 0)
(0.936045 3.68185e-05 0)
(0.936038 3.06884e-05 0)
(0.936033 2.57228e-05 0)
(0.936028 2.17226e-05 0)
(0.936025 1.85225e-05 0)
(0.936022 1.5985e-05 0)
(0.93602 1.39964e-05 0)
(0.936018 1.24612e-05 0)
(0.936017 1.13011e-05 0)
(0.936016 1.04497e-05 0)
(0.936015 9.8532e-06 0)
(0.936015 9.46552e-06 0)
(0.936015 9.24921e-06 0)
(0.936015 9.1716e-06 0)
(0.936015 9.20567e-06 0)
(0.936016 9.32683e-06 0)
(0.936016 9.51436e-06 0)
(0.936017 9.74842e-06 0)
(0.936018 1.0012e-05 0)
(0.936018 1.02883e-05 0)
(0.936019 1.05626e-05 0)
(0.93602 1.08202e-05 0)
(0.936021 1.10486e-05 0)
(0.936022 1.12347e-05 0)
(0.936023 1.13682e-05 0)
(0.876452 0.000275341 0)
(0.876425 0.000231837 0)
(0.876404 0.00019376 0)
(0.876389 0.000161087 0)
(0.876377 0.000133402 0)
(0.876368 0.000110143 0)
(0.876362 9.07384e-05 0)
(0.876357 7.46585e-05 0)
(0.876353 6.14187e-05 0)
(0.876351 5.05782e-05 0)
(0.876348 4.17401e-05 0)
(0.876347 3.45605e-05 0)
(0.876346 2.87468e-05 0)
(0.876345 2.40583e-05 0)
(0.876345 2.0295e-05 0)
(0.876344 1.72948e-05 0)
(0.876344 1.49219e-05 0)
(0.876344 1.30663e-05 0)
(0.876345 1.16348e-05 0)
(0.876345 1.05527e-05 0)
(0.876346 9.75621e-06 0)
(0.876346 9.19483e-06 0)
(0.876347 8.82426e-06 0)
(0.876348 8.61004e-06 0)
(0.876349 8.5203e-06 0)
(0.87635 8.53042e-06 0)
(0.876351 8.6161e-06 0)
(0.876352 8.75872e-06 0)
(0.876353 8.93852e-06 0)
(0.876355 9.14067e-06 0)
(0.876356 9.34837e-06 0)
(0.876358 9.54942e-06 0)
(0.876359 9.72933e-06 0)
(0.876361 9.87818e-06 0)
(0.876362 9.9837e-06 0)
(0.796692 0.000289503 0)
(0.796699 0.000240035 0)
(0.796708 0.000198045 0)
(0.796718 0.000162882 0)
(0.796727 0.000133669 0)
(0.796735 0.000109515 0)
(0.796743 8.96245e-05 0)
(0.796749 7.33154e-05 0)
(0.796755 6.00019e-05 0)
(0.79676 4.91741e-05 0)
(0.796764 4.03926e-05 0)
(0.796768 3.32855e-05 0)
(0.796771 2.75454e-05 0)
(0.796774 2.29215e-05 0)
(0.796776 1.92103e-05 0)
(0.796778 1.62466e-05 0)
(0.79678 1.38952e-05 0)
(0.796782 1.20454e-05 0)
(0.796783 1.06062e-05 0)
(0.796785 9.50309e-06 0)
(0.796786 8.67474e-06 0)
(0.796788 8.07096e-06 0)
(0.796789 7.65032e-06 0)
(0.796791 7.37847e-06 0)
(0.796792 7.22648e-06 0)
(0.796794 7.16984e-06 0)
(0.796795 7.18729e-06 0)
(0.796797 7.26031e-06 0)
(0.796798 7.37231e-06 0)
(0.7968 7.50858e-06 0)
(0.796802 7.65557e-06 0)
(0.796804 7.8012e-06 0)
(0.796806 7.93419e-06 0)
(0.796808 8.04464e-06 0)
(0.79681 8.12338e-06 0)
(0.697077 0.000264374 0)
(0.697117 0.000215449 0)
(0.697153 0.000175258 0)
(0.697183 0.00014247 0)
(0.69721 0.000115795 0)
(0.697232 9.4109e-05 0)
(0.69725 7.64953e-05 0)
(0.697266 6.22144e-05 0)
(0.697279 5.06641e-05 0)
(0.69729 4.13388e-05 0)
(0.697298 3.38209e-05 0)
(0.697306 2.77628e-05 0)
(0.697312 2.28872e-05 0)
(0.697317 1.89673e-05 0)
(0.697321 1.58263e-05 0)
(0.697325 1.3317e-05 0)
(0.697328 1.13254e-05 0)
(0.697331 9.7532e-06 0)
(0.697334 8.52583e-06 0)
(0.697336 7.57687e-06 0)
(0.697338 6.85782e-06 0)
(0.69734 6.32327e-06 0)
(0.697342 5.94201e-06 0)
(0.697343 5.68205e-06 0)
(0.697345 5.52311e-06 0)
(0.697347 5.44146e-06 0)
(0.697349 5.42357e-06 0)
(0.69735 5.45066e-06 0)
(0.697352 5.51342e-06 0)
(0.697354 5.59614e-06 0)
(0.697356 5.69232e-06 0)
(0.697358 5.78829e-06 0)
(0.69736 5.87964e-06 0)
(0.697362 5.95435e-06 0)
(0.697364 6.00983e-06 0)
(0.577644 0.000205104 0)
(0.577707 0.000164157 0)
(0.577759 0.000131611 0)
(0.577803 0.000105743 0)
(0.577839 8.51253e-05 0)
(0.577869 6.8639e-05 0)
(0.577893 5.54256e-05 0)
(0.577913 4.48312e-05 0)
(0.57793 3.63381e-05 0)
(0.577943 2.95329e-05 0)
(0.577954 2.40769e-05 0)
(0.577963 1.9702e-05 0)
(0.577971 1.61914e-05 0)
(0.577977 1.33781e-05 0)
(0.577982 1.11255e-05 0)
(0.577986 9.32961e-06 0)
(0.57799 7.90188e-06 0)
(0.577993 6.77567e-06 0)
(0.577996 5.89195e-06 0)
(0.577998 5.20793e-06 0)
(0.578001 4.6837e-06 0)
(0.578003 4.2922e-06 0)
(0.578005 4.00587e-06 0)
(0.578006 3.80768e-06 0)
(0.578008 3.67775e-06 0)
(0.57801 3.6053e-06 0)
(0.578012 3.57505e-06 0)
(0.578013 3.58005e-06 0)
(0.578015 3.60785e-06 0)
(0.578017 3.65393e-06 0)
(0.578019 3.70762e-06 0)
(0.578021 3.7661e-06 0)
(0.578023 3.81998e-06 0)
(0.578025 3.86775e-06 0)
(0.578027 3.9011e-06 0)
(0.438413 0.00012635 0)
(0.438482 9.93186e-05 0)
(0.438538 7.851e-05 0)
(0.438583 6.23768e-05 0)
(0.43862 4.97645e-05 0)
(0.438649 3.98304e-05 0)
(0.438673 3.19657e-05 0)
(0.438693 2.57234e-05 0)
(0.438709 2.07618e-05 0)
(0.438721 1.68136e-05 0)
(0.438732 1.36657e-05 0)
(0.43874 1.11521e-05 0)
(0.438747 9.14168e-06 0)
(0.438753 7.53421e-06 0)
(0.438758 6.24963e-06 0)
(0.438762 5.22627e-06 0)
(0.438765 4.41318e-06 0)
(0.438768 3.77113e-06 0)
(0.438771 3.26667e-06 0)
(0.438773 2.87468e-06 0)
(0.438775 2.57292e-06 0)
(0.438777 2.34555e-06 0)
(0.438778 2.17749e-06 0)
(0.43878 2.05872e-06 0)
(0.438781 1.97858e-06 0)
(0.438783 1.93065e-06 0)
(0.438784 1.90689e-06 0)
(0.438786 1.9031e-06 0)
(0.438787 1.91281e-06 0)
(0.438789 1.93325e-06 0)
(0.43879 1.95893e-06 0)
(0.438792 1.98807e-06 0)
(0.438793 2.01584e-06 0)
(0.438795 2.04121e-06 0)
(0.438796 2.05991e-06 0)
(0.279387 5.18415e-05 0)
(0.279442 3.9969e-05 0)
(0.279486 3.11342e-05 0)
(0.27952 2.44586e-05 0)
(0.279548 1.93395e-05 0)
(0.27957 1.53644e-05 0)
(0.279588 1.22543e-05 0)
(0.279602 9.80982e-06 0)
(0.279613 7.88478e-06 0)
(0.279622 6.36308e-06 0)
(0.27963 5.15765e-06 0)
(0.279636 4.19794e-06 0)
(0.279641 3.43375e-06 0)
(0.279645 2.82292e-06 0)
(0.279648 2.33682e-06 0)
(0.279651 1.94879e-06 0)
(0.279654 1.64193e-06 0)
(0.279656 1.39824e-06 0)
(0.279657 1.20782e-06 0)
(0.279659 1.05805e-06 0)
(0.27966 9.43659e-07 0)
(0.279661 8.5544e-07 0)
(0.279663 7.91102e-07 0)
(0.279664 7.43491e-07 0)
(0.279665 7.12191e-07 0)
(0.279666 6.9124e-07 0)
(0.279667 6.81385e-07 0)
(0.279667 6.77324e-07 0)
(0.279668 6.80566e-07 0)
(0.279669 6.86178e-07 0)
(0.27967 6.96182e-07 0)
(0.279671 7.0586e-07 0)
(0.279672 7.17605e-07 0)
(0.279673 7.26833e-07 0)
(0.279674 7.36231e-07 0)
(0.100548 4.48862e-06 0)
(0.100571 3.32341e-06 0)
(0.100589 2.51227e-06 0)
(0.100603 1.92824e-06 0)
(0.100614 1.49504e-06 0)
(0.100622 1.16749e-06 0)
(0.100629 9.17437e-07 0)
(0.100634 7.2568e-07 0)
(0.100639 5.77693e-07 0)
(0.100642 4.62696e-07 0)
(0.100645 3.72435e-07 0)
(0.100648 3.01213e-07 0)
(0.100649 2.44599e-07 0)
(0.100651 1.99661e-07 0)
(0.100652 1.63788e-07 0)
(0.100653 1.35319e-07 0)
(0.100654 1.12511e-07 0)
(0.100655 9.44446e-08 0)
(0.100656 7.99113e-08 0)
(0.100656 6.84617e-08 0)
(0.100657 5.92341e-08 0)
(0.100657 5.2091e-08 0)
(0.100657 4.63624e-08 0)
(0.100658 4.21058e-08 0)
(0.100658 3.87588e-08 0)
(0.100659 3.65006e-08 0)
(0.100659 3.4818e-08 0)
(0.100659 3.3972e-08 0)
(0.10066 3.34704e-08 0)
(0.10066 3.36302e-08 0)
(0.10066 3.39605e-08 0)
(0.100661 3.48167e-08 0)
(0.100661 3.56968e-08 0)
(0.100661 3.6983e-08 0)
(0.100662 3.81558e-08 0)
(0.100652 1.17921e-08 0)
(0.100652 1.26026e-08 0)
(0.100652 1.33142e-08 0)
(0.100652 1.41131e-08 0)
(0.100652 1.47949e-08 0)
(0.100651 1.55218e-08 0)
(0.100651 1.60812e-08 0)
(0.100651 1.66159e-08 0)
(0.100651 1.69144e-08 0)
(0.100651 1.71074e-08 0)
(0.279647 3.5206e-07 0)
(0.279647 3.54362e-07 0)
(0.279646 3.53862e-07 0)
(0.279646 3.50623e-07 0)
(0.279645 3.44603e-07 0)
(0.279645 3.35801e-07 0)
(0.279644 3.24141e-07 0)
(0.279644 3.0962e-07 0)
(0.279643 2.92187e-07 0)
(0.279643 2.71895e-07 0)
(0.438754 1.07449e-06 0)
(0.438753 1.07847e-06 0)
(0.438752 1.0731e-06 0)
(0.438751 1.05869e-06 0)
(0.43875 1.0351e-06 0)
(0.438749 1.0026e-06 0)
(0.438749 9.61063e-07 0)
(0.438748 9.10854e-07 0)
(0.438747 8.52013e-07 0)
(0.438746 7.85115e-07 0)
(0.577973 2.18957e-06 0)
(0.577972 2.19516e-06 0)
(0.57797 2.18141e-06 0)
(0.577969 2.14838e-06 0)
(0.577968 2.09629e-06 0)
(0.577967 2.02528e-06 0)
(0.577965 1.93577e-06 0)
(0.577964 1.82824e-06 0)
(0.577963 1.70354e-06 0)
(0.577962 1.56266e-06 0)
(0.697305 3.64139e-06 0)
(0.697303 3.64953e-06 0)
(0.697302 3.62531e-06 0)
(0.6973 3.56878e-06 0)
(0.697299 3.48008e-06 0)
(0.697297 3.3596e-06 0)
(0.697296 3.20803e-06 0)
(0.697294 3.02648e-06 0)
(0.697293 2.81647e-06 0)
(0.697292 2.58009e-06 0)
(0.79675 5.34412e-06 0)
(0.796748 5.35569e-06 0)
(0.796746 5.32032e-06 0)
(0.796745 5.23771e-06 0)
(0.796743 5.10792e-06 0)
(0.796741 4.93141e-06 0)
(0.79674 4.70925e-06 0)
(0.796738 4.44316e-06 0)
(0.796737 4.13561e-06 0)
(0.796735 3.78985e-06 0)
(0.876308 7.17182e-06 0)
(0.876307 7.18714e-06 0)
(0.876305 7.14086e-06 0)
(0.876303 7.03213e-06 0)
(0.876301 6.86067e-06 0)
(0.876299 6.62695e-06 0)
(0.876298 6.33231e-06 0)
(0.876296 5.9791e-06 0)
(0.876295 5.57073e-06 0)
(0.876293 5.11173e-06 0)
(0.93598 8.96232e-06 0)
(0.935979 8.98054e-06 0)
(0.935977 8.92415e-06 0)
(0.935975 8.79144e-06 0)
(0.935974 8.58165e-06 0)
(0.935972 8.29505e-06 0)
(0.935971 7.93316e-06 0)
(0.935969 7.49884e-06 0)
(0.935968 6.99636e-06 0)
(0.935966 6.43144e-06 0)
(0.975766 1.05306e-05 0)
(0.975764 1.05497e-05 0)
(0.975763 1.04842e-05 0)
(0.975761 1.03316e-05 0)
(0.97576 1.00903e-05 0)
(0.975759 9.7603e-06 0)
(0.975758 9.34317e-06 0)
(0.975756 8.84209e-06 0)
(0.975755 8.26201e-06 0)
(0.975754 7.6096e-06 0)
(0.995663 1.16913e-05 0)
(0.995662 1.17084e-05 0)
(0.995662 1.16352e-05 0)
(0.995661 1.14683e-05 0)
(0.99566 1.12053e-05 0)
(0.995659 1.08458e-05 0)
(0.995658 1.03913e-05 0)
(0.995657 9.84508e-06 0)
(0.995657 9.21248e-06 0)
(0.995656 8.50085e-06 0)
(0.995673 1.22856e-05 0)
(0.995673 1.22979e-05 0)
(0.995673 1.22192e-05 0)
(0.995672 1.2045e-05 0)
(0.995672 1.17726e-05 0)
(0.995672 1.14009e-05 0)
(0.995672 1.09314e-05 0)
(0.995671 1.03671e-05 0)
(0.995671 9.71361e-06 0)
(0.995671 8.97833e-06 0)
(0.975794 1.22098e-05 0)
(0.975794 1.22156e-05 0)
(0.975795 1.21346e-05 0)
(0.975795 1.19617e-05 0)
(0.975795 1.16936e-05 0)
(0.975796 1.13293e-05 0)
(0.975796 1.08695e-05 0)
(0.975797 1.03173e-05 0)
(0.975797 9.67797e-06 0)
(0.975797 8.95884e-06 0)
(0.936024 1.14386e-05 0)
(0.936026 1.14381e-05 0)
(0.936027 1.1359e-05 0)
(0.936028 1.11969e-05 0)
(0.936029 1.09476e-05 0)
(0.93603 1.06104e-05 0)
(0.936031 1.01852e-05 0)
(0.936032 9.67552e-06 0)
(0.936033 9.0852e-06 0)
(0.936033 8.42166e-06 0)
(0.876364 1.00384e-05 0)
(0.876366 1.00326e-05 0)
(0.876367 9.96154e-06 0)
(0.876369 9.81858e-06 0)
(0.87637 9.60232e-06 0)
(0.876372 9.30943e-06 0)
(0.876374 8.94213e-06 0)
(0.876375 8.5007e-06 0)
(0.876376 7.99094e-06 0)
(0.876378 7.41661e-06 0)
(0.796812 8.16264e-06 0)
(0.796814 8.15553e-06 0)
(0.796816 8.09669e-06 0)
(0.796817 7.98175e-06 0)
(0.796819 7.80809e-06 0)
(0.796821 7.57414e-06 0)
(0.796823 7.2802e-06 0)
(0.796825 6.92765e-06 0)
(0.796827 6.51968e-06 0)
(0.796828 6.06047e-06 0)
(0.697366 6.03564e-06 0)
(0.697369 6.03105e-06 0)
(0.697371 5.98734e-06 0)
(0.697373 5.90579e-06 0)
(0.697375 5.7796e-06 0)
(0.697377 5.6122e-06 0)
(0.697379 5.39889e-06 0)
(0.697381 5.14526e-06 0)
(0.697382 4.8487e-06 0)
(0.697384 4.51689e-06 0)
(0.578029 3.91972e-06 0)
(0.578031 3.91642e-06 0)
(0.578032 3.89209e-06 0)
(0.578034 3.84075e-06 0)
(0.578036 3.76458e-06 0)
(0.578038 3.65892e-06 0)
(0.57804 3.52732e-06 0)
(0.578042 3.36647e-06 0)
(0.578043 3.18127e-06 0)
(0.578045 2.96971e-06 0)
(0.438798 2.07156e-06 0)
(0.4388 2.07241e-06 0)
(0.438801 2.06275e-06 0)
(0.438803 2.0394e-06 0)
(0.438804 2.00334e-06 0)
(0.438806 1.95204e-06 0)
(0.438807 1.88717e-06 0)
(0.438809 1.80688e-06 0)
(0.43881 1.71359e-06 0)
(0.438811 1.60607e-06 0)
(0.279675 7.41336e-07 0)
(0.279676 7.45089e-07 0)
(0.279678 7.43167e-07 0)
(0.279679 7.38758e-07 0)
(0.27968 7.27712e-07 0)
(0.279681 7.13467e-07 0)
(0.279682 6.92087e-07 0)
(0.279682 6.67266e-07 0)
(0.279683 6.35304e-07 0)
(0.279684 6.00151e-07 0)
(0.100662 3.96173e-08 0)
(0.100662 4.0829e-08 0)
(0.100663 4.22101e-08 0)
(0.100663 4.32054e-08 0)
(0.100663 4.4253e-08 0)
(0.100664 4.47863e-08 0)
(0.100664 4.52655e-08 0)
(0.100664 4.51206e-08 0)
(0.100665 4.48386e-08 0)
(0.100665 4.38543e-08 0)
(0.100651 1.69946e-08 0)
(0.100651 1.67037e-08 0)
(0.10065 1.60554e-08 0)
(0.10065 1.51832e-08 0)
(0.10065 1.39355e-08 0)
(0.10065 1.24588e-08 0)
(0.10065 1.06315e-08 0)
(0.10065 8.61654e-09 0)
(0.10065 6.31981e-09 0)
(0.10065 3.9201e-09 0)
(0.10065 1.34363e-09 0)
(0.10065 -1.219e-09 0)
(0.10065 -3.83028e-09 0)
(0.10065 -6.29649e-09 0)
(0.10065 -8.68148e-09 0)
(0.100651 -1.07947e-08 0)
(0.100651 -1.27119e-08 0)
(0.100651 -1.42558e-08 0)
(0.100651 -1.552e-08 0)
(0.100651 -1.63479e-08 0)
(0.100651 -1.6855e-08 0)
(0.100651 -1.69009e-08 0)
(0.100651 -1.66391e-08 0)
(0.100651 -1.59477e-08 0)
(0.100651 -1.49807e-08 0)
(0.100652 -1.36653e-08 0)
(0.100652 -1.2152e-08 0)
(0.100652 -1.03663e-08 0)
(0.100652 -8.46811e-09 0)
(0.100652 -6.38106e-09 0)
(0.100652 -4.25947e-09 0)
(0.100652 -2.01381e-09 0)
(0.100652 2.41987e-10 0)
(0.100652 2.5089e-09 0)
(0.100652 4.41436e-09 0)
(0.279642 2.48779e-07 0)
(0.279642 2.23002e-07 0)
(0.279642 1.94727e-07 0)
(0.279642 1.64258e-07 0)
(0.279641 1.31912e-07 0)
(0.279641 9.8136e-08 0)
(0.279641 6.33901e-08 0)
(0.279641 2.82414e-08 0)
(0.279641 -6.74723e-09 0)
(0.279641 -4.0944e-08 0)
(0.279641 -7.37498e-08 0)
(0.279641 -1.0454e-07 0)
(0.279641 -1.32756e-07 0)
(0.279642 -1.5786e-07 0)
(0.279642 -1.7941e-07 0)
(0.279642 -1.97025e-07 0)
(0.279642 -2.10441e-07 0)
(0.279643 -2.19481e-07 0)
(0.279643 -2.24095e-07 0)
(0.279643 -2.24328e-07 0)
(0.279644 -2.20345e-07 0)
(0.279644 -2.12398e-07 0)
(0.279644 -2.00835e-07 0)
(0.279645 -1.86064e-07 0)
(0.279645 -1.68561e-07 0)