/*--------------------------------*- C++ -*----------------------------------*\
| =========                 |                                                 |
| \\      /  F ield         | OpenFOAM: The Open Source CFD Toolbox           |
|  \\    /   O peration     | Version:  2406                                  |
|   \\  /    A nd           | Website:  www.openfoam.com                      |
|    \\/     M anipulation  |                                                 |
\*---------------------------------------------------------------------------*/
FoamFile
{
    version     2.0;
    format      ascii;
    arch        "LSB;label=32;scalar=64";
    class       volScalarField;
    location    "24";
    object      p;
}
// * * * * * * * * * * * * * * * * * * * * * * * * * * * * * * * * * * * * * //

dimensions      [0 2 -2 0 0 0 0];

internalField   nonuniform List<scalar> 
1700
(
3.07218
3.0202
2.96545
2.91043
2.85278
2.7918
2.72661
2.65601
2.57878
2.46683
3.08454
3.02374
2.96504
2.90907
2.85107
2.78982
2.72488
2.65526
2.57837
2.48615
3.09213
3.02701
2.96583
2.90988
2.8526
2.79239
2.72953
2.66426
2.59685
2.52881
3.09839
3.03158
2.96921
2.91399
2.85836
2.80053
2.74145
2.68237
2.62471
2.57104
3.10472
3.0372
2.97447
2.9202
2.86643
2.81129
2.75612
2.70251
2.6519
2.60616
3.1102
3.04254
2.98015
2.92679
2.87456
2.82172
2.76968
2.71998
2.67376
2.63213
3.11359
3.04638
2.98492
2.93222
2.88093
2.82964
2.77964
2.73226
2.68829
2.64841
3.11374
3.04803
2.98801
2.93553
2.88442
2.8338
2.78475
2.73827
2.69499
2.65538
3.10843
3.04684
2.98897
2.93634
2.88478
2.83401
2.78488
2.73817
2.69442
2.6541
3.09566
3.04256
2.98791
2.93536
2.88321
2.83186
2.7821
2.73456
2.68979
2.64835
2.42087
2.42074
2.42374
2.43036
2.4395
2.44996
2.46065
2.47066
2.4793
2.48609
2.49073
2.49312
2.49326
2.49125
2.48726
2.48148
2.47411
2.46535
2.45534
2.44422
2.43205
2.41886
2.40458
2.38911
2.37223
2.35366
2.333
2.30971
2.28316
2.25257
2.21709
2.17585
2.12814
2.07354
2.01227
2.42115
2.42096
2.42373
2.42972
2.438
2.4475
2.45727
2.46651
2.47456
2.48094
2.48537
2.48768
2.48788
2.48601
2.48223
2.47669
2.46957
2.46103
2.4512
2.44019
2.42806
2.41479
2.40034
2.38456
2.36725
2.3481
2.32673
2.30261
2.27514
2.24358
2.20717
2.16513
2.11684
2.06205
2.00105
2.41811
2.41817
2.42118
2.42719
2.43523
2.44436
2.45372
2.46257
2.47029
2.47645
2.48074
2.48301
2.48323
2.48147
2.47783
2.47247
2.46554
2.45718
2.44752
2.43664
2.42458
2.41134
2.39684
2.38094
2.36342
2.34399
2.32223
2.29765
2.2696
2.23739
2.2002
2.15725
2.10792
2.05197
1.98981
2.41043
2.41152
2.41571
2.42272
2.4315
2.4411
2.45071
2.45965
2.46737
2.47345
2.47766
2.47984
2.48001
2.47822
2.47459
2.46928
2.46244
2.45421
2.4447
2.434
2.42214
2.4091
2.39481
2.37912
2.36181
2.34257
2.32098
2.2965
2.26845
2.236
2.19821
2.1541
2.10282
2.04401
1.97825
2.39763
2.4009
2.40751
2.4166
2.42699
2.43772
2.44807
2.45741
2.46528
2.47136
2.47547
2.47751
2.47753
2.47562
2.47193
2.46661
2.45983
2.45173
2.44243
2.43201
2.42049
2.40786
2.39405
2.3789
2.3622
2.34361
2.32269
2.29882
2.27123
2.23888
2.20055
2.15483
2.10045
2.0366
1.96411
2.37897
2.3862
2.39696
2.40937
2.42218
2.43458
2.44594
2.45581
2.46385
2.46987
2.47379
2.47559
2.47537
2.47327
2.46945
2.4641
2.4574
2.44948
2.44047
2.43045
2.41946
2.40747
2.39441
2.38015
2.36444
2.34696
2.3272
2.3045
2.27789
2.24611
2.20747
2.15996
2.1014
2.03025
1.9471
2.35329
2.36725
2.38472
2.40186
2.41779
2.43217
2.44464
2.45498
2.46307
2.46889
2.47246
2.47389
2.47333
2.47096
2.46699
2.46162
2.45502
2.44736
2.43875
2.42928
2.41899
2.40786
2.39583
2.38277
2.36844
2.35251
2.33445
2.31352
2.28861
2.25814
2.21989
2.17093
2.10775
2.02721
1.92921
2.31481
2.34243
2.37152
2.39511
2.41466
2.43109
2.44456
2.45514
2.46303
2.4684
2.47144
2.47235
2.47135
2.46866
2.46451
2.45913
2.4527
2.44537
2.43727
2.42849
2.41907
2.409
2.39823
2.38664
2.37403
2.36006
2.34423
2.32576
2.30346
2.27546
2.23897
2.18978
2.12233
2.0304
1.91236
2.24108
2.30822
2.35881
2.39069
2.41395
2.43214
2.44615
2.45653
2.46381
2.46843
2.47071
2.47094
2.4694
2.46635
2.46203
2.45667
2.45046
2.44355
2.43607
2.42808
2.41965
2.41078
2.40143
2.39152
2.38086
2.3692
2.35607
2.34077
2.32215
2.29832
2.26613
2.22019
2.1519
2.04864
1.90089
2.15319
2.2846
2.35735
2.39418
2.41856
2.43676
2.45011
2.45946
2.46556
2.46903
2.47028
2.46968
2.46752
2.46407
2.4596
2.4543
2.44837
2.44194
2.43513
2.42801
2.42064
2.41304
2.40519
2.39703
2.38845
2.37926
2.36913
2.35753
2.34363
2.32601
2.30218
2.26761
2.21441
2.12776
1.97034
2.3083
2.34346
2.38879
2.41415
2.43205
2.44634
2.45695
2.46406
2.46828
2.47016
2.47014
2.46855
2.46571
2.46186
2.45724
2.45205
2.44643
2.44052
2.43441
2.42818
2.42188
2.41553
2.40915
2.4027
2.39614
2.38936
2.38219
2.37435
2.36547
2.35501
2.34224
2.32653
2.30941
2.30345
2.34658
2.40289
2.40382
2.42481
2.43925
2.4501
2.45915
2.4658
2.46987
2.47167
2.47164
2.47014
2.46749
2.46394
2.4597
2.45497
2.44989
2.44461
2.43923
2.43381
2.42843
2.42312
2.41794
2.41289
2.40799
2.40322
2.39856
2.39394
2.38929
2.38452
2.37957
2.37454
2.37021
2.37036
2.38748
2.43009
2.47414
2.45929
2.46237
2.46664
2.4703
2.47351
2.47558
2.4761
2.47518
2.47308
2.47006
2.46633
2.4621
2.45751
2.4527
2.44778
2.44284
2.43795
2.43317
2.42855
2.42413
2.41995
2.41603
2.4124
2.40909
2.40611
2.40346
2.40116
2.39923
2.39779
2.39712
2.39808
2.40354
2.41999
2.44337
2.52816
2.50619
2.49755
2.49305
2.48989
2.48737
2.48481
2.48176
2.47812
2.47401
2.46954
2.46485
2.46003
2.45517
2.45033
2.44559
2.44098
2.43655
2.43233
2.42836
2.42467
2.42129
2.41825
2.4156
2.41337
2.41159
2.41029
2.40952
2.40935
2.40991
2.41145
2.41465
2.42143
2.43535
2.4529
2.56855
2.54299
2.52678
2.51529
2.50623
2.49869
2.49202
2.48577
2.47975
2.47391
2.46825
2.4628
2.45755
2.45254
2.44775
2.44321
2.43892
2.4349
2.43115
2.4277
2.42457
2.42178
2.41938
2.4174
2.41588
2.41487
2.41439
2.41451
2.41529
2.41684
2.41935
2.42331
2.42995
2.44139
2.45512
2.59664
2.56882
2.54771
2.53108
2.51743
2.50595
2.49606
2.48733
2.47949
2.47238
2.4659
2.45997
2.45452
2.44949
2.44484
2.44054
2.43657
2.4329
2.42953
2.42648
2.42375
2.42137
2.41937
2.4178
2.41668
2.41608
2.41603
2.41657
2.41777
2.41972
2.42255
2.42656
2.43249
2.44151
2.45167
2.61338
2.58388
2.55957
2.53945
2.52261
2.50841
2.49634
2.48598
2.47702
2.46919
2.46232
2.45624
2.45082
2.44595
2.44154
2.43753
2.43386
2.43051
2.42746
2.4247
2.42224
2.42011
2.41833
2.41694
2.41599
2.41552
2.41559
2.41626
2.41758
2.41963
2.42249
2.42632
2.43146
2.43841
2.44561
2.61993
2.58904
2.56268
2.54039
2.52163
2.50587
2.49265
2.48154
2.47215
2.46418
2.45737
2.45148
2.44634
2.4418
2.43775
2.43408
2.43075
2.42771
2.42492
2.42238
2.4201
2.41809
2.41638
2.41501
2.41404
2.41351
2.4135
2.41409
2.41535
2.41737
2.42021
2.42392
2.42854
2.43398
2.43896
2.61768
2.58557
2.55787
2.53438
2.51472
2.49841
2.48496
2.47389
2.46476
2.45721
2.45089
2.44555
2.44096
2.43695
2.43338
2.43016
2.42722
2.42449
2.42195
2.4196
2.41742
2.41544
2.41369
2.41221
2.41105
2.41029
2.41002
2.41035
2.41141
2.41334
2.41624
2.42012
2.42477
2.4296
2.43328
2.6108
2.57763
2.54905
2.52498
2.50506
2.48879
2.47564
2.46507
2.45657
2.4497
2.44409
2.43944
2.43551
2.4321
2.42906
2.4263
2.42374
2.42132
2.41901
2.41681
2.4147
2.41272
2.41088
2.40923
2.40784
2.40678
2.40618
2.40618
2.40699
2.40882
2.41185
2.41613
2.42136
2.42652
2.42994
1.94531
1.87446
1.80195
1.72988
1.65994
1.59338
1.53108
1.47359
1.42128
1.3744
1.93492
1.8655
1.79493
1.72508
1.65742
1.59304
1.53275
1.47708
1.4264
1.381
1.9228
1.85324
1.78351
1.71523
1.6495
1.58712
1.52874
1.47478
1.42568
1.38175
1.90749
1.83547
1.76518
1.69775
1.63353
1.57286
1.51603
1.46336
1.4153
1.37241
1.88594
1.80923
1.73787
1.67158
1.60925
1.5505
1.49512
1.44323
1.39533
1.35254
1.85648
1.77313
1.70175
1.6381
1.57883
1.52258
1.46864
1.41669
1.36746
1.32279
1.8185
1.72771
1.65971
1.60157
1.54698
1.494
1.44133
1.38815
1.33517
1.28494
1.76979
1.67448
1.61693
1.56807
1.51982
1.47093
1.41954
1.36419
1.30454
1.24215
1.69636
1.61081
1.57737
1.54202
1.50191
1.45827
1.4092
1.35265
1.28605
1.20166
1.5782
1.54223
1.54854
1.52592
1.49328
1.455
1.40881
1.35331
1.28797
1.18573
1.33315
1.29762
1.26766
1.24287
1.22268
1.20643
1.19345
1.18311
1.17488
1.16828
1.16292
1.15849
1.15475
1.1515
1.14861
1.14597
1.1435
1.14116
1.13892
1.13676
1.1347
1.13275
1.13094
1.12932
1.12794
1.1269
1.1263
1.12631
1.12712
1.12895
1.13198
1.13626
1.14147
1.14662
1.15003
1.34106
1.30662
1.27748
1.25317
1.2331
1.21665
1.20323
1.19229
1.18334
1.17597
1.16985
1.16468
1.16025
1.15639
1.15295
1.14983
1.14697
1.14432
1.14185
1.13954
1.13741
1.13546
1.13374
1.13228
1.13114
1.13039
1.13013
1.13046
1.13153
1.13346
1.13636
1.14023
1.14488
1.1497
1.15336
1.3433
1.31043
1.2828
1.25976
1.24057
1.22462
1.21135
1.20028
1.191
1.18316
1.17648
1.17073
1.16572
1.16129
1.15734
1.15377
1.15051
1.14754
1.14481
1.14232
1.14008
1.1381
1.13642
1.13507
1.13411
1.1336
1.1336
1.13419
1.13545
1.13747
1.14031
1.14403
1.14863
1.15406
1.15903
1.33536
1.30457
1.27947
1.25888
1.24178
1.22745
1.21535
1.20502
1.19611
1.18838
1.18161
1.17562
1.1703
1.16551
1.16119
1.15725
1.15365
1.15036
1.14735
1.14464
1.14222
1.14011
1.13836
1.13699
1.13606
1.1356
1.13569
1.13636
1.13768
1.13973
1.14259
1.14641
1.15155
1.15849
1.16567
1.31637
1.28823
1.26697
1.2503
1.23664
1.22517
1.2153
1.20661
1.19882
1.19178
1.18537
1.1795
1.17412
1.16915
1.16456
1.16032
1.15639
1.15277
1.14945
1.14643
1.14374
1.14139
1.13941
1.13786
1.13676
1.13616
1.13612
1.13667
1.13788
1.13983
1.14266
1.14666
1.15259
1.16159
1.17172
1.28604
1.26114
1.24543
1.23429
1.22547
1.21808
1.2115
1.20531
1.19933
1.19353
1.18792
1.1825
1.17729
1.17231
1.16756
1.16305
1.1588
1.15481
1.1511
1.14768
1.14457
1.14181
1.13943
1.13747
1.13596
1.13496
1.1345
1.13463
1.13541
1.13696
1.13948
1.14344
1.15005
1.16149
1.17519
1.24438
1.22381
1.21602
1.21211
1.20933
1.20704
1.20459
1.20159
1.19799
1.19389
1.18943
1.18474
1.17993
1.17507
1.17025
1.16552
1.16093
1.15652
1.15232
1.14837
1.1447
1.14134
1.13832
1.13569
1.13347
1.1317
1.13042
1.12966
1.12949
1.13005
1.13161
1.1348
1.1416
1.1555
1.17301
1.19098
1.17763
1.18141
1.18619
1.1902
1.1936
1.19574
1.19628
1.19535
1.19323
1.19018
1.18643
1.18216
1.17755
1.17273
1.1678
1.16286
1.15798
1.15321
1.1486
1.14419
1.14002
1.13612
1.13251
1.12921
1.12624
1.12361
1.12132
1.1194
1.11798
1.11733
1.11831
1.12378
1.1402
1.16354
1.12267
1.12422
1.14511
1.15968
1.17067
1.17976
1.1864
1.19042
1.19216
1.19206
1.1905
1.18779
1.18418
1.17989
1.17512
1.17002
1.16472
1.15932
1.1539
1.14851
1.14322
1.13804
1.133
1.12811
1.12335
1.11871
1.11411
1.10948
1.10473
1.0998
1.09481
1.09052
1.0907
1.10783
1.15032
1.03278
1.06662
1.11067
1.13563
1.15337
1.16751
1.17798
1.18497
1.18908
1.19085
1.19072
1.18904
1.18611
1.18219
1.17751
1.17227
1.16661
1.16067
1.15455
1.14831
1.142
1.13565
1.12927
1.12283
1.11628
1.10952
1.10236
1.09456
1.08571
1.07529
1.06259
1.04697
1.02999
1.02411
1.06718
0.882892
1.00987
1.08053
1.11654
1.14049
1.15838
1.17151
1.18067
1.18661
1.18994
1.19106
1.19034
1.18807
1.18453
1.17997
1.17461
1.16862
1.16215
1.15531
1.14817
1.14079
1.13318
1.12532
1.11717
1.10859
1.09941
1.0893
1.07773
1.06387
1.04632
1.02259
0.988213
0.935339
0.849354
0.693273
0.96745
1.03273
1.0821
1.11333
1.13616
1.15404
1.16779
1.17796
1.18507
1.18952
1.19164
1.19174
1.19007
1.18691
1.1825
1.17706
1.17078
1.16382
1.15628
1.14827
1.13981
1.13092
1.12156
1.11164
1.10099
1.08933
1.07621
1.06094
1.04236
1.0186
0.986514
0.940787
0.872895
0.770377
0.623917
1.03895
1.06604
1.09459
1.11776
1.13698
1.15314
1.16636
1.17673
1.18442
1.18962
1.1925
1.19326
1.19211
1.1893
1.18505
1.17958
1.17306
1.16567
1.15752
1.1487
1.13924
1.12914
1.11835
1.10674
1.09412
1.08015
1.06433
1.04587
1.02359
0.995639
0.959222
0.910203
0.843035
0.751635
0.634535
1.07653
1.09033
1.10756
1.12444
1.14013
1.15427
1.16653
1.17666
1.18456
1.1902
1.1936
1.19488
1.19417
1.19168
1.18759
1.18211
1.17543
1.16769
1.15902
1.1495
1.13916
1.128
1.11594
1.10285
1.0885
1.07255
1.05448
1.03354
1.00863
0.978167
0.939944
0.891031
0.82799
0.747689
0.650152
1.10173
1.10894
1.11959
1.13185
1.14448
1.15669
1.16786
1.17753
1.1854
1.19124
1.19499
1.19663
1.19626
1.19403
1.19009
1.18463
1.17783
1.16984
1.16076
1.15068
1.13963
1.12759
1.1145
1.1002
1.08446
1.06694
1.04716
1.02442
0.997782
0.965956
0.927277
0.879706
0.821102
0.749879
0.66674
1.12011
1.1234
1.12998
1.13898
1.14924
1.15982
1.17
1.17916
1.18686
1.19277
1.1967
1.19859
1.19846
1.19641
1.1926
1.18717
1.18029
1.1721
1.16273
1.15223
1.14066
1.12798
1.11412
1.09893
1.08218
1.06355
1.04258
1.01866
0.991
0.958568
0.920119
0.874253
0.819637
0.755497
0.682563
1.13275
1.1339
1.13808
1.14504
1.15371
1.16318
1.17264
1.18142
1.18896
1.19488
1.19891
1.20095
1.20096
1.19903
1.19527
1.18985
1.18291
1.17459
1.165
1.15423
1.1423
1.12921
1.11486
1.09912
1.08176
1.06247
1.04082
1.01628
0.98813
0.955562
0.9176
0.873251
0.821629
0.762323
0.695852
1.14037
1.14048
1.1435
1.14946
1.15743
1.16644
1.17566
1.18434
1.1919
1.19788
1.20201
1.20412
1.2042
1.20229
1.19852
1.19304
1.186
1.17755
1.16781
1.15686
1.14474
1.13144
1.11689
1.10093
1.08336
1.06387
1.04205
1.01738
0.989246
0.956885
0.9195
0.876266
0.826528
0.769972
0.706963
1.14342
1.14327
1.14605
1.15201
1.1602
1.16958
1.17921
1.18829
1.19617
1.20238
1.20664
1.20879
1.20883
1.20683
1.20292
1.19726
1.19003
1.1814
1.17149
1.16041
1.14821
1.13488
1.12038
1.10455
1.08718
1.06799
1.04655
1.02236
0.994786
0.963095
0.926485
0.884162
0.835468
0.780079
0.718221
1.14319
1.1431
1.14611
1.1527
1.16175
1.17209
1.18262
1.19247
1.20093
1.20754
1.21201
1.21423
1.21421
1.21205
1.20793
1.20203
1.19456
1.1857
1.17561
1.16442
1.15219
1.13894
1.12461
1.10909
1.09217
1.07355
1.05283
1.02948
1.00284
0.972134
0.936485
0.895008
0.846935
0.791819
0.729783
0.304111
0.269421
0.277214
0.257087
0.228276
0.195933
0.159205
0.118277
0.0740516
0.0265074
0.421521
0.337921
0.306579
0.274186
0.238407
0.201124
0.161475
0.119025
0.0736809
0.025997
0.493537
0.400112
0.344768
0.298777
0.254514
0.211103
0.16725
0.122035
0.0747667
0.0260828
0.540264
0.450653
0.384103
0.327839
0.275661
0.225773
0.176795
0.127667
0.0773588
0.0264569
0.576188
0.493033
0.421899
0.358541
0.299509
0.243296
0.188786
0.135064
0.0809735
0.027054
0.603869
0.526437
0.454131
0.386476
0.322233
0.260632
0.201034
0.14282
0.0848859
0.0277647
0.624103
0.55071
0.478528
0.408483
0.340679
0.275041
0.211414
0.149492
0.0882932
0.0283977
0.638715
0.567442
0.495306
0.423736
0.353512
0.285084
0.21863
0.15409
0.0905793
0.0288084
0.650854
0.579685
0.506668
0.433458
0.36124
0.290757
0.222403
0.156207
0.0914153
0.0288969
0.661719
0.589303
0.51459
0.439474
0.365397
0.293291
0.223626
0.156443
0.0913519
0.0288191
)
;

boundaryField
{
    inlet
    {
        type            zeroGradient;
    }
    outlet
    {
        type            fixedValue;
        value           uniform 0;
    }
    upperWall
    {
        type            zeroGradient;
    }
    lowerWall
    {
        type            zeroGradient;
    }
    frontAndBack
    {
        type            empty;
    }
}


// ************************************************************************* //
