/*--------------------------------*- C++ -*----------------------------------*\
| =========                 |                                                 |
| \\      /  F ield         | OpenFOAM: The Open Source CFD Toolbox           |
|  \\    /   O peration     | Version:  2406                                  |
|   \\  /    A nd           | Website:  www.openfoam.com                      |
|    \\/     M anipulation  |                                                 |
\*---------------------------------------------------------------------------*/
FoamFile
{
    version     2.0;
    format      ascii;
    arch        "LSB;label=32;scalar=64";
    class       volVectorField;
    location    "85";
    object      U;
}
// * * * * * * * * * * * * * * * * * * * * * * * * * * * * * * * * * * * * * //

dimensions      [0 1 -1 0 0 0 0];

internalField   nonuniform List<vector> 
1916
(
(0.0987815 -0.00115154 0)
(0.100688 -0.00127636 0)
(0.10249 -0.000782311 0)
(0.103905 -0.000449368 0)
(0.104901 -0.000284149 0)
(0.105625 -0.000187317 0)
(0.106169 -0.00012488 0)
(0.106584 -8.71921e-05 0)
(0.106906 -6.49138e-05 0)
(0.107164 -5.05902e-05 0)
(0.107373 -4.04625e-05 0)
(0.107547 -3.29142e-05 0)
(0.107692 -2.70162e-05 0)
(0.107813 -2.21269e-05 0)
(0.107915 -1.78479e-05 0)
(0.108 -1.39205e-05 0)
(0.108069 -1.00979e-05 0)
(0.108122 -6.10684e-06 0)
(0.10816 -1.6614e-06 0)
(0.108182 3.53046e-06 0)
(0.108185 9.79656e-06 0)
(0.108166 1.75272e-05 0)
(0.10812 2.72524e-05 0)
(0.10804 3.97103e-05 0)
(0.107918 5.58689e-05 0)
(0.107742 7.69521e-05 0)
(0.107495 0.000104514 0)
(0.107155 0.000140532 0)
(0.106696 0.000187521 0)
(0.106078 0.000248637 0)
(0.105256 0.000327743 0)
(0.104166 0.000429426 0)
(0.102731 0.000558866 0)
(0.100852 0.000721495 0)
(0.0984073 0.000922284 0)
(0.0952532 0.00116447 0)
(0.0912226 0.00144752 0)
(0.086134 0.00176422 0)
(0.0798059 0.00209696 0)
(0.0720857 0.00241373 0)
(0.0628931 0.00266527 0)
(0.0522848 0.00278398 0)
(0.0405331 0.00268893 0)
(0.028227 0.00229145 0)
(0.0164076 0.00151643 0)
(0.00685492 0.000182741 0)
(0.000166426 -0.000512545 0)
(0.276422 -0.00152646 0)
(0.276236 -0.0025543 0)
(0.276617 -0.00230568 0)
(0.277157 -0.00182306 0)
(0.277806 -0.00142197 0)
(0.278486 -0.00110444 0)
(0.279121 -0.000854425 0)
(0.27968 -0.000667274 0)
(0.280166 -0.000531495 0)
(0.280586 -0.000431707 0)
(0.28095 -0.000355934 0)
(0.281264 -0.000296712 0)
(0.281535 -0.000249191 0)
(0.28177 -0.000209827 0)
(0.281972 -0.000175945 0)
(0.282145 -0.000145561 0)
(0.28229 -0.000117065 0)
(0.282408 -8.89567e-05 0)
(0.282499 -5.96506e-05 0)
(0.282562 -2.74058e-05 0)
(0.282592 9.78513e-06 0)
(0.282585 5.42828e-05 0)
(0.282534 0.000109064 0)
(0.282427 0.00017799 0)
(0.28225 0.000266128 0)
(0.281984 0.000380064 0)
(0.281602 0.000528386 0)
(0.281069 0.000722213 0)
(0.280338 0.000975935 0)
(0.279346 0.001308 0)
(0.278013 0.00174187 0)
(0.27623 0.00230689 0)
(0.273856 0.00303908 0)
(0.27071 0.00398129 0)
(0.266554 0.00518239 0)
(0.26109 0.00669437 0)
(0.253942 0.00856604 0)
(0.244649 0.0108313 0)
(0.232669 0.0134899 0)
(0.217388 0.0164769 0)
(0.19818 0.0196226 0)
(0.174508 0.0226003 0)
(0.146109 0.0248851 0)
(0.113301 0.0257249 0)
(0.0773102 0.0242488 0)
(0.0415127 0.0192573 0)
(0.00743321 0.0109274 0)
(0.436684 -0.000813355 0)
(0.436434 -0.00168693 0)
(0.436209 -0.00187392 0)
(0.435898 -0.00179402 0)
(0.435781 -0.00165187 0)
(0.435878 -0.00147923 0)
(0.436085 -0.00129072 0)
(0.436331 -0.00111069 0)
(0.436592 -0.000953112 0)
(0.436855 -0.000819099 0)
(0.43711 -0.0007052 0)
(0.437348 -0.000608046 0)
(0.437568 -0.000524661 0)
(0.437768 -0.000452036 0)
(0.437949 -0.000387253 0)
(0.438108 -0.000327704 0)
(0.438246 -0.000271005 0)
(0.438362 -0.000214718 0)
(0.438455 -0.000156108 0)
(0.438522 -9.20175e-05 0)
(0.438559 -1.87341e-05 0)
(0.438561 6.82588e-05 0)
(0.43852 0.000174671 0)
(0.438425 0.000307897 0)
(0.438263 0.000477615 0)
(0.438014 0.000696518 0)
(0.437652 0.000981242 0)
(0.437144 0.00135355 0)
(0.436441 0.00184187 0)
(0.435483 0.00248322 0)
(0.434186 0.00332552 0)
(0.43244 0.00443036 0)
(0.430096 0.00587595 0)
(0.426959 0.00776007 0)
(0.422764 0.0102023 0)
(0.417161 0.0133444 0)
(0.409689 0.0173459 0)
(0.399737 0.0223725 0)
(0.386508 0.028569 0)
(0.368988 0.03601 0)
(0.345908 0.0446146 0)
(0.315778 0.0540095 0)
(0.276971 0.0633614 0)
(0.228086 0.0711548 0)
(0.168271 0.0753016 0)
(0.100011 0.0720555 0)
(0.0226893 0.0524213 0)
(0.576872 -0.000437257 0)
(0.576814 -0.00108141 0)
(0.576669 -0.00137948 0)
(0.576247 -0.00145941 0)
(0.575876 -0.00144949 0)
(0.575669 -0.00138975 0)
(0.575565 -0.0012933 0)
(0.575515 -0.00117931 0)
(0.575504 -0.00106423 0)
(0.575527 -0.000955213 0)
(0.575573 -0.000853857 0)
(0.575633 -0.000760367 0)
(0.5757 -0.000674427 0)
(0.57577 -0.000594948 0)
(0.57584 -0.00052021 0)
(0.575906 -0.000448239 0)
(0.575965 -0.000376903 0)
(0.576016 -0.0003037 0)
(0.576056 -0.000225492 0)
(0.576082 -0.00013834 0)
(0.57609 -3.73465e-05 0)
(0.576075 8.36252e-05 0)
(0.576032 0.000232442 0)
(0.575951 0.00041938 0)
(0.575822 0.000657989 0)
(0.57563 0.000966174 0)
(0.575357 0.00136757 0)
(0.574975 0.00189336 0)
(0.574449 0.00258462 0)
(0.573732 0.00349539 0)
(0.57276 0.00469663 0)
(0.571443 0.00628116 0)
(0.569664 0.00836972 0)
(0.567256 0.0111181 0)
(0.563993 0.0147254 0)
(0.559559 0.019442 0)
(0.553512 0.0255758 0)
(0.545231 0.0334934 0)
(0.533842 0.043608 0)
(0.518112 0.0563402 0)
(0.496309 0.0720332 0)
(0.466045 0.0907665 0)
(0.424063 0.112085 0)
(0.36636 0.1344 0)
(0.287851 0.154895 0)
(0.186413 0.166334 0)
(0.0501938 0.141154 0)
(0.696971 -0.000272943 0)
(0.697009 -0.000735182 0)
(0.696993 -0.0010121 0)
(0.696659 -0.00113111 0)
(0.696285 -0.0011677 0)
(0.696014 -0.00115849 0)
(0.695813 -0.00111444 0)
(0.695644 -0.00104753 0)
(0.6955 -0.000970787 0)
(0.695385 -0.000892016 0)
(0.695295 -0.000814271 0)
(0.695224 -0.00073878 0)
(0.695166 -0.000666061 0)
(0.69512 -0.000595793 0)
(0.695083 -0.000526857 0)
(0.695051 -0.000457668 0)
(0.695023 -0.000386307 0)
(0.694997 -0.000310348 0)
(0.694971 -0.000226556 0)
(0.694943 -0.000130667 0)
(0.694909 -1.71862e-05 0)
(0.694868 0.000120918 0)
(0.694816 0.000292765 0)
(0.694748 0.00051035 0)
(0.694658 0.000789585 0)
(0.69454 0.00115163 0)
(0.694382 0.00162459 0)
(0.694172 0.0022458 0)
(0.693891 0.00306483 0)
(0.693514 0.00414749 0)
(0.693005 0.00558123 0)
(0.692315 0.00748208 0)
(0.691375 0.0100039 0)
(0.690082 0.0133504 0)
(0.688291 0.0177902 0)
(0.685783 0.0236761 0)
(0.682233 0.0314685 0)
(0.677145 0.0417617 0)
(0.669759 0.0553105 0)
(0.658902 0.0730454 0)
(0.642729 0.0960674 0)
(0.618396 0.12553 0)
(0.581336 0.162493 0)
(0.524973 0.207034 0)
(0.438125 0.258456 0)
(0.30972 0.309742 0)
(0.0989435 0.311641 0)
(0.797033 -0.000181049 0)
(0.797112 -0.000505715 0)
(0.797173 -0.000729481 0)
(0.796922 -0.00084906 0)
(0.79659 -0.000902667 0)
(0.796324 -0.00091626 0)
(0.79611 -0.000899256 0)
(0.795913 -0.000859864 0)
(0.795728 -0.000807854 0)
(0.795563 -0.00075032 0)
(0.795416 -0.000690756 0)
(0.795285 -0.000630785 0)
(0.795167 -0.000571191 0)
(0.79506 -0.000511942 0)
(0.794964 -0.000452197 0)
(0.794876 -0.00039056 0)
(0.794796 -0.000325232 0)
(0.794722 -0.000253865 0)
(0.794654 -0.000173273 0)
(0.794592 -7.91752e-05 0)
(0.794536 3.40269e-05 0)
(0.794484 0.000173575 0)
(0.794437 0.000348903 0)
(0.794396 0.000572452 0)
(0.79436 0.000860776 0)
(0.79433 0.00123597 0)
(0.794308 0.00172751 0)
(0.794295 0.0023748 0)
(0.794292 0.00323043 0)
(0.794299 0.00436485 0)
(0.794317 0.00587249 0)
(0.794345 0.0078803 0)
(0.794373 0.0105593 0)
(0.794387 0.0141403 0)
(0.79435 0.0189361 0)
(0.794193 0.025371 0)
(0.793788 0.0340234 0)
(0.792893 0.0456829 0)
(0.791073 0.0614315 0)
(0.787545 0.0827474 0)
(0.780873 0.111667 0)
(0.768594 0.150882 0)
(0.745909 0.204194 0)
(0.705505 0.275413 0)
(0.630873 0.371815 0)
(0.505285 0.485848 0)
(0.204968 0.574759 0)
(0.877072 -0.000121003 0)
(0.877168 -0.000344565 0)
(0.877271 -0.000512376 0)
(0.877076 -0.000614253 0)
(0.876783 -0.000667415 0)
(0.876535 -0.000688035 0)
(0.876326 -0.000683685 0)
(0.876126 -0.000660282 0)
(0.87593 -0.000624721 0)
(0.875748 -0.000582595 0)
(0.875582 -0.000537112 0)
(0.875429 -0.000489933 0)
(0.875287 -0.000441903 0)
(0.875157 -0.000393131 0)
(0.875037 -0.000342998 0)
(0.874927 -0.000290342 0)
(0.874826 -0.000233582 0)
(0.874735 -0.000170616 0)
(0.874654 -9.85703e-05 0)
(0.874585 -1.35431e-05 0)
(0.874529 8.96122e-05 0)
(0.874489 0.000217592 0)
(0.874468 0.000379141 0)
(0.87447 0.000585804 0)
(0.874502 0.000852965 0)
(0.874575 0.0012012 0)
(0.874698 0.00165807 0)
(0.87489 0.00226053 0)
(0.87517 0.00305822 0)
(0.875567 0.00411798 0)
(0.876118 0.00553022 0)
(0.876869 0.00741766 0)
(0.877882 0.00994779 0)
(0.879233 0.0133504 0)
(0.881018 0.0179433 0)
(0.883348 0.0241689 0)
(0.886349 0.0326499 0)
(0.890143 0.0442718 0)
(0.894808 0.0603124 0)
(0.900316 0.0826339 0)
(0.906263 0.114042 0)
(0.911851 0.158686 0)
(0.91364 0.223625 0)
(0.908971 0.318617 0)
(0.86978 0.46938 0)
(0.823126 0.719366 0)
(0.299951 1.11888 0)
(0.937097 -7.7495e-05 0)
(0.9372 -0.000223063 0)
(0.937325 -0.00033774 0)
(0.937166 -0.000412485 0)
(0.936902 -0.000454525 0)
(0.936669 -0.000473021 0)
(0.936467 -0.000473223 0)
(0.936269 -0.000459143 0)
(0.936072 -0.000435254 0)
(0.935884 -0.000405431 0)
(0.93571 -0.000372146 0)
(0.935548 -0.000336785 0)
(0.935398 -0.000300078 0)
(0.935258 -0.000262163 0)
(0.935131 -0.00022261 0)
(0.935015 -0.000180538 0)
(0.93491 -0.00013471 0)
(0.934817 -8.34563e-05 0)
(0.934738 -2.44826e-05 0)
(0.934676 4.53401e-05 0)
(0.934634 0.000130164 0)
(0.934616 0.000235411 0)
(0.934629 0.000368176 0)
(0.934682 0.00053783 0)
(0.934785 0.000756868 0)
(0.934957 0.00104202 0)
(0.935218 0.00141577 0)
(0.935597 0.0019083 0)
(0.936135 0.00256037 0)
(0.936881 0.00342712 0)
(0.937907 0.00458355 0)
(0.939306 0.00613233 0)
(0.941202 0.00821492 0)
(0.943762 0.0110279 0)
(0.947208 0.0148471 0)
(0.95184 0.020064 0)
(0.958053 0.0272423 0)
(0.966379 0.0372057 0)
(0.977515 0.0511814 0)
(0.992427 0.0710311 0)
(1.01225 0.0996692 0)
(1.03919 0.141698 0)
(1.07391 0.205064 0)
(1.12964 0.302389 0)
(1.18904 0.461855 0)
(1.41822 0.708958 0)
(1.5026 1.27287 0)
(0.977112 -4.26916e-05 0)
(0.977218 -0.000123552 0)
(0.977354 -0.000188721 0)
(0.977217 -0.000232477 0)
(0.97697 -0.000257612 0)
(0.976749 -0.000268624 0)
(0.976553 -0.000268461 0)
(0.976358 -0.000259426 0)
(0.976161 -0.000244023 0)
(0.975971 -0.000224493 0)
(0.975794 -0.000202355 0)
(0.975628 -0.000178502 0)
(0.975474 -0.000153397 0)
(0.975332 -0.000127125 0)
(0.975203 -9.94076e-05 0)
(0.975086 -6.96742e-05 0)
(0.974982 -3.71139e-05 0)
(0.974893 -6.29433e-07 0)
(0.974821 4.12859e-05 0)
(0.974769 9.0684e-05 0)
(0.974743 0.00015029 0)
(0.974747 0.000223667 0)
(0.974791 0.000315476 0)
(0.974886 0.000431868 0)
(0.975048 0.000581042 0)
(0.975299 0.000773975 0)
(0.975667 0.00102542 0)
(0.976192 0.00135523 0)
(0.976926 0.00179026 0)
(0.977938 0.00236696 0)
(0.979324 0.00313509 0)
(0.981212 0.00416315 0)
(0.983778 0.00554611 0)
(0.987258 0.00741702 0)
(0.99198 0.00996443 0)
(0.998395 0.0134592 0)
(1.00713 0.0182966 0)
(1.01907 0.0250638 0)
(1.03547 0.034648 0)
(1.0582 0.048422 0)
(1.08989 0.0685158 0)
(1.13516 0.098391 0)
(1.1996 0.143167 0)
(1.29991 0.211446 0)
(1.44154 0.313372 0)
(1.69641 0.444491 0)
(2.03802 0.676559 0)
(0.997119 -1.2167e-05 0)
(0.997226 -3.52501e-05 0)
(0.997367 -5.35696e-05 0)
(0.997239 -6.50426e-05 0)
(0.997002 -7.04288e-05 0)
(0.996787 -7.10451e-05 0)
(0.996595 -6.78074e-05 0)
(0.996402 -6.14413e-05 0)
(0.996205 -5.2729e-05 0)
(0.996016 -4.23761e-05 6.41201e-34)
(0.995838 -3.08635e-05 0)
(0.995672 -1.84614e-05 0)
(0.995517 -5.28764e-06 0)
(0.995375 8.6717e-06 0)
(0.995246 2.35547e-05 0)
(0.995131 3.96042e-05 6.40234e-34)
(0.99503 5.71545e-05 0)
(0.994945 7.66468e-05 0)
(0.994878 9.86689e-05 0)
(0.994835 0.000124003 0)
(0.994819 0.000153671 0)
(0.994839 0.000188999 0)
(0.994902 0.000231703 0)
(0.995024 0.000284035 -6.38096e-34)
(0.995221 0.00034897 0)
(0.995518 0.000430471 0)
(0.995948 0.000533837 0)
(0.996555 0.000666188 0)
(0.997398 0.000837128 0)
(0.998558 0.00105969 0)
(1.00014 0.0013517 0)
(1.0023 0.00173768 0)
(1.00523 0.00225177 0)
(1.00922 0.00294196 0)
(1.01464 0.0038766 0)
(1.02204 0.00515449 0)
(1.03218 0.00692074 0)
(1.04614 0.00939271 0)
(1.06551 0.0129004 0)
(1.09264 0.0179587 0)
(1.13099 0.0253489 0)
(1.18589 0.0363457 -5.09925e-34)
(1.265 0.0524752 0)
(1.37935 0.0762734 0)
(1.54406 0.106966 0)
(1.76514 0.137796 0)
(2.07894 0.162598 0)
(0.997119 1.70241e-05 0)
(0.997226 4.94853e-05 0)
(0.997367 7.70046e-05 0)
(0.99724 9.80313e-05 0)
(0.997004 0.000113168 0)
(0.996788 0.000123784 0)
(0.996597 0.000130862 0)
(0.996405 0.000135213 0)
(0.99621 0.000137706 0)
(0.996022 0.000139136 -6.41175e-34)
(0.995845 0.00014008 0)
(0.995681 0.000140926 0)
(0.995528 0.000141923 0)
(0.995388 0.000143192 0)
(0.995261 0.000144731 0)
(0.995148 0.000146448 -6.4018e-34)
(0.99505 0.000148183 0)
(0.994968 0.000149692 0)
(0.994905 0.000150596 0)
(0.994866 0.000150339 0)
(0.994854 0.000148145 0)
(0.994878 0.000142965 0)
(0.994947 0.000133394 0)
(0.995074 0.000117538 6.38151e-34)
(0.995277 9.28245e-05 0)
(0.995581 5.57509e-05 0)
(0.996019 1.55369e-06 0)
(0.996635 -7.62495e-05 0)
(0.997488 -0.000186491 0)
(0.998658 -0.000341247 0)
(1.00025 -0.000557112 0)
(1.00243 -0.000857037 0)
(1.00538 -0.00127302 0)
(1.00938 -0.00185011 0)
(1.01483 -0.00265249 0)
(1.02225 -0.00377285 0)
(1.03243 -0.00534721 0)
(1.04644 -0.00757885 0)
(1.06588 -0.0107753 0)
(1.0931 -0.0154151 0)
(1.13161 -0.022217 0)
(1.18675 -0.0323477 5.10249e-34)
(1.26628 -0.0471371 0)
(1.38129 -0.0687426 0)
(1.54724 -0.0957955 0)
(1.76963 -0.119931 0)
(2.08621 -0.13431 0)
(0.977112 4.74233e-05 0)
(0.977218 0.000137417 0)
(0.977355 0.000211539 0)
(0.977219 0.000264596 0)
(0.976974 0.000299218 0)
(0.976754 0.000319954 0)
(0.976561 0.000329818 0)
(0.976368 0.000331196 0)
(0.976175 0.000326677 0)
(0.975989 0.000318589 0)
(0.975816 0.000308546 0)
(0.975655 0.000297552 0)
(0.975506 0.000286199 0)
(0.97537 0.000274703 0)
(0.975248 0.000262916 0)
(0.975138 0.000250418 0)
(0.975043 0.000236566 0)
(0.974963 0.000220452 0)
(0.974901 0.000200772 0)
(0.974861 0.000175693 0)
(0.974847 0.000142726 0)
(0.974865 9.85754e-05 0)
(0.974924 3.88802e-05 0)
(0.975036 -4.21737e-05 0)
(0.975217 -0.000152401 0)
(0.975488 -0.000302347 0)
(0.97588 -0.000506259 0)
(0.97643 -0.000783412 0)
(0.977192 -0.00115995 0)
(0.978236 -0.00167145 0)
(0.979659 -0.00236663 0)
(0.981589 -0.00331258 0)
(0.984202 -0.00460248 0)
(0.987739 -0.00636696 0)
(0.992528 -0.00879122 0)
(0.999026 -0.0121414 0)
(1.00787 -0.016806 0)
(1.01994 -0.023362 0)
(1.03654 -0.0326814 0)
(1.05953 -0.0461142 0)
(1.09163 -0.065753 0)
(1.13755 -0.0950058 0)
(1.20307 -0.138885 0)
(1.30533 -0.205848 0)
(1.45041 -0.30573 0)
(1.7114 -0.432535 0)
(2.06492 -0.65896 0)
(0.937097 8.19772e-05 0)
(0.937201 0.000236192 0)
(0.937327 0.000359337 0)
(0.93717 0.000442878 0)
(0.936908 0.000493881 0)
(0.936678 0.000521555 0)
(0.936481 0.000531212 0)
(0.936287 0.000526941 0)
(0.936095 0.000513297 0)
(0.935913 0.000494237 0)
(0.935746 0.000472325 0)
(0.935592 0.000449053 0)
(0.935451 0.000425267 0)
(0.935321 0.000401231 0)
(0.935205 0.000376638 0)
(0.935101 0.00035075 0)
(0.93501 0.000322487 0)
(0.934932 0.000290357 0)
(0.934871 0.000252252 0)
(0.934827 0.000205246 0)
(0.934806 0.000145409 0)
(0.934811 6.75665e-05 0)
(0.934849 -3.51019e-05 0)
(0.934929 -0.00017166 0)
(0.935063 -0.000354262 0)
(0.935268 -0.000599259 0)
(0.935567 -0.000928683 0)
(0.935988 -0.00137224 0)
(0.936572 -0.0019701 0)
(0.937371 -0.00277671 0)
(0.938456 -0.00386628 0)
(0.939922 -0.00534048 0)
(0.941895 -0.00733954 0)
(0.944544 -0.0100585 0)
(0.948098 -0.0137712 0)
(0.952858 -0.0188668 0)
(0.959232 -0.0259057 0)
(0.967763 -0.035708 0)
(0.979171 -0.0494964 0)
(0.994459 -0.0691289 0)
(1.01481 -0.0975194 0)
(1.04258 -0.139281 0)
(1.0785 -0.202405 0)
(1.13658 -0.299614 0)
(1.19906 -0.459593 0)
(1.43905 -0.707339 0)
(1.53314 -1.2819 0)
(0.877072 0.000125114 0)
(0.877169 0.000356606 0)
(0.877274 0.000532166 0)
(0.877081 0.00064209 0)
(0.876791 0.00070344 0)
(0.876548 0.000732427 0)
(0.876344 0.000736685 0)
(0.87615 0.000722198 0)
(0.875962 0.000695936 0)
(0.875789 0.000663569 0)
(0.875632 0.000628393 0)
(0.87549 0.000592161 0)
(0.875361 0.000555825 0)
(0.875244 0.000519604 0)
(0.875139 0.000482999 0)
(0.875046 0.000444975 0)
(0.874964 0.000404097 0)
(0.874894 0.000358416 0)
(0.874837 0.000305226 0)
(0.874793 0.000240804 0)
(0.874765 0.000160207 0)
(0.874756 5.69542e-05 0)
(0.874769 -7.74537e-05 0)
(0.874809 -0.000254306 0)
(0.874884 -0.000488693 0)
(0.875002 -0.000800884 0)
(0.875177 -0.00121809 0)
(0.875426 -0.00177688 0)
(0.875769 -0.00252647 0)
(0.876237 -0.00353327 0)
(0.876867 -0.00488717 0)
(0.877708 -0.00671039 0)
(0.878823 -0.00916987 0)
(0.880292 -0.012495 0)
(0.882215 -0.017003 0)
(0.884708 -0.0231364 0)
(0.887907 -0.0315185 0)
(0.891946 -0.0430371 0)
(0.896921 -0.0589754 0)
(0.902835 -0.0812074 0)
(0.90932 -0.112565 0)
(0.915652 -0.157245 0)
(0.918426 -0.222435 0)
(0.915238 -0.318068 0)
(0.877394 -0.470616 0)
(0.834322 -0.724744 0)
(0.303117 -1.13781 0)
(0.797033 0.000184675 0)
(0.797113 0.000516334 0)
(0.797177 0.00074691 0)
(0.796928 0.000873558 0)
(0.796601 0.000934333 0)
(0.796341 0.00095523 0)
(0.796133 0.00094572 0)
(0.795944 0.000914074 0)
(0.795768 0.000870125 0)
(0.795613 0.000821041 0)
(0.795479 0.000770391 0)
(0.795362 0.000719881 0)
(0.795259 0.000670382 0)
(0.79517 0.000621958 0)
(0.795092 0.000573876 0)
(0.795026 0.000524858 0)
(0.794969 0.000473225 0)
(0.794921 0.000416759 0)
(0.794883 0.000352413 0)
(0.794853 0.000276063 0)
(0.794831 0.00018228 0)
(0.794819 6.40082e-05 0)
(0.794815 -8.79893e-05 0)
(0.794821 -0.000285942 0)
(0.794837 -0.000546183 0)
(0.794865 -0.000890565 0)
(0.794906 -0.00134834 0)
(0.794963 -0.00195861 0)
(0.795037 -0.00277377 0)
(0.795132 -0.00386402 0)
(0.795247 -0.00532364 0)
(0.795382 -0.00727951 0)
(0.795533 -0.00990274 0)
(0.795686 -0.0134247 0)
(0.795808 -0.0181589 0)
(0.795837 -0.0245318 0)
(0.795649 -0.0331251 0)
(0.795014 -0.0447348 0)
(0.793505 -0.0604538 0)
(0.790359 -0.0817791 0)
(0.784155 -0.110781 0)
(0.772451 -0.150206 0)
(0.750438 -0.203961 0)
(0.710802 -0.275982 0)
(0.636805 -0.373896 0)
(0.511672 -0.490034 0)
(0.208772 -0.582298 0)
(0.696971 0.000275974 0)
(0.69701 0.000744068 0)
(0.696997 0.00102666 0)
(0.696667 0.00115154 0)
(0.696298 0.00119405 0)
(0.696033 0.00119085 0)
(0.69584 0.00115293 0)
(0.69568 0.00109235 0)
(0.695548 0.00102216 0)
(0.695446 0.000950253 0)
(0.69537 0.000879736 0)
(0.695314 0.000811911 0)
(0.695275 0.000747356 0)
(0.695249 0.000685838 0)
(0.695234 0.000626326 0)
(0.695228 0.00056734 0)
(0.695228 0.000507051 0)
(0.695233 0.000443138 0)
(0.69524 0.00037247 0)
(0.695249 0.000290917 0)
(0.695257 0.000193114 0)
(0.695261 7.21805e-05 0)
(0.695259 -8.0862e-05 0)
(0.695246 -0.000277845 0)
(0.695216 -0.000534535 0)
(0.695164 -0.00087192 0)
(0.69508 -0.00131797 0)
(0.694951 -0.00190988 0)
(0.694759 -0.00269713 0)
(0.694481 -0.00374553 0)
(0.694082 -0.00514261 0)
(0.693514 -0.00700474 0)
(0.69271 -0.00948638 0)
(0.69157 -0.0127923 0)
(0.689951 -0.0171929 0)
(0.687637 -0.0230441 0)
(0.684307 -0.0308113 0)
(0.679472 -0.0410962 0)
(0.672374 -0.0546661 0)
(0.661845 -0.0724699 0)
(0.646037 -0.0956372 0)
(0.622097 -0.125362 0)
(0.585416 -0.162766 0)
(0.529341 -0.207985 0)
(0.442479 -0.260416 0)
(0.313463 -0.313059 0)
(0.100465 -0.316468 0)
(0.576872 0.000439598 0)
(0.576816 0.00108829 0)
(0.576673 0.00139071 0)
(0.576256 0.00147513 0)
(0.575891 0.00146968 0)
(0.575691 0.00141443 0)
(0.575596 0.00132256 0)
(0.575557 0.00121325 0)
(0.575558 0.00110302 0)
(0.575595 0.000999048 0)
(0.575657 0.000903012 0)
(0.575735 0.000815149 0)
(0.575823 0.000735199 0)
(0.575915 0.000662129 0)
(0.576009 0.000594305 0)
(0.576103 0.000529821 0)
(0.576193 0.000466617 0)
(0.576278 0.000402251 0)
(0.576355 0.000333678 0)
(0.576422 0.000257043 0)
(0.576475 0.000167558 0)
(0.576509 5.91737e-05 0)
(0.57652 -7.58678e-05 0)
(0.576499 -0.000247755 0)
(0.576436 -0.000469933 0)
(0.576316 -0.000760228 0)
(0.576122 -0.0011422 0)
(0.575827 -0.00164701 0)
(0.575398 -0.00231575 0)
(0.574786 -0.00320262 0)
(0.57393 -0.00437887 0)
(0.572742 -0.00593782 0)
(0.571104 -0.00800107 0)
(0.568852 -0.0107258 0)
(0.565761 -0.0143133 0)
(0.561516 -0.019017 0)
(0.555677 -0.0251499 0)
(0.547622 -0.0330856 0)
(0.536476 -0.0432474 0)
(0.520999 -0.0560697 0)
(0.499446 -0.071914 0)
(0.469403 -0.0908811 0)
(0.427561 -0.112538 0)
(0.369838 -0.135302 0)
(0.291013 -0.156342 0)
(0.188828 -0.168333 0)
(0.0510188 -0.143366 0)
(0.436684 0.000814948 0)
(0.436436 0.00169158 0)
(0.436214 0.00188145 0)
(0.435908 0.00180448 0)
(0.435797 0.0016652 0)
(0.435902 0.00149541 0)
(0.436118 0.00130977 0)
(0.436376 0.00113266 0)
(0.43665 0.000978088 0)
(0.436927 0.000847203 0)
(0.437198 0.0007366 0)
(0.437455 0.000642929 0)
(0.437696 0.000563248 0)
(0.437919 0.00049459 0)
(0.438125 0.000434099 0)
(0.438312 0.000379201 0)
(0.438481 0.000327557 0)
(0.438632 0.000276763 0)
(0.438762 0.000224149 0)
(0.438869 0.00016661 0)
(0.438951 0.000100491 0)
(0.439002 2.13223e-05 0)
(0.439015 -7.65424e-05 0)
(0.43898 -0.000200454 0)
(0.438883 -0.000360038 0)
(0.438706 -0.000567962 0)
(0.438422 -0.000840848 0)
(0.438 -0.0012005 0)
(0.437391 -0.00167546 0)
(0.436536 -0.00230293 0)
(0.435351 -0.00313118 0)
(0.433728 -0.00422234 0)
(0.431518 -0.00565547 0)
(0.428524 -0.0075296 0)
(0.424485 -0.00996621 0)
(0.419048 -0.0131096 0)
(0.41175 -0.017123 0)
(0.401976 -0.022177 0)
(0.388924 -0.0284229 0)
(0.371564 -0.0359425 0)
(0.348613 -0.0446627 0)
(0.318547 -0.0542157 0)
(0.2797 -0.0637674 0)
(0.230614 -0.0717871 0)
(0.170374 -0.076157 0)
(0.101441 -0.0730762 0)
(0.0230969 -0.053386 0)
(0.276422 0.00152733 0)
(0.276238 0.00255675 0)
(0.276622 0.00230956 0)
(0.277167 0.00182833 0)
(0.277821 0.00142853 0)
(0.278509 0.00111227 0)
(0.279152 0.000863515 0)
(0.279722 0.000677651 0)
(0.280219 0.000543195 0)
(0.280653 0.000444793 0)
(0.281031 0.000370486 0)
(0.281361 0.000312815 0)
(0.281651 0.000266942 0)
(0.281905 0.000229349 0)
(0.282129 0.000197387 0)
(0.282325 0.00016909 0)
(0.282497 0.000142861 0)
(0.282644 0.000117225 0)
(0.282767 9.06272e-05 0)
(0.282864 6.13614e-05 0)
(0.282932 2.74401e-05 0)
(0.282967 -1.35142e-05 0)
(0.282961 -6.44745e-05 0)
(0.282904 -0.000129264 0)
(0.282782 -0.00021292 0)
(0.282575 -0.000322031 0)
(0.282258 -0.000465208 0)
(0.281796 -0.000653633 0)
(0.281142 -0.000901799 0)
(0.280235 -0.00122833 0)
(0.278993 -0.00165693 0)
(0.277308 -0.00221736 0)
(0.275039 -0.00294618 0)
(0.272003 -0.00388706 0)
(0.267963 -0.00508995 0)
(0.262617 -0.00660833 0)
(0.255585 -0.00849285 0)
(0.246401 -0.0107797 0)
(0.234513 -0.0134706 0)
(0.219296 -0.016503 0)
(0.200106 -0.0197076 0)
(0.176386 -0.0227557 0)
(0.147851 -0.0251157 0)
(0.1148 -0.0260228 0)
(0.0784514 -0.0245917 0)
(0.0422107 -0.0196032 0)
(0.00759215 -0.0112044 0)
(0.0987816 0.00115177 0)
(0.100689 0.00127683 0)
(0.102494 0.000782952 0)
(0.103911 0.000450159 0)
(0.104911 0.000285078 0)
(0.105639 0.000188386 0)
(0.106188 0.000126089 0)
(0.106609 8.85362e-05 0)
(0.106937 6.64029e-05 0)
(0.107201 5.22395e-05 0)
(0.107419 4.22893e-05 0)
(0.107601 3.49329e-05 0)
(0.107755 2.92507e-05 0)
(0.107887 2.45997e-05 0)
(0.108001 2.05796e-05 0)
(0.108098 1.69257e-05 0)
(0.10818 1.34026e-05 0)
(0.108249 9.74589e-06 0)
(0.108303 5.68435e-06 0)
(0.108343 9.27194e-07 0)
(0.108365 -4.86126e-06 0)
(0.108367 -1.21101e-05 0)
(0.108344 -2.13501e-05 0)
(0.10829 -3.32887e-05 0)
(0.108196 -4.88726e-05 0)
(0.10805 -6.93368e-05 0)
(0.107836 -9.62525e-05 0)
(0.107532 -0.00013163 0)
(0.107111 -0.00017802 0)
(0.106535 -0.000238628 0)
(0.105756 -0.00031739 0)
(0.104713 -0.000418988 0)
(0.103326 -0.000548736 0)
(0.101496 -0.000712247 0)
(0.0990997 -0.000914719 0)
(0.095991 -0.00115965 0)
(0.0919998 -0.00144678 0)
(0.0869404 -0.00176909 0)
(0.0806266 -0.00210898 0)
(0.0728995 -0.00243414 0)
(0.0636731 -0.00269454 0)
(0.052999 -0.00282119 0)
(0.0411474 -0.00273143 0)
(0.0287106 -0.00233465 0)
(0.0167399 -0.00155524 0)
(0.00703716 -0.00021042 0)
(0.000198229 0.000488793 0)
(1.79649 0.925609 0)
(1.49336 0.470185 0)
(1.08601 0.19787 0)
(0.916053 0.0677222 0)
(0.884991 0.00939383 0)
(0.850245 -0.0264086 0)
(2.47858 0.547879 0)
(2.63825 0.346428 0)
(2.62069 0.239044 0)
(2.57419 0.185965 0)
(2.53293 0.150908 0)
(2.48022 0.12927 0)
(2.44719 0.104654 0)
(2.72762 0.05579 0)
(2.87329 0.0511024 0)
(2.9395 0.0634541 0)
(2.97489 0.0771076 0)
(2.98914 0.0941876 0)
(2.45634 -0.0567734 0)
(2.73674 0.0179075 0)
(2.88286 0.0512534 0)
(2.9522 0.071038 0)
(2.99788 0.0953548 0)
(3.02902 0.125578 0)
(2.51843 -0.505602 0)
(2.69752 -0.274134 0)
(2.71517 -0.142078 0)
(2.72057 -0.0675553 0)
(2.74125 -0.00656275 0)
(2.75957 0.0500516 0)
(1.85737 -0.934007 0)
(1.59759 -0.475971 0)
(1.24282 -0.199388 0)
(1.13035 -0.0588034 0)
(1.17757 0.0177949 0)
(1.24341 0.0799375 0)
(-0.000751845 0.000635401 0)
(-0.00582711 0.00141353 0)
(-0.0127189 0.00167715 0)
(-0.0198982 0.00162894 0)
(-0.0265403 0.00153131 0)
(-0.0325459 0.00143015 0)
(-0.0379456 0.00133085 0)
(-0.0427691 0.00123231 0)
(-0.0470379 0.001132 0)
(-0.0507665 0.00102731 0)
(-0.0539621 0.000915441 0)
(-0.056625 0.000794047 0)
(-0.0587508 0.000661222 0)
(-0.060334 0.000516861 0)
(-0.0613745 0.000362759 0)
(-0.0618822 0.000202552 0)
(-0.0618798 4.11338e-05 0)
(-0.0614108 -0.000114552 0)
(-0.0605352 -0.00025788 0)
(-0.0593272 -0.00038362 0)
(-0.0578696 -0.000487962 0)
(-0.0562486 -0.000568609 0)
(-0.0545498 -0.000624616 0)
(-0.0528545 -0.000656086 0)
(-0.0512363 -0.000664371 0)
(-0.0497595 -0.000650729 0)
(-0.0484784 -0.000617401 0)
(-0.0474367 -0.000566452 0)
(-0.0466677 -0.000500514 0)
(-0.0461959 -0.000420852 0)
(-0.0460366 -0.000329221 0)
(-0.0461982 -0.000228228 0)
(-0.0466814 -0.000120543 0)
(-0.047479 -8.19507e-06 0)
(-0.0485777 0.000105882 0)
(-0.0499567 0.000219272 0)
(-0.0515859 0.000325647 0)
(-0.0534214 0.000415728 0)
(-0.0554096 0.000485058 0)
(-0.0574987 0.000539056 0)
(-0.0596378 0.000574671 0)
(-0.0617471 0.000565371 0)
(-0.0637129 0.000506247 0)
(-0.0654646 0.000467382 0)
(-0.0669351 0.00044359 0)
(-0.0679527 0.000174151 0)
(-0.0696738 4.51029e-05 0)
(-0.00305126 0.00690743 0)
(-0.018094 0.0127621 0)
(-0.0355229 0.0142177 0)
(-0.0525851 0.0135755 0)
(-0.0679401 0.0123634 0)
(-0.081525 0.011083 0)
(-0.0934681 0.00985593 0)
(-0.103909 0.00869855 0)
(-0.112968 0.00760218 0)
(-0.120746 0.00655221 0)
(-0.127312 0.00553251 0)
(-0.132717 0.00452849 0)
(-0.136994 0.00353111 0)
(-0.140168 0.00253997 0)
(-0.142272 0.00156468 0)
(-0.143352 0.000624582 0)
(-0.143478 -0.000254928 0)
(-0.142744 -0.00104162 0)
(-0.141275 -0.00170787 0)
(-0.13922 -0.00223398 0)
(-0.136739 -0.00260976 0)
(-0.133998 -0.00283249 0)
(-0.131159 -0.00290701 0)
(-0.128374 -0.00284306 0)
(-0.125785 -0.00265535 0)
(-0.123513 -0.00236122 0)
(-0.121661 -0.0019793 0)
(-0.120311 -0.00152818 0)
(-0.119526 -0.00102528 0)
(-0.119346 -0.000487223 0)
(-0.119794 7.14688e-05 0)
(-0.120875 0.00063891 0)
(-0.122579 0.00120172 0)
(-0.124876 0.00174626 0)
(-0.12772 0.00226038 0)
(-0.131051 0.00272926 0)
(-0.134789 0.00313484 0)
(-0.138832 0.00345822 0)
(-0.143063 0.00368995 0)
(-0.147372 0.003826 0)
(-0.151639 0.00384591 0)
(-0.155713 0.003724 0)
(-0.15947 0.00347693 0)
(-0.162906 0.00315329 0)
(-0.165705 0.00269663 0)
(-0.166944 0.00205963 0)
(-0.173747 0.00257391 0)
(-0.00572215 0.020845 0)
(-0.0304935 0.0340927 0)
(-0.0559892 0.0357752 0)
(-0.0794229 0.0332422 0)
(-0.0998407 0.0297602 0)
(-0.117552 0.0263039 0)
(-0.1329 0.0230976 0)
(-0.146183 0.020152 0)
(-0.15764 0.0174235 0)
(-0.167447 0.0148589 0)
(-0.17573 0.0124082 0)
(-0.182576 0.0100321 0)
(-0.188045 0.00770831 0)
(-0.192186 0.00543608 0)
(-0.195053 0.00323759 0)
(-0.196713 0.00115401 0)
(-0.197259 -0.000762338 0)
(-0.196813 -0.00244939 0)
(-0.195527 -0.00385013 0)
(-0.193585 -0.00492722 0)
(-0.191183 -0.00566107 0)
(-0.188523 -0.00604954 0)
(-0.185804 -0.00610425 0)
(-0.183213 -0.00584853 0)
(-0.180921 -0.00531541 0)
(-0.179077 -0.00454386 0)
(-0.177805 -0.00357639 0)
(-0.177201 -0.00245576 0)
(-0.177332 -0.00122465 0)
(-0.178233 7.62161e-05 0)
(-0.179923 0.00141142 0)
(-0.182391 0.00274421 0)
(-0.185599 0.00403694 0)
(-0.189489 0.00525426 0)
(-0.193979 0.00636059 0)
(-0.198969 0.00731911 0)
(-0.204334 0.00809036 0)
(-0.209929 0.0086389 0)
(-0.215597 0.00894465 0)
(-0.221198 0.00899987 0)
(-0.226589 0.0087942 0)
(-0.231581 0.00833166 0)
(-0.236035 0.00766683 0)
(-0.239991 0.00688084 0)
(-0.243214 0.00602154 0)
(-0.244814 0.00517417 0)
(-0.250215 0.00525002 0)
(-0.0085334 0.0427053 0)
(-0.0410445 0.0632091 0)
(-0.0697376 0.0626014 0)
(-0.0940689 0.0565114 0)
(-0.114613 0.0497845 0)
(-0.132274 0.0435486 0)
(-0.147634 0.0379845 0)
(-0.161126 0.0330157 0)
(-0.173042 0.0285083 0)
(-0.183569 0.0243348 0)
(-0.192817 0.0203897 0)
(-0.200848 0.0165952 0)
(-0.207688 0.012907 0)
(-0.213344 0.00931872 0)
(-0.217825 0.00586249 0)
(-0.221152 0.00260124 0)
(-0.223375 -0.000381448 0)
(-0.22459 -0.00300178 0)
(-0.224914 -0.0051632 0)
(-0.224505 -0.00680374 0)
(-0.223555 -0.0078908 0)
(-0.222266 -0.00842151 0)
(-0.220849 -0.00841393 0)
(-0.21951 -0.00790598 0)
(-0.21844 -0.00695128 0)
(-0.217805 -0.00561507 0)
(-0.217743 -0.00396942 0)
(-0.218356 -0.00208899 0)
(-0.219705 -5.08017e-05 0)
(-0.221826 0.00207699 0)
(-0.224726 0.00422794 0)
(-0.228377 0.00633731 0)
(-0.232724 0.00834242 0)
(-0.237685 0.0101832 0)
(-0.243158 0.0118002 0)
(-0.249026 0.0131372 0)
(-0.255151 0.0141387 0)
(-0.26137 0.0147586 0)
(-0.26752 0.0149703 0)
(-0.273459 0.0147682 0)
(-0.279045 0.0141659 0)
(-0.284092 0.0131964 0)
(-0.288474 0.0119194 0)
(-0.292233 0.0104331 0)
(-0.295211 0.00887571 0)
(-0.29654 0.00736725 0)
(-0.300423 0.0065598 0)
(-0.0114502 0.0725986 0)
(-0.0461908 0.0946252 0)
(-0.06833 0.0872809 0)
(-0.0847163 0.0766542 0)
(-0.0988301 0.0669297 0)
(-0.111709 0.0584866 0)
(-0.123766 0.0512698 0)
(-0.13531 0.0450084 0)
(-0.146487 0.0394076 0)
(-0.157319 0.0342393 0)
(-0.167761 0.0293367 0)
(-0.17773 0.0245815 0)
(-0.18712 0.0199056 0)
(-0.195812 0.0152938 0)
(-0.203686 0.0107823 0)
(-0.210632 0.00645499 0)
(-0.216573 0.00244089 0)
(-0.221491 -0.00112385 0)
(-0.22543 -0.0041188 0)