/*--------------------------------*- C++ -*----------------------------------*\
| =========                 |                                                 |
| \\      /  F ield         | OpenFOAM: The Open Source CFD Toolbox           |
|  \\    /   O peration     | Version:  2406                                  |
|   \\  /    A nd           | Website:  www.openfoam.com                      |
|    \\/     M anipulation  |                                                 |
\*---------------------------------------------------------------------------*/
FoamFile
{
    version     2.0;
    format      ascii;
    arch        "LSB;label=32;scalar=64";
    class       surfaceScalarField;
    location    "84";
    object      phi;
}
// * * * * * * * * * * * * * * * * * * * * * * * * * * * * * * * * * * * * * //

dimensions      [0 3 -1 0 0 0 0];

oriented        oriented;

internalField   nonuniform List<scalar> 
3698
(
0.00996105
-0.000211028
0.0101964
-0.000235294
0.0103743
-0.000177851
0.0105043
-0.00012998
0.0106015
-9.70694e-05
0.0106747
-7.31574e-05
0.0107303
-5.5561e-05
0.0107733
-4.29966e-05
0.0108075
-3.41108e-05
0.0108352
-2.76687e-05
0.010858
-2.28148e-05
0.0108771
-1.90431e-05
0.0108932
-1.60244e-05
0.0109067
-1.35326e-05
0.0109181
-1.13908e-05
0.0109276
-9.47958e-06
0.0109354
-7.69393e-06
0.0109414
-5.95063e-06
0.0109455
-4.1465e-06
0.0109477
-2.18126e-06
0.0109477
8.05217e-08
0.010945
2.76822e-06
0.010939
6.05465e-06
0.0109289
1.01532e-05
0.0109136
1.53664e-05
0.0108916
2.20651e-05
0.0108609
3.07508e-05
0.0108189
4.20463e-05
0.0107622
5.67703e-05
0.0106864
7.5938e-05
0.0105857
0.000100842
0.0104527
0.000133049
0.0102784
0.00017445
0.0100513
0.0002272
0.00975781
0.000293643
0.0093819
0.000376039
0.00890588
0.000476157
0.00831152
0.000594498
0.00758244
0.000729236
0.00670794
0.000874665
0.0056887
0.00101943
0.00454444
0.00114444
0.00332296
0.00122163
0.00211044
0.00121269
0.00103825
0.00107239
0.000304056
0.00073462
0.000304143
0.0276509
-0.000111873
0.0276289
-0.000213187
0.0276663
-0.000215213
0.0277287
-0.000192285
0.0277993
-0.000167597
0.0278693
-0.000143042
0.027934
-0.000120156
0.0279917
-0.000100647
0.0280424
-8.47809e-05
0.0280868
-7.19255e-05
0.0281254
-6.13802e-05
0.028159
-5.26225e-05
0.0281883
-4.52546e-05
0.0282138
-3.89325e-05
0.0282358
-3.33614e-05
0.0282547
-2.82904e-05
0.0282705
-2.35063e-05
0.0282834
-1.87986e-05
0.0282933
-1.39439e-05
0.0282998
-8.68158e-06
0.0283027
-2.71316e-06
0.0283012
4.32714e-06
0.0282945
1.28892e-05
0.0282811
2.35538e-05
0.0282595
3.70713e-05
0.0282273
5.44295e-05
0.0281813
7.69111e-05
0.0281173
0.000106193
0.0280298
0.000144443
0.0279114
0.000194465
0.0277526
0.000259844
0.0275407
0.000345131
0.0272594
0.000456
0.0268874
0.000599396
0.0263978
0.000783551
0.0257563
0.0010178
0.0249207
0.00131196
0.0238404
0.00167503
0.0224573
0.0021127
0.0207091
0.00262316
0.0185382
0.00319063
0.0159073
0.00377569
0.0128247
0.00430453
0.00938149
0.00465625
0.00577945
0.00467506
0.00238529
0.00412938
0.00268962
0.0436975
-5.93255e-05
0.0436286
-0.000144259
0.0435855
-0.000172032
0.0435661
-0.000172812
0.0435643
-0.000165741
0.0435757
-0.000154352
0.0435956
-0.000140017
0.0436201
-0.000125056
0.0436464
-0.000111029
0.0436729
-9.83671e-05
0.0436986
-8.70223e-05
0.0437229
-7.68781e-05
0.0437455
-6.7795e-05
0.0437661
-5.95844e-05
0.0437848
-5.2019e-05
0.0438015
-4.48677e-05
0.0438159
-3.78978e-05
0.043828
-3.08583e-05
0.0438375
-2.34491e-05
0.0438442
-1.53058e-05
0.0438475
-5.9791e-06
0.0438468
5.0852e-06
0.0438412
1.85926e-05
0.0438293
3.54518e-05
0.0438096
5.68559e-05
0.0437798
8.43692e-05
0.0437367
0.000120052
0.0436765
0.000166604
0.0435935
0.000227567
0.0434805
0.000307562
0.0433279
0.000412606
0.0431227
0.000550482
0.0428477
0.000731184
0.0424799
0.000967395
0.0419887
0.00127496
0.0413334
0.00167326
0.0404604
0.00218516
0.0392993
0.00283635
0.0377592
0.00365306
0.0357254
0.00465716
0.0330592
0.00585704
0.0296049
0.00723027
0.0252096
0.0086999
0.0197746
0.0100915
0.0133195
0.0111305
0.00616135
0.0112886
0.00885107
0.0577264
-3.57343e-05
0.0576776
-9.53804e-05
0.0576321
-0.000126408
0.0575962
-0.000136872
0.057569
-0.00013851
0.05755
-0.000135341
0.0575385
-0.000128385
0.0575327
-0.000119237
0.0575312
-0.000109455
0.0575327
-9.98198e-05
0.0575362
-9.05757e-05
0.0575412
-8.18037e-05
0.057547
-7.3525e-05
0.0575531
-6.56762e-05
0.0575592
-5.81184e-05
0.0575651
-5.06691e-05
0.0575703
-4.31206e-05
0.0575747
-3.52211e-05
0.057578
-2.66484e-05
0.0575797
-1.69831e-05
0.0575794
-5.69192e-06
0.0575767
7.90541e-06
0.0575706
2.4682e-05
0.0575604
4.57806e-05
0.0575446
7.27047e-05
0.0575216
0.000107446
0.0574891
0.000152636
0.057444
0.000211758
0.0573823
0.000289407
0.0572983
0.000391652
0.0571846
0.000526489
0.0570308
0.000704436
0.0568228
0.000939283
0.0565413
0.00124904
0.0561594
0.00165704
0.0556396
0.0021933
0.054929
0.00289585
0.0539536
0.00381194
0.0526083
0.00499852
0.0507453
0.00652038
0.0481576
0.00844489
0.0445631
0.0108249
0.0395887
0.0136745
0.0327926
0.0168877
0.0237026
0.020221
0.0120708
0.0229206
0.0209224
0.0697374
-2.31018e-05
0.0697066
-6.45832e-05
0.0696718
-9.154e-05
0.0696395
-0.000104511
0.0696106
-0.000109505
0.0695853
-0.000109971
0.0695639
-0.000106966
0.0695462
-0.000101535
0.0695317
-9.48879e-05
0.0695197
-8.78222e-05
0.0695099
-8.06833e-05
0.0695017
-7.36214e-05
0.0694949
-6.67083e-05
0.0694892
-5.99323e-05
0.0694843
-5.31948e-05
0.06948
-4.63405e-05
0.0694761
-3.9174e-05
0.0694724
-3.14492e-05
0.0694686
-2.28374e-05
0.0694646
-1.29023e-05
0.06946
-1.07359e-06
0.0694546
1.33823e-05
0.0694479
3.14185e-05
0.0694394
5.42839e-05
0.0694285
8.36337e-05
0.0694144
0.000121667
0.0693958
0.000171308
0.0693712
0.000236446
0.0693385
0.000322253
0.0692946
0.000435612
0.0692355
0.000585697
0.0691554
0.000784737
0.0690457
0.00104905
0.0688945
0.00140043
0.0686837
0.00186796
0.0683867
0.00249046
0.067963
0.00331967
0.0673508
0.00442431
0.0664542
0.00589528
0.0651237
0.00785096
0.0631244
0.0104444
0.0600899
0.0138594
0.0554405
0.0183238
0.0483214
0.024007
0.0373815
0.0311609
0.021071
0.039233
0.0419936
0.0797423
-1.54287e-05
0.079722
-4.42123e-05
0.0796958
-6.52388e-05
0.0796686
-7.73044e-05
0.0796423
-8.31098e-05
0.0796174
-8.50162e-05
0.0795944
-8.39975e-05
0.0795737
-8.0779e-05
0.0795551
-7.62243e-05
0.0795383
-7.10098e-05
0.0795232
-6.54975e-05
0.0795094
-5.98629e-05
0.079497
-5.41954e-05
0.0794856
-4.85048e-05
0.0794751
-4.27203e-05
0.0794655
-3.67094e-05
0.0794567
-3.02959e-05
0.0794485
-2.32497e-05
0.079441
-1.5261e-05
0.079434
-5.91092e-06
0.0794276
5.35142e-06
0.0794218
1.92421e-05
0.0794166
3.66918e-05
0.079412
5.89257e-05
0.0794081
8.75687e-05
0.079405
0.000124789
0.079403
0.000173478
0.079402
0.000237503
0.0794023
0.000322032
0.079404
0.000433998
0.0794071
0.000582717
0.0794112
0.00078076
0.0794153
0.00104514
0.0794168
0.00139901
0.0794109
0.00187397
0.079388
0.00251351
0.07933
0.00337778
0.0792039
0.00455063
0.0789491
0.00615014
0.0784571
0.00834309
0.0775302
0.0113714
0.0758174
0.0155722
0.0726618
0.0214795
0.0669793
0.0296894
0.0565048
0.0416365
0.0378817
0.0578563
0.0798756
0.0877448
-1.01883e-05
0.0877302
-2.95419e-05
0.0877096
-4.46177e-05
0.0876865
-5.41919e-05
0.0876628
-5.935e-05
0.0876393
-6.14827e-05
0.0876167
-6.13351e-05
0.0875954
-5.94227e-05
0.0875755
-5.63253e-05
0.0875571
-5.25461e-05
0.08754
-4.83944e-05
0.0875242
-4.40348e-05
0.0875096
-3.95521e-05
0.0874961
-3.49643e-05
0.0874836
-3.02217e-05
0.0874722
-2.52205e-05
0.0874617
-1.98147e-05
0.0874523
-1.38104e-05
0.087444
-6.9432e-06
0.087437
1.14551e-06
0.0874315
1.09321e-05
0.0874277
2.3037e-05
0.0874262
3.82704e-05
0.0874275
5.76982e-05
0.0874323
8.27381e-05
0.0874419
0.000115283
0.0874576
0.000157868
0.0874813
0.000213891
0.0875155
0.000287921
0.0875635
0.000386113
0.0876295
0.000516809
0.087719
0.000691359
0.087839
0.000925314
0.087998
0.00124013
0.0882064
0.00166565
0.0884762
0.00224386
0.0888197
0.00303446
0.0892468
0.0041236
0.0897592
0.00563779
0.090337
0.00776539
0.09091
0.0107985
0.0912982
0.0151841
0.0910494
0.0217283
0.0890985
0.0316407
0.0822634
0.0484713
0.0630405
0.0770797
0.142916
0.093746
-6.18735e-06
0.0937346
-1.80297e-05
0.0937176
-2.75749e-05
0.0936974
-3.39744e-05
0.0936757
-3.76118e-05
0.0936535
-3.92118e-05
0.0936314
-3.92512e-05
0.0936101
-3.80666e-05
0.0935898
-3.60133e-05
0.0935707
-3.34139e-05
0.0935529
-3.04857e-05
0.0935362
-2.73516e-05
0.0935208
-2.40754e-05
0.0935065
-2.0672e-05
0.0934934
-1.71083e-05
0.0934815
-1.33112e-05
0.0934709
-9.17526e-06
0.0934617
-4.55831e-06
0.0934541
7.33632e-07
0.0934483
6.96507e-06
0.0934448
1.44872e-05
0.0934441
2.37597e-05
0.093447
3.53823e-05
0.0934546
5.01458e-05
0.0934683
6.91005e-05
0.09349
9.36521e-05
0.0935223
0.000125685
0.0935685
0.000167732
0.0936333
0.000223207
0.0937228
0.000296735
0.0938451
0.000394607
0.0940111
0.00052545
0.0942354
0.000701178
0.0945372
0.0009384
0.0949425
0.00126053
0.0954854
0.001701
0.0962118
0.00230826
0.0971817
0.00315373
0.0984749
0.00434468
0.100195
0.00604575
0.102479
0.00851458
0.105496
0.0121671
0.109547
0.0176774
0.115038
0.0261491
0.124243
0.0392669
0.144241
0.0570807
0.0872204
0.199936
0.0977467
-2.82093e-06
0.0977369
-8.22098e-06
0.097722
-1.26158e-05
0.0977036
-1.55817e-05
0.0976833
-1.72257e-05
0.097662
-1.78479e-05
0.0976404
-1.76735e-05
0.0976193
-1.68673e-05
0.0975989
-1.55963e-05
0.0975795
-1.40145e-05
0.0975613
-1.22301e-05
0.0975443
-1.03059e-05
0.0975285
-8.27289e-06
0.097514
-6.13661e-06
0.0975008
-3.87745e-06
0.097489
-1.45484e-06
0.0974787
1.19024e-06
0.09747
4.13675e-06
0.0974633
7.49198e-06
0.0974589
1.14002e-05
0.0974574
1.60527e-05
0.0974595
2.16988e-05
0.0974662
2.86638e-05
0.097479
3.73746e-05
0.0974998
4.83987e-05
0.097531
6.24929e-05
0.0975761
8.06723e-05
0.0976396
0.000104301
0.0977277
0.000135221
0.0978486
0.00017593
0.0980135
0.000229837
0.0982374
0.000301633
0.0985408
0.00039783
0.0989518
0.000527561
0.0995087
0.000703797
0.100265
0.000945228
0.101294
0.0012792
0.102701
0.00174651
0.104637
0.00240877
0.107321
0.00336146
0.111087
0.00474866
0.116454
0.00680096
0.124331
0.00979973
0.136292
0.0141885
0.155496
0.0200626
0.186054
0.0265221
0.0393366
0.233937
0.0997469
2.67373e-07
0.0997379
8.28611e-07
0.099724
1.37406e-06
0.0997065
1.91396e-06
0.0996869
2.45922e-06
0.0996661
3.01419e-06
0.0996449
3.58275e-06
0.0996239
4.16965e-06
0.0996035
4.77978e-06
0.0995841
5.41827e-06
0.0995658
6.09025e-06
0.0995488
6.80215e-06
0.099533
7.56076e-06
0.0995185
8.37344e-06
0.0995054
9.24701e-06
0.0994938
1.01894e-05
0.0994838
1.12092e-05
0.0994756
1.23168e-05
0.0994696
1.35226e-05
0.0994662
1.48382e-05
0.0994661
1.62755e-05
0.09947
1.78487e-05
0.0994791
1.95727e-05
0.099495
2.14658e-05
0.0995199
2.35477e-05
0.0995567
2.58418e-05
0.099609
2.83747e-05
0.0996822
3.11785e-05
0.0997832
3.42918e-05
0.0999215
3.77632e-05
0.10011
4.16543e-05
0.100365
4.60466e-05
0.100712
5.10491e-05
0.101183
5.68136e-05
0.101824
6.35559e-05
0.102697
7.15927e-05
0.103895
8.14021e-05
0.105548
9.37273e-05
0.107847
0.000109759
0.111077
0.00013146
0.115664
0.000162167
0.122257
0.000207735
0.131779
0.000278073
0.145575
0.000392828
0.165063
0.000573552
0.190688
0.000896382
0.00135455
0.22867
0.0997469
3.34999e-06
0.099738
9.85808e-06
0.099724
1.533e-05
0.0997066
1.9362e-05
0.0996871
2.20823e-05
0.0996663
2.37995e-05
0.0996452
2.47467e-05
0.0996243
2.50979e-05
0.0996041
2.50302e-05
0.0995848
2.47072e-05
0.0995667
2.42475e-05
0.0995498
2.37262e-05
0.0995342
2.31885e-05
0.09952
2.26537e-05
0.0995072
2.21164e-05
0.0994958
2.15508e-05
0.0994861
2.09155e-05
0.0994783
2.01511e-05
0.0994727
1.91717e-05
0.0994697
1.78553e-05
0.09947
1.60348e-05
0.0994744
1.34874e-05
0.0994841
9.91843e-06
0.0995007
4.93511e-06
0.0995263
-1.99034e-06
0.0995638
-1.15702e-05
0.099617
-2.47675e-05
0.0996911
-4.28854e-05
0.0997932
-6.76913e-05
0.0999326
-0.000101591
0.100122
-0.00014788
0.10038
-0.000211095
0.100728
-0.000297549
0.101201
-0.000416098
0.101844
-0.000579327
0.102721
-0.000805366
0.103924
-0.00112073
0.105582
-0.00156495
0.10789
-0.00219765
0.111132
-0.00311115
0.115739
-0.00444419
0.122365
-0.00641857
0.131942
-0.00929854
0.145831
-0.0134967
0.165461
-0.0190559
0.191248
-0.0248922
-0.036934
0.229537
0.0977467
6.69521e-06
0.097737
1.96057e-05
0.0977222
3.01879e-05
0.0977039
3.76121e-05
0.0976838
4.22832e-05
0.0976627
4.49339e-05
0.0976414
4.60487e-05
0.0976206
4.59728e-05
0.0976006
4.50715e-05
0.0975817
4.36764e-05
0.0975639
4.20155e-05
0.0975475
4.02231e-05
0.0975323
3.83766e-05
0.0975185
3.65034e-05
0.0975061
3.4585e-05
0.0974951
3.25619e-05
0.0974857
3.03466e-05
0.0974781
2.78143e-05
0.0974725
2.4792e-05
0.0974693
2.10353e-05
0.0974692
1.6217e-05
0.0974728
9.90157e-06
0.0974813
1.5191e-06
0.0974959
-9.69033e-06
0.0975187
-2.47398e-05
0.0975522
-4.49955e-05
0.0975998
-7.22935e-05
0.0976661
-0.000109115
0.0977573
-0.000158808
0.0978818
-0.00022592
0.0980506
-0.000316649
0.0982791
-0.000439503
0.0985879
-0.000606239
0.0990052
-0.000833271
0.0995697
-0.00114374
0.100335
-0.00157071
0.101377
-0.00216213
0.1028
-0.00298871
0.10476
-0.00415673
0.107478
-0.00582948
0.111297
-0.00826272
0.116749
-0.0118705
0.124774
-0.0173237
0.137003
-0.0257256
0.156701
-0.0387544
0.188143
-0.0563347
-0.0863564
0.237565
0.093746
1.06638e-05
0.0937347
3.10177e-05
0.0937178
4.70634e-05
0.0936979
5.75944e-05
0.0936765
6.37158e-05
0.0936547
6.68256e-05
0.0936331
6.76769e-05
0.0936123
6.67928e-05
0.0935927
6.47627e-05
0.0935743
6.20983e-05
0.0935572
5.91192e-05
0.0935415
5.60001e-05
0.093527
5.28385e-05
0.0935139
4.9664e-05
0.0935021
4.64408e-05
0.0934916
4.30776e-05
0.0934825
3.9445e-05
0.093475
3.53649e-05
0.0934692
3.05922e-05
0.0934655
2.47861e-05
0.0934643
1.74928e-05
0.0934661
8.11327e-06
0.0934718
-4.13539e-06
0.0934825
-2.02928e-05
0.0934995
-4.17434e-05
0.093525
-7.03474e-05
0.0935613
-0.000108599
0.0936122
-0.000159856
0.0936821
-0.000228634
0.0937773
-0.000321037
0.0939061
-0.000445338
0.0940795
-0.000612816
0.0943123
-0.000838933
0.0946242
-0.00114504
0.0950414
-0.00156089
0.0955991
-0.00212832
0.096344
-0.00290695
0.0973382
-0.00398285
0.0986642
-0.00548266
0.10043
-0.00759522
0.102782
-0.0106143
0.105901
-0.0149901
0.110118
-0.02154
0.115882
-0.03149
0.125614
-0.0484864
0.146748
-0.0774689
-0.145038
0.20543
0.0877448
1.5857e-05
0.0877303
4.55497e-05
0.08771
6.74539e-05
0.0876872
8.03828e-05
0.0876639
8.70532e-05
0.087641
8.98362e-05
0.087619
8.97096e-05
0.0875984
8.74096e-05
0.0875794
8.38039e-05
0.087562
7.95821e-05
0.087546
7.51102e-05
0.0875315
7.05789e-05
0.0875183
6.60814e-05
0.0875063
6.16456e-05
0.0874956
5.72049e-05
0.0874861
5.26478e-05
0.0874777
4.78031e-05
0.0874707
4.24642e-05
0.087465
3.6327e-05
0.0874608
2.9e-05
0.0874584
1.99397e-05
0.0874581
8.46185e-06
0.0874604
-6.35488e-06
0.0874658
-2.56995e-05
0.0874753
-5.1185e-05
0.08749
-8.49385e-05
0.0875113
-0.000129837
0.0875412
-0.000189703
0.0875823
-0.000269686
0.0876381
-0.000376673
0.0877128
-0.000519964
0.0878122
-0.000712089
0.0879434
-0.000970062
0.0881155
-0.00131701
0.0883393
-0.00178462
0.0886275
-0.00241643
0.0889935
-0.00327287
0.0894489
-0.00443823
0.0899978
-0.00603149
0.0906238
-0.00822108
0.0912618
-0.0112521
0.0917392
-0.0154673
0.091612
-0.0214128
0.0898207
-0.0296984
0.0831454
-0.0418114
0.0639672
-0.0582901
-0.081071
0.0797424
2.34731e-05
0.0797222
6.57472e-05
0.0796963
9.34662e-05
0.0796695
0.000107181
0.0796437
0.000112918
0.0796195
0.00011413
0.0795973
0.000111886
0.0795775
0.000107231
0.07956
0.000101388
0.0795445
9.51585e-05
0.0795307
8.88985e-05
0.0795186
8.27631e-05
0.0795079
7.68362e-05
0.0794984
7.11115e-05
0.0794902
6.55054e-05
0.079483
5.98691e-05
0.0794768
5.40236e-05
0.0794716
4.77286e-05
0.0794673
4.06743e-05
0.0794639
3.24321e-05
0.0794614
2.24538e-05
0.0794599
1.00149e-05
0.0794594
-5.81292e-06
0.07946
-2.6268e-05
0.0794619
-5.29796e-05
0.0794651
-8.81351e-05
0.07947
-0.000134633
0.0794768
-0.000196351
0.0794856
-0.000278439
0.0794968
-0.00038778
0.0795105
-0.000533538
0.0795265
-0.000727968
0.079544
-0.000987424
0.0795608
-0.00133379
0.0795726
-0.00179629
0.0795703
-0.00241402
0.0795367
-0.00323917
0.0794397
-0.00434119
0.0792205
-0.0058122
0.078772
-0.00777253
0.0778985
-0.0103785
0.0762501
-0.0138188
0.0731672
-0.0183298
0.0675595
-0.0240905
0.0571232
-0.0313745
0.038467
-0.0396334
-0.0426037
0.0697375
3.60358e-05
0.0697069
9.63398e-05
0.0696724
0.000127993
0.0696406
0.000139057
0.0696123
0.000141292
0.0695877
0.000138714
0.0695673
0.000132362
0.0695508
0.000123823
0.0695375
0.000114675
0.069527
0.000105691
0.0695189
9.71362e-05
0.0695126
8.90837e-05
0.0695079
8.15767e-05
0.0695045
7.45419e-05
0.0695022
6.78687e-05
0.0695007
6.1363e-05
0.0694999
5.48478e-05
0.0694997
4.80558e-05
0.0694997
4.07e-05
0.0694998
3.23456e-05
0.0694998
2.2499e-05
0.0694994
1.04625e-05
0.0694983
-4.59402e-06
0.0694959
-2.38322e-05
0.0694917
-4.87112e-05
0.0694849
-8.12446e-05
0.0694743
-0.000124021
0.0694586
-0.00018055
0.0694357
-0.000255392
0.0694027
-0.000354662
0.0693556
-0.00048634
0.0692888
-0.00066103
0.0691941
-0.000892567
0.0690595
-0.00119913
0.0688675
-0.00160423
0.0685918
-0.00213824
0.0681924
-0.00283969
0.067608
-0.00375663
0.066743
-0.00494713
0.0654483
-0.00647771
0.0634881
-0.00841813
0.0604937
-0.0108244
0.0558787
-0.0137147
0.0487746
-0.0169862
0.0377983
-0.0203977
0.0213549
-0.0231893
-0.0212487
0.0577265
5.9549e-05
0.0576779
0.000144989
0.0576327
0.000173224
0.0575974
0.000174446
0.0575709
0.000167798
0.0575529
0.000156834
0.0575424
0.000142916
0.0575379
0.000128389
0.0575378
0.000114794
0.0575409
0.000102592
0.0575464
9.17149e-05
0.0575535
8.20789e-05
0.0575616
7.35166e-05
0.0575703
6.58797e-05
0.0575793
5.89109e-05
0.0575883
5.24257e-05
0.057597
4.61541e-05
0.0576052
3.98961e-05
0.0576126
3.33106e-05
0.057619
2.60913e-05
0.0576237
1.77438e-05
0.0576265
7.77664e-06
0.0576265
-4.56525e-06
0.0576229
-2.01245e-05
0.0576144
-4.01485e-05
0.0575994
-6.61341e-05
0.0575756
-0.000100203
0.0575402
-0.000144992
0.057489
-0.000204118
0.0574167
-0.000282154
0.0573156
-0.000385223
0.0571759
-0.000521096
0.0569833
-0.000699933
0.0567188
-0.000934486
0.0563556
-0.00124089
0.0558562
-0.00163875
0.055168
-0.00215149
0.0542168
-0.00280531
0.0528971
-0.00362738
0.0510602
-0.00464061
0.0484969
-0.00585476
0.0449214
-0.00724866
0.0399532
-0.00874635
0.0331398
-0.0101726
0.0239923
-0.0112496
0.0122448
-0.011441
-0.00900368
0.0436976
0.000112011
0.0436289
0.00021366
0.0435862
0.000215978
0.0435674
0.000193308
0.0435664
0.000168868
0.0435787
0.00014455
0.0435998
0.000121905
0.0436256
0.000102632
0.0436535
8.70134e-05
0.0436817
7.44058e-05
0.0437093
6.41281e-05
0.0437358
5.5643e-05
0.0437608
4.85731e-05
0.0437841
4.25584e-05
0.0438058
3.73295e-05
0.0438256
3.26168e-05
0.0438436
2.82338e-05
0.0438596
2.39482e-05
0.0438734
1.95675e-05
0.0438847
1.48078e-05
0.0438931
9.40228e-06
0.043898
2.95916e-06
0.0438984
-4.93677e-06
0.0438932
-1.48972e-05
0.0438808
-2.76359e-05
0.0438589
-4.4173e-05
0.0438246
-6.5759e-05
0.0437738
-9.41115e-05
0.0437012
-0.000131376
0.0435996
-0.000180413
0.0434593
-0.000244805
0.0432675
-0.000329193
0.0430071
-0.000439289
0.0426549
-0.00058219
0.0421803
-0.000766243
0.0415427
-0.00100104
0.040688
-0.00129665
0.0395452
-0.00166247
0.0380225
-0.00210458
0.0360037
-0.00262168
0.0333475
-0.00319833
0.0298942
-0.0037952
0.025486
-0.00433794
0.0200178
-0.004704
0.0135038
-0.00473485
0.00625881
-0.00419491
-0.00274467
0.0276509
0.000211088
0.0276291
0.000235503
0.027667
0.000178171
0.02773
0.00013039
0.0278013
9.75614e-05
0.0278722
7.37278e-05
0.0279379
5.62113e-05
0.0279969
4.37241e-05
0.028049
3.49193e-05
0.0280949
2.85586e-05
0.0281353
2.37941e-05
0.0281708
2.01131e-05
0.0282023
1.7194e-05
0.0282301
1.48044e-05
0.0282546
1.27774e-05
0.0282763
1.09861e-05
0.0282952
9.33602e-06
0.0283115
7.73523e-06
0.028325
6.09345e-06
0.0283355
4.30252e-06
0.0283427
2.24356e-06
0.028346
-2.35499e-07
0.0283444
-3.30129e-06
0.0283368
-7.16947e-06
0.0283213
-1.21256e-05
0.0282958
-1.85552e-05
0.0282571
-2.69493e-05
0.028201
-3.79497e-05
0.0281221
-5.23696e-05
0.0280131
-7.12512e-05
0.0278643
-9.58915e-05
0.0276632
-0.000127897
0.0273932
-0.000169183
0.0270331
-0.000221969
0.0265556
-0.000288651
0.0259262
-0.000371588
0.0251023
-0.000472631
0.0240323
-0.000592398
0.022657
-0.000729142
0.0209127
-0.000877206
0.0187397
-0.00102517
0.0160985
-0.00115372
0.0129952
-0.00123436
0.00951964
-0.001228
0.00587447
-0.00108874
0.00242984
-0.000749289
-0.00031469
0.00996109
0.0101966
0.0103748
0.0105052
0.0106028
0.0106765
0.0107327
0.0107764
0.0108114
0.0108399
0.0108637
0.0108839
0.0109011
0.0109159
0.0109287
0.0109397
0.010949
0.0109567
0.0109628
0.0109672
0.0109694
0.0109692
0.0109659
0.0109587
0.0109466
0.0109281
0.0109012
0.0108632
0.0108109
0.0107397
0.0106438
0.010516
0.0103468
0.0101249
0.00983622
0.00946465
0.00899204
0.00839966
0.00767055
0.00679339
0.00576827
0.00461459
0.00338029
0.00215239
0.00106383
0.00031469
0.145866
0.0540695
0.119018
0.0268486
0.103033
0.0159844
0.0929121
0.0101213
0.086282
0.00663068
0.0045828
0.0817004
0.254126
0.0338809
0.259856
0.0211182
0.25999
0.0158503
0.256744
0.0133678
0.251695
0.0116804
0.0113207
0.244958
0.260302
0.00224902
0.277804
0.00361569
0.288484
0.00517095
0.295017
0.00683465
0.29795
0.0087477
0.0110792
0.298193
0.261258
-0.0294723
0.278642
-0.0137682
0.289394
-0.00558209
0.296544
-0.00031429
0.300733
0.00455865
0.00902344
0.30279
0.25915
-0.0510572
0.267447
-0.0220665
0.272049
-0.0101839
0.274653
-0.0029193
0.276386
0.00282726
0.00796067
0.27745
0.154372
0.132306
0.122121
0.119203
0.12203
0.129992
-0.000268191
0.000268757
-0.00082506
0.000558318
-0.00146188
0.000638129
-0.0020737
0.000612958
-0.00263556
0.000562825
-0.00314513
0.000510385
-0.003605
0.000460528
-0.00401848
0.000413978
-0.00438852
0.000370394
-0.00471733
0.000329048
-0.00500604
0.000288833
-0.00525448
0.0002485
-0.00546137
0.000206854
-0.00562464
0.000163162
-0.00574226
0.000117436
-0.00581302
7.05116e-05
-0.00583709
2.3758e-05
-0.00581666
-2.07971e-05
-0.005756
-6.11341e-05
-0.00566073
-9.58414e-05
-0.0055375
-0.000123932
-0.0053935
-0.000144777
-0.00523625
-0.000158069
-0.0050732
-0.000163839
-0.00491139
-0.000162539
-0.00475717
-0.000154825
-0.00461608
-0.00014158
-0.00449271
-0.000123705
-0.0043907
-0.000102224
-0.0043129
-7.78776e-05
-0.0042614
-5.14798e-05
-0.00423741
-2.38876e-05
-0.00424135
4.06417e-06
-0.00427308
3.18294e-05
-0.00433189
5.88456e-05
-0.00441629
8.43576e-05
-0.00452369
0.000107312
-0.00465028
0.000126336
-0.00479138
0.000140706
-0.00494185
0.00015015
-0.00509408
0.000152496
-0.00523617
0.000142429
-0.0053562
0.00011843
-0.00544777
8.83093e-05
-0.00550397
5.37579e-05
-0.00553023
2.28539e-05
4.26933e-05
-0.000934032
0.00120428
-0.00243092
0.00205868
-0.00399049
0.00220075
-0.00543818
0.00206324
-0.00673429
0.00186111
-0.00788099
0.00165885
-0.008891
0.00147192
-0.00977814
0.0013021
-0.0105545
0.00114742
-0.0112296
0.00100445
-0.0118097
0.000869078
-0.0122983
0.000737002
-0.0126965
0.000604679
-0.0130038
0.000470025
-0.0132201
0.0003331
-0.0133466
0.000196237
-0.0133871
6.33212e-05
-0.0133482
-6.07972e-05
-0.0132392
-0.000171332
-0.0130721
-0.0002645
-0.0128597
-0.000338039
-0.0126159
-0.000390516
-0.0123546
-0.0004214
-0.0120894
-0.000430923
-0.0118334
-0.000420303
-0.0115982
-0.000391573
-0.0113937
-0.000347238
-0.0112282
-0.000290125
-0.011108
-0.000222978
-0.0110377
-0.000148475
-0.01102
-6.91358e-05
-0.0110561
1.23769e-05
-0.0111456
9.38625e-05
-0.0112867
0.000173098
-0.0114757
0.000247873
-0.0117071
0.000315651
-0.0119735
0.000373446
-0.0122658
0.000418048
-0.0125731
0.000447112
-0.012882
0.000458701
-0.0131782
0.000449185
-0.013451
0.000415247
-0.013696
0.000360706
-0.0139084
0.00029486
-0.0140873
0.000225755
-0.0142615
0.000196464
0.000278076
-0.00164985
0.00285554
-0.00397466
0.00438652
-0.00620621
0.00443496
-0.00818892
0.0040482
-0.0099199
0.00359396
-0.0114257
0.0031662
-0.0127366
0.0027839
-0.0138788
0.00244506
-0.0148729
0.00214197
-0.0157339
0.00186573
-0.016472
0.00160711
-0.0170929
0.00135765
-0.0175991
0.00111055
-0.0179919
0.000862167
-0.0182722
0.000612695
-0.0184432
0.000366351
-0.018511
0.000130192
-0.0184849
-8.80414e-05
-0.018377
-0.000280283
-0.0182027
-0.000440302
-0.0179782
-0.000564168
-0.0177206
-0.000649945
-0.0174472
-0.000696609
-0.0171751
-0.000704782
-0.0169205
-0.000676599
-0.0166976
-0.000615874
-0.0165186
-0.000527396
-0.0163931
-0.000416444
-0.0163284
-0.000288227
-0.0163293
-0.000147794
-0.0163981
-3.56359e-07
-0.016535
0.000149533
-0.0167386
0.00029763
-0.0170046
0.000439327
-0.0173266
0.000570003
-0.0176958
0.000684856
-0.0181013
0.000778785
-0.0185305
0.000846749
-0.018969
0.00088476
-0.0194004
0.000889696
-0.0198096
0.000858764
-0.0201871
0.00079239
-0.0205277
0.000698125
-0.020826
0.000589017
-0.0210845
0.000483732
-0.0213055
0.000416392
0.00049468
-0.00232893
0.00518557
-0.00518263
0.00724281
-0.00763753
0.00689227
-0.00970423
0.00611705
-0.0114713
0.00536289
-0.0130019
0.00469823
-0.0143435
0.00412661
-0.0155309
0.00363315
-0.0165874
0.00319886
-0.017528
0.00280635
-0.0183613
0.00244029
-0.0190913
0.00208721
-0.019718
0.00173677
-0.0202397
0.00138297
-0.020654
0.00102598
-0.0209609
0.000672059
-0.0211639
0.000332053
-0.0212705
1.73405e-05
-0.0212908
-0.000261316
-0.0212379
-0.000494723
-0.0211277
-0.000676085
-0.0209772
-0.00080212
-0.0208052
-0.000870526
-0.0206304
-0.000881187
-0.0204712
-0.000837308
-0.0203439
-0.000744383
-0.020262
-0.000610309
-0.0202361
-0.000443026
-0.0202737
-0.000251167
-0.0203788
-4.2813e-05
-0.0205531
0.000173971
-0.020796
0.000392827
-0.0211045
0.000606407
-0.0214726
0.000807763
-0.021892
0.00098959
-0.0223522
0.00114513
-0.0228408
0.00126731
-0.0233443
0.00134986
-0.0238477
0.00138729
-0.0243348
0.00137625
-0.0247917
0.00131547
-0.0252089
0.00120888
-0.0255789
0.00106516
-0.0258917
0.000899506
-0.0261432
0.000732852
-0.0263268
0.000602586
0.000621895
-0.00285716
0.00804392
-0.00550001
0.00988801
-0.0073284
0.00872305
-0.00879143
0.00758232
-0.0100888
0.0066623
-0.0112817
0.00589275
-0.012406
0.00525212
-0.0134844
0.00471231
-0.0145256
0.0042405
-0.01553
0.00381093
-0.0164938
0.00340395
-0.01741
0.00300321
-0.0182693
0.00259546
-0.0190598
0.00217275
-0.0197694
0.00173458
-0.0203878
0.00128973
-0.0209099
0.00085311
-0.021335
0.000441645
-0.021667
6.97043e-05
-0.0219116
-0.000251077
-0.0220783
-0.000510596
-0.0221799
-0.000701912
-0.0222335
-0.000818017
-0.02226
-0.00085608
-0.0222799
-0.000818194
-0.0223135
-0.000711874
-0.0223768
-0.000547571
-0.0224829
-0.0003377
-0.0226395
-9.47025e-05
-0.0228517
0.000169291
-0.0231218
0.000444375
-0.0234493
0.000720553
-0.0238305
0.000988184
-0.02426
0.00123747
-0.0247294
0.00145941
-0.0252291
0.00164486
-0.0257476
0.00178591
-0.0262732
0.0018749
-0.0267925
0.00190602
-0.0272923
0.00187541
-0.0277607
0.00178354
-0.0281885
0.00163487
-0.0285648
0.00143909
-0.0288793
0.00121084
-0.0291192
0.000975902
-0.0292817
0.000766098
0.000704208
-0.00253088
0.0105756
-0.00290729
0.0102669
-0.00258647
0.00840476
-0.00256003
0.00755832
-0.00287912
0.00698351
-0.00345217
0.00646761
-0.00423526
0.00603657
-0.00519731
0.00567533
-0.00630282
0.00534661
-0.0075157
0.00502415
-0.00880323
0.00469167
-0.0101363
0.0043362
-0.0114875
0.00394658
-0.0128301
0.00351483
-0.0141359
0.00303993
-0.0153784
0.0025315
-0.0165363
0.0020104
-0.0175941
0.00149864
-0.0185402
0.00101481
-0.0193686
0.000576096
-0.020078
0.000197343
-0.0206693
-0.000112017
-0.021152
-0.000336621
-0.0215461
-0.000463222
-0.0218768
-0.000488594
-0.0221699
-0.000419703
-0.022448
-0.000270195
-0.0227286
-5.74717e-05
-0.0230245
0.000201321
-0.0233458
0.000490931
-0.0236984
0.000797577
-0.0240843
0.00110732
-0.024503
0.00140759
-0.024951
0.00168626
-0.0254234
0.0019324
-0.0259136
0.00213557
-0.0264142
0.00228682
-0.0269172
0.00237789
-0.0274139
0.00240236
-0.0278951
0.00235623
-0.0283521
0.00223995
-0.0287756
0.00205716
-0.0291548
0.00181591
-0.0294765
0.00153265
-0.0297305
0.00122977
-0.0299014
0.000941846
0.000794883
0.00768457
0.0028927
0.0132015
0.00475259
0.0161049
0.00550358
0.0175634
0.0061016
0.0179885
0.00655991
0.0176168
0.00684053
0.0166424
0.00701177
0.0152074
0.00711085
0.0134193
0.00713508
0.0113663
0.00707728
0.00912294
0.0069351
0.00675123
0.00670789
0.00430184
0.00639573
0.00181491
0.00600124
-0.000677496
0.00553147
-0.00314169
0.00499466
-0.00553486
0.00440231
-0.00781279
0.00377493
-0.00993815
0.00313802
-0.0118805
0.00251603
-0.0136182
0.00193216
-0.015135
0.0014025
-0.0164301
0.000955885
-0.0175195
0.000624701
-0.0184311
0.000420932
-0.0191965
0.000344965
-0.0198491
0.000381518
-0.0204165
0.000510476
-0.0209254
0.000710666
-0.0213965
0.000963426
-0.0218459
0.00124813
-0.0222835
0.00154648
-0.0227159
0.00184106
-0.0231458
0.0021175
-0.023575
0.00236226
-0.0240028
0.00256421
-0.0244289
0.00271295
-0.0248513
0.00280035
-0.0252684
0.00281871
-0.0256764
0.00276388
-0.0260717
0.0026342
-0.0264475
0.00243182
-0.0267945
0.00216114
-0.0271017
0.00183785
-0.0273554
0.00148975
-0.0275419
0.0011332
0.000924105
0.0801335
0.00446149
0.0791596
0.00572807
0.0777478
0.00691659
0.0757736
0.00807686
0.07316
0.00917427
0.0698891
0.0101119
0.0660449
0.0108563
0.0617394
0.0114166
0.0570748
0.0117997
0.0521457
0.0120065
0.0470408
0.01204
0.0418407
0.011908
0.0366149
0.0116213
0.0314232
0.0111926
0.0263189
0.0106353
0.0213498
0.00996296
0.01656
0.00919099
0.0119941
0.0083391
0.00769882
0.00743099
0.00371847
0.00649319
9.29285e-05
0.00555451
-0.00314545
0.0046373
-0.00597386
0.00378172
-0.00839205
0.00303966
-0.010422
0.00244886
-0.0121068
0.0020273
-0.013494
0.00176783
-0.0146308
0.00164638
-0.0155613
0.00164164
-0.0163285
0.00173105
-0.0169682
0.00188892
-0.0175094
0.00208846
-0.0179733
0.00230615
-0.0183765
0.00252137
-0.0187306
0.00271713
-0.0190456
0.0028794
-0.0193296
0.00299706
-0.0195907
0.00306082
-0.0198358
0.0030632
-0.0200716
0.00299859
-0.0203027
0.00286473
-0.0205327
0.00266022
-0.0207584
0.00238469
-0.0209689
0.00205068
-0.021165
0.00168809
-0.0213401
0.00131034
0.00107661
0.236987
0.0124332
0.228373
0.0143436
0.219023
0.016267
0.209044
0.018057
0.198495
0.0197241
0.187406
0.0212011
0.175839
0.0224233
0.163886
0.0233698
0.151653
0.024033
0.139257
0.0244026
0.126826
0.0244711
0.114493
0.0242404
0.102394