/*--------------------------------*- C++ -*----------------------------------*\
| =========                 |                                                 |
| \\      /  F ield         | OpenFOAM: The Open Source CFD Toolbox           |
|  \\    /   O peration     | Version:  2406                                  |
|   \\  /    A nd           | Website:  www.openfoam.com                      |
|    \\/     M anipulation  |                                                 |
\*---------------------------------------------------------------------------*/
FoamFile
{
    version     2.0;
    format      ascii;
    arch        "LSB;label=32;scalar=64";
    class       surfaceScalarField;
    location    "50";
    object      phi;
}
// * * * * * * * * * * * * * * * * * * * * * * * * * * * * * * * * * * * * * //

dimensions      [0 3 -1 0 0 0 0];

oriented        oriented;

internalField   nonuniform List<scalar> 
3680
(
0.0194038
-0.000403772
0.0199292
-0.000525445
0.0204142
-0.000484987
0.0208911
-0.000476924
0.0214086
-0.00051757
0.0220082
-0.000599635
0.022749
-0.00074077
0.0237349
-0.000985927
0.0251879
-0.00145309
-0.00300078
0.0281886
0.0508802
-0.000283985
0.0509892
-0.000634461
0.0513052
-0.000800992
0.0517679
-0.000939657
0.0523661
-0.00111587
0.0531149
-0.00134843
0.0540438
-0.00166967
0.0552006
-0.00214286
0.0566124
-0.0028649
-0.00407948
0.057691
0.0749485
-0.000232513
0.0749361
-0.000622106
0.0750493
-0.000914146
0.0752922
-0.00118263
0.0756612
-0.00148486
0.0761589
-0.00184618
0.0767841
-0.00229486
0.0775159
-0.00287472
0.0782831
-0.00363212
-0.00462351
0.0788271
0.0909746
-0.000207127
0.0909339
-0.000581372
0.0909403
-0.000920655
0.0910148
-0.00125714
0.0911562
-0.00162626
0.0913597
-0.0020497
0.0916127
-0.00254784
0.091883
-0.00314504
0.0921107
-0.00385982
-0.00469631
0.0921835
0.0989683
-0.000175393
0.0988904
-0.000503536
0.0988063
-0.000836512
0.0987362
-0.0011871
0.0986778
-0.00156787
0.0986207
-0.00199257
0.0985483
-0.00247543
0.0984314
-0.0030282
0.0982262
-0.0036546
-0.00434381
0.0978737
0.0989488
-0.000124196
0.0988162
-0.000370987
0.0986402
-0.000660517
0.0984377
-0.00098457
0.0982026
-0.00133272
0.0979217
-0.00171167
0.0975779
-0.00213167
0.0971464
-0.00259669
0.0965949
-0.00310303
-0.00363747
0.0958886
0.0909172
-4.137e-05
0.0907163
-0.000170139
0.0904536
-0.000397828
0.0901394
-0.000670299
0.0897614
-0.000954746
0.0893056
-0.00125583
0.0887552
-0.00158123
0.0880883
-0.00192982
0.0872805
-0.00229519
-0.00266648
0.0863095
0.0748576
0.000101061
0.0745943
9.31104e-05
0.0742851
-8.85504e-05
0.0739186
-0.00030385
0.0734738
-0.000509829
0.0729341
-0.000716162
0.0722817
-0.000928773
0.0714964
-0.00114455
0.0705601
-0.00135884
-0.00156616
0.0694599
0.0507743
0.000326789
0.0505808
0.000286568
0.0503896
0.000102652
0.0501295
-4.36424e-05
0.0497713
-0.000151635
0.0493012
-0.000246037
0.0487065
-0.000334043
0.0479769
-0.000414935
0.0471066
-0.00048851
-0.000554622
0.0460951
0.0193268
0.0196134
0.019716
0.0196724
0.0195208
0.0192747
0.0189407
0.0185258
0.0180373
0.0174826
-7.1814e-05
7.18019e-05
-0.000311546
0.000239705
-0.000651398
0.000339828
-0.00102639
0.000374977
-0.00140256
0.000376145
-0.00176551
0.000362942
-0.00211008
0.000344555
-0.00243449
0.000324403
-0.00273778
0.00030328
-0.00301881
0.000281016
-0.00327606
0.000257238
-0.00350766
0.00023159
-0.00371147
0.000203792
-0.00388512
0.000173638
-0.00402615
0.000141018
-0.00413208
0.000105917
-0.00420052
6.84255e-05
-0.00422928
2.87566e-05
-0.00421653
-1.27525e-05
-0.00416091
-5.56092e-05
-0.00406168
-9.92202e-05
-0.00391871
-0.00014294
-0.00373262
-0.000186063
-0.00350475
-0.000227825
-0.00323724
-0.000267456
-0.00293297
-0.000304206
-0.0025955
-0.000337397
-0.00222898
-0.000366426
-0.00183808
-0.000390808
-0.00142779
-0.000410184
-0.00100335
-0.000424321
-0.000570021
-0.000433212
-0.000133005
-0.000436892
0.000302642
-0.000435518
-0.000429492
0.000732266
-0.000282147
0.000353924
-0.000900692
0.000858179
-0.00169362
0.00113269
-0.00254267
0.00122399
-0.00338061
0.00121404
-0.0041752
0.0011575
-0.00491283
0.00108216
-0.00558802
0.000999569
-0.00619817
0.000913403
-0.00674128
0.000824096
-0.00721514
0.000731061
-0.00761711
0.000633528
-0.0079442
0.00053085
-0.00819319
0.000422589
-0.00836079
0.000308593
-0.00844393
0.00018903
-0.00843993
6.44157e-05
-0.00834676
-6.44178e-05
-0.00816325
-0.000196239
-0.00788928
-0.000329556
-0.00752577
-0.000462675
-0.00707491
-0.000593729
-0.00654015
-0.000720727
-0.00592622
-0.000841634
-0.00523907
-0.00095446
-0.00448574
-0.00105736
-0.00367425
-0.00114869
-0.00281341
-0.00122705
-0.00191256
-0.00129142
-0.000981393
-0.00134109
-2.97863e-05
-0.00137565
0.000932299
-0.00139501
0.00189533
-0.00139962
0.00285049
-0.00139038
-0.00136822
0.00378953
-0.000466014
0.000819904
-0.00137781
0.00176991
-0.00247125
0.00222607
-0.00359469
0.00234739
-0.00466865
0.00228795
-0.00565572
0.00214454
-0.00654041
0.00196681
-0.00731731
0.00177644
-0.00798496
0.00158102
-0.00854302
0.00138213
-0.00899115
0.00117915
-0.00932862
0.000970972
-0.00955437
0.000756581
-0.00966717
0.000535365
-0.00966582
0.000307228
-0.00954953
7.27345e-05
-0.0093181
-0.000167015
-0.00897232
-0.000410183
-0.008514
-0.000654529
-0.00794605
-0.000897467
-0.00727256
-0.00113612
-0.00649885
-0.00136737
-0.00563147
-0.00158801
-0.00467815
-0.00179485
-0.00364767
-0.00198481
-0.00254971
-0.00215518
-0.00139467
-0.00230356
-0.000193444
-0.00242809
0.00104259
-0.00252726
0.00230198
-0.00260027
0.00357364
-0.0026471
0.00484692
-0.00266807
0.00611163
-0.0026641
0.00735808
-0.0026366
-0.00258737
0.00857747
-0.000594938
0.00141482
-0.00168046
0.00285536
-0.00290342
0.00344897
-0.00409204
0.00353596
-0.00516998
0.00336585
-0.00610705
0.00308157
-0.00689444
0.00275417
-0.00753243
0.0024144
-0.00802449
0.00207304
-0.00837466
0.00173227
-0.00858663
0.00139109
-0.00866344
0.00104776
-0.00860762
0.000700747
-0.00842145
0.000349182
-0.00810725
-6.9765e-06
-0.0076678
-0.000366715
-0.00710669
-0.000728114
-0.00642819
-0.00108867
-0.00563743
-0.00144526
-0.00474057
-0.00179429
-0.00374474
-0.0021319
-0.00265802
-0.00245404
-0.0014894
-0.00275656
-0.000248737
-0.00303543
0.00105344
-0.0032869
0.00240604
-0.00350768
0.00379776
-0.00369517
0.00521717
-0.00384739
0.00665302
-0.00396299
0.00809436
-0.00404148
0.00953054
-0.00408313
0.0109516
-0.00408894
0.0123482
-0.00406054
0.0137119
-0.00400016
-0.00391053
0.0150352
-0.000671048
0.00208583
-0.00178874
0.00397299
-0.00293787
0.00459805
-0.00395568
0.00455372
-0.00479034
0.00420046
-0.00543225
0.00372344
-0.0058872
0.00320909
-0.00616571
0.00269287
-0.00627867
0.00218596
-0.00623578
0.00168936
-0.00604535
0.00120063
-0.00571448
0.00071686
-0.0052494
0.000235643
-0.00465592
-0.000244306
-0.00394004
-0.000722866
-0.00310799
-0.00119877
-0.00216642
-0.00166968
-0.0011226
-0.00213248
1.55265e-05
-0.00258337
0.00123938
-0.00301812
0.00253958
-0.00343208
0.00390609
-0.00382052
0.00532837
-0.0041788
0.00679551
-0.00450254
0.00829641
-0.00478776
0.00981995
-0.00503117
0.011355
-0.00523021
0.0128909
-0.00538318
0.0144172
-0.00548924
0.0159243
-0.00554846
0.0174031
-0.00556184
0.0188454
-0.00553118
0.020244
-0.00545903
0.0215926
-0.0053486
-0.00520359
0.0228858
-0.00069948
0.00278529
-0.00168099
0.00495443
-0.00250595
0.00542296
-0.00307767
0.00512538
-0.00340201
0.00452475
-0.0035036
0.00382499
-0.00340747
0.00311291
-0.0031353
0.00242066
-0.00270461
0.00175524
-0.00212932
0.00111403
-0.00142071
0.000491989
-0.00058841
-0.00011547
0.000359072
-0.000711868
0.00141357
-0.00129883
0.00256682
-0.00187614
0.00381032
-0.00244228
0.00513523
-0.0029946
0.00653232
-0.00352958
0.00799191
-0.00404297
0.00950385
-0.00453008
0.0110577
-0.00498593
0.0126427
-0.00540556
0.0142481
-0.00578418
0.015863
-0.00611742
0.0174768
-0.00640152
0.0190791
-0.00663352
0.0206603
-0.00681135
0.022211
-0.00693392
0.023723
-0.00700116
0.0251886
-0.00701402
0.0266012
-0.00697442
0.0279552
-0.00688516
0.0292461
-0.00674981
0.0304701
-0.0065726
-0.00635822
0.0316249
-0.000662788
0.00344805
-0.00126222
0.00555381
-0.00141988
0.00558056
-0.00120941
0.00491486
-0.000734322
0.0040496
-5.81558e-05
0.00314877
0.000779515
0.00227519
0.00175183
0.0014483
0.00284045
0.000666573
0.00403218
-7.77405e-05
0.00531707
-0.000792936
0.00668657
-0.00148501
0.00813189
-0.00215722
0.00964409
-0.00281106
0.0112142
-0.00344625
0.0128329
-0.00406108
0.0144909
-0.00465262
0.0161784
-0.00521704
0.0178852
-0.00574987
0.0196014
-0.00624625
0.0213166
-0.00670118
0.0230208
-0.00710975
0.024704
-0.00746744
0.0263569
-0.00777027
0.0279704
-0.00801503
0.0295363
-0.00819943
0.0310471
-0.00832222
0.0324964
-0.0083832
0.0338785
-0.00838331
0.035189
-0.00832452
0.0364244
-0.00820981
0.0375823
-0.00804303
0.0386613
-0.00782879
0.039661
-0.00757227
-0.00727907
0.0405819
-0.000463185
0.00391121
-0.000162897
0.00525346
0.000877712
0.00453989
0.00227389
0.00351862
0.00382933
0.0024941
0.00547308
0.00150496
0.00717505
0.000573176
0.00892001
-0.00029671
0.0107009
-0.00111437
0.012514
-0.00189093
0.0143549
-0.0026338
0.0162177
-0.00334792
0.0180966
-0.00403609
0.0199847
-0.00469925
0.021875
-0.00533657
0.0237597
-0.00594578
0.0256306
-0.00652354
0.0274792
-0.00706573
0.0292971
-0.00756774
0.0310755
-0.00802473
0.0328062
-0.00843192
0.0344812
-0.00878477
0.036093
-0.00907928
0.0376349
-0.00931217
0.0391009
-0.00948104
0.0404859
-0.00958454
0.0417861
-0.00962242
0.0429985
-0.00959556
0.0441211
-0.00950598
0.0451533
-0.00935673
0.0460953
-0.00915182
0.0469483
-0.00889609
0.0477145
-0.00859503
0.0483968
-0.00825459
-0.00788105
0.0489988
0.000512664
0.00339851
0.00293559
0.00283045
0.005858
0.00161741
0.00874767
0.000628885
0.0115032
-0.000261449
0.0141288
-0.00112073
0.0166463
-0.00194443
0.0190755
-0.00272595
0.0214308
-0.00346974
0.0237223
-0.00418238
0.0259561
-0.00486765
0.0281352
-0.0055271
0.0302599
-0.00616088
0.0323285
-0.00676789
0.0343377
-0.0073458
0.0362832
-0.00789125
0.0381597
-0.00840016
0.039962
-0.00886802
0.0416843
-0.00929007
0.0433212
-0.00966163
0.0448674
-0.00997822
0.0463185
-0.0102359
0.0476706
-0.0104314
0.0489206
-0.0105623
0.0500667
-0.0106271
0.0511077
-0.0106256
0.0520439
-0.0105586
0.0528765
-0.0104281
0.0536076
-0.0102372
0.0542406
-0.00998976
0.0547795
-0.00969079
0.0552293
-0.00934586
0.0555953
-0.00896107
0.0558835
-0.00854286
-0.00809782
0.0561002
0.00658161
-0.00318317
0.0121169
-0.00270492
0.0166488
-0.0029145
0.0205842
-0.00330663
0.0240819
-0.00375923
0.0272423
-0.00428118
0.0301445
-0.00484665
0.0328448
-0.0054263
0.0353803
-0.00600522
0.0377746
-0.00657676
0.0400432
-0.00713625
0.0421954
-0.00767939
0.0442366
-0.0082021
0.046169
-0.00870031
0.0479928
-0.00916964
0.0497069
-0.00960542
0.0513095
-0.0100028
0.0527982
-0.0103568
0.0541708
-0.0106627
0.0554252
-0.0109161
0.0565599
-0.011113
0.0575741
-0.0112501
0.058468
-0.0113252
0.0592424
-0.0113367
0.0598996
-0.0112844
0.0604429
-0.0111689
0.0608763
-0.0109921
0.0612051
-0.010757
0.0614355
-0.0104676
0.0615743
-0.0101286
0.0616289
-0.00974546
0.0616072
-0.00932426
0.0615174
-0.00887133
0.0613677
-0.00839319
-0.00789636
0.0611662
0.0302359
-0.00523052
0.033394
-0.00586304
0.0365231
-0.00604368
0.0395018
-0.00628532
0.0423189
-0.00657635
0.0449481
-0.00691042
0.0473899
-0.00728851
0.0496602
-0.00769666
0.0517739
-0.00811896
0.0537415
-0.00854439
0.0555703
-0.0089651
0.0572653
-0.00937435
0.0588291
-0.00976601
0.0602632
-0.0101344
0.0615676
-0.0104741
0.062742
-0.0107798
0.0637858
-0.0110466
0.0646988
-0.0112697
0.0654809
-0.0114448
0.0661328
-0.011568
0.066656
-0.0116362
0.0670532
-0.0116473
0.0673277
-0.0115997
0.0674842
-0.0114933
0.0675286
-0.0113287
0.0674675
-0.0111078
0.0673088
-0.0108333
0.0670608
-0.0105091
0.0667327
-0.0101396
0.0663341
-0.00973004
0.0658749
-0.00928622
0.0653647
-0.00881415
0.0648133
-0.00832003
0.0642301
-0.00781003
-0.00729018
0.0636238
0.0580707
-0.00561027
0.0588475
-0.00663985
0.0600005
-0.00719665
0.061335
-0.00761988
0.0627593
-0.00800065
0.0641993
-0.00835044
0.0655984
-0.00868766
0.0669243
-0.00902261
0.0681594
-0.00935404
0.0692923
-0.00967733
0.0703153
-0.00998807
0.0712228
-0.0102819
0.0720108
-0.0105541
0.0726764
-0.0107999
0.0732171
-0.0110148
0.0736316
-0.0111944
0.0739194
-0.0113344
0.0740809
-0.0114313
0.0741177
-0.0114816
0.0740325
-0.0114828
0.0738293
-0.011433
0.0735132
-0.0113311
0.0730906
-0.0111771
0.0725691
-0.0109718
0.0719573
-0.010717
0.0712647
-0.0104153
0.0705017
-0.0100703
0.0696788
-0.00968621
0.0688071
-0.00926792
0.0678977
-0.00882065
0.0669614
-0.00834995
0.0660087
-0.00786147
0.0650494
-0.0073608
0.0640927
-0.00685339
-0.00634438
0.0631468
0.0789857
-0.00576894
0.0790811
-0.00673522
0.0792909
-0.00740642
0.0795881
-0.00791707
0.079939
-0.00835157
0.0803159
-0.00872731
0.0806854
-0.00905721
0.081018
-0.00935522
0.081292
-0.00962801
0.0814914
-0.00987671
0.081604
-0.0101007
0.0816208
-0.0102986
0.081535
-0.0104682
0.0813421
-0.0106071
0.0810396
-0.0107122
0.0806263
-0.010781
0.0801026
-0.0108107
0.0794707
-0.0107993
0.0787341
-0.0107449
0.0778978
-0.0106464
0.0769682
-0.0105034
0.0759531
-0.010316
0.0748614
-0.0100854
0.0737029
-0.00981335
0.0724886
-0.00950256
0.0712296
-0.00915626
0.0699377
-0.00877831
0.0686245
-0.00837303
0.0673017
-0.00794506
0.0659802
-0.00749925
0.0646708
-0.0070405
0.0633829
-0.00657363
0.0621254
-0.00610331
0.0609058
-0.00563388
-0.00516936
0.0597307
0.0920137
-0.00559917
0.0916964
-0.00641785
0.0913516
-0.00706165
0.0910007
-0.00756616
0.0906325
-0.00798335
0.0902381
-0.00833283
0.0898053
-0.00862438
0.0893194
-0.0088693
0.0887676
-0.00907614
0.0881399
-0.00924904
0.087429
-0.00938973
0.0866294
-0.00949887
0.0857375
-0.00957637
0.084752
-0.00962151
0.0836731
-0.00963328
0.0825028
-0.00961059
0.0812446
-0.0095525
0.0799037
-0.00945834
0.0784866
-0.0093278
0.0770013
-0.00916106
0.0754569
-0.00895884
0.0738634
-0.00872244
0.0722319
-0.00845373
0.0705737
-0.00815515
0.0689008
-0.00782962
0.0672251
-0.00748048
0.0655582
-0.00711139
0.0639115
-0.00672624
0.0622955
-0.00632901
0.0607199
-0.00592367
0.0591935
-0.00551412
0.0577239
-0.00510406
0.0563176
-0.00469692
0.0549795
-0.00429585
-0.00390362
0.0537137
0.0973307
-0.0050561
0.0966283
-0.00571548
0.0958299
-0.0062632
0.094963
-0.00669924
0.0940293
-0.00704958
0.0930277
-0.00733118
0.0919565
-0.00755313
0.0908117
-0.00772442
0.089589
-0.00785337
0.0882856
-0.00794556
0.0869002
-0.00800434
0.0854332
-0.00803184
0.0838864
-0.00802948
0.082263
-0.00799806
0.0805679
-0.00793804
0.0788071
-0.00784969
0.0769879
-0.00773331
0.075119
-0.00758935
0.0732098
-0.00741852
0.0712707
-0.00722181
0.0693125
-0.00700059
0.0673468
-0.00675659
0.065385
-0.00649188
0.0634388
-0.00620886
0.0615195
-0.0059102
0.0596378
-0.00559874
0.0578039
-0.00527745
0.0560271
-0.00494931
0.0543154
-0.00461729
0.052676
-0.00428424
0.0511148
-0.00395285
0.0496363
-0.00362557
0.048244
-0.00330464
0.0469402
-0.00299199
-0.0026893
0.0457259
0.0950049
-0.00417244
0.093955
-0.00466549
0.0927719
-0.00508008
0.0914804
-0.00540765
0.0900907
-0.00565982
0.0886089
-0.00584931
0.0870406
-0.00598479
0.0853903
-0.00607408
0.0836618
-0.00612476
0.0818592
-0.00614287
0.0799876
-0.00613267
0.078053
-0.00609719
0.0760623
-0.00603869
0.0740232
-0.00595888
0.0719443
-0.00585901
0.0698347
-0.00574006
0.0677045
-0.00560294
0.0655637
-0.00544854
0.0634232
-0.00527789
0.0612936
-0.00509214
0.0591858
-0.00489263
0.0571102
-0.00468089
0.0550771
-0.00445864
0.053096
-0.00422769
0.0511759
-0.00399001
0.0493248
-0.00374757
0.0475498
-0.00350236
0.0458569
-0.00325631
0.0442509
-0.00301127
0.0427357
-0.00276894
0.0413138
-0.00253089
0.0399868
-0.0022985
0.0387551
-0.00207296
0.0376184
-0.00185529
-0.0016463
0.0365754
0.0851631
-0.00302598
0.0838472
-0.00334948
0.0823828
-0.00361564
0.0807924
-0.00381722
0.0790928
-0.00396013
0.0772975
-0.0040539
0.0754193
-0.00410653
0.0734702
-0.00412493
0.0714611
-0.0041156
0.0694023
-0.00408396
0.0673037
-0.00403404
0.0651754
-0.00396873
0.063027
-0.00389021
0.0608683
-0.00380009
0.058709
-0.00369957
0.0565586
-0.00358956
0.0544266
-0.00347082
0.0523222
-0.00334407
0.0502544
-0.00321005
0.048232
-0.00306957
0.046263
-0.0029235
0.044355
-0.00277282
0.042515
-0.00261855
0.0407492
-0.00246178
0.0390629
-0.0023036
0.0374605
-0.00214511
0.0359456
-0.00198736
0.0345207
-0.00183133
0.0331874
-0.00167795
0.0319466
-0.00152804
0.030798
-0.00138232
0.029741
-0.00124141
0.0287739
-0.0011058
0.0278945
-0.000975902
-0.000852018
0.0271002
0.0681917
-0.00175774
0.0667641
-0.00192184
0.065197
-0.00204838
0.0635142
-0.0021344
0.0617385
-0.00218431
0.0598899
-0.00220519
0.0579867
-0.00220325
0.0560454
-0.00218353
0.0540802
-0.00215034
0.0521035
-0.00210717
0.0501261
-0.00205653
0.0481576
-0.00200014
0.0462067
-0.00193918
0.0442812
-0.00187447
0.0423883
-0.00180658
0.0405348
-0.00173592
0.0387268
-0.00166277
0.0369703
-0.00158744
0.0352706
-0.00151022
0.0336326
-0.00143146
0.0320607
-0.00135152
0.0305588
-0.00127081
0.0291302
-0.00118978
0.0277773
-0.00110887
0.0265023
-0.00102852
0.0253065
-0.000949164
0.0241904
-0.000871207
0.0231541
-0.000795011
0.0221972
-0.000720908
0.0213183
-0.000649173
0.0205161
-0.000580047
0.0197885
-0.00051371
0.019133
-0.000450314
0.0185471
-0.000389952
-0.000332696
0.0180278
0.0449489
-0.000611399
0.0436827
-0.000655549
0.0423188
-0.000684454
0.0408827
-0.000698246
0.0393983
-0.000699733
0.0378856
-0.000692426
0.0363615
-0.000679057
0.0348396
-0.000661508
0.0333305
-0.000641196
0.0318426
-0.000619176
0.0303823
-0.000596134
0.0289547
-0.000572474
0.0275641
-0.000548437
0.0262139
-0.000524174
0.0249072
-0.000499763
0.0236466
-0.000475241
0.0224346
-0.000450627
0.0212732
-0.00042595
0.0201643
-0.000401252
0.0191095
-0.000376597
0.0181102
-0.000352062
0.0171672
-0.00032774
0.0162812
-0.000303723
0.0154525
-0.000280113
0.0146811
-0.000256997
0.0139665
-0.000234469
0.0133079
-0.000212601
0.0127044
-0.000191464
0.0121547
-0.00017111
0.0116571
-0.000151588
0.0112101
-0.000132926
0.0108115
-0.000115152
0.0104595
-9.82724e-05
0.0101519
-8.22971e-05
-6.72157e-05
0.00988641
0.0168713
0.0162157
0.0155313
0.0148331
0.0141333
0.0134409
0.0127619
0.0121004
0.0114592
0.0108401
0.0102439
0.00967149
0.00912307
0.00859891
0.00809917
0.00762394
0.00717333
0.0067474
0.00634616
0.00596958
0.00561753
0.0052898
0.00498609
0.00470599
0.004449
0.00421454
0.00400195
0.00381049
0.00363939
0.00348781
0.00335489
0.00323974
0.00314147
0.00305918
0.00299196
0.00115163
-0.00041923
0.00155701
-0.000405239
0.00194522
-0.000388076
0.00231368
-0.000368321
0.00266038
-0.000346563
0.00298389
-0.000323372
0.00328331
-0.000299291
0.00355824
-0.000274812
0.00380875
-0.000250382
-0.000226381
0.00403524
0.00470495
-0.00133433
0.0055901
-0.00129008
0.00643932
-0.00123697
0.00724788
-0.00117657
0.00801208
-0.00111045
0.00872914
-0.00104013
0.00939723
-0.000967092
0.0100154
-0.000892688
0.0105834
-0.000818148
-0.000744555
0.0111018
0.00976193
-0.00251853
0.0109045
-0.00243244
0.0119994
-0.00233162
0.0130418
-0.00221866
0.0140278
-0.00209619
0.0149546
-0.00196674
0.0158205
-0.00183273
0.0166245
-0.00169642
0.0173664
-0.00155985
-0.00142485
0.0180469
0.0163116
-0.00379472
0.0175355
-0.00365611
0.0187023
-0.00349822
0.0198085
-0.00332464
0.0208514
-0.00313891
0.0218293
-0.00294449
0.0227414
-0.00274462
0.0235875
-0.00254231
0.0243681
-0.00234031
-0.00214101
0.0250844
0.0241192
-0.00502808
0.0252897
-0.00482641
0.0263947
-0.00460306
0.0274327
-0.0043625
0.028403
-0.00410908
0.0293056
-0.00384698
0.0301412
-0.0035801
0.0309111
-0.00331202
0.0316168
-0.00304595
-0.00278471
0.0322607
0.0327086
-0.00611173
0.0337206
-0.00583836
0.034661
-0.00554339
0.0355306
-0.00523201
0.0363309
-0.00490922
0.0370637
-0.00457972
0.0377315
-0.00424784
0.0383371
-0.00391752
0.0388835
-0.0035922
-0.00327489
0.0393737
0.0414252
-0.00695505
0.042193
-0.00660614
0.0428879
-0.00623824
0.0435129
-0.00585701
0.0440716
-0.00546784
0.0445676
-0.00507571
0.0450049
-0.00468513
0.0453876
-0.00430012
0.0457195
-0.00392415
-0.00356018
0.0460049
0.0495246
-0.0074808
0.0499786
-0.0070602
0.0503658
-0.00662542
0.0506911
-0.00618232
0.0509595
-0.00573634
0.0511762
-0.00529243
0.0513461
-0.00485501
0.0514739
-0.00442791
0.0515641
-0.0040144
-0.00361717
0.0516211
0.0562519
-0.00763252
0.056345
-0.00715337
0.056386
-0.00666646
0.0563811
-0.00617745
0.0563362
-0.00569152
0.056257
-0.00521328
0.0561486
-0.00474674
0.056016
-0.00429533
0.0558634
-0.00386185
-0.00344857
0.0556947
0.0609208
-0.00738719
0.060639
-0.00687171
0.060328
-0.00635555
0.0599944
-0.00584386
0.0596439
-0.0053412
0.0592821
-0.00485155
0.0589136
-0.0043783
0.0585424
-0.00392425
0.0581721
-0.00349161
-0.00308207
0.0578055
0.0630028
-0.0067662
0.0623744
-0.00624339
0.0617453
-0.0057266
0.0611215
-0.00522012
0.0605079
-0.0047277
0.0599087
-0.00425249
0.0593274
-0.00379709
0.0587666
-0.00336354
0.0582283
-0.0029534
-0.00256775
0.0577139
0.0622191
-0.00583854
0.0613158
-0.00534017
0.0604421
-0.00485309
0.0596025
-0.00438057
0.0588001
-0.00392541
0.0580373
-0.00348983
0.0573158
-0.00307561
0.0566362
-0.00268407
0.0559988
-0.00231609
-0.00197221
0.0554032
0.0586055
-0.00471335
0.0575343
-0.00426901
0.0565201
-0.00383905
0.0555652
-0.0034257
0.0546705
-0.00303078
0.0538362
-0.00265569
0.053062
-0.00230143
0.0523465
-0.00196868
0.0516881
-0.00165781
-0.00136892
0.0510848
0.052523
-0.00352264
0.0514089
-0.00315496
0.050372
-0.00280225
0.0494121
-0.00246583
0.048528
-0.0021467
0.0477178
-0.00184555
0.0469791
-0.00156283
0.0463091
-0.00129875
0.0457045
-0.00105331
-0.000826347
0.0451619
0.0446011
-0.00239795
0.0435652
-0.00211905
0.0426164
-0.00185347
0.0417523
-0.00160182
0.0409701
-0.00136453
0.0402664
-0.00114184
0.0396373
-0.000933828
0.039079
-0.000740435
0.0385871
-0.000561498
-0.00039675
0.0381574
0.0356241
-0.00144663
0.0347618
-0.00125677
0.0339854
-0.00107705
0.0332912
-0.000907676
0.0326754
-0.000748736
0.0321338
-0.000600232
0.031662
-0.000462079
0.0312557
-0.000334137
0.0309103
-0.000216202
-0.000108033
0.0306216
0.026388
-0.000734365
0.0257543
-0.000623076
0.0251955
-0.000518223
0.0247076
-0.000419813
0.0242866
-0.000327815
0.0239285
-0.000242151
0.0236292
-0.00016272
0.0233844
-8.93924e-05
0.0231902
-2.20152e-05
3.95687e-05
0.0230426
0.017572
-0.00027857
0.0171765
-0.000227586
0.016838
-0.00017972
0.0165531
-0.000134944
0.0163185
-9.32038e-05
0.0161308
-5.44481e-05
0.0159866
-1.86045e-05
0.0158828
1.43892e-05
0.0158162
4.46003e-05
7.21007e-05
0.0157836
0.00966087
-5.30252e-05
0.00947299
-3.97048e-05
0.00932052
-2.72447e-05
0.00920119
-1.56198e-05
0.0091128
-4.81891e-06
0.00905316
5.18503e-06
0.00902013
1.44074e-05
0.00901163
2.2877e-05
0.00902561
3.06041e-05
3.76112e-05
0.00906008
0.00293894
0.00289924
0.00287199
0.00285637
0.00285155
0.00285673
0.00287114
0.00289401
0.00292462
0.00296223
0.00423848
-0.000203133
0.00441947
-0.000180894
0.00457943
-0.000159867
0.00471971
-0.000140194
0.00484175
-0.00012197
0.00494706
-0.000105245
0.00503715
-9.0032e-05
0.00511352
-7.6311e-05
0.0051776
-6.40395e-05
0.00523079
-5.31524e-05
0.00527439
-4.35734e-05
0.00530963
-3.52135e-05
0.00533763
-2.79801e-05
0.00535943
-2.17758e-05
0.00537594
-1.65046e-05
0.00538803
-1.20707e-05
0.00539642
-8.38329e-06
0.00540178
-5.35429e-06
0.00540468
-2.90221e-06
0.00540564
-9.49834e-07
0.00540507
5.72004e-07
0.00540335
1.72603e-06
0.00540078
2.56913e-06
0.00539763
3.15443e-06
0.00539411
3.52914e-06
0.00539037
3.73567e-06
0.00538657
3.81117e-06
0.00538278
3.78855e-06
0.00537909
3.6963e-06
0.00537553
3.5593e-06
0.00537214
3.39883e-06
0.00536891
3.23329e-06
0.00536584
3.07827e-06
0.00536289
2.94725e-06
2.85171e-06
0.00536004
0.0115718
-0.000672837
0.0119949
-0.000603768
0.0123732
-0.000537963
0.0127091
-0.000475894
0.0130052
-0.000417894
0.0132642
-0.000364173
0.0134892
-0.000314834
0.0136829
-0.000269887
0.0138482
-0.000229261
0.0139879
-0.000192824
0.0141048
-0.000160394
0.0142014
-0.000131753
0.0142801
-0.000106654
0.0143432
-8.48352e-05
0.0143928
-6.60268e-05
0.0144307
-4.99567e-05
0.0144587
-3.63566e-05
0.0144783
-2.49663e-05
0.014491
-1.55368e-05
0.0144979
-7.83308e-06
0.0145001
-1.63495e-06
0.0144985
3.26085e-06
0.0144941
7.04026e-06
0.0144874
9.87436e-06
0.014479
1.19191e-05
0.0144694
1.33158e-05
0.0144591
1.41908e-05
0.0144482
1.46568e-05
0.0144371
1.48133e-05
0.0144259
1.47477e-05
0.0144148
1.45363e-05
0.0144038
1.42453e-05
0.0143929
1.39321e-05
0.0143823
1.3646e-05
1.34297e-05
0.0143717
0.0186672
-0.00129298
0.0192292
-0.00116557
0.0197351
-0.00104372
0.0201877
-0.00092825
0.0205897
-0.000819795
0.0209444
-0.000718772
0.0212551
-0.000625421
0.0215251
-0.000539818
0.0217579
-0.000461906
0.0219566
-0.000391513
0.0221247
-0.000328376
0.0222651
-0.000272158
0.022381
-0.000222468
0.022475
-0.000178879
0.02255
-0.00014094
0.0226082
-0.000108187
0.0226521
-8.01569e-05
0.0226835
-5.63917e-05
0.0227044
-3.64478e-05
0.0227165
-1.99006e-05
0.0227212
-6.34787e-06
0.0227199
4.58667e-06
0.0227137
1.32527e-05
0.0227036
1.99748e-05
0.0226905
2.50519e-05
0.0226751
2.87566e-05
0.0226579
3.13356e-05
0.0226396
3.30104e-05
0.0226204
3.39789e-05
0.0226008
3.44161e-05
0.0225809
3.44768e-05
0.0225609
3.42962e-05
0.0225408
3.39923e-05
0.0225208
3.36675e-05
3.34108e-05
0.0225009
0.0257382
-0.00194654
0.0263314
-0.00175864
0.0268666
-0.00157877
0.0273465
-0.00140807
0.0277742
-0.00124738
0.0281528
-0.00109728
0.0284856
-0.000958109
0.0287758
-0.000830004
0.0290269
-0.000712908
0.0292421
-0.000606612
0.0294245
-0.000510782
0.0295774
-0.000424982
0.0297036
-0.000348695
0.0298061
-0.000281349
0.0298875
-0.000222334
0.0299504
-0.000171015
0.029997
-0.000126751
0.0300295
-8.89029e-05
0.0300499
-5.68458e-05
0.03006
-2.9975e-05
0.0300614
-7.71387e-06
0.0300555
1.04833e-05
0.0300436
2.51311e-05
0.0300269
3.67112e-05
0.0300063
4.56692e-05
0.0299826
5.24145e-05
0.0299567
5.732e-05
0.029929
6.07238e-05
0.0299
6.293e-05
0.0298703
6.42104e-05
0.02984
6.48066e-05
0.0298094
6.49317e-05
0.0297786
6.4773e-05
0.0297478
6.44943e-05
6.42379e-05
0.029717
0.032845
-0.00253071
0.0333724
-0.00228599
0.0338459
-0.00205218
0.0342685
-0.00183054
0.0346432
-0.001622
0.0349732
-0.0014272
0.0352616
-0.00124647
0.0355115
-0.00107991
0.0357261
-0.000927419
0.0359082
-0.000788711
0.0360608
-0.000663352
0.0361867
-0.000550795
0.0362884
-0.0004504
0.0363685
-0.000361458
0.0364294
-0.000283216
0.0364733
-0.000214893
0.0365022
-0.000155696
0.0365182
-0.000104834
0.0365229
-6.15299e-05
0.0365179
-2.50296e-05
0.0365048
5.38945e-06
0.0364849
3.04206e-05
0.0364593
5.07231e-05
0.0364291
6.6913e-05
0.0363952
7.95631e-05
0.0363585
8.9202e-05
0.0363195
9.63151e-05
0.0362789
0.000101345
0.0362372
0.000104692
0.0361947
0.000106717
0.0361518
0.000107742
0.0361087
0.000108055
0.0360656
0.000107908
0.0360226
0.000107524
0.000107098
0.0359798
0.0398112
-0.00296811
0.0401992
-0.00267395
0.0405411
-0.00239402
0.0408402
-0.00212956
0.0410997
-0.00188144
0.0413227
-0.00165016
0.0415122
-0.00143597
0.0416712
-0.00123883
0.0418023
-0.0010585
0.0419081
-0.000894555
0.0419912
-0.000746415
0.0420538
-0.000613388
0.0420981
-0.00049469
0.0421261
-0.000389474
0.0421398
-0.000296847
0.0421408
-0.000215892
0.0421307
-0.000145685
0.0421112
-8.53077e-05
0.0420835
-3.38635e-05
0.042049
9.51875e-06
0.0420087
4.5687e-05
0.0419637
7.54535e-05
0.0419148
9.95824e-05
0.041863
0.000118791
0.0418088
0.000133748
0.0417529
0.000145073
0.0416959
0.000153339
0.0416382
0.000159068
0.0415802
0.000162736
0.0415222
0.000164774
0.0414644
0.000165568
0.041407
0.000165464
0.0413502
0.000164769
0.041294
0.000163753
0.000162653
0.0412385
0.0462474
-0.00321064
0.0464509
-0.00287746
0.046619
-0.00256209
0.0467551
-0.00226559
0.0468622
-0.0019886
0.0469435
-0.00173143
0.0470016
-0.0014941
0.0470392
-0.00127637
0.0470585
-0.00107779
0.0470616
-0.000897742
0.0470507
-0.000735466
0.0470274
-0.000590098
0.0469934
-0.000460692
0.0469501
-0.000346254
0.046899
-0.000245752
0.0468413
-0.000158146
0.046778
-8.23975e-05
0.0467102
-1.74894e-05
0.0466387
3.75812e-05
0.0465644
8.37955e-05
0.046488
0.000122088
0.0464101
0.000153345
0.0463313
0.000178402
0.0462521
0.000198047
0.0461728
0.000213014
0.0460939
0.000223985
0.0460157
0.000231587
0.0459383
0.000236399
0.0458622
0.000238945
0.0457872
0.000239703
0.0457137
0.000239101
0.0456417
0.000237525
0.0455712
0.000235317
0.0455022
0.00023278
0.000230178
0.0454347
0.0516488
-0.00323835
0.0516509
-0.00287959
0.0516308
-0.00254204
0.0515916
-0.00222644
0.0515361
-0.00193313
0.0514668
-0.00166216
0.051386
-0.00141326
0.0512955
-0.00118596
0.0511973
-0.000979576
0.0510928
-0.000793277
0.0509834
-0.000626115
0.0508704
-0.000477052
0.0507546
-0.00034499
0.0506372
-0.000228798
0.0505187
-0.000127326
0.0504
-3.9436e-05
0.0502816
3.60056e-05
0.0501639
0.000100121
0.0500475
0.000153992
0.0499326
0.000198652
0.0498196
0.000235087
0.0497087
0.000264232
0.0496002
0.00028697
0.0494941
0.000304129
0.0493906
0.00031648
0.0492899
0.000324738
0.0491919
0.000329562
0.0490967
0.000331557
0.0490044
0.000331275
0.0489149
0.000329215
0.0488282
0.000325827
0.0487442
0.000321517
0.0486629
0.000316644
0.0485842
0.000311526
0.000306442
0.0485079
0.0555135
-0.00305719
0.0553228
-0.00268893
0.0551253
-0.00234455
0.0549232
-0.00202443
0.0547186
-0.00172859
0.0545132
-0.00145676
0.0543083
-0.00120841
0.0541051
-0.000982829
0.0539046
-0.000779125
0.0537076
-0.000596282
0.0535146
-0.000433193
0.0533262
-0.000288684
0.0531427
-0.000161542
0.0529645
-5.05419e-05
0.0527916
4.55435e-05
0.0526242
0.000127941
0.0524623
0.000197848
0.052306
0.000256418
0.0521552
0.00030476
0.0520099
0.00034394
0.05187
0.00037497
0.0517354
0.000398806
0.051606
0.000416347
0.0514817
0.000428432
0.0513623
0.000435845
0.0512477
0.000439308
0.0511378
0.000439485
0.0510324
0.000436988
0.0509313
0.000432371
0.0508344
0.000426137
0.0507414
0.00041874
0.0506524
0.000410586
0.050567
0.000402036
0.0504851
0.00039341
0.000384989
0.0504065
0.0574451
-0.00269682
0.0570926
-0.00233659
0.0567498
-0.00200175
0.0564176
-0.00169229
0.0560968
-0.00140793
0.0557881
-0.00114811
0.0554918
-0.0009121
0.0552079
-0.000698983
0.0549364
-0.000507718
0.0546772
-0.000337168
0.0544301
-0.000186128
0.0541948
-5.33509e-05
0.0539708
6.24244e-05
0.0537577
0.000162465
0.0535552
0.000248025
0.0533628
0.00032033
0.05318
0.000380576
0.0530065
0.000429918