/*--------------------------------*- C++ -*----------------------------------*\
| =========                 |                                                 |
| \\      /  F ield         | OpenFOAM: The Open Source CFD Toolbox           |
|  \\    /   O peration     | Version:  2406                                  |
|   \\  /    A nd           | Website:  www.openfoam.com                      |
|    \\/     M anipulation  |                                                 |
\*---------------------------------------------------------------------------*/
FoamFile
{
    version     2.0;
    format      ascii;
    arch        "LSB;label=32;scalar=64";
    class       volScalarField;
    location    "65";
    object      p;
}
// * * * * * * * * * * * * * * * * * * * * * * * * * * * * * * * * * * * * * //

dimensions      [0 2 -2 0 0 0 0];

internalField   nonuniform List<scalar> 
2000
(
1.0016
0.99289
0.983503
0.974049
0.964344
0.95446
0.944494
0.934487
0.924453
0.914401
1.0044
0.993778
0.983589
0.974027
0.964306
0.954407
0.944442
0.934443
0.924418
0.914372
1.00583
0.99426
0.983595
0.974007
0.964288
0.95437
0.944398
0.934405
0.924386
0.914345
1.00654
0.994607
0.983642
0.974021
0.964301
0.954357
0.944371
0.934377
0.924361
0.914323
1.00703
0.994916
0.983721
0.974049
0.964322
0.954352
0.944348
0.934351
0.924337
0.9143
1.00739
0.995175
0.983807
0.974084
0.964348
0.954355
0.944331
0.934328
0.924313
0.914277
1.00766
0.995378
0.983888
0.974124
0.964378
0.954362
0.94432
0.934309
0.924292
0.914255
1.00784
0.995529
0.983956
0.974161
0.964405
0.954373
0.944314
0.934295
0.924275
0.914237
1.00796
0.995628
0.984004
0.974188
0.964427
0.954382
0.944312
0.934287
0.924264
0.914225
1.00802
0.995678
0.984029
0.974203
0.964439
0.954388
0.944311
0.934283
0.924259
0.914219
1.00802
0.995678
0.984029
0.974203
0.964439
0.954388
0.944311
0.934283
0.924259
0.914218
1.00796
0.995628
0.984004
0.974188
0.964427
0.954382
0.944312
0.934287
0.924264
0.914225
1.00784
0.995529
0.983956
0.97416
0.964405
0.954373
0.944314
0.934295
0.924275
0.914237
1.00766
0.995378
0.983888
0.974124
0.964377
0.954362
0.94432
0.934309
0.924291
0.914255
1.00739
0.995175
0.983807
0.974084
0.964348
0.954354
0.944331
0.934328
0.924313
0.914277
1.00703
0.994916
0.983721
0.974048
0.964322
0.954352
0.944348
0.934351
0.924336
0.9143
1.00654
0.994607
0.983642
0.97402
0.964301
0.954356
0.944371
0.934377
0.924361
0.914323
1.00583
0.99426
0.983595
0.974006
0.964288
0.954369
0.944398
0.934405
0.924386
0.914345
1.0044
0.993777
0.983588
0.974027
0.964305
0.954407
0.944442
0.934443
0.924417
0.914372
1.0016
0.99289
0.983503
0.974049
0.964344
0.954459
0.944494
0.934487
0.924453
0.914401
0.904336
0.894263
0.884183
0.874098
0.86401
0.853919
0.843826
0.83373
0.823633
0.813535
0.803435
0.793335
0.783234
0.773132
0.763029
0.752926
0.742823
0.732719
0.722614
0.71251
0.702405
0.6923
0.682195
0.672089
0.661984
0.651878
0.641772
0.631667
0.621561
0.611454
0.601348
0.591242
0.581136
0.57103
0.560923
0.904313
0.894244
0.884168
0.874086
0.864
0.85391
0.843818
0.833724
0.823628
0.81353
0.803432
0.793332
0.783231
0.773129
0.763027
0.752924
0.742821
0.732718
0.722613
0.712509
0.702404
0.692299
0.682194
0.672089
0.661984
0.651878
0.641772
0.631666
0.62156
0.611454
0.601348
0.591242
0.581136
0.57103
0.560923
0.90429
0.894225
0.884152
0.874073
0.863989
0.853901
0.843811
0.833718
0.823623
0.813526
0.803428
0.793329
0.783228
0.773127
0.763025
0.752923
0.74282
0.732716
0.722612
0.712508
0.702404
0.692299
0.682194
0.672089
0.661983
0.651878
0.641772
0.631666
0.62156
0.611454
0.601348
0.591242
0.581136
0.57103
0.560923
0.904271
0.894209
0.884138
0.874061
0.863979
0.853893
0.843804
0.833712
0.823618
0.813522
0.803424
0.793326
0.783226
0.773125
0.763024
0.752921
0.742819
0.732715
0.722612
0.712507
0.702403
0.692298
0.682193
0.672088
0.661983
0.651877
0.641772
0.631666
0.62156
0.611454
0.601348
0.591242
0.581136
0.57103
0.560923
0.90425
0.89419
0.884123
0.874048
0.863968
0.853884
0.843796
0.833705
0.823612
0.813517
0.803421
0.793322
0.783223
0.773123
0.763022
0.75292
0.742817
0.732714
0.72261
0.712507
0.702402
0.692298
0.682193
0.672088
0.661982
0.651877
0.641771
0.631666
0.62156
0.611454
0.601348
0.591242
0.581136
0.57103
0.560923
0.904228
0.89417
0.884105
0.874034
0.863956
0.853873
0.843787
0.833698
0.823606
0.813512
0.803416
0.793319
0.78322
0.77312
0.763019
0.752918
0.742815
0.732713
0.722609
0.712505
0.702401
0.692297
0.682192
0.672087
0.661982
0.651876
0.641771
0.631665
0.621559
0.611454
0.601348
0.591242
0.581135
0.571029
0.560923
0.904206
0.894151
0.884088
0.874019
0.863943
0.853862
0.843777
0.83369
0.823599
0.813506
0.803411
0.793315
0.783216
0.773117
0.763017
0.752915
0.742814
0.732711
0.722608
0.712504
0.7024
0.692296
0.682191
0.672086
0.661981
0.651876
0.64177
0.631665
0.621559
0.611453
0.601347
0.591241
0.581135
0.571029
0.560923
0.904188
0.894133
0.884073
0.874005
0.863931
0.853852
0.843768
0.833682
0.823593
0.813501
0.803407
0.793311
0.783213
0.773114
0.763014
0.752913
0.742812
0.732709
0.722606
0.712503
0.702399
0.692295
0.68219
0.672085
0.66198
0.651875
0.64177
0.631664
0.621558
0.611453
0.601347
0.591241
0.581135
0.571028
0.560922
0.904175
0.894121
0.884061
0.873995
0.863922
0.853844
0.843762
0.833676
0.823587
0.813496
0.803403
0.793307
0.78321
0.773112
0.763012
0.752912
0.74281
0.732708
0.722605
0.712502
0.702398
0.692294
0.682189
0.672085
0.66198
0.651874
0.641769
0.631664
0.621558
0.611452
0.601346
0.59124
0.581134
0.571028
0.560922
0.904168
0.894114
0.884055
0.873989
0.863917
0.853839
0.843758
0.833673
0.823585
0.813494
0.803401
0.793306
0.783209
0.77311
0.763011
0.752911
0.742809
0.732707
0.722604
0.712501
0.702397
0.692293
0.682189
0.672084
0.661979
0.651874
0.641769
0.631663
0.621557
0.611451
0.601346
0.59124
0.581133
0.571027
0.560921
0.904168
0.894114
0.884055
0.873989
0.863917
0.853839
0.843758
0.833673
0.823584
0.813494
0.803401
0.793306
0.783209
0.77311
0.763011
0.75291
0.742809
0.732707
0.722604
0.712501
0.702397
0.692293
0.682189
0.672084
0.661979
0.651874
0.641768
0.631663
0.621557
0.611451
0.601345
0.591239
0.581133
0.571027
0.560921
0.904175
0.894121
0.884061
0.873995
0.863922
0.853844
0.843761
0.833676
0.823587
0.813496
0.803403
0.793307
0.78321
0.773111
0.763012
0.752911
0.74281
0.732707
0.722604
0.712501
0.702397
0.692293
0.682189
0.672084
0.661979
0.651873
0.641768
0.631662
0.621556
0.611451
0.601345
0.591239
0.581132
0.571026
0.56092
0.904188
0.894133
0.884072
0.874005
0.863931
0.853851
0.843768
0.833681
0.823592
0.8135
0.803406
0.79331
0.783212
0.773113
0.763013
0.752912
0.742811
0.732708
0.722605
0.712502
0.702398
0.692293
0.682189
0.672084
0.661979
0.651873
0.641768
0.631662
0.621556
0.61145
0.601344
0.591238
0.581132
0.571026
0.56092
0.904206
0.89415
0.884088
0.874018
0.863942
0.853861
0.843777
0.833689
0.823598
0.813505
0.80341
0.793314
0.783215
0.773116
0.763016
0.752914
0.742812
0.73271
0.722606
0.712503
0.702398
0.692294
0.682189
0.672084
0.661979
0.651874
0.641768
0.631662
0.621556
0.61145
0.601344
0.591238
0.581132
0.571026
0.560919
0.904228
0.89417
0.884105
0.874033
0.863955
0.853873
0.843786
0.833697
0.823605
0.813511
0.803415
0.793318
0.783219
0.773119
0.763018
0.752916
0.742814
0.732711
0.722607
0.712504
0.702399
0.692295
0.68219
0.672085
0.661979
0.651874
0.641768
0.631662
0.621556
0.61145
0.601344
0.591238
0.581132
0.571026
0.560919
0.90425
0.89419
0.884122
0.874048
0.863968
0.853883
0.843795
0.833705
0.823611
0.813516
0.80342
0.793321
0.783222
0.773121
0.76302
0.752918
0.742815
0.732712
0.722609
0.712505
0.7024
0.692295
0.68219
0.672085
0.66198
0.651874
0.641768
0.631662
0.621557
0.61145
0.601344
0.591238
0.581132
0.571026
0.560919
0.904271
0.894208
0.884138
0.874061
0.863979
0.853893
0.843803
0.833711
0.823617
0.813521
0.803423
0.793325
0.783225
0.773124
0.763022
0.75292
0.742817
0.732713
0.72261
0.712505
0.702401
0.692296
0.682191
0.672086
0.66198
0.651874
0.641769
0.631663
0.621557
0.611451
0.601344
0.591238
0.581132
0.571026
0.560919
0.90429
0.894225
0.884152
0.874072
0.863989
0.853901
0.84381
0.833717
0.823622
0.813525
0.803427
0.793327
0.783227
0.773126
0.763024
0.752921
0.742818
0.732715
0.722611
0.712506
0.702402
0.692297
0.682191
0.672086
0.66198
0.651875
0.641769
0.631663
0.621557
0.611451
0.601345
0.591238
0.581132
0.571026
0.560919
0.904312
0.894243
0.884167
0.874085
0.863999
0.85391
0.843818
0.833723
0.823627
0.813529
0.803431
0.793331
0.78323
0.773128
0.763026
0.752923
0.74282
0.732716
0.722612
0.712507
0.702402
0.692297
0.682192
0.672087
0.661981
0.651875
0.641769
0.631663
0.621557
0.611451
0.601345
0.591239
0.581132
0.571026
0.56092
0.904336
0.894262
0.884183
0.874098
0.86401
0.853918
0.843825
0.833729
0.823632
0.813534
0.803434
0.793334
0.783233
0.773131
0.763028
0.752925
0.742821
0.732717
0.722613
0.712508
0.702403
0.692298
0.682193
0.672087
0.661982
0.651876
0.64177
0.631664
0.621558
0.611452
0.601345
0.591239
0.581133
0.571026
0.56092
0.550817
0.54071
0.530604
0.520497
0.510391
0.500284
0.490178
0.480071
0.469964
0.459858
0.550817
0.54071
0.530604
0.520498
0.510391
0.500284
0.490178
0.480071
0.469965
0.459858
0.550817
0.540711
0.530604
0.520498
0.510391
0.500285
0.490178
0.480071
0.469965
0.459858
0.550817
0.540711
0.530604
0.520498
0.510391
0.500285
0.490178
0.480072
0.469965
0.459858
0.550817
0.540711
0.530604
0.520498
0.510391
0.500285
0.490178
0.480072
0.469965
0.459858
0.550817
0.54071
0.530604
0.520498
0.510391
0.500285
0.490178
0.480072
0.469965
0.459858
0.550816
0.54071
0.530604
0.520497
0.510391
0.500285
0.490178
0.480072
0.469965
0.459858
0.550816
0.54071
0.530603
0.520497
0.510391
0.500284
0.490178
0.480071
0.469965
0.459858
0.550815
0.540709
0.530603
0.520496
0.51039
0.500284
0.490177
0.480071
0.469964
0.459858
0.550815
0.540709
0.530602
0.520496
0.51039
0.500283
0.490177
0.48007
0.469964
0.459857
0.550814
0.540708
0.530602
0.520495
0.510389
0.500283
0.490176
0.48007
0.469963
0.459857
0.550814
0.540707
0.530601
0.520495
0.510388
0.500282
0.490176
0.480069
0.469963
0.459856
0.550813
0.540707
0.530601
0.520494
0.510388
0.500281
0.490175
0.480069
0.469962
0.459856
0.550813
0.540707
0.5306
0.520494
0.510387
0.500281
0.490175
0.480068
0.469962
0.459855
0.550813
0.540706
0.5306
0.520494
0.510387
0.500281
0.490174
0.480068
0.469962
0.459855
0.550813
0.540706
0.5306
0.520494
0.510387
0.500281
0.490174
0.480068
0.469962
0.459855
0.550813
0.540706
0.5306
0.520494
0.510387
0.500281
0.490174
0.480068
0.469962
0.459855
0.550813
0.540707
0.5306
0.520494
0.510387
0.500281
0.490175
0.480068
0.469962
0.459855
0.550813
0.540707
0.530601
0.520494
0.510388
0.500281
0.490175
0.480069
0.469962
0.459856
0.550814
0.540707
0.530601
0.520494
0.510388
0.500282
0.490175
0.480069
0.469962
0.459856
0.449751
0.439644
0.429538
0.419431
0.409324
0.399217
0.38911
0.379004
0.368897
0.35879
0.348683
0.338576
0.328469
0.318362
0.308255
0.298148
0.288042
0.277935
0.267828
0.257721
0.247614
0.237508
0.227401
0.217294
0.207187
0.197081
0.186974
0.176868
0.166761
0.156654
0.146548
0.136441
0.126335
0.116228
0.106121
0.449751
0.439645
0.429538
0.419431
0.409324
0.399217
0.389111
0.379004
0.368897
0.35879
0.348683
0.338576
0.328469
0.318362
0.308255
0.298149
0.288042
0.277935
0.267828
0.257721
0.247614
0.237508
0.227401
0.217294
0.207187
0.197081
0.186974
0.176867
0.166761
0.156654
0.146548
0.136441
0.126335
0.116228
0.106121
0.449752
0.439645
0.429538
0.419431
0.409324
0.399218
0.389111
0.379004
0.368897
0.35879
0.348683
0.338576
0.328469
0.318362
0.308256
0.298149
0.288042
0.277935
0.267828
0.257721
0.247614
0.237508
0.227401
0.217294
0.207187
0.197081
0.186974
0.176867
0.166761
0.156654
0.146548
0.136441
0.126334
0.116228
0.106121
0.449752
0.439645
0.429538
0.419431
0.409325
0.399218
0.389111
0.379004
0.368897
0.35879
0.348683
0.338577
0.32847
0.318363
0.308256
0.298149
0.288042
0.277935
0.267828
0.257721
0.247614
0.237508
0.227401
0.217294
0.207187
0.197081
0.186974
0.176867
0.166761
0.156654
0.146548
0.136441
0.126334
0.116228
0.106121
0.449752
0.439645
0.429538
0.419432
0.409325
0.399218
0.389111
0.379004
0.368897
0.358791
0.348684
0.338577
0.32847
0.318363
0.308256
0.298149
0.288042
0.277935
0.267828
0.257722
0.247615
0.237508
0.227401
0.217294
0.207188
0.197081
0.186974
0.176868
0.166761
0.156654
0.146548
0.136441
0.126334
0.116228
0.106121
0.449752
0.439645
0.429538
0.419432
0.409325
0.399218
0.389111
0.379005
0.368898
0.358791
0.348684
0.338577
0.32847
0.318363
0.308256
0.298149
0.288042
0.277936
0.267829
0.257722
0.247615
0.237508
0.227401
0.217295
0.207188
0.197081
0.186974
0.176868
0.166761
0.156654
0.146548
0.136441
0.126334
0.116228
0.106121
0.449752
0.439645
0.429538
0.419432
0.409325
0.399218
0.389112
0.379005
0.368898
0.358791
0.348684
0.338577
0.32847
0.318364
0.308257
0.29815
0.288043
0.277936
0.267829
0.257722
0.247615
0.237509
0.227402
0.217295
0.207188
0.197082
0.186975
0.176868
0.166761
0.156655
0.146548
0.136441
0.126335
0.116228
0.106121
0.449752
0.439645
0.429538
0.419432
0.409325
0.399218
0.389112
0.379005
0.368898
0.358791
0.348684
0.338578
0.328471
0.318364
0.308257
0.29815
0.288043
0.277937
0.26783
0.257723
0.247616
0.237509
0.227402
0.217296
0.207189
0.197082
0.186975
0.176869
0.166762
0.156655
0.146548
0.136442
0.126335
0.116228
0.106121
0.449751
0.439645
0.429538
0.419432
0.409325
0.399218
0.389112
0.379005
0.368898
0.358791
0.348685
0.338578
0.328471
0.318364
0.308258
0.298151
0.288044
0.277937
0.26783
0.257724
0.247617
0.23751
0.227403
0.217296
0.207189
0.197083
0.186976
0.176869
0.166762
0.156656
0.146549
0.136442
0.126335
0.116228
0.106122
0.449751
0.439644
0.429538
0.419431
0.409325
0.399218
0.389112
0.379005
0.368898
0.358792
0.348685
0.338578
0.328472
0.318365
0.308258
0.298151
0.288045
0.277938
0.267831
0.257724
0.247618
0.237511
0.227404
0.217297
0.20719
0.197083
0.186977
0.17687
0.166763
0.156656
0.146549
0.136442
0.126335
0.116229
0.106122
0.44975
0.439644
0.429537
0.419431
0.409324
0.399218
0.389111
0.379005
0.368898
0.358792
0.348685
0.338579
0.328472
0.318365
0.308259
0.298152
0.288045
0.277939
0.267832
0.257725
0.247618
0.237511
0.227405
0.217298
0.207191
0.197084
0.186977
0.17687
0.166764
0.156657
0.14655
0.136443
0.126336
0.116229
0.106122
0.44975
0.439643
0.429537
0.419431
0.409324
0.399218
0.389111
0.379005
0.368898
0.358792
0.348685
0.338579
0.328472
0.318366
0.308259
0.298152
0.288046
0.277939
0.267832
0.257726
0.247619
0.237512
0.227405
0.217299
0.207192
0.197085
0.186978
0.176871
0.166764
0.156657
0.14655
0.136443
0.126336
0.116229
0.106122
0.449749
0.439643
0.429537
0.41943
0.409324
0.399217
0.389111
0.379005
0.368898
0.358792
0.348685
0.338579
0.328472
0.318366
0.308259
0.298153
0.288046
0.27794
0.267833
0.257726
0.24762
0.237513
0.227406
0.217299
0.207192
0.197086
0.186979
0.176872
0.166765
0.156658
0.146551
0.136444
0.126337
0.11623
0.106123
0.449749
0.439643
0.429536
0.41943
0.409324
0.399217
0.389111
0.379005
0.368898
0.358792
0.348685
0.338579
0.328473
0.318366
0.30826
0.298153
0.288047
0.27794
0.267834
0.257727
0.24762
0.237513
0.227407
0.2173
0.207193
0.197086
0.186979
0.176872
0.166765
0.156658
0.146551
0.136444
0.126337
0.11623
0.106123
0.449749
0.439643
0.429536
0.41943
0.409324
0.399217
0.389111
0.379005
0.368898
0.358792
0.348686
0.338579
0.328473
0.318366
0.30826
0.298154
0.288047
0.277941
0.267834
0.257727
0.247621
0.237514
0.227407
0.2173
0.207193
0.197087
0.18698
0.176873
0.166766
0.156658
0.146551
0.136444
0.126337
0.11623
0.106123
0.449749
0.439642
0.429536
0.41943
0.409324
0.399217
0.389111
0.379005
0.368898
0.358792
0.348686
0.338579
0.328473
0.318367
0.30826
0.298154
0.288047
0.277941
0.267834
0.257728
0.247621
0.237514
0.227407
0.217301
0.207194
0.197087
0.18698
0.176873
0.166766
0.156659
0.146552
0.136444
0.126337
0.11623
0.106123
0.449749
0.439643
0.429536
0.41943
0.409324
0.399217
0.389111
0.379005
0.368898
0.358792
0.348686
0.33858
0.328473
0.318367
0.30826
0.298154
0.288048
0.277941
0.267834
0.257728
0.247621
0.237514
0.227408
0.217301
0.207194
0.197087
0.18698
0.176873
0.166766
0.156659
0.146552
0.136444
0.126337
0.11623
0.106123
0.449749
0.439643
0.429536
0.41943
0.409324
0.399218
0.389111
0.379005
0.368899
0.358792
0.348686
0.33858
0.328473
0.318367
0.308261
0.298154
0.288048
0.277941
0.267835
0.257728
0.247621
0.237515
0.227408
0.217301
0.207194
0.197087
0.18698
0.176873
0.166766
0.156659
0.146552
0.136444
0.126337
0.11623
0.106123
0.449749
0.439643
0.429537
0.41943
0.409324
0.399218
0.389112
0.379005
0.368899
0.358793
0.348686
0.33858
0.328474
0.318367
0.308261
0.298154
0.288048
0.277941
0.267835
0.257728
0.247621
0.237515
0.227408
0.217301
0.207194
0.197087
0.18698
0.176873
0.166766
0.156659
0.146552
0.136444
0.126337
0.11623
0.106123
0.44975
0.439643
0.429537
0.419431
0.409325
0.399218
0.389112
0.379006
0.368899
0.358793
0.348687
0.33858
0.328474
0.318368
0.308261
0.298155
0.288048
0.277942
0.267835
0.257728
0.247622
0.237515
0.227408
0.217301
0.207194
0.197087
0.18698
0.176873
0.166766
0.156659
0.146552
0.136444
0.126337
0.11623
0.106123
0.0960148
0.0859081
0.0758014
0.0656947
0.055588
0.0454812
0.0353744
0.0252676
0.0151604
0.00505328
0.0960147
0.085908
0.0758013
0.0656946
0.0555879
0.045481
0.0353742
0.0252681
0.0151601
0.00505243
0.0960146
0.0859079
0.0758012
0.0656945
0.0555879
0.045481
0.035374
0.0252683
0.01516
0.00505246
0.0960145
0.0859078
0.0758011
0.0656944
0.0555878
0.0454809
0.035374
0.025268
0.0151597
0.00505246
0.0960144
0.0859078
0.0758011
0.0656944
0.0555877
0.0454808
0.0353739
0.0252681
0.0151594
0.00505245
0.0960144
0.0859077
0.075801
0.0656943
0.0555876
0.0454807
0.0353739
0.025268
0.0151591
0.00505251
0.0960145
0.0859078
0.075801
0.0656943
0.0555875
0.0454806
0.0353738
0.0252679
0.0151589
0.00505255
0.0960146
0.0859078
0.075801
0.0656942
0.0555875
0.0454806
0.0353738
0.0252678
0.0151586
0.00505258
0.0960147
0.0859079
0.075801
0.0656942
0.0555874
0.0454805
0.0353737
0.0252678
0.0151585
0.00505259
0.0960149
0.085908
0.0758011
0.0656943
0.0555874
0.0454805
0.0353737
0.0252677
0.0151584
0.00505259
0.0960151
0.0859081
0.0758012
0.0656943
0.0555875
0.0454805
0.0353737
0.0252677
0.0151585
0.00505257
0.0960153
0.0859083
0.0758013
0.0656944
0.0555875
0.0454805
0.0353737
0.0252678
0.0151586
0.00505252
0.0960155
0.0859085
0.0758015
0.0656945
0.0555876
0.0454806
0.0353738
0.0252678
0.0151588
0.00505247
0.0960157
0.0859086
0.0758016
0.0656946
0.0555877
0.0454807
0.0353738
0.0252679
0.015159
0.00505241
0.0960158
0.0859088
0.0758017
0.0656947
0.0555878
0.0454808
0.0353739
0.0252679
0.0151593
0.00505235
0.0960159
0.0859088
0.0758018
0.0656947
0.0555878
0.0454808
0.0353739
0.025268
0.0151595
0.00505226
0.096016
0.0859088
0.0758018
0.0656948
0.0555878
0.0454808
0.0353739
0.0252679
0.0151597
0.00505227
0.0960159
0.0859088
0.0758017
0.0656947
0.0555878
0.0454808
0.0353736
0.025268
0.01516
0.00505225
0.0960158
0.0859087
0.0758016
0.0656946
0.0555877
0.0454806
0.0353737
0.0252676
0.0151597
0.00505215
0.0960157
0.0859086
0.0758015
0.0656945
0.0555875
0.0454806
0.0353737
0.0252669
0.0151598
0.00505288
)
;

boundaryField
{
    inlet
    {
        type            zeroGradient;
    }
    outlet
    {
        type            fixedValue;
        value           uniform 0;
    }
    upperWall
    {
        type            zeroGradient;
    }
    lowerWall
    {
        type            zeroGradient;
    }
    frontAndBack
    {
        type            empty;
    }
}


// ************************************************************************* //
