/*--------------------------------*- C++ -*----------------------------------*\
| =========                 |                                                 |
| \\      /  F ield         | OpenFOAM: The Open Source CFD Toolbox           |
|  \\    /   O peration     | Version:  2406                                  |
|   \\  /    A nd           | Website:  www.openfoam.com                      |
|    \\/     M anipulation  |                                                 |
\*---------------------------------------------------------------------------*/
FoamFile
{
    version     2.0;
    format      ascii;
    arch        "LSB;label=32;scalar=64";
    class       volScalarField;
    location    "143";
    object      p;
}
// * * * * * * * * * * * * * * * * * * * * * * * * * * * * * * * * * * * * * //

dimensions      [0 2 -2 0 0 0 0];

internalField   nonuniform List<scalar> 
1900
(
-3.61121
-3.65127
-3.70171
-3.75067
-3.80216
-3.8608
-3.92719
-4.0008
-4.08031
-4.16615
-3.56881
-3.62785
-3.69047
-3.74231
-3.7937
-3.85221
-3.91805
-3.98952
-4.06464
-4.14248
-3.50259
-3.5808
-3.65788
-3.71325
-3.76354
-3.82019
-3.88249
-3.94625
-4.00661
-4.05511
-3.42305
-3.51132
-3.59749
-3.65545
-3.70424
-3.75787
-3.81527
-3.87108
-3.92081
-3.96001
-3.33886
-3.43148
-3.52197
-3.58107
-3.62824
-3.67871
-3.73171
-3.7819
-3.82609
-3.86227
-3.26231
-3.35573
-3.4457
-3.50301
-3.54769
-3.59511
-3.64451
-3.69096
-3.7322
-3.76756
-3.20616
-3.29648
-3.38124
-3.43431
-3.47608
-3.52075
-3.56728
-3.61131
-3.65127
-3.68715
-3.18051
-3.26087
-3.33587
-3.3846
-3.42474
-3.46758
-3.51205
-3.5547
-3.5944
-3.63126
-3.18937
-3.24952
-3.30965
-3.35447
-3.39446
-3.43655
-3.47993
-3.52221
-3.56247
-3.60057
-3.21682
-3.2587
-3.30755
-3.35007
-3.39026
-3.43205
-3.47488
-3.51695
-3.55736
-3.5958
-4.0442
-4.04483
-4.04564
-4.04642
-4.04717
-4.04791
-4.04862
-4.0493
-4.04992
-4.05048
-4.05095
-4.05135
-4.05166
-4.05187
-4.05199
-4.05199
-4.05186
-4.05158
-4.0511
-4.05042
-4.0495
-4.04833
-4.0469
-4.04519
-4.04323
-4.041
-4.03853
-4.03581
-4.03286
-4.02967
-4.02624
-4.02259
-4.01876
-4.0148
-4.01079
-4.04347
-4.04417
-4.04493
-4.04564
-4.04636
-4.04709
-4.04781
-4.04851
-4.04915
-4.04972
-4.05021
-4.0506
-4.05091
-4.05111
-4.0512
-4.05118
-4.05103
-4.05072
-4.05025
-4.04958
-4.04869
-4.04756
-4.04618
-4.04452
-4.0426
-4.04042
-4.03798
-4.0353
-4.03239
-4.02923
-4.02582
-4.02218
-4.01833
-4.01432
-4.01023
-4.04263
-4.04351
-4.04432
-4.045
-4.04571
-4.04646
-4.04722
-4.04796
-4.04863
-4.04922
-4.04972
-4.05011
-4.05039
-4.05056
-4.05064
-4.05061
-4.05046
-4.0502
-4.04979
-4.04921
-4.04842
-4.04738
-4.04607
-4.04447
-4.04257
-4.04038
-4.03794
-4.03524
-4.03232
-4.02916
-4.02575
-4.02208
-4.01818
-4.01405
-4.00973
-4.04243
-4.0435
-4.04441
-4.04511
-4.04587
-4.04669
-4.04752
-4.04831
-4.04902
-4.04961
-4.05008
-4.05042
-4.05063
-4.05073
-4.05075
-4.05072
-4.05063
-4.05048
-4.05024
-4.04985
-4.04927
-4.0484
-4.0472
-4.04563
-4.04369
-4.04141
-4.03884
-4.03602
-4.03301
-4.0298
-4.02638
-4.02273
-4.01878
-4.01448
-4.00977
-4.04392
-4.04505
-4.04598
-4.04669
-4.04749
-4.04836
-4.04924
-4.05004
-4.05073
-4.05125
-4.05159
-4.05176
-4.05179
-4.05175
-4.05169
-4.05166
-4.05169
-4.05177
-4.05182
-4.05175
-4.05144
-4.05076
-4.04962
-4.04796
-4.04581
-4.04324
-4.04035
-4.03728
-4.03412
-4.03092
-4.02764
-4.02418
-4.02035
-4.01595
-4.01078
-4.04861
-4.04939
-4.05003
-4.05053
-4.05121
-4.05198
-4.05275
-4.05341
-4.05391
-4.05418
-4.05422
-4.05406
-4.0538
-4.05353
-4.05337
-4.0534
-4.05363
-4.05401
-4.05441
-4.05467
-4.05459
-4.05399
-4.05275
-4.05084
-4.04832
-4.04534
-4.04209
-4.03881
-4.03564
-4.03266
-4.02976
-4.0267
-4.02315
-4.0187
-4.01302
-4.05862
-4.05801
-4.05738
-4.05701
-4.0571
-4.05741
-4.05775
-4.05801
-4.05808
-4.0579
-4.05748
-4.05689
-4.05625
-4.05575
-4.05551
-4.0556
-4.05601
-4.05662
-4.05725
-4.05767
-4.05765
-4.05698
-4.05555
-4.05335
-4.05051
-4.04722
-4.04377
-4.04041
-4.03732
-4.03453
-4.0319
-4.02908
-4.02562
-4.02101
-4.01489
-4.07799
-4.07242
-4.06773
-4.06501
-4.06373
-4.06309
-4.06266
-4.06225
-4.06173
-4.06102
-4.06012
-4.05912
-4.05818
-4.05746
-4.05709
-4.05712
-4.0575
-4.05811
-4.05875
-4.05918
-4.05914
-4.05842
-4.05693
-4.05466
-4.05174
-4.0484
-4.04492
-4.04156
-4.0385
-4.03574
-4.03312
-4.0303
-4.02683
-4.02219
-4.016
-4.12166
-4.09265
-4.07607
-4.06974
-4.06705
-4.06548
-4.06451
-4.0638
-4.06305
-4.06213
-4.06104
-4.05988
-4.05878
-4.05791
-4.05741
-4.05732
-4.05761
-4.05815
-4.05874
-4.05914
-4.05908
-4.05838
-4.05692
-4.05467
-4.05177
-4.04845
-4.04495
-4.04152
-4.03832
-4.03536
-4.03251
-4.02943
-4.02572
-4.02094
-4.01475
-4.21935
-4.10947
-4.06743
-4.06434
-4.06329
-4.06058
-4.05916
-4.05881
-4.05849
-4.05789
-4.05708
-4.05618
-4.05531
-4.05463
-4.05425
-4.05424
-4.05456
-4.0551
-4.05567
-4.05605
-4.05599
-4.05531
-4.0539
-4.05175
-4.04897
-4.04571
-4.04219
-4.03861
-4.03512
-4.03169
-4.0282
-4.02434
-4.01975
-4.01406
-4.00699
-4.1809
-4.07912
-4.0443
-4.05427
-4.06003
-4.05803
-4.05651
-4.05673
-4.05694
-4.05652
-4.05572
-4.05479
-4.05387
-4.05305
-4.05246
-4.05213
-4.05204
-4.05209
-4.05208
-4.05182
-4.05108
-4.0497
-4.04757
-4.04468
-4.04109
-4.03693
-4.03236
-4.02753
-4.02252
-4.0173
-4.0117
-4.00547
-3.99827
-3.98978
-3.97977
-4.15929
-4.09929
-4.06009
-4.05519
-4.05446
-4.04951
-4.04568
-4.04464
-4.04449
-4.04401
-4.04321
-4.04233
-4.04144
-4.04054
-4.03968
-4.03887
-4.03808
-4.03718
-4.03602
-4.03439
-4.03212
-4.02904
-4.02505
-4.02014
-4.01431
-4.00764
-4.00023
-3.99216
-3.98345
-3.97403
-3.96372
-3.95228
-3.93942
-3.92486
-3.90843
-4.06925
-4.04652
-4.02278
-4.01732
-4.01965
-4.02043
-4.02025
-4.02092
-4.02192
-4.02234
-4.02203
-4.0212
-4.01997
-4.01835
-4.01635
-4.01399
-4.01124
-4.00799
-4.00411
-3.99942
-3.99378
-3.98705
-3.97913
-3.96997
-3.95956
-3.94792
-3.93506
-3.921
-3.90571
-3.88909
-3.87096
-3.85109
-3.82925
-3.8052
-3.77879
-3.9818
-3.98364
-3.97734
-3.97633
-3.98015
-3.98333
-3.98474
-3.98576
-3.98673
-3.98713
-3.98668
-3.98538
-3.98331
-3.98046
-3.97679
-3.97229
-3.96691
-3.96053
-3.95303
-3.94428
-3.93414
-3.9225
-3.90927
-3.89437
-3.87776
-3.8594
-3.83926
-3.81731
-3.79347
-3.76763
-3.73962
-3.70924
-3.6763
-3.64059
-3.60198
-3.88769
-3.90088
-3.90647
-3.91181
-3.91899
-3.92581
-3.93099
-3.93499
-3.93815
-3.94021
-3.94087
-3.94006
-3.93779
-3.93408
-3.92891
-3.92224
-3.91403
-3.9042
-3.89266
-3.87931
-3.86406
-3.84682
-3.8275
-3.80602
-3.78232
-3.75635
-3.72803
-3.69732
-3.66411
-3.62828
-3.5897
-3.5482
-3.50362
-3.4558
-3.40464
-3.79608
-3.81729
-3.83297
-3.84635
-3.85904
-3.87042
-3.87969
-3.88686
-3.89216
-3.89556
-3.89691
-3.89614
-3.8933
-3.8884
-3.88143
-3.87237
-3.86118
-3.84782
-3.83222
-3.81433
-3.79408
-3.77139
-3.74618
-3.71837
-3.68791
-3.65472
-3.61873
-3.57987
-3.53804
-3.49314
-3.44505
-3.39365
-3.33882
-3.28046
-3.2185
-3.71871
-3.74562
-3.76832
-3.78798
-3.80543
-3.82064
-3.83325
-3.8432
-3.85059
-3.85544
-3.8577
-3.85733
-3.85434
-3.84876
-3.84057
-3.82976
-3.81633
-3.80024
-3.78149
-3.76003
-3.73581
-3.70878
-3.67888
-3.64606
-3.61025
-3.5714
-3.52945
-3.48431
-3.43591
-3.38418
-3.32903
-3.27039
-3.20818
-3.14235
-3.07288
-3.66515
-3.69572
-3.7229
-3.74694
-3.76811
-3.78642
-3.80171
-3.81393
-3.82308
-3.82918
-3.83224
-3.83224
-3.82921
-3.82317
-3.81415
-3.80215
-3.7872
-3.7693
-3.74844
-3.72462
-3.69781
-3.66797
-3.63508
-3.5991
-3.55997
-3.51766
-3.4721
-3.42325
-3.37105
-3.31544
-3.25638
-3.19383
-3.12776
-3.05816
-2.98505
-3.63628
-3.66925
-3.69918
-3.72597
-3.74955
-3.76988
-3.78688
-3.80051
-3.81076
-3.81767
-3.82126
-3.82156
-3.81861
-3.81245
-3.80312
-3.79066
-3.7751
-3.75647
-3.73477
-3.71001
-3.68218
-3.65127
-3.61727
-3.58014
-3.53984
-3.49635
-3.44962
-3.39961
-3.34628
-3.2896
-3.22954
-3.16607
-3.09921
-3.02894
-2.95532
-3.632
-3.66558
-3.69622
-3.7237
-3.74792
-3.76879
-3.78626
-3.8003
-3.81092
-3.81812
-3.82195
-3.82245
-3.81965
-3.81361
-3.80436
-3.79195
-3.77642
-3.75779
-3.73607
-3.71129
-3.68343
-3.6525
-3.61848
-3.58134
-3.54106
-3.49759
-3.45091
-3.40098
-3.34776
-3.29122
-3.23134
-3.1681
-3.10151
-3.03156
-2.9583
-4.00683
-4.00301
-3.99946
-3.99623
-3.99335
-3.99079
-3.98841
-3.98601
-3.98328
-3.97986
-4.00613
-4.00211
-3.99826
-3.99464
-3.99132
-3.98834
-3.98568
-3.98321
-3.98067
-3.97766
-4.00527
-4.00073
-3.99621
-3.99187
-3.98793
-3.98462
-3.98207
-3.98024
-3.97888
-3.97747
-4.00464
-3.99913
-3.99342
-3.98788
-3.983
-3.9793
-3.97716
-3.97672
-3.97775
-3.97957
-4.00474
-3.99789
-3.99055
-3.98339
-3.9773
-3.9732
-3.97181
-3.97344
-3.97783
-3.98401
-4.00595
-3.99765
-3.98865
-3.97998
-3.97298
-3.96891
-3.96862
-3.97234
-3.97955
-3.98881
-4.00713
-3.99803
-3.98832
-3.97925
-3.97228
-3.96856
-3.96871
-3.97285
-3.98039
-3.98981
-4.00819
-3.99909
-3.98944
-3.9804
-3.97327
-3.9692
-3.96882
-3.97224
-3.97887
-3.98731
-4.00709
-3.99824
-3.98887
-3.98001
-3.97282
-3.96829
-3.96698
-3.96888
-3.97336
-3.97908
-3.99852
-3.98891
-3.97877
-3.96893
-3.96033
-3.95372
-3.94947
-3.94743
-3.9469
-3.94656
-3.96823
-3.95537
-3.94165
-3.92769
-3.91415
-3.9015
-3.8899
-3.87905
-3.8682
-3.85611
-3.89008
-3.86996
-3.84837
-3.82568
-3.80229
-3.77842
-3.75404
-3.72878
-3.70189
-3.67236
-3.74995
-3.71873
-3.68528
-3.64979
-3.61242
-3.57325
-3.53214
-3.48873
-3.44242
-3.39242
-3.56039
-3.51579
-3.46825
-3.41784
-3.36462
-3.30856
-3.24953
-3.18726
-3.12133
-3.05126
-3.35005
-3.29201
-3.23054
-3.16565
-3.09735
-3.02563
-2.95041
-2.87156
-2.78893
-2.7023
-3.15288
-3.08359
-3.01064
-2.93406
-2.85389
-2.77017
-2.68295
-2.59227
-2.4982
-2.40081
-2.99975
-2.92299
-2.84263
-2.75876
-2.67148
-2.58093
-2.48725
-2.39063
-2.29131
-2.18956
-2.90844
-2.82841
-2.74504
-2.65844
-2.56878
-2.47624
-2.38105
-2.28347
-2.18384
-2.08252
-2.87837
-2.79818
-2.71486
-2.62853
-2.53936
-2.44756
-2.35336
-2.25705
-2.15894
-2.05942
-2.88178
-2.80205
-2.71924
-2.63346
-2.54488
-2.45369
-2.36012
-2.26446
-2.16699
-2.06808
-3.97538
-3.96956
-3.96225
-3.95353
-3.94374
-3.93342
-3.92322
-3.91373
-3.90534
-3.89822
-3.89221
-3.88693
-3.8817
-3.87567
-3.86784
-3.85723
-3.84271
-3.82285
-3.79562
-3.75856
-3.70882
-3.64257
-3.5534
-3.43093
-3.26225
-3.03614
-2.74566
-2.38611
-1.95424
-1.4567
-0.908823
-0.326887
0.269931
0.857783
1.41094
-3.97369
-3.96836
-3.96146
-3.95305
-3.94349
-3.93327
-3.92288
-3.91272
-3.90302
-3.894
-3.88578
-3.87837
-3.87149
-3.86436
-3.85565
-3.84396
-3.82833
-3.80813
-3.78241
-3.74984
-3.70985
-3.66232
-3.60304
-3.51759
-3.38209
-3.17263
-2.87655
-2.49737
-2.05009
-1.5458
-0.995128
-0.413311
0.181018
0.766869
1.32102
-3.97529
-3.97169
-3.96621
-3.95866
-3.94898
-3.93725
-3.92378
-3.90926
-3.89471
-3.88139
-3.87058
-3.86317
-3.85906
-3.8567
-3.85284
-3.84385
-3.82776
-3.80471
-3.77636
-3.74665
-3.72207
-3.70501
-3.68127
-3.61963
-3.48712
-3.26698
-2.96272
-2.58342
-2.141
-1.64336
-1.10021
-0.526592
0.0584273
0.631514
1.16781
-3.9811
-3.98109
-3.97842
-3.97205
-3.96107
-3.94504
-3.9247
-3.90215
-3.88045
-3.86272
-3.85161
-3.84851
-3.85259
-3.86
-3.86412
-3.85828
-3.84015
-3.81226
-3.77974
-3.75003
-3.73112
-3.72235
-3.70531
-3.64889
-3.52008
-3.30517
-3.00816
-2.63872
-2.20622
-1.72025
-1.19221
-0.637533
-0.0758853
0.469986
0.976488
-3.99029
-3.99456
-3.99468
-3.98863
-3.97487
-3.95305
-3.92522
-3.89584
-3.87014
-3.85217
-3.84431
-3.84686
-3.85716
-3.86895
-3.87366
-3.86545
-3.84484
-3.81619
-3.7848
-3.75734
-3.73948
-3.72772
-3.70264
-3.63432
-3.49814
-3.2849
-2.99659
-2.63968
-2.22236
-1.75498
-1.25059
-0.725774
-0.200384
0.303842
0.764943
-3.99786
-4.00399
-4.00462
-3.99753
-3.98137
-3.95658
-3.92635
-3.89638
-3.87176
-3.85518
-3.84807
-3.85043
-3.85954
-3.86949
-3.87296
-3.86505
-3.84597
-3.81936
-3.78928
-3.7596
-3.73275
-3.70409
-3.65752
-3.57028
-3.42372
-3.20889
-2.92549
-2.57888
-2.17787
-1.73413
-1.26201
-0.778521
-0.302717
0.145591
0.547298
-3.9989
-4.00513
-4.00601
-3.99931
-3.9837
-3.95991
-3.93109
-3.90209
-3.8775
-3.86007
-3.85108
-3.85031
-3.85506
-3.86009
-3.85935
-3.84853
-3.82702
-3.79692
-3.76086
-3.72089
-3.67734
-3.62522
-3.55187
-3.44021
-3.27577
-3.05145
-2.76789
-2.43121
-2.05097
-1.63927
-1.21053
-0.780983
-0.367764
0.0123476
0.344218
-3.99547
-4.00087
-4.00109
-3.99418
-3.9791
-3.95658
-3.92932
-3.90126
-3.87614
-3.85636
-3.84288
-3.83513
-3.83057
-3.82484
-3.81305
-3.79154
-3.75914
-3.71674
-3.66571
-3.60658
-3.53798
-3.455
-3.34843
-3.20671
-3.02036
-2.78551
-2.50434
-2.18353
-1.83277
-1.46388
-1.09032
-0.726342
-0.385996
-0.0820135
0.175179
-3.98409
-3.98611
-3.98299
-3.97308
-3.95561
-3.93118
-3.90186
-3.87066
-3.84045
-3.81311
-3.78921
-3.76797
-3.7471
-3.72305
-3.69194
-3.65071
-3.59791
-3.53352
-3.45793
-3.37082
-3.27051
-3.15345
-3.01397
-2.84541
-2.64272
-2.40486
-2.13532
-1.84111
-1.53155
-1.21731
-0.909645
-0.619658
-0.357429
-0.131193
0.0533028
-3.94464
-3.93914
-3.92819
-3.91042
-3.88522
-3.85299
-3.81522
-3.77411
-3.73173
-3.68939
-3.64733
-3.60469
-3.55956
-3.50924
-3.4508
-3.38193
-3.30134
-3.20878
-3.10435
-2.98784
-2.85826
-2.71365
-2.55117
-2.36781
-2.16202
-1.93501
-1.69113
-1.43705
-1.18076
-0.930661
-0.694979
-0.481096
-0.294984
-0.140685
-0.0200071
-3.84124
-3.82193
-3.79662
-3.76422
-3.72425
-3.677
-3.62353
-3.56537
-3.50397
-3.44019
-3.37412
-3.30508
-3.23173
-3.15222
-3.06467
-2.96761
-2.86031
-2.74274
-2.61519
-2.47785
-2.33056
-2.17279
-2.00386
-1.82337
-1.63208
-1.43242
-1.22861
-1.02606
-0.830612
-0.647939
-0.482989
-0.339585
-0.220096
-0.125267
-0.0542282
-3.63893
-3.60031
-3.55533
-3.50322
-3.44368
-3.37699
-3.30393
-3.22557
-3.14289
-3.05655
-2.96668
-2.87294
-2.77461
-2.67072
-2.56034
-2.44286
-2.31815
-2.18656
-2.04871
-1.90526
-1.75683
-1.60395
-1.44731
-1.28789
-1.12735
-0.968185
-0.813652
-0.667363
-0.532778
-0.412786
-0.309402
-0.22358
-0.155163
-0.102971
-0.0650015
-3.33784
-3.2778
-3.21155
-3.13867
-3.05907
-2.97309
-2.88133
-2.7846
-2.68371
-2.57925
-2.47154
-2.36066
-2.24643
-2.12866
-2.00716
-1.88202
-1.75361
-1.62261
-1.48995
-1.35661
-1.2236
-1.09196
-0.962785
-0.837354
-0.717156
-0.603917
-0.499471
-0.405497
-0.323243
-0.253339
-0.195741
-0.14975
-0.114112
-0.0871931
-0.067187
-2.97652
-2.89665
-2.81134
-2.72048
-2.62421
-2.52295
-2.41731
-2.30802
-2.19586
-2.08147
-1.9654
-1.84803
-1.72968
-1.61063
-1.49124
-1.37198
-1.25355
-1.13677
-1.02259
-0.912
-0.805912
-0.705205
-0.610699
-0.523148
-0.443252
-0.371621
-0.308677
-0.254562
-0.20906
-0.171592
-0.141297
-0.117125
-0.0979235
-0.0825417
-0.0699233
-2.61153
-2.51654
-2.41737
-2.3142
-2.2074
-2.09753
-1.98527
-1.87137
-1.75664
-1.64179
-1.52751
-1.41441
-1.30302
-1.19388
-1.08754
-0.984575
-0.88564
-0.791404
-0.702521
-0.619564
-0.542989
-0.473108
-0.410085
-0.353936
-0.30455
-0.261693
-0.224981
-0.193881
-0.167723
-0.145752
-0.127215
-0.111407
-0.0977038
-0.0855561
-0.0744971
-2.30023
-2.1967
-2.09052
-1.98214
-1.8721
-1.76107
-1.64979
-1.53904
-1.4296
-1.32221
-1.21753
-1.11619
-1.01871
-0.925573
-0.837186
-0.753914
-0.676093
-0.604
-0.537829
-0.477658
-0.423444
-0.375009
-0.332038
-0.294121
-0.260803
-0.231601
-0.206014
-0.18353
-0.163637
-0.145865
-0.129834
-0.115231
-0.101819
-0.0894061
-0.0778311
-2.08572
-1.98021
-1.8735
-1.76618
-1.65886
-1.55225
-1.44706
-1.344
-1.24375
-1.14692
-1.05406
-0.965603
-0.881904
-0.803184
-0.729573
-0.661141
-0.5979
-0.539815
-0.486773
-0.438595
-0.395035
-0.355769
-0.320388
-0.288466
-0.259618
-0.233503
-0.20979
-0.188191
-0.16844
-0.150333
-0.133768
-0.11864
-0.1048
-0.0920816
-0.0802878
-1.97992
-1.87652
-1.77285
-1.66948
-1.56702
-1.4661
-1.36734
-1.27132
-1.17858
-1.08958
-1.00467
-0.924172
-0.848253
-0.776937
-0.710173
-0.647884
-0.589986
-0.536379
-0.486939
-0.441484
-0.399811
-0.36168
-0.326768
-0.294766
-0.265468
-0.238752
-0.214439
-0.192333
-0.172213
-0.153823
-0.136979
-0.121528
-0.107332
-0.0942497
-0.0821365
-1.95888
-1.85778
-1.75661
-1.6559
-1.5562
-1.45807
-1.36208
-1.26875
-1.17857
-1.0919
-1.00901
-0.930164
-0.855552
-0.785174
-0.718957
-0.656828
-0.598736
-0.544654
-0.494569
-0.448413
-0.406044
-0.367287
-0.331869
-0.299476
-0.269845
-0.242775
-0.218064
-0.195524
-0.174962
-0.156173
-0.13898
-0.123223
-0.108747
-0.0954081
-0.0830836
-1.96812
-1.86754
-1.76681
-1.66644
-1.56695
-1.4689
-1.37283
-1.27927
-1.1887
-1.10154
-1.01814
-0.938755
-0.863559
-0.792598
-0.725849
-0.66326
-0.604771
-0.550328
-0.49987
-0.453296
-0.410457
-0.371179
-0.335224
-0.302331
-0.272265
-0.244821
-0.219792
-0.19697
-0.17615
-0.157134
-0.139744
-0.12381
-0.109175
-0.0956951
-0.0832558
1.90273
2.30815
2.61816
2.81461
2.8656
2.75864
2.47371
2.02243
1.29445
0.663668
1.81476
2.22539
2.53234
2.71715
2.76081
2.64997
2.35931
1.91451
1.15764
0.667227
1.64287
2.03399
2.32115
2.48807
2.51792
2.39901
2.10723
1.67888
0.949792
0.605019
1.42066
1.78118
2.0398
2.18176
2.194
2.06954
1.79275
1.39962
0.763
0.491449
1.16219
1.47732
1.69557
1.80607
1.80164
1.67978
1.43772
1.09818
0.609521
0.325625
0.885363
1.14585
1.31882
1.39831
1.38329
1.27498
1.08412
0.812263
0.499142
0.140229
0.615469
0.817207
0.944657
0.996732
0.9777
0.891236
0.758332
0.559236
0.411522
-0.0272546
0.378206
0.523093
0.609605
0.640424
0.623039
0.562089
0.482716
0.351642
0.326181
-0.1381
0.193184
0.288448
0.34195
0.3584
0.345975
0.308955
0.270167
0.194404
0.232518
-0.173983
0.0675191
0.124358
0.154693
0.163418
0.15731
0.139314
0.12577
0.0887283
0.139258
-0.145904
-0.00470872
0.0265583
0.043469
0.0497803
0.0497708
0.0448652
0.0439381
0.0299257
0.0654543
-0.0892342
-0.0387159
-0.0213982
-0.0104161
-0.00363769
0.000903131
0.00347262
0.00753071
0.00496208
0.0223225
-0.0406192
-0.0522996
-0.0409355
-0.0318044
-0.024032
-0.0170253
-0.0109803
-0.00520209
-0.00279459
0.0043155
-0.014937
-0.0591519
-0.0494951
-0.0404436
-0.031744
-0.0233693
-0.0156946
-0.00903336
-0.00466675
-0.00144264
-0.00613175
-0.0641371
-0.0541756
-0.0444538
-0.0349986
-0.0260132
-0.0178876
-0.0110145
-0.00605202
-0.00381946
-0.0047361
-0.0669564
-0.056638
-0.0467668
-0.0373474
-0.0285192
-0.0205135
-0.0135746
-0.00832964
-0.00603677
-0.00523641
-0.0692451
-0.0588198
-0.048955
-0.0397053
-0.0312056
-0.0235372
-0.0167339
-0.0112813
-0.00809275
-0.00530952
-0.070873
-0.0603868
-0.0506539
-0.0417024
-0.033571
-0.0262174
-0.0195722
-0.0139264
-0.00970388
-0.00531536
-0.0716851
-0.0611667
-0.0515236
-0.0427696
-0.0348903
-0.027788
-0.0213462
-0.0156341
-0.0107192
-0.00523167
-0.071782
-0.0612402
-0.0516295
-0.0429591
-0.0352088
-0.0282891
-0.0220605
-0.0164266
-0.0112078
-0.00497694
)
;

boundaryField
{
    inlet
    {
        type            zeroGradient;
    }
    outlet
    {
        type            fixedValue;
        value           uniform 0;
    }
    upperWall
    {
        type            zeroGradient;
    }
    lowerWall
    {
        type            zeroGradient;
    }
    frontAndBack
    {
        type            empty;
    }
}


// ************************************************************************* //
