/*--------------------------------*- C++ -*----------------------------------*\
| =========                 |                                                 |
| \\      /  F ield         | OpenFOAM: The Open Source CFD Toolbox           |
|  \\    /   O peration     | Version:  2406                                  |
|   \\  /    A nd           | Website:  www.openfoam.com                      |
|    \\/     M anipulation  |                                                 |
\*---------------------------------------------------------------------------*/
FoamFile
{
    version     2.0;
    format      ascii;
    arch        "LSB;label=32;scalar=64";
    class       volScalarField;
    location    "23";
    object      p;
}
// * * * * * * * * * * * * * * * * * * * * * * * * * * * * * * * * * * * * * //

dimensions      [0 2 -2 0 0 0 0];

internalField   nonuniform List<scalar> 
1900
(
1.71871
1.64362
1.5658
1.488
1.40718
1.3227
1.23349
1.13846
1.03707
0.884688
1.73517
1.64831
1.56533
1.48601
1.40447
1.31926
1.22978
1.13475
1.03021
0.901043
1.74446
1.65201
1.56584
1.48625
1.40519
1.32076
1.2331
1.14225
1.04784
0.949949
1.75119
1.6566
1.5689
1.48998
1.41059
1.32864
1.24511
1.16127
1.07848
0.999392
1.75754
1.66202
1.57382
1.49589
1.4185
1.33953
1.26047
1.18307
1.10892
1.04022
1.76271
1.66697
1.5791
1.50214
1.42645
1.35008
1.27464
1.20189
1.13314
1.06986
1.76543
1.67025
1.5834
1.50715
1.4325
1.35787
1.28477
1.21473
1.14877
1.08782
1.76443
1.67112
1.58599
1.50995
1.43548
1.36156
1.28945
1.22039
1.1552
1.09459
1.75674
1.66878
1.58637
1.51023
1.4352
1.36097
1.28859
1.21903
1.15304
1.09138
1.73935
1.66279
1.58459
1.50874
1.43298
1.3579
1.28455
1.21371
1.14617
1.08279
0.73646
0.737285
0.742365
0.751719
0.763553
0.776104
0.787933
0.79797
0.805516
0.810201
0.811928
0.810802
0.807064
0.80104
0.793092
0.783585
0.772867
0.761252
0.749012
0.736377
0.723533
0.710626
0.697767
0.685037
0.672491
0.660163
0.64807
0.63622
0.624606
0.613218
0.602041
0.591056
0.580242
0.56958
0.559049
0.735835
0.736609
0.741254
0.749619
0.760211
0.771511
0.782259
0.791486
0.79853
0.803014
0.804803
0.803953
0.800655
0.795183
0.787854
0.778998
0.768931
0.757944
0.746292
0.734194
0.721828
0.709339
0.696837
0.684407
0.672106
0.659975
0.648037
0.636302
0.624772
0.613442
0.6023
0.591332
0.580522
0.569853
0.559308
0.730689
0.732022
0.737085
0.745459
0.755743
0.766584
0.776858
0.785695
0.792487
0.796878
0.798732
0.798088
0.795111
0.790048
0.783189
0.774837
0.765287
0.75481
0.743647
0.732004
0.720054
0.707937
0.695761
0.683609
0.671544
0.659607
0.647825
0.636213
0.624778
0.613517
0.602423
0.591487
0.580695
0.570034
0.559488
0.719762
0.722847
0.729749
0.739569
0.750848
0.762289
0.772861
0.781794
0.788575
0.792918
0.794737
0.7941
0.791189
0.786256
0.779586
0.771474
0.762203
0.752029
0.741183
0.729859
0.718219
0.706394
0.69449
0.682585
0.670737
0.65899
0.64737
0.635894
0.62457
0.613398
0.602375
0.591492
0.58074
0.570106
0.559578
0.702651
0.709065
0.719505
0.732231
0.745639
0.758499
0.769903
0.779228
0.786106
0.790375
0.792043
0.791245
0.788204
0.783197
0.77652
0.768468
0.759317
0.749315
0.738678
0.727588
0.716196
0.704623
0.692965
0.681293
0.669663
0.658114
0.64667
0.635348
0.624156
0.613096
0.602165
0.591357
0.580665
0.570077
0.559584
0.678477
0.690597
0.706877
0.72409
0.740616
0.755476
0.767999
0.777795
0.784714
0.788777
0.790124
0.788982
0.785633
0.780387
0.773559
0.765446
0.756317
0.746409
0.735925
0.725031
0.713865
0.702534
0.691123
0.679696
0.6683
0.656968
0.645724
0.634581
0.623547
0.612624
0.601809
0.591099
0.580487
0.569965
0.559524
0.645875
0.667301
0.692719
0.716192
0.736629
0.75378
0.767434
0.777552
0.784289
0.787902
0.788695
0.787001
0.783167
0.777539
0.770445
0.762183
0.753014
0.74316
0.732805
0.722099
0.711161
0.700084
0.688939
0.677779
0.666642
0.655557
0.644542
0.633607
0.622758
0.611998
0.601324
0.590734
0.580222
0.569783
0.559408
0.597114
0.63696
0.67805
0.709952
0.734776
0.75414
0.76861
0.778651
0.784812
0.787628
0.787582
0.78511
0.780619
0.774482
0.767035
0.758567
0.749325
0.739509
0.729283
0.718774
0.708082
0.697281
0.686428
0.675564
0.664717
0.653908
0.64315
0.632451
0.621814
0.61124
0.60073
0.59028
0.579886
0.569544
0.55925
0.50216
0.595997
0.665448
0.707813
0.736742
0.757582
0.772063
0.781305
0.786306
0.787881
0.786667
0.783186
0.777881
0.771135
0.763274
0.754572
0.745248
0.735476
0.725394
0.715103
0.704681
0.694184
0.68365
0.673109
0.662579
0.652072
0.641596
0.631155
0.620751
0.610384
0.600054
0.589759
0.579496
0.569265
0.559061
0.398432
0.576007
0.671088
0.717766
0.746463
0.765941
0.778569
0.785784
0.788811
0.788606
0.785876
0.781165
0.774915
0.767489
0.759186
0.750245
0.740851
0.731145
0.721231
0.711185
0.70106
0.69089
0.6807
0.670503
0.660309
0.650122
0.639943
0.629775
0.619617
0.609468
0.599329
0.589199
0.579076
0.568961
0.558854
0.641781
0.672739
0.722846
0.750038
0.767758
0.780493
0.788439
0.79206
0.792208
0.789686
0.785124
0.77901
0.771729
0.763594
0.754851
0.745692
0.736257
0.726647
0.716933
0.707158
0.697351
0.687527
0.677694
0.667852
0.658002
0.648141
0.638266
0.628375
0.618466
0.608539
0.598593
0.588629
0.578648
0.568652
0.558642
0.773691
0.76051
0.776295
0.786585
0.793384
0.798144
0.800172
0.799314
0.796017
0.790842
0.784268
0.77667
0.768344
0.759521
0.750379
0.741047
0.731615
0.72214
0.712654
0.703172
0.693698
0.684229
0.674755
0.665269
0.655759
0.646219
0.63664
0.627019
0.617353
0.60764
0.597882
0.58808
0.578236
0.568355
0.55844
0.865612
0.834307
0.827141
0.823296
0.819901
0.816537
0.812243
0.806565
0.799616
0.7917
0.783106
0.774069
0.764768
0.755339
0.745876
0.736442
0.727071
0.717772
0.708544
0.699372
0.690238
0.681121
0.672
0.662856
0.653672
0.644436
0.635137
0.625769
0.616329
0.606816
0.597232
0.587579
0.577862
0.568087
0.558259
0.932665
0.893476
0.871895
0.856684
0.844232
0.833338
0.823019
0.812711
0.802286
0.79181
0.781383
0.771088
0.760978
0.751086
0.741423
0.73198
0.722737
0.713663
0.704721
0.695872
0.687078
0.678304
0.669519
0.660696
0.651814
0.642856
0.633812
0.624673
0.615436
0.606102
0.596672
0.587151
0.577546
0.567864
0.558111
0.981332
0.938238
0.907552
0.883647
0.863705
0.846448
0.830972
0.816691
0.803313
0.790715
0.778824
0.767578
0.756911
0.746758
0.737048
0.727713
0.71868
0.709883
0.701256
0.692741
0.684284
0.67584
0.667369
0.658843
0.650234
0.641526
0.632705
0.623766
0.614704
0.605523
0.596224
0.586816
0.577303
0.567698
0.558008
1.01422
0.96871
0.932203
0.90206
0.876469
0.854361
0.834956
0.817673
0.802123
0.78803
0.775181
0.763387
0.75248
0.742307
0.732734
0.723637
0.714906
0.706445
0.698167
0.689998
0.681877
0.67375
0.665575
0.657318
0.648954
0.640464
0.631837
0.623067
0.614154
0.605098
0.595906
0.586586
0.577147
0.567601
0.557958
1.03307
0.985691
0.945418
0.911096
0.881655
0.856282
0.834299
0.815131
0.798311
0.783452
0.770225
0.75834
0.747546
0.737626
0.728391
0.719679
0.711354
0.703297
0.695411
0.687611
0.679832
0.672017
0.664123
0.656116
0.647973
0.639676
0.631216
0.622588
0.613795
0.604839
0.59573
0.586476
0.577091
0.567585
0.557974
1.03941
0.990388
0.947645
0.910728
0.879004
0.851834
0.828583
0.808653
0.791497
0.776636
0.763647
0.752163
0.741868
0.732499
0.72383
0.715677
0.707882
0.700322
0.692889
0.685501
0.678086
0.670594
0.66298
0.655217
0.64728
0.639159
0.630843
0.622337
0.613639
0.604761
0.595711
0.586503
0.57715
0.567668
0.558069
1.03485
0.984181
0.939718
0.901327
0.868575
0.840865
0.817532
0.797898
0.781323
0.767231
0.755117
0.744552
0.735174
0.726685
0.718843
0.711448
0.70434
0.697392
0.6905
0.683583
0.676576
0.669432
0.662113
0.654595
0.646862
0.638904
0.63072
0.622314
0.613694
0.604872
0.59586
0.586676
0.577336
0.567857
0.558256
1.02454
0.972301
0.926587
0.887415
0.854399
0.826905
0.804178
0.785434
0.769929
0.756995
0.74606
0.736642
0.72835
0.720865
0.713935
0.707358
0.700977
0.694666
0.68833
0.681891
0.675295
0.668497
0.661468
0.654189
0.646649
0.638845
0.630781
0.622464
0.613907
0.605126
0.596139
0.586965
0.577624
0.568135
0.558518
0.54863
0.538305
0.528057
0.517873
0.507739
0.497644
0.487579
0.477535
0.467506
0.457487
0.54887
0.538523
0.528253
0.518044
0.507887
0.49777
0.487685
0.477622
0.467577
0.457543
0.549044
0.538686
0.528402
0.518179
0.508007
0.497875
0.487775
0.477699
0.467641
0.457596
0.549143
0.538789
0.528505
0.518278
0.5081
0.49796
0.487852
0.477767
0.467701
0.457648
0.549175
0.538839
0.528566
0.518346
0.50817
0.49803
0.487918
0.47783
0.467759
0.4577
0.549155
0.538849
0.528597
0.518392
0.508225
0.498091
0.487981
0.477892
0.467818
0.457756
0.549092
0.538828
0.528607
0.518424
0.508273
0.498148
0.488044
0.477957
0.467882
0.457818
0.548998
0.538784
0.528602
0.518448
0.508317
0.498205
0.488109
0.478026
0.467952
0.457885
0.548882
0.538725
0.528587
0.518466
0.508359
0.498263
0.488177
0.478099
0.468027
0.457959
0.548752
0.538657
0.528567
0.518482
0.508401
0.498323
0.488248
0.478176
0.468105
0.458036
0.54862
0.538588
0.528546
0.518497
0.508443
0.498383
0.48832
0.478254
0.468185
0.458115
0.548494
0.538522
0.528528
0.518514
0.508485
0.498443
0.488391
0.478331
0.468264
0.458193
0.548383
0.538467
0.528516
0.518535
0.508529
0.498502
0.48846
0.478404
0.468339
0.458266
0.548297
0.538429
0.528514
0.518561
0.508574
0.498561
0.488526
0.478474
0.468409
0.458334
0.548243
0.538413
0.528528
0.518595
0.508624
0.498619
0.48859
0.478539
0.468474
0.458396
0.54823
0.538428
0.528563
0.518644
0.508681
0.498681
0.488653
0.478602
0.468533
0.458453
0.548268
0.538483
0.528626
0.518714
0.508751
0.498752
0.48872
0.478665
0.468591
0.458505
0.548373
0.538587
0.528731
0.518812
0.508845
0.498836
0.488798
0.478733
0.468652
0.458556
0.54855
0.538754
0.528882
0.518949
0.508966
0.498943
0.488888
0.478811
0.468716
0.45861
0.548792
0.538973
0.529078
0.519121
0.509114
0.499069
0.488994
0.478898
0.468788
0.458667
0.447473
0.437461
0.427448
0.417434
0.407416
0.397394
0.387368
0.377337
0.367301
0.357261
0.347217
0.337169
0.327117
0.317063
0.307006
0.296947
0.286886
0.276823
0.26676
0.256695
0.246629
0.236563
0.226496
0.216429
0.206361
0.196294
0.186226
0.176158
0.166091
0.156023
0.145956
0.135888
0.125821
0.115754
0.105687
0.447517
0.437495
0.427474
0.417452
0.407429
0.397402
0.387373
0.377339
0.367301
0.35726
0.347215
0.337166
0.327114
0.31706
0.307003
0.296944
0.286883
0.276821
0.266757
0.256692
0.246627
0.236561
0.226494
0.216427
0.20636
0.196293
0.186225
0.176158
0.16609
0.156023
0.145955
0.135888
0.125821
0.115754
0.105687
0.44756
0.437529
0.427501
0.417474
0.407445
0.397414
0.387381
0.377344
0.367305
0.357262
0.347215
0.337166
0.327113
0.317059
0.307001
0.296942
0.286881
0.276819
0.266756
0.256691
0.246626
0.23656
0.226493
0.216427
0.206359
0.196292
0.186225
0.176157
0.16609
0.156023
0.145955
0.135888
0.125821
0.115754
0.105687
0.447604
0.437567
0.427532
0.417499
0.407466
0.397431
0.387394
0.377354
0.367312
0.357267
0.347219
0.337168
0.327115
0.317059
0.307002
0.296942
0.286881
0.276819
0.266755
0.25669
0.246625
0.236559
0.226493
0.216426
0.206359
0.196292
0.186224
0.176157
0.16609
0.156022
0.145955
0.135888
0.125821
0.115754
0.105687
0.447651
0.437608
0.427568
0.417529
0.407491
0.397452
0.387412
0.377369
0.367324
0.357276
0.347226
0.337174
0.327119
0.317063
0.307004
0.296944
0.286882
0.276819
0.266755
0.25669
0.246625
0.236559
0.226492
0.216425
0.206358
0.196291
0.186224
0.176157
0.166089
0.156022
0.145955
0.135888
0.125821
0.115754
0.105687
0.447702
0.437654
0.427609
0.417566
0.407523
0.397479
0.387435
0.377388
0.36734
0.357289
0.347237
0.337182
0.327126
0.317068
0.307008
0.296946
0.286884
0.27682
0.266756
0.256691
0.246625
0.236559
0.226492
0.216425
0.206358
0.196291
0.186224
0.176156
0.166089
0.156022
0.145954
0.135887
0.125821
0.115754
0.105687
0.44776
0.437707
0.427657
0.417608
0.40756
0.397512
0.387463
0.377412
0.36736
0.357306
0.34725
0.337193
0.327134
0.317074
0.307013
0.29695
0.286887
0.276822
0.266757
0.256692
0.246626
0.236559
0.226492
0.216425
0.206358
0.196291
0.186223
0.176156
0.166089
0.156021
0.145954
0.135887
0.12582
0.115754
0.105687
0.447824
0.437767
0.427711
0.417657
0.407604
0.39755
0.387495
0.37744
0.367383
0.357325
0.347266
0.337206
0.327145
0.317083
0.307019
0.296955
0.286891
0.276825
0.266759
0.256693
0.246626
0.236559
0.226492
0.216425
0.206358
0.19629
0.186223
0.176155
0.166088
0.156021
0.145954
0.135887
0.12582
0.115753
0.105687
0.447894
0.437832
0.427771
0.417711
0.407651
0.397592
0.387531
0.377471
0.367409
0.357347
0.347284
0.337221
0.327157
0.317092
0.307027
0.296961
0.286895
0.276828
0.266761
0.256694
0.246627
0.23656
0.226492
0.216425
0.206357
0.19629
0.186222
0.176155
0.166088
0.156021
0.145954
0.135887
0.12582
0.115753
0.105687
0.447968
0.437901
0.427835
0.417768
0.407702
0.397636
0.38757
0.377504
0.367437
0.357371
0.347304
0.337237
0.327169
0.317102
0.307035
0.296967
0.286899
0.276832
0.266764
0.256696
0.246628
0.23656
0.226492
0.216425
0.206357
0.196289
0.186222
0.176155
0.166087
0.15602
0.145953
0.135886
0.125819
0.115753
0.105686
0.448044
0.437972
0.4279
0.417827
0.407754
0.397682
0.38761
0.377538
0.367466
0.357395
0.347324
0.337253
0.327182
0.317112
0.307043
0.296973
0.286904
0.276835
0.266766
0.256698
0.246629
0.236561
0.226493
0.216425
0.206357
0.196289
0.186222
0.176154
0.166087
0.15602
0.145953
0.135886
0.125819
0.115753
0.105686
0.448118
0.438041
0.427963
0.417884
0.407805
0.397727
0.387648
0.377571
0.367494
0.357418
0.347343
0.337269
0.327195
0.317123
0.307051
0.296979
0.286909
0.276838
0.266769
0.256699
0.24663
0.236561
0.226493
0.216425
0.206357
0.196289
0.186221
0.176154
0.166086
0.156019
0.145952
0.135886
0.125819
0.115752
0.105686
0.448188
0.438107
0.428023
0.417938
0.407853
0.397769
0.387685
0.377602
0.36752
0.35744
0.347361
0.337283
0.327207
0.317132
0.307058
0.296985
0.286913
0.276841
0.266771
0.256701
0.246631
0.236562
0.226493
0.216425
0.206356
0.196288
0.186221
0.176153
0.166086
0.156019
0.145952
0.135885
0.125819
0.115752
0.105686
0.448253
0.438167
0.428078
0.417987
0.407897
0.397806
0.387717
0.37763
0.367544
0.357459
0.347377
0.337297
0.327218
0.31714
0.307064
0.29699
0.286916
0.276844
0.266772
0.256702
0.246632
0.236562
0.226493
0.216425
0.206356
0.196288
0.18622
0.176153
0.166086
0.156019
0.145952
0.135885
0.125818
0.115752
0.105686
0.448311
0.43822
0.428126
0.41803
0.407935
0.397839
0.387746
0.377653
0.367564
0.357476
0.347391
0.337307
0.327227
0.317147
0.30707
0.296994
0.28692
0.276846
0.266774
0.256702
0.246632
0.236562
0.226493
0.216424
0.206356
0.196288
0.18622
0.176152
0.166086
0.156018
0.145952
0.135884
0.125818
0.115752
0.105686
0.448362
0.438267
0.428167
0.418067
0.407966
0.397867
0.387768
0.377673
0.36758
0.357489
0.347401
0.337316
0.327233
0.317152
0.307073
0.296997
0.286921
0.276848
0.266775
0.256703
0.246632
0.236562
0.226493
0.216424
0.206355
0.196288
0.18622
0.176152
0.166085
0.156018
0.145951
0.135885
0.125818
0.115752
0.105685
0.448409
0.438308
0.428203
0.418098
0.407991
0.397889
0.387786
0.377688
0.367591
0.357499
0.347408
0.337322
0.327237
0.317156
0.307075
0.296999
0.286922
0.276848
0.266775
0.256704
0.246632
0.236562
0.226492
0.216424
0.206355
0.196288
0.186219
0.176152
0.166084
0.156018
0.145951
0.135885
0.125818
0.115752
0.105685
0.448454
0.438344
0.428235
0.418122
0.408013
0.397904
0.3878
0.377697
0.3676
0.357504
0.347413
0.337324
0.32724
0.317156
0.307077
0.296998
0.286923
0.276847
0.266775
0.256702
0.246632
0.236561
0.226492
0.216422
0.206355
0.196286
0.18622
0.176151
0.166085
0.156017
0.145951
0.135884
0.125818
0.115751
0.105686
0.448497
0.43838
0.428262
0.418145
0.408029
0.397917
0.387808
0.377704
0.367603
0.357506
0.347413
0.337324
0.327238
0.317155
0.307075
0.296997
0.28692
0.276846
0.266773
0.256701
0.24663
0.23656
0.226491
0.216422
0.206354
0.196286
0.186218
0.176151
0.166084
0.156017
0.14595
0.135884
0.125817
0.115751
0.105685
0.448542
0.438415
0.428288
0.418163
0.408042
0.397925
0.387813
0.377705
0.367603
0.357505
0.347411
0.337321
0.327235
0.317152
0.307071
0.296993
0.286917
0.276843
0.26677
0.256699
0.246628
0.236558
0.226489
0.216421
0.206353
0.196285
0.186218
0.176151
0.166084
0.156017
0.14595
0.135884
0.125817
0.115751
0.105685
0.0956199
0.085553
0.0754862
0.0654198
0.0553537
0.0452863
0.0352188
0.0251558
0.0150858
0.00501653
0.09562
0.0855531
0.0754866
0.0654211
0.0553539
0.0452813
0.0352173
0.025179
0.0150801
0.00498263
0.0956206
0.0855539
0.0754881
0.0654236
0.0553567
0.0452822
0.0352194
0.0251953
0.0150858
0.00498372
0.0956205
0.0855539
0.0754882
0.0654238
0.0553563
0.0452809
0.0352197
0.0251963
0.015077
0.00498282
0.0956204
0.0855538
0.0754883
0.0654238
0.055356
0.0452803
0.035221
0.0251997
0.015065
0.00498235
0.0956204
0.0855539
0.0754884
0.0654237
0.0553554
0.0452801
0.0352243
0.0252029
0.015055
0.00498424
0.0956203
0.0855539
0.0754885
0.0654236
0.0553548
0.0452796
0.0352256
0.025206
0.0150455
0.0049865
0.0956202
0.0855538
0.0754884
0.0654233
0.055354
0.0452789
0.035227
0.025207
0.0150369
0.0049885
0.09562
0.0855537
0.0754882
0.065423
0.0553534
0.0452784
0.0352274
0.0252077
0.0150308
0.00499022
0.0956198
0.0855535
0.0754881
0.0654228
0.0553531
0.0452781
0.035228
0.0252081
0.0150276
0.00499154
0.0956196
0.0855534
0.075488
0.0654228
0.0553531
0.0452783
0.0352282
0.0252079
0.0150281
0.00499245
0.0956195
0.0855533
0.075488
0.065423
0.0553534
0.0452786
0.035228
0.0252083
0.0150318
0.00499271
0.0956194
0.0855533
0.0754881
0.0654232
0.055354
0.0452794
0.0352281
0.0252072
0.0150388
0.00499251
0.0956194
0.0855532
0.0754882
0.0654235
0.0553549
0.04528
0.035227
0.0252069
0.0150478
0.00499159
0.0956191
0.0855535
0.075488
0.065424
0.0553553
0.0452812
0.035226
0.0252039
0.0150579
0.00499014
0.0956194
0.0855531
0.0754882
0.0654238
0.0553563
0.0452815
0.035223
0.0252011
0.0150682
0.0049885
0.0956197
0.0855528
0.0754885
0.0654235
0.0553573
0.0452819
0.035222
0.0251976
0.0150803
0.00498895
0.0956188
0.0855537
0.0754874
0.0654245
0.0553573
0.0452841
0.0352209
0.0251973
0.0150897
0.00498935
0.0956189
0.0855524
0.0754869
0.0654222
0.0553557
0.0452827
0.0352193
0.025182
0.0150841
0.00498724
0.0956188
0.0855525
0.0754865
0.065421
0.0553555
0.0452885
0.035222
0.0251588
0.0150891
0.00501936
)
;

boundaryField
{
    inlet
    {
        type            zeroGradient;
    }
    outlet
    {
        type            fixedValue;
        value           uniform 0;
    }
    upperWall
    {
        type            zeroGradient;
    }
    lowerWall
    {
        type            zeroGradient;
    }
    frontAndBack
    {
        type            empty;
    }
}


// ************************************************************************* //
