/*--------------------------------*- C++ -*----------------------------------*\
| =========                 |                                                 |
| \\      /  F ield         | OpenFOAM: The Open Source CFD Toolbox           |
|  \\    /   O peration     | Version:  2406                                  |
|   \\  /    A nd           | Website:  www.openfoam.com                      |
|    \\/     M anipulation  |                                                 |
\*---------------------------------------------------------------------------*/
FoamFile
{
    version     2.0;
    format      ascii;
    arch        "LSB;label=32;scalar=64";
    class       volScalarField;
    location    "91";
    object      p;
}
// * * * * * * * * * * * * * * * * * * * * * * * * * * * * * * * * * * * * * //

dimensions      [0 2 -2 0 0 0 0];

internalField   nonuniform List<scalar> 
1964
(
14.1047
14.1035
14.1002
14.0953
14.0894
14.0826
14.0752
14.0673
14.059
14.0503
14.0414
14.0324
14.0232
14.0138
14.0043
13.9947
13.9851
13.9753
13.9654
13.9554
13.9453
13.9351
13.9247
13.914
13.9031
13.8919
13.8802
13.8679
13.8548
13.8407
13.8252
13.8079
13.788
13.7647
13.7366
13.7018
13.6574
13.599
13.5204
13.4116
13.2582
13.0385
12.722
12.2673
11.6245
10.7406
9.57896
14.1116
14.1063
14.1008
14.0954
14.0895
14.0826
14.075
14.0671
14.0587
14.0501
14.0413
14.0322
14.023
14.0137
14.0042
13.9947
13.985
13.9753
13.9654
13.9555
13.9454
13.9352
13.9249
13.9143
13.9035
13.8923
13.8808
13.8687
13.8559
13.8422
13.8273
13.8106
13.7917
13.7697
13.7433
13.7107
13.6692
13.6145
13.5404
13.4368
13.2887
13.0731
12.7569
12.294
11.627
10.691
9.44578
14.1174
14.1084
14.1004
14.0947
14.0888
14.082
14.0744
14.0665
14.0583
14.0498
14.041
14.032
14.0229
14.0136
14.0042
13.9947
13.9851
13.9755
13.9657
13.9559
13.946
13.936
13.9259
13.9157
13.9054
13.8949
13.8842
13.8732
13.8619
13.8501
13.8377
13.8244
13.8099
13.7936
13.7746
13.7516
13.7222
13.6827
13.6266
13.5436
13.4169
13.2202
12.9142
12.4413
11.7285
10.6737
9.21643
14.1221
14.1113
14.1015
14.095
14.0889
14.0818
14.0741
14.0661
14.0578
14.0494
14.0407
14.0317
14.0227
14.0135
14.0042
13.9948
13.9854
13.9759
13.9664
13.9569
13.9473
13.9378
13.9283
13.919
13.9097
13.9006
13.8917
13.8831
13.8749
13.8672
13.8602
13.854
13.8486
13.8443
13.8408
13.8377
13.8336
13.8255
13.8077
13.7694
13.6916
13.5421
13.2691
12.7967
12.0276
10.8059
9.07991
14.1258
14.1142
14.1031
14.0956
14.089
14.0818
14.0738
14.0656
14.0574
14.049
14.0403
14.0315
14.0225
14.0134
14.0043
13.9951
13.9859
13.9766
13.9675
13.9584
13.9494
13.9406
13.932
13.9239
13.9162
13.9092
13.9031
13.8981
13.8947
13.8932
13.8943
13.8988
13.9074
13.9212
13.9413
13.9685
14.0034
14.0449
14.0894
14.1274
14.139
14.0862
13.8945
13.4514
12.553
10.98
8.68383
14.1289
14.1168
14.1047
14.0964
14.0894
14.0819
14.0737
14.0654
14.0571
14.0487
14.0401
14.0313
14.0224
14.0135
14.0045
13.9955
13.9865
13.9776
13.9689
13.9603
13.952
13.9441
13.9367
13.9301
13.9244
13.9201
13.9174
13.9169
13.9194
13.9257
13.937
13.9548
13.9809
14.0175
14.0674
14.1336
14.2191
14.3266
14.4566
14.6051
14.7575
14.8801
14.8864
14.6301
13.6653
11.5801
6.96625
14.1313
14.1189
14.1063
14.0973
14.0899
14.0821
14.0737
14.0653
14.0569
14.0485
14.0399
14.0312
14.0224
14.0136
14.0047
13.996
13.9872
13.9787
13.9704
13.9624
13.9548
13.9478
13.9417
13.9367
13.9332
13.9317
13.9327
13.9371
13.9459
13.9606
13.9828
14.0149
14.0599
14.1212
14.2037
14.3128
14.455
14.6377
14.8679
15.1512
15.4867
15.8616
16.2219
16.468
16.1536
14.7121
7.23245
14.133
14.1205
14.1075
14.0981
14.0904
14.0824
14.0738
14.0653
14.0568
14.0483
14.0398
14.0311
14.0224
14.0137
14.005
13.9964
13.9879
13.9797
13.9718
13.9643
13.9574
13.9513
13.9464
13.9429
13.9413
13.9424
13.9468
13.9557
13.9705
13.9928
14.0252
14.0706
14.1331
14.2176
14.3307
14.4804
14.6769
14.9326
15.262
15.6814
16.2069
16.8516
17.6119
18.4664
19.2697
19.9091
18.6458
14.1341
14.1215
14.1083
14.0987
14.0908
14.0825
14.0739
14.0652
14.0567
14.0482
14.0397
14.031
14.0224
14.0138
14.0052
13.9967
13.9885
13.9804
13.9728
13.9658
13.9594
13.954
13.9499
13.9476
13.9476
13.9506
13.9577
13.97
13.9893
14.0175
14.0577
14.1134
14.1894
14.2919
14.4287
14.6102
14.8495
15.163
15.5715
16.1004
16.7794
17.6405
18.71
19.9962
21.4312
22.8461
23.6737
14.1347
14.122
14.1087
14.099
14.0909
14.0826
14.0739
14.0652
14.0567
14.0482
14.0396
14.031
14.0224
14.0138
14.0053
13.9969
13.9887
13.9808
13.9734
13.9665
13.9605
13.9554
13.9518
13.9501
13.9509
13.9551
13.9635
13.9777
13.9994
14.0309
14.0753
14.1366
14.22
14.3322
14.482
14.6809
14.9435
15.2888
15.7408
16.3298
17.092
18.0688
19.2982
20.7989
22.513
24.2463
25.3936
14.1346
14.122
14.1087
14.099
14.0909
14.0826
14.0739
14.0652
14.0566
14.0481
14.0396
14.031
14.0224
14.0138
14.0053
13.9969
13.9887
13.9808
13.9734
13.9665
13.9604
13.9554
13.9518
13.9501
13.9509
13.955
13.9635
13.9777
13.9994
14.0309
14.0753
14.1365
14.2199
14.3321
14.482
14.6808
14.9434
15.2887
15.7406
16.3295
17.0917
18.0684
19.2975
20.798
22.512
24.2451
25.3923
14.134
14.1214
14.1082
14.0986
14.0907
14.0824
14.0738
14.0651
14.0566
14.0481
14.0396
14.0309
14.0223
14.0137
14.0051
13.9966
13.9883
13.9803
13.9727
13.9656
13.9593
13.9539
13.9498
13.9474
13.9474
13.9505
13.9575
13.9699
13.9891
14.0174
14.0575
14.1132
14.1892
14.2916
14.4285
14.61
14.8491
15.1625
15.5709
16.0997
16.7783
17.639
18.708
19.9935
21.4276
22.8414
23.6676
14.1328
14.1203
14.1073
14.098
14.0902
14.0822
14.0737
14.0651
14.0566
14.0482
14.0396
14.0309
14.0222
14.0135
14.0048
13.9962
13.9877
13.9795
13.9716
13.9641
13.9572
13.9511
13.9461
13.9426
13.9411
13.9422
13.9466
13.9555
13.9702
13.9925
14.0249
14.0703
14.1328
14.2173
14.3303
14.48
14.6764
14.9319
15.2611
15.6802
16.2053
16.8493
17.6086
18.4617
19.2628
19.8996
18.6276
14.131
14.1186
14.106
14.0971
14.0897
14.0819
14.0735
14.0651
14.0567
14.0482
14.0397
14.0309
14.0221
14.0133
14.0045
13.9957
13.987
13.9784
13.9701
13.9621
13.9545
13.9476
13.9414
13.9364
13.9329
13.9314
13.9324
13.9368
13.9456
13.9602
13.9824
14.0145
14.0594
14.1208
14.2032
14.3122
14.4543
14.6368
14.8668
15.1498
15.4846
15.8586
16.2175
16.4614
16.1424
14.6926
7.18138
14.1286
14.1165
14.1045
14.0962
14.0892
14.0816
14.0735
14.0652
14.0568
14.0484
14.0398
14.031
14.0221
14.0132
14.0042
13.9952
13.9862
13.9773
13.9685
13.96
13.9517
13.9437
13.9364
13.9297
13.9241
13.9197
13.917
13.9165
13.919
13.9253
13.9366
13.9543
13.9804
14.017
14.0668
14.1329
14.2184
14.3257
14.4554
14.6036
14.7553
14.877
14.8817
14.6228
13.6533
11.56
6.931
14.1255
14.1139
14.1028
14.0953
14.0887
14.0814
14.0735
14.0653
14.0571
14.0487
14.04
14.0312
14.0222
14.0131
14.004
13.9948
13.9855
13.9763
13.9671
13.958
13.949
13.9402
13.9317
13.9235
13.9158
13.9088
13.9027
13.8977
13.8942
13.8927
13.8938
13.8982
13.9068
13.9206
13.9406
13.9678
14.0026
14.044
14.0882
14.1259
14.1369
14.0834
13.8905
13.4455
12.5446
10.968
8.66845
14.1217
14.111
14.1012
14.0946
14.0886
14.0815
14.0738
14.0657
14.0575
14.0491
14.0403
14.0314
14.0223
14.0131
14.0039
13.9945
13.985
13.9756
13.966
13.9565
13.9469
13.9374
13.9279
13.9185
13.9092
13.9001
13.8912
13.8826
13.8744
13.8667
13.8596
13.8534
13.848
13.8437
13.8402
13.837
13.8327
13.8245
13.8065
13.768
13.6898
13.5398
13.2661
12.7928
12.0229
10.8005
9.07479
14.1171
14.1081
14.1001
14.0943
14.0885
14.0816
14.0741
14.0662
14.0579
14.0494
14.0407
14.0317
14.0225
14.0132
14.0039
13.9944
13.9848
13.9751
13.9653
13.9555
13.9456
13.9356
13.9255
13.9153
13.905
13.8945
13.8837
13.8727
13.8614
13.8496
13.8371
13.8238
13.8092
13.7929
13.7739
13.7508
13.7214
13.6817
13.6255
13.5424
13.4154
13.2185
12.9121
12.439
11.7263
10.6723
9.2174
14.1112
14.1059
14.1004
14.0951
14.0891
14.0822
14.0747
14.0667
14.0584
14.0498
14.0409
14.0319
14.0227
14.0133
14.0039
13.9943
13.9847
13.9749
13.9651
13.9551
13.945
13.9348
13.9244
13.9138
13.903
13.8919
13.8803
13.8682
13.8554
13.8417
13.8267
13.81
13.7911
13.769
13.7425
13.7099
13.6683
13.6136
13.5393
13.4356
13.2873
13.0716
12.7554
12.2926
11.6263
10.692
9.45048
14.1043
14.1031
14.0998
14.0949
14.089
14.0823
14.0749
14.0669
14.0586
14.05
14.0411
14.032
14.0228
14.0135
14.004
13.9944
13.9847
13.9749
13.965
13.9551
13.9449
13.9347
13.9243
13.9136
13.9027
13.8914
13.8797
13.8674
13.8543
13.8401
13.8246
13.8072
13.7874
13.764
13.7359
13.701
13.6565
13.5981
13.5193
13.4104
13.2569
13.0371
12.7206
12.2662
11.6243
10.7425
9.58508
8.14205
6.50138
4.81345
3.24137
1.86811
0.709085
7.89483
6.14081
4.39791
2.83291
1.4898
0.362189
7.32159
5.23046
3.36611
1.84532
0.590766
-0.432999
6.51382
3.66621
1.55658
0.111281
-0.997056
-1.8175
4.61398
0.559339
-1.72917
-2.84708
-3.50389
-3.79665
-1.30001
-4.85005
-5.70204
-5.5796
-5.17805
-4.58905
-8.49708
-7.25132
-6.26202
-6.07485
-5.67788
-5.08382
-8.6161
-7.35852
-6.36254
-6.17432
-5.76484
-5.14038
-1.36556
-4.93249
-5.80121
-5.68544
-5.269
-4.63981
4.59184
0.53013
-1.76298
-2.87731
-3.51913
-3.7905
6.50987
3.66666
1.56712
0.139031
-0.944912
-1.73642
7.32746
5.24581
3.39728
1.89992
0.676903
-0.307871
7.9066
6.16475
4.4412
2.90445
1.59974
0.521049
8.15604
6.52884
4.86219
3.32133
1.99146
0.889892
-0.238469
-0.993069
-1.59974
-2.09838
-2.50302
-2.81849
-3.05229
-3.21462
-3.31608
-3.36793
-3.38238
-3.37138
-3.34445
-3.30659
-3.25731
-3.19145
-3.10172
-2.98226
-2.83184
-2.655
-2.4611
-2.26148
-2.06617
-1.88194
-1.71094
-1.55186
-1.40174
-1.25755
-1.11606
-0.974028
-0.829506
-0.682105
-0.532672
-0.382956
-0.235691
-0.0944294
0.0367673
0.153643
0.252069
0.328321
0.379305
0.402521
0.396561
0.35907
0.293884
0.185437
0.100269
-0.56435
-1.31847
-1.92925
-2.41845
-2.80394
-3.09947
-3.31658
-3.46354
-3.5468
-3.57457
-3.55823
-3.51112
-3.44539
-3.36923
-3.28498
-3.18939
-3.07601
-2.93912
-2.77761
-2.59631
-2.40381
-2.21002
-2.02477
-1.85299
-1.69391
-1.54447
-1.40136
-1.26247
-1.12503
-0.985155
-0.841107
-0.693375
-0.543586
-0.393796
-0.246656
-0.105716
0.0249327
0.141041
0.238527
0.313724
0.363644
0.385803
0.379126
0.340163
0.275906
0.156588
0.107542
-1.23854
-1.87855
-2.41173
-2.86585
-3.24815
-3.56374
-3.81767
-4.00933
-4.13485
-4.19208
-4.18328
-4.11475
-3.99532
-3.83456
-3.64182
-3.42591
-3.19528
-2.95825
-2.72302
-2.49705
-2.28602
-2.09309
-1.91877
-1.76048
-1.61392
-1.47495
-1.34043
-1.20742
-1.07497
-0.941697
-0.804174
-0.662272
-0.51791
-0.373665
-0.23263
-0.0985185
0.0246202
0.132771
0.222225
0.28977
0.332888
0.349598
0.339248
0.298948
0.236369
0.123151
0.0960532
-2.37291
-2.78802
-3.15831
-3.5039
-3.82789
-4.13486
-4.41516
-4.64923
-4.81839
-4.91073
-4.92148
-4.85095
-4.70257
-4.48146
-4.19494
-3.85421
-3.47577
-3.0808
-2.69232
-2.33119
-2.01235
-1.74279
-1.52193
-1.3434
-1.1978
-1.0751
-0.966276
-0.86385
-0.761797
-0.657706
-0.550746
-0.440197
-0.327177
-0.214081
-0.104006
-0.000414151
0.0932053
0.173594
0.237881
0.283679
0.309197
0.313245
0.295528
0.255524
0.197347
0.112179
0.0605136
-3.87869
-3.99062
-4.15521
-4.34414
-4.56772
-4.83697
-5.12971
-5.40432
-5.62096
-5.75194
-5.78342
-5.71067
-5.53259
-5.24904
-4.86272
-4.38345
-3.8315
-3.23743
-2.63828
-2.07122
-1.56675
-1.14407
-0.809791
-0.559723
-0.382081
-0.26136
-0.181189
-0.126408
-0.0840812
-0.0457815
-0.00848685
0.0299407
0.0709788
0.114469
0.158684
0.201094
0.239031
0.270015
0.29186
0.302753
0.3013
0.286734
0.258675
0.218712
0.165673
0.113625
0.0191786
-4.10777
-4.06995
-4.23102
-4.45222
-4.7197
-5.04184
-5.39586
-5.73749
-6.02349
-6.22051
-6.30849
-6.2792
-6.12641
-5.84024
-5.41196
-4.84317
-4.15266
-3.37781
-2.56987
-1.78453
-1.07132
-0.465533
0.014771
0.367318
0.602006
0.736491
0.792722
0.79388
0.761225
0.711586
0.655284
0.598669
0.546881
0.502569
0.465834
0.43532
0.40911
0.385154
0.361441
0.33613
0.307605
0.274743
0.236521
0.194317
0.144803
0.107337
0.00618042
-4.36181
-4.16847
-4.24592
-4.44139
-4.71275
-5.05362
-5.43454
-5.8056
-6.11791
-6.33845
-6.45111
-6.45055
-6.32952
-6.07043
-5.65147
-5.06041
-4.30634
-3.42503
-2.47526
-1.5275
-0.649318
0.108008
0.714618
1.16055
1.45122
1.60277
1.64032
1.59417
1.49398
1.36327
1.2193
1.07428
0.937327
0.813684
0.705494
0.612856
0.534503
0.46828
0.411563
0.361603
0.315778
0.271742
0.227599
0.182003
0.134559
0.08644
0.0292429
-4.15365
-4.15376
-4.26143
-4.45826
-4.74073
-5.09728
-5.49495
-5.88154
-6.20258
-6.42034
-6.52392
-6.51653
-6.39261
-6.13237
-5.70978
-5.10599
-4.32305
-3.39215
-2.37224
-1.33917
-0.369321
0.475371
1.15459
1.65275
1.97289
2.12857
2.14638
2.06241
1.91426
1.73091
1.53185
1.33349
1.14621
0.97608
0.826451
0.698388
0.590893
0.50151
0.427028
0.364019
0.309218
0.259467
0.212512
0.164197
0.118468
0.0525432
0.0539002
-3.97942
-4.04765
-4.19386
-4.40825
-4.69792
-5.05677
-5.45624
-5.84738
-6.17482
-6.3974
-6.50133
-6.49149
-6.36285
-6.09458
-5.66079
-5.04326
-4.2446
-3.29654
-2.25942
-1.21256
-0.231518
0.63178
1.33449
1.85203
2.18157
2.33407
2.33656
2.2267
2.04121
1.81671
1.5849
1.36334
1.15988
0.978652
0.821853
0.689539
0.57974
0.489179
0.414092
0.350789
0.295961
0.24652
0.20028
0.152562
0.108263
0.0360788
0.0628566
-3.882
-3.96383
-4.1302
-4.36062
-4.64694
-4.97708
-5.3301
-5.67489
-5.97509
-6.1981
-6.32155
-6.3318
-6.2175
-5.96072
-5.53951
-4.93936
-4.16316
-3.2388
-2.22115
-1.18631
-0.213757
0.629899
1.30106
1.80698
2.13968
2.29045
2.29287
2.18701
2.00999
1.79567
1.5716
1.35382
1.15066
0.967234
0.806543
0.669336
0.554279
0.458697
0.37937
0.313086
0.256888
0.208095
0.164394
0.122696
0.0836779
0.0321705
0.0355487
-3.92626
-4.0155
-4.20086
-4.44933
-4.73658
-5.03999
-5.34047
-5.6213
-5.86725
-6.06462
-6.19993
-6.25556
-6.20437
-6.00743
-5.62955
-5.06069
-4.30772
-3.3978
-2.39418
-1.37797
-0.41199
0.447935
1.14199
1.64854
1.96959
2.1189
2.12481
2.02309
1.8498
1.63769
1.41332
1.19462
0.992178
0.81194
0.656654
0.52651
0.419743
0.333423
0.264207
0.20886
0.164441
0.128613
0.0988684
0.0750612
0.0510451
0.0410959
-0.0116051
-4.07957
-4.15972
-4.34592
-4.59824
-4.88345
-5.17271
-5.44839
-5.70138
-5.92576
-6.11494
-6.25813
-6.33313
-6.30235
-6.11456
-5.73823
-5.18614
-4.46343
-3.58504
-2.60986
-1.61547
-0.675127
0.148715
0.806391
1.27813
1.56999
1.69941
1.69422
1.59056
1.42515
1.2297
1.0285
0.837706
0.666356
0.518571
0.395338
0.295579
0.216904
0.156266
0.110512
0.0767756
0.0525288
0.0360864
0.0251436
0.0220423
0.0158363
0.042323
-0.0494585
-4.2408
-4.24581
-4.40058
-4.64564
-4.92763
-5.21308
-5.48411
-5.73145
-5.94919
-6.13055
-6.26649
-6.33701
-6.30776
-6.13291
-5.77891
-5.24055
-4.5299
-3.67922
-2.74844
-1.81403
-0.948783
-0.20942
0.36631
0.764764
0.995617
1.08314
1.05997
0.961967
0.822254
0.667302
0.515767
0.378967
0.262365
0.167478
0.0934749
0.0382316
-0.00100232
-0.0271058
-0.0427631
-0.0502297
-0.0514107
-0.0473998
-0.0400214
-0.0264235
-0.0173639
0.0240553
-0.0566928
-4.39619
-4.20952
-4.33695
-4.58447
-4.86048
-5.14105
-5.41091
-5.6586
-5.87633
-6.05579
-6.18275
-6.23302
-6.17284
-5.96517
-5.58459
-5.0322
-4.33354
-3.53166
-2.68632
-1.8666
-1.13505
-0.535786
-0.0911365
0.198518
0.351383
0.396652
0.367062
0.293601
0.20169
0.109312
0.0272173
-0.0395503
-0.0897557
-0.12437
-0.14546
-0.155493
-0.156911
-0.151861
-0.142078
-0.128842
-0.113146
-0.0954446
-0.0768094
-0.0552982
-0.0378768
-0.00133196
-0.0390757
-4.11319
-4.07843
-4.30103
-4.57854
-4.84724
-5.10967
-5.36004
-5.58312
-5.76363
-5.88946
-5.94528
-5.90977
-5.7587
-5.47149
-5.04035
-4.47809
-3.81697
-3.10289
-2.3906
-1.73575
-1.18286
-0.756463
-0.459854
-0.27931
-0.190649
-0.166119
-0.179596
-0.20967
-0.241332
-0.266261
-0.281498
-0.287209
-0.28479
-0.275886
-0.262068
-0.244748
-0.225115
-0.204076
-0.182236
-0.159928
-0.137346
-0.114489
-0.0917602
-0.0683858
-0.0475604
-0.0198128
-0.0208564
-3.8575
-3.97915
-4.16884
-4.36632
-4.56261
-4.76058
-4.94348
-5.08705
-5.17707
-5.20526
-5.16208
-5.03539
-4.81383
-4.49117
-4.07095
-3.57015
-3.01915
-2.45765
-1.9286
-1.47021
-1.10704
-0.84503
-0.673363
-0.571005
-0.514511
-0.484168
-0.466216
-0.451876
-0.435996
-0.416617
-0.394218
-0.370085
-0.345195
-0.320002
-0.294654
-0.269239
-0.24389
-0.218745
-0.193889
-0.169305
-0.144934
-0.120682
-0.0966738
-0.0728583
-0.0504723
-0.0273029
-0.0131687
-2.26276
-2.65227
-2.99459
-3.30247
-3.57203
-3.79613
-3.96659
-4.07703
-4.12558
-4.11192
-4.03416
-3.88892
-3.67361
-3.38918
-3.04321
-2.65257
-2.24381
-1.84944
-1.50041
-1.2172
-1.00457
-0.854336
-0.752204
-0.682316
-0.630694
-0.588167
-0.550235
-0.515119
-0.481626
-0.449082
-0.417648
-0.387386
-0.358066
-0.329468
-0.301484
-0.274112
-0.247397
-0.221364
-0.195967
-0.171085
-0.146573
-0.122325
-0.0983458
-0.074712
-0.0519747
-0.030785
-0.0127468
-1.06937
-1.66065
-2.14121
-2.53237
-2.83182
-3.04384
-3.17795
-3.24223
-3.24289
-3.18614
-3.07871
-2.92727
-2.73783
-2.51564
-2.2662
-1.9977
-1.72401
-1.46594
-1.24605
-1.07693
-0.953557
-0.860571
-0.784281
-0.718089
-0.661803
-0.614877
-0.573203
-0.53324
-0.494144
-0.45673
-0.421816
-0.389574
-0.359449
-0.330721
-0.302868
-0.275638
-0.248977
-0.222897
-0.197397
-0.172415
-0.147872
-0.123708
-0.09989
-0.0764158
-0.0537758
-0.0332674
-0.0137119
-0.35101
-1.04147
-1.57205
-1.96522
-2.23777
-2.40702
-2.4916
-2.50904
-2.47602
-2.40974
-2.32663
-2.23871
-2.15002
-2.05531
-1.94267
-1.80056
-1.62564
-1.42853
-1.23802
-1.08441
-0.974737
-0.893492
-0.820899
-0.749739
-0.683035
-0.625648
-0.577726
-0.535873
-0.496966
-0.459959
-0.425114
-0.392522
-0.361825
-0.332544
-0.304292
-0.276831
-0.25004
-0.223861
-0.198259
-0.173205
-0.148679
-0.124673
-0.10116
-0.0781346
-0.0559315
-0.0351158
-0.0137743
0.0187243
-0.650975
-1.17354
-1.57823
-1.87399
-2.07033
-2.18329
-2.23181
-2.23488
-2.21033
-2.1731
-2.13226
-2.08862
-2.03455
-1.95719
-1.84452
-1.69297
-1.51251
-1.32312
-1.15065
-1.01234
-0.908622
-0.826928
-0.754633
-0.689227
-0.632273
-0.583033
-0.539338
-0.499297
-0.461985
-0.427099
-0.394364
-0.363394
-0.333802
-0.305281
-0.277623
-0.250701
-0.224433
-0.198765
-0.173668
-0.149143
-0.125213
-0.101865
-0.0790975
-0.0571247
-0.0359657
-0.0136391
)
;

boundaryField
{
    inlet
    {
        type            zeroGradient;
    }
    outlet
    {
        type            fixedValue;
        value           uniform 0;
    }
    upperWall
    {
        type            zeroGradient;
    }
    lowerWall
    {
        type            zeroGradient;
    }
    frontAndBack
    {
        type            empty;
    }
}


// ************************************************************************* //
