/*--------------------------------*- C++ -*----------------------------------*\
| =========                 |                                                 |
| \\      /  F ield         | OpenFOAM: The Open Source CFD Toolbox           |
|  \\    /   O peration     | Version:  2406                                  |
|   \\  /    A nd           | Website:  www.openfoam.com                      |
|    \\/     M anipulation  |                                                 |
\*---------------------------------------------------------------------------*/
FoamFile
{
    version     2.0;
    format      ascii;
    arch        "LSB;label=32;scalar=64";
    class       surfaceScalarField;
    location    "91";
    object      phi;
}
// * * * * * * * * * * * * * * * * * * * * * * * * * * * * * * * * * * * * * //

dimensions      [0 3 -1 0 0 0 0];

oriented        oriented;

internalField   nonuniform List<scalar> 
3796
(
0.0491482
-0.000398074
0.0496573
-0.00050889
0.0501075
-0.000449988
0.0504864
-0.000378632
0.0508057
-0.000319002
0.051072
-0.000266059
0.0512913
-0.000219125
0.0514717
-0.000180143
0.0516213
-0.000149361
0.0517471
-0.000125458
0.0518543
-0.000106954
0.0519474
-9.27126e-05
0.0520297
-8.19894e-05
0.0521043
-7.42286e-05
0.0521738
-6.90835e-05
0.0522405
-6.63027e-05
0.0523068
-6.58551e-05
0.0523752
-6.78268e-05
0.0524482
-7.25609e-05
0.0525293
-8.05258e-05
0.0526224
-9.25051e-05
0.0527326
-0.000109489
0.0528662
-0.000132945
0.0530317
-0.000164732
0.05324
-0.000207474
0.0535054
-0.000264519
0.0538467
-0.000340484
0.0542891
-0.000441338
0.0548654
-0.000575223
0.0556193
-0.00075277
0.0566089
-0.000988376
0.0579112
-0.00130092
0.0596284
-0.00171571
0.0618957
-0.00226571
0.0648916
-0.00299417
0.0688495
-0.00395598
0.0740712
-0.00521969
0.0809402
-0.00686682
0.0899314
-0.00898897
0.101613
-0.0116789
0.11663
-0.0150142
0.135658
-0.0190261
0.159329
-0.0236679
0.188039
-0.0287077
0.221818
-0.0337756
0.259891
-0.0380706
-0.0407108
0.300603
0.138538
-0.000186146
0.138409
-0.000379842
0.13838
-0.000420108
0.138411
-0.000409842
0.138482
-0.000389597
0.138579
-0.000362145
0.138689
-0.000329133
0.138805
-0.000295638
0.138921
-0.000265198
0.139035
-0.000238843
0.139145
-0.000216479
0.13925
-0.000197912
0.139352
-0.000183029
0.13945
-0.000171839
0.139546
-0.000164377
0.139641
-0.000160825
0.139737
-0.000161498
0.139837
-0.000167029
0.139943
-0.000178321
0.14006
-0.000196718
0.140193
-0.000223986
0.140346
-0.00026259
0.14053
-0.000315755
0.140754
-0.000387875
0.141033
-0.000484686
0.141383
-0.000613891
0.141829
-0.000785543
0.142402
-0.00101305
0.143142
-0.00131395
0.144103
-0.00171149
0.145352
-0.00223606
0.14698
-0.00292767
0.149105
-0.00383819
0.151876
-0.00503493
0.155488
-0.00660363
0.160186
-0.00865225
0.166282
-0.0113129
0.17416
-0.0147423
0.18429
-0.0191163
0.197232
-0.0246181
0.21363
-0.031409
0.234195
-0.0395877
0.259647
-0.0491172
0.290588
-0.0596457
0.327408
-0.0705929
0.369488
-0.0801474
-0.0866015
0.41538
0.218664
-9.97179e-05
0.218538
-0.000253727
0.218437
-0.000319555
0.218364
-0.000336426
0.218312
-0.000337213
0.218279
-0.000329356
0.218264
-0.000313917
0.218263
-0.000294361
0.218273
-0.000274383
0.21829
-0.000255947
0.218314
-0.000239769
0.218342
-0.000226179
0.218375
-0.00021554
0.218412
-0.000208272
0.218453
-0.000204856
0.218498
-0.000205844
0.218549
-0.000212013
0.218607
-0.000224448
0.218674
-0.000244686
0.218752
-0.000274773
0.218846
-0.000317463
0.218961
-0.000376388
0.219102
-0.000456402
0.219279
-0.000563906
0.219502
-0.000707394
0.219787
-0.000898015
0.220153
-0.00115049
0.220625
-0.00148413
0.221236
-0.00192432
0.22203
-0.00250433
0.223063
-0.00326768
0.224408
-0.00427107
0.226159
-0.00558813
0.228439
-0.00731365
0.231406
-0.00956882
0.235262
-0.0125064
0.240267
-0.016316
0.246754
-0.0212269
0.255146
-0.0275064
0.265983
-0.0354522
0.27993
-0.045354
0.297815
-0.0574699
0.320563
-0.0718624
0.349238
-0.088318
0.384947
-0.106299
0.427466
-0.122664
-0.136346
0.477211
0.288713
-6.24076e-05
0.288631
-0.000171738
0.288548
-0.000236636
0.288477
-0.000265293
0.288416
-0.000276396
0.288366
-0.000278258
0.288325
-0.000272712
0.288292
-0.000262015
0.288267
-0.000249211
0.288248
-0.000236534
0.288234
-0.000225156
0.288224
-0.000215743
0.288217
-0.000208894
0.288214
-0.000205264
0.288215
-0.000205573
0.28822
-0.000210633
0.28823
-0.000221484
0.288246
-0.000239532
0.288268
-0.000266684
0.288299
-0.000305475
0.288341
-0.000359261
0.288398
-0.00043247
0.288473
-0.00053097
0.288572
-0.000662513
0.288703
-0.000837324
0.288874
-0.00106885
0.289099
-0.00137476
0.289394
-0.00177824
0.28978
-0.00230972
0.290286
-0.00300902
0.290947
-0.0039282
0.291812
-0.00513514
0.292944
-0.00671812
0.294423
-0.0087914
0.296357
-0.0115022
0.298891
-0.0150389
0.302217
-0.0196404
0.306599
-0.0256064
0.312399
-0.033305
0.32013
-0.0431811
0.330505
-0.0557267
0.344531
-0.0714941
0.363488
-0.0908171
0.389137
-0.113964
0.423381
-0.140541
0.467052
-0.166333
-0.198413
0.529122
0.348729
-4.18466e-05
0.348677
-0.000119367
0.348615
-0.000174305
0.348555
-0.000205203
0.348499
-0.000220575
0.348448
-0.000226955
0.348402
-0.000226742
0.348362
-0.000221639
0.348327
-0.000213883
0.348296
-0.000205475
0.348269
-0.000197711
0.348245
-0.000191429
0.348223
-0.000187339
0.348204
-0.000186203
0.348188
-0.00018885
0.348174
-0.000196232
0.348162
-0.000209518
0.348153
-0.000230266
0.348147
-0.000260536
0.348145
-0.000303067
0.348148
-0.000361444
0.348156
-0.000440412
0.348172
-0.000546213
0.348197
-0.000687116
0.348234
-0.000873977
0.348287
-0.00112111
0.34836
-0.00144726
0.348459
-0.00187707
0.348593
-0.00244281
0.348772
-0.00318682
0.349009
-0.00416446
0.349323
-0.00544821
0.349738
-0.00713266
0.350289
-0.00934129
0.351023
-0.012235
0.352009
-0.0160232
0.353349
-0.0209785
0.355199
-0.0274557
0.357811
-0.035915
0.361589
-0.0469569
0.367211
-0.0613466
0.3758
-0.0800814
0.389234
-0.104248
0.410384
-0.135111
0.443136
-0.17329
0.490918
-0.214111
-0.282634
0.57514
0.398737
-2.87758e-05
0.398701
-8.37303e-05
0.398654
-0.00012641
0.398602
-0.000153897
0.398551
-0.0001695
0.398502
-0.000177395
0.398455
-0.0001798
0.398412
-0.000178086
0.398372
-0.000173828
0.398335
-0.00016859
0.398301
-0.000163566
0.398269
-0.000159607
0.39824
-0.000157447
0.398211
-0.000157835
0.398184
-0.0001616
0.398158
-0.000169689
0.398132
-0.000183269
0.398106
-0.000203855
0.398079
-0.000233452
0.398051
-0.000274687
0.398021
-0.000331014
0.397988
-0.00040697
0.39795
-0.000508547
0.397907
-0.000643635
0.397856
-0.000822634
0.397795
-0.0010592
0.39772
-0.00137128
0.397625
-0.0017824
0.397507
-0.00232346
0.397356
-0.00303499
0.397162
-0.00397019
0.396913
-0.00519884
0.396594
-0.00681267
0.396186
-0.00893225
0.395669
-0.0117166
0.395023
-0.015376
0.394236
-0.0201905
0.393317
-0.026535
0.392322
-0.0349184
0.391406
-0.0460387
0.390945
-0.0608834
0.391713
-0.0808478
0.39558
-0.108112
0.406038
-0.145567
0.431499
-0.198747
0.482833
-0.265443
-0.377807
0.57801
0.438741
-1.94081e-05
0.438714
-5.71986e-05
0.438676
-8.79482e-05
0.438631
-0.00010941
0.438585
-0.000122659
0.438537
-0.000130014
0.438491
-0.00013312
0.438446
-0.000133049
0.438403
-0.000130891
0.438362
-0.00012777
0.438323
-0.00012464
0.438286
-0.000122247
0.43825
-0.000121238
0.438215
-0.000122264
0.438179
-0.000126038
0.438143
-0.000133385
0.438105
-0.000145322
0.438065
-0.000163161
0.43802
-0.00018862
0.43797
-0.000223952
0.437911
-0.000272108
0.437842
-0.000336966
0.437757
-0.000423633
0.437653
-0.000538843
0.437522
-0.000691458
0.437356
-0.000893126
0.437144
-0.00115914
0.436872
-0.0015096
0.43652
-0.00197086
0.436063
-0.00257761
0.435469
-0.00337544
0.434696
-0.00442442
0.433688
-0.00580382
0.432375
-0.00761865
0.430668
-0.0100087
0.428454
-0.0131611
0.425594
-0.0173291
0.42192
-0.0228588
0.417234
-0.0302317
0.411322
-0.0401246
0.403974
-0.0535337
0.395015
-0.0718862
0.384534
-0.0976286
0.37307
-0.1341
0.364992
-0.190666
0.377149
-0.277596
-0.46187
0.461214
0.468743
-1.19721e-05
0.468721
-3.57228e-05
0.468689
-5.54269e-05
0.468649
-6.97898e-05
0.468606
-7.90796e-05
0.46856
-8.44519e-05
0.468514
-8.69328e-05
0.468468
-8.72641e-05
0.468424
-8.61462e-05
0.46838
-8.42981e-05
0.468338
-8.23688e-05
0.468297
-8.09011e-05
0.468256
-8.03735e-05
0.468215
-8.12622e-05
0.468173
-8.40865e-05
0.46813
-8.9453e-05
0.468082
-9.81096e-05
0.468031
-0.000111018
0.467972
-0.000129435
0.467903
-0.000155001
0.467821
-0.000189865
0.467721
-0.000236849
0.467597
-0.000299669
0.467442
-0.000383221
0.467245
-0.00049395
0.466993
-0.000640327
0.466667
-0.000833478
0.466246
-0.00108802
0.465699
-0.00142318
0.464986
-0.00186423
0.464056
-0.0024445
0.46284
-0.00320801
0.46125
-0.00421307
0.45917
-0.00553733
0.456447
-0.0072848
0.452883
-0.00959598
0.448218
-0.0126627
0.44211
-0.0167501
0.434111
-0.0222307
0.423622
-0.0296335
0.409823
-0.0397337
0.391573
-0.0536342
0.367016
-0.0730688
0.333064
-0.100146
0.28141
-0.13901
0.195995
-0.192179
-0.265873
0.488744
-5.53739e-06
0.488725
-1.69851e-05
0.488696
-2.63504e-05
0.488659
-3.32235e-05
0.488618
-3.76769e-05
0.488574
-4.01865e-05
0.488528
-4.12352e-05
0.488482
-4.11999e-05
0.488436
-4.04256e-05
0.488391
-3.92598e-05
0.488347
-3.80275e-05
0.488303
-3.70119e-05
0.48826
-3.64664e-05
0.488215
-3.66413e-05
0.488169
-3.78099e-05
0.48812
-4.02922e-05
0.488066
-4.44839e-05
0.488006
-5.08913e-05
0.487937
-6.01748e-05
0.487856
-7.31973e-05
0.487757
-9.10892e-05
0.487636
-0.000115334
0.487484
-0.000147886
0.487293
-0.000191318
0.487048
-0.00024902
0.486734
-0.000325444
0.486327
-0.000426445
0.485799
-0.000559713
0.485112
-0.000735367
0.484215
-0.000966729
0.483042
-0.00127138
0.481508
-0.00167258
0.479497
-0.00220121
0.476859
-0.00289852
0.473395
-0.00381996
0.468841
-0.00504073
0.462843
-0.00666399
0.454927
-0.00883291
0.444447
-0.0117491
0.430514
-0.015699
0.411879
-0.0210967
0.386777
-0.0285301
0.352575
-0.0388648
0.305645
-0.0532137
0.239791
-0.0731538
0.147076
-0.0994594
-0.118797
0.498744
4.4826e-07
0.498727
5.40694e-07
0.498699
1.14102e-06
0.498664
1.85996e-06
0.498624
2.60745e-06
0.49858
3.36413e-06
0.498535
4.12638e-06
0.498489
4.89404e-06
0.498443
5.66865e-06
0.498397
6.45151e-06
0.498352
7.24338e-06
0.498307
8.04492e-06
0.498262
8.85887e-06
0.498215
9.68789e-06
0.498167
1.05339e-05
0.498116
1.13973e-05
0.498059
1.22803e-05
0.497995
1.31861e-05
0.497921
1.41186e-05
0.497833
1.50799e-05
0.497726
1.60721e-05
0.497594
1.70961e-05
0.497428
1.81544e-05
0.497218
1.92488e-05
0.496949
2.03821e-05
0.496602
2.15556e-05
0.496153
2.27716e-05
0.49557
2.40302e-05
0.49481
2.5333e-05
0.493817
2.668e-05
0.492518
2.80743e-05
0.490816
2.95176e-05
0.488585
3.10172e-05
0.485655
3.25831e-05
0.481801
3.42375e-05
0.476726
3.60138e-05
0.470025
3.79728e-05
0.461153
4.02089e-05
0.449362
4.28744e-05
0.433618
4.61933e-05
0.412473
5.04709e-05
0.383889
5.60756e-05
0.344962
6.33198e-05
0.291678
7.25908e-05
0.218445
8.35325e-05
0.118899
8.68212e-05
0.000104716
0.498744
6.42902e-06
0.498727
1.80477e-05
0.498699
2.85983e-05
0.498664
3.68918e-05
0.498624
4.28216e-05
0.49858
4.68256e-05
0.498535
4.93794e-05
0.498489
5.08598e-05
0.498443
5.1614e-05
0.498398
5.19928e-05
0.498353
5.23221e-05
0.498308
5.28872e-05
0.498263
5.39465e-05
0.498217
5.57562e-05
0.498169
5.85924e-05
0.498118
6.27771e-05
0.498061
6.87089e-05
0.497998
7.69017e-05
0.497924
8.8022e-05
0.497836
0.000102938
0.49773
0.000122784
0.497598
0.000149046
0.497433
0.000183682
0.497223
0.00022927
0.496955
0.000289204
0.496609
0.000367941
0.49616
0.000471336
0.495578
0.000607084
0.494818
0.000785301
0.493826
0.00101931
0.492528
0.0013267
0.490827
0.00173073
0.488597
0.0022623
0.485668
0.00296266
0.481815
0.00388729
0.476741
0.00511148
0.470041
0.00673846
0.461171
0.0089116
0.449382
0.0118328
0.433641
0.0157889
0.412498
0.0211946
0.383917
0.0286385
0.344995
0.0389875
0.291714
0.0533546
0.218479
0.073318
0.118928
0.099645
0.119033
0.488744
1.2826e-05
0.488725
3.67349e-05
0.488696
5.75764e-05
0.48866
7.33046e-05
0.488618
8.40148e-05
0.488574
9.08248e-05
0.488529
9.47529e-05
0.488483
9.65402e-05
0.488438
9.68902e-05
0.488394
9.6524e-05
0.48835
9.60916e-05
0.488307
9.61372e-05
0.488263
9.71458e-05
0.48822
9.95988e-05
0.488174
0.000104018
0.488126
0.000111012
0.488074
0.000121332
0.488015
0.000135947
0.487947
0.000156118
0.487866
0.000183491
0.487769
0.00022022
0.487649
0.000269128
0.487499
0.000333937
0.487309
0.000419547
0.487066
0.000532407
0.486754
0.000680991
0.486349
0.000876428
0.485823
0.00113334
0.485138
0.00147093
0.484243
0.0019145
0.483073
0.00249737
0.481541
0.00326354
0.479532
0.00427134
0.476897
0.00559841
0.473437
0.00734878
0.468886
0.00966296
0.462893
0.0127329
0.454982
0.0168236
0.444507
0.0223082
0.430582
0.0297158
0.411955
0.0398221
0.386864
0.0537312
0.352674
0.0731783
0.305755
0.100273
0.239908
0.139169
0.147179
0.192373
0.266213
0.468743
2.02144e-05
0.468721
5.81236e-05
0.468689
8.99328e-05
0.468649
0.000112671
0.468606
0.00012725
0.468561
0.000135949
0.468515
0.000140406
0.46847
0.000141693
0.468426
0.000140902
0.468384
0.00013916
0.468342
0.00013742
0.468302
0.000136431
0.468262
0.000136845
0.468223
0.000139319
0.468182
0.000144567
0.46814
0.000153418
0.468094
0.000166891
0.468044
0.000186305
0.467987
0.000213383
0.46792
0.000250382
0.467841
0.000300256
0.467743
0.000366887
0.467622
0.000455388
0.467469
0.000572495
0.467275
0.000727074
0.467025
0.000930776
0.466703
0.0011989
0.466285
0.00155153
0.465742
0.00201504
0.465033
0.0026241
0.464106
0.00342429
0.462895
0.00447568
0.461309
0.00585752
0.459234
0.00767481
0.456516
0.0100673
0.452958
0.0132221
0.448299
0.0173924
0.442199
0.0229243
0.434209
0.0302995
0.423731
0.0401948
0.409947
0.0536068
0.391715
0.0719636
0.36718
0.097714
0.333254
0.1342
0.281616
0.190805
0.19619
0.277798
0.462401
0.438741
2.95025e-05
0.438714
8.45382e-05
0.438676
0.00012817
0.438632
0.000156811
0.438585
0.000173617
0.438539
0.000182728
0.438493
0.000186352
0.438448
0.000185862
0.438407
0.000182832
0.438367
0.00017883
0.438329
0.000175049
0.438293
0.000172344
0.438259
0.000171452
0.438225
0.000173128
0.438191
0.000178202
0.438157
0.000187624
0.438122
0.000202566
0.438084
0.00022455
0.438042
0.000255578
0.437994
0.000298287
0.437938
0.000356132
0.437872
0.000433656
0.43779
0.000536852
0.437689
0.000673618
0.437562
0.000854353
0.437401
0.00109272
0.437193
0.00140665
0.436926
0.0018197
0.436578
0.00236274
0.436127
0.0030763
0.435538
0.00401357
0.43477
0.00524432
0.433768
0.00686022
0.432462
0.00898182
0.430762
0.011768
0.428555
0.0154292
0.425704
0.0202449
0.422039
0.0265903
0.417365
0.0349739
0.411467
0.0460935
0.404138
0.0609365
0.395203
0.0808983
0.384757
0.10816
0.373342
0.145613
0.365343
0.198803
0.377639
0.265499
0.377982
0.462056
0.398737
4.24833e-05
0.398701
0.000120025
0.398654
0.00017578
0.398603
0.000207683
0.398552
0.000224101
0.398504
0.000231534
0.398458
0.000232378
0.398415
0.000228329
0.398376
0.000221628
0.398341
0.000214274
0.398308
0.000207571
0.398278
0.000202352
0.39825
0.000199338
0.398224
0.000199288
0.398199
0.000203038
0.398176
0.000211541
0.398152
0.000225975
0.398129
0.000247894
0.398105
0.000279366
0.398081
0.000323128
0.398054
0.000382777
0.398025
0.000463053
0.397992
0.000570215
0.397953
0.000712518
0.397907
0.000900839
0.397851
0.00114947
0.397781
0.00147718
0.397692
0.0019086
0.397579
0.00247601
0.397434
0.00322172
0.397248
0.00420111
0.397006
0.00548658
0.396694
0.00717272
0.396294
0.00938292
0.395785
0.012278
0.395147
0.0160672
0.39437
0.021023
0.393462
0.0274996
0.392479
0.0359572
0.391578
0.0469953
0.391136
0.0613785
0.391932
0.0801026
0.395839
0.104253
0.406361
0.13509
0.431932
0.17323
0.483452
0.213976
0.282442
0.57899
0.34873
6.29244e-05
0.348677
0.000172217
0.348615
0.000237779
0.348556
0.000267262
0.3485
0.000279227
0.34845
0.000281956
0.348405
0.000277271
0.348366
0.00026743
0.348332
0.000255473
0.348303
0.000243638
0.348277
0.000233101
0.348255
0.000224533
0.348236
0.00021853
0.348219
0.000215752
0.348206
0.000216921
0.348194
0.000222858
0.348186
0.000234602
0.34818
0.000253562
0.348178
0.000281644
0.34818
0.00032139
0.348187
0.000376157
0.3482
0.000450383
0.34822
0.000549934
0.348251
0.000682566
0.348293
0.000858505
0.348352
0.0010912
0.348431
0.00139833
0.348537
0.00180308
0.348678
0.00233586
0.348864
0.0030365
0.349108
0.00395705
0.34943
0.00516535
0.349854
0.00674965
0.350414
0.00882411
0.351157
0.0115358
0.352152
0.015073
0.353501
0.0196743
0.355362
0.025639
0.357986
0.0333345
0.361777
0.0432047
0.367415
0.0557403
0.376026
0.0714914
0.389491
0.0907884
0.410686
0.113894
0.443504
0.140409
0.491383
0.166096
0.198031
0.575793
0.288713
0.000100098
0.288631
0.000253995
0.288548
0.000320317
0.288478
0.000337824
0.288418
0.000339272
0.288367
0.000332072
0.288327
0.000317277
0.288296
0.000298353
0.288273
0.00027899
0.288255
0.000261157
0.288243
0.000245574
0.288235
0.000232581
0.288231
0.000222534
0.288231
0.000215859
0.288235
0.000213036
0.288243
0.000214633
0.288256
0.000221416
0.288276
0.000234479
0.288302
0.00025535
0.288338
0.000286092
0.288384
0.000329451
0.288446
0.000389075
0.288526
0.000469805
0.288631
0.000578062
0.288768
0.000722321
0.288946
0.00091376
0.289177
0.00116708
0.289479
0.00150161
0.289873
0.00194273
0.290387
0.00252371
0.291056
0.00328804
0.29193
0.00429245
0.29307
0.00561046
0.294558
0.00733687
0.296502
0.00959267
0.299045
0.0125306
0.302381
0.0163397
0.306772
0.0212491
0.312582
0.0275251
0.320322
0.0354646
0.330707
0.0453557
0.344744
0.0574542
0.363713
0.0718193
0.389374
0.088232
0.423634
0.106149
0.467318
0.122411
0.135941
0.529407
0.218664
0.000186351
0.218538
0.000379879
0.218437
0.000420465
0.218365
0.000410637
0.218313
0.000390845
0.218281
0.000363828
0.218267
0.00033123
0.218267
0.000298123
0.218278
0.000268052
0.218297
0.000242045
0.218323
0.000220028
0.218354
0.000201795
0.218389
0.000187248
0.218428
0.00017638
0.218472
0.000169254
0.218521
0.000166029
0.218576
0.000167049
0.218637
0.000172915
0.218708
0.000184563
0.218791
0.000203308
0.21889
0.000230955
0.219009
0.000269933
0.219156
0.000323508
0.219339
0.000396031
0.219568
0.000493292
0.219859
0.000622943
0.220232
0.000795102
0.220711
0.00102312
0.22133
0.00132459
0.222132
0.00172271
0.223173
0.00224795
0.224526
0.00294019
0.226286
0.0038514
0.228575
0.00504873
0.231551
0.00661795
0.235416
0.00866675
0.240429
0.0113271
0.246923
0.0147554
0.255322
0.0191267
0.266164
0.0246234
0.280114
0.0314056
0.297998
0.03957
0.32074
0.049077
0.349401
0.0595705
0.385084
0.0704644
0.427556
0.0799376
0.0862741
0.477225
0.138538
0.000398043
0.138409
0.000508708
0.13838
0.000449991
0.138411
0.000378893
0.138483
0.000319496
0.13858
0.000266757
0.138691
0.000219993
0.138808
0.000181162
0.138925
0.000150507
0.13904
0.000126727
0.139152
0.000108332
0.13926
9.42061e-05
0.139363
8.3584e-05
0.139464
7.5935e-05
0.139562
7.08915e-05
0.13966
6.82292e-05
0.13976
6.78859e-05
0.139863
6.99797e-05
0.139973
7.48208e-05
0.140093
8.29178e-05
0.14023
9.50143e-05
0.140388
0.000112145
0.140576
0.000135729
0.140805
0.000167682
0.141088
0.000210569
0.141444
0.000267808
0.141896
0.000343949
0.142475
0.000445041
0.143221
0.000579145
0.144188
0.000756989
0.145444
0.00099287
0.147079
0.00130578
0.149211
0.00172089
0.151989
0.00227129
0.155608
0.00300005
0.160314
0.00396212
0.166416
0.00522581
0.1743
0.00687252
0.184434
0.00899339
0.197377
0.0116807
0.213771
0.0150113
0.234325
0.0190152
0.259758
0.0236441
0.290664
0.0286638
0.327426
0.0337011
0.369415
0.0379509
0.040524
0.415164
0.049148
0.0496567
0.0501066
0.0504855
0.050805
0.0510717
0.0512917
0.0514728
0.0516233
0.05175
0.0518584
0.0519526
0.0520362
0.0521121
0.0521831
0.0522514
0.0523193
0.0523894
0.0524643
0.0525473
0.0526425
0.0527547
0.0528906
0.0530585
0.0532693
0.0535373
0.0538815
0.0543269
0.0549063
0.0556637
0.0566569
0.0579631
0.0596844
0.0619561
0.0649566
0.0689191
0.0741452
0.081018
0.0900115
0.101692
0.116703
0.135718
0.159362
0.188026
0.221727
0.259678
0.300204
0.341124
-0.0405196
0.37764
-0.0365152
0.407481
-0.0298405
0.429991
-0.0225094
0.445473
-0.0154828
-0.0089722
0.454446
0.461948
-0.0870863
0.504938
-0.0795034
0.54201
-0.0669123
0.572752
-0.0532507
0.597281
-0.0400115
-0.0277212
0.616031
0.529693
-0.139566
0.578144
-0.127954
0.619975
-0.108742
0.654141
-0.0874149
0.680275
-0.0661435
-0.0467288
0.699284
0.598173
-0.208615
0.656024
-0.185803
0.698886
-0.151602
0.726541
-0.115068
0.741717
-0.0813163
-0.0540139
0.749002
0.652236
-0.285709
0.687004
-0.220567
0.687995
-0.152591
0.670831
-0.0978964
0.647596
-0.0580808
-0.0327267
0.626317
0.578819
-0.286514
0.506968
-0.148711
0.41413
-0.0597401
0.340261
-0.024023
0.284903
-0.00270703
0.00472345
0.247457
0.174703
0.0260003
-0.0337342
-0.0577473
-0.0604524
-0.0557216
0.175468
0.286585
0.0266372
0.148826
-0.0332
0.0598287
-0.0571374
0.0239319
-0.0591789
0.00202686
-0.0061708
-0.0530206
0.580269
0.285304
0.509181
0.219912
0.417348
0.151659
0.344719
0.0965548
0.290511
0.0562328
0.030492
0.253841
0.653154
0.207943
0.688364
0.184701
0.690041
0.149981
0.673763
0.112833
0.651599
0.0783938
0.0503746
0.631717
0.598435
0.138915
0.656203
0.126933
0.698957
0.107227
0.7265
0.0852898
0.741585
0.0633113
0.043101
0.748859
0.529554
0.0865854
0.577734
0.0787566
0.619134
0.0658279
0.652696
0.0517313
0.678051
0.0379568
0.025023
0.696133
0.461515
0.0402384
0.504171
0.0361008
0.540756
0.0292467
0.570808
0.0216807
0.594428
0.0143421
0.00741887
0.612036
0.340443
0.376545
0.405793
0.427476
0.44182
0.449241
0.457428
-0.00298256
0.454845
0.00258269
0.447193
0.00765231
0.435063
0.0121299
0.418966
0.0160964
0.399259
0.0197067
0.376165
0.0230947
0.349845
0.0263195
0.320505
0.0293409
0.288476
0.0320289
0.254288
0.0341888
0.218694
0.0355952
0.182665
0.036029
0.147343
0.0353212
0.113945
0.0333958
0.0836349
0.0303076
0.0573686
0.0262624
0.0357569
0.0216068
0.0189776
0.0167734
0.00678824
0.0121829
-0.00137485
0.00815626
-0.0063802
0.00499874
-0.00917196
0.00278596
-0.0105256
0.00134856
-0.0110205
0.000491085
-0.0109826
-4.09647e-05
-0.0105383
-0.000446321
-0.00973608
-0.000803759
-0.00850547
-0.00123156
-0.00663515
-0.00187101
-0.00391089
-0.00272476
-0.000185679
-0.00372561
0.00463999
-0.00482605
0.0106103
-0.00597068
0.0177066
-0.00709667
0.0258684
-0.00816206
0.0349965
-0.00912852
0.0449641
-0.00996781
0.0556283
-0.0106643
0.0668417
-0.0112135
0.0784666
-0.0116249
0.0903748
-0.0119083
0.102486
-0.0121117
0.11466
-0.0121737
0.127058
-0.0123978
0.138886
-0.0118284
-0.0135999
0.630001
-0.0169522
0.640441
-0.00785749
0.648067
2.63946e-05
0.652995
0.00720168
0.655145
0.0139465
0.654336
0.0205156
0.650252
0.0271785
0.642474
0.0340979
0.630541
0.0412743
0.614023
0.0485477
0.59259
0.0556229
0.566082
0.0621028
0.534581
0.0675299
0.498464
0.0714377
0.458442
0.0734169
0.415556
0.0731907
0.371131
0.0706856
0.326666
0.0660679
0.283708
0.0597277
0.243679
0.0522073
0.207722
0.0441086
0.176716
0.0360003
0.151183
0.0283131
0.131212
0.021315
0.116564
0.0151348
0.106755
0.00976479
0.101192
0.0051134
0.0994032
0.00098229
0.100901
-0.00273102
0.105108
-0.00607935
0.111553
-0.00917159
0.119916
-0.0120894
0.129938
-0.0148489
0.14139
-0.0174241
0.154064
-0.0197716
0.167752
-0.0218503
0.182249
-0.0236265
0.197362
-0.0250811
0.212909
-0.0262118
0.228731
-0.0270351
0.244689
-0.0275832
0.260685
-0.0279051
0.276631
-0.0280575
0.292573
-0.0281157
0.308344
-0.0281692
0.324759
-0.0282433
-0.0291078
0.712894
-0.0305608
0.722587
-0.0175508
0.729414
-0.00679974
0.734261
0.00235439
0.737719
0.0104887
0.740006
0.0182286
0.741102
0.0260839
0.74083
0.034371
0.738901
0.0432036
0.734935
0.052515
0.728469
0.0620901
0.718976
0.0715962
0.705903
0.0806023
0.688747
0.0885933
0.667162
0.0950009
0.641082
0.0992696
0.610817
0.100949
0.577096
0.0997868
0.541035
0.0957867
0.504023
0.0892171
0.467565
0.0805645
0.433113
0.0704492
0.401906
0.0595174
0.374864
0.0483535
0.352567
0.0374295
0.33525
0.0270784
0.322869
0.0174917
0.315096
0.0087534
0.311539
0.000823615
0.311813
-0.00635523
0.315424
-0.0127844
0.32181
-0.0184765
0.330423
-0.0234632
0.340766
-0.0277683
0.352402
-0.0314092
0.364955
-0.0344041
0.378106
-0.036778
0.391591
-0.0385667
0.405198
-0.0398193
0.418761
-0.0405991
0.432158
-0.0409806
0.44531
-0.0410568
0.458162
-0.0409103
0.470755
-0.040709
0.482996
-0.0404107
0.495417
-0.0406638
-0.0403261
0.752553
-0.03411
0.754632
-0.0196276
0.756271
-0.0084385
0.757998
0.00062822
0.759966
0.00852054
0.762083
0.0161103
0.764153
0.0240136
0.765926
0.0325968
0.767158
0.0419706
0.767629
0.0520426
0.767123
0.0625955
0.765382
0.073336
0.762074
0.0839096
0.756789
0.0938774
0.749088
0.102701
0.738583
0.109774
0.725037
0.114495
0.708453
0.11637
0.689135
0.115104
0.667689
0.110661
0.644973
0.10328
0.621996
0.093424
0.599803
0.0817086
0.579351
0.0688031
0.561422
0.0553554
0.546563
0.0419347
0.53506
0.0289927
0.526961
0.0168497
0.522075
0.00570734
0.520057
-0.00433869
0.520538
-0.0132677
0.523116
-0.0210554
0.527364
-0.0277121
0.532872
-0.0332775
0.539267
-0.0378059
0.546224
-0.0413622
0.553469
-0.0440231
0.560778
-0.045877
0.567981
-0.0470228
0.57495
-0.0475692
0.5816
-0.0476311
0.587877
-0.0473346
0.593757
-0.0467903
0.599233
-0.0461849
0.604292
-0.0454706
0.609026
-0.0453974
-0.0442006
0.611078
-0.0188693
0.601378
-0.00992221
0.596763
-0.00382103
0.59662
0.000772547
0.600223
0.00491544
0.60695
0.0093779
0.616159
0.0147991
0.62716
0.0215883
0.63929
0.0298332
0.651984
0.0393411
0.664742
0.0498325
0.677066
0.061008
0.688429
0.0725438
0.698296
0.084009
0.706181
0.0948162
0.711702
0.104253
0.714626
0.111571
0.714891
0.116106
0.712608
0.117387
0.708056
0.115214
0.701657
0.109679
0.693941
0.10114
0.685506
0.0901425
0.676958
0.0773503
0.668847
0.0634646
0.661617
0.0491626
0.655564
0.0350435
0.650827
0.0215851
0.6474
0.00913218
0.645156
-0.00209745
0.643879
-0.0119927
0.643346
-0.020524
0.643326
-0.027694
0.643595
-0.0335481
0.643948
-0.03816
0.64421
-0.0416255
0.644244
-0.0440587
0.643954
-0.0455877
0.64328
-0.04635
0.642198
-0.0464883
0.640712
-0.0461456
0.638839
-0.0454619
0.636615
-0.0445674
0.634026
-0.0435957
0.631167
-0.042612
0.627693
-0.0419238
-0.0407108
0.232987
-0.00438716
0.229868
-0.00679024
0.235957
-0.00990235
0.248473
-0.0117441
0.265875
-0.0124941
0.286814
-0.0115749
0.310246
-0.00865028
0.335459
-0.00364325
0.362015
0.00325878
0.389609
0.0117318
0.417998
0.0214321
0.446826
0.0321722
0.475527
0.0438375
0.503378
0.0561554
0.529634
0.0685603
0.553656
0.0802333
0.575
0.0902302
0.593451
0.0976582
0.608997
0.101843
0.621775
0.102439
0.632002
0.099453
0.639951
0.0931922
0.645923
0.0841709
0.650235
0.0730384
0.653191
0.0605072
0.655055
0.0472971
0.656024
0.0340734
0.656225
0.0213819
0.655735
0.0096196
0.654572
-0.000937054
0.652701
-0.0101235
0.650076
-0.0179018
0.646664
-0.0242838
0.642441
-0.0293277
0.63741
-0.0331311
0.631607
-0.035824
0.625105
-0.0375578
0.618009
-0.0384935
0.610451
-0.0387932
0.602574
-0.0386125
0.594524
-0.0380968
0.586432
-0.0373703
0.578422
-0.0365581
0.57052
-0.0356941
0.562908
-0.0350009
0.555001
-0.0340165
-0.0339941
-0.00435297
-0.055741
0.0300258
-0.0411642
0.0540157
-0.0338967
0.0753171
-0.0330626
0.095382
-0.0325892
0.11462
-0.030851
0.13301
-0.0270823
0.150408
-0.021083
0.167077
-0.013449
0.183981
-0.0052039
0.202516
0.00287293
0.223731
0.01094
0.247815
0.0197435
0.27434
0.0296256
0.302524
0.0403776
0.331444
0.0513178
0.360226
0.0614554
0.388145
0.0697469
0.414657
0.0753376
0.439372
0.0777299
0.461983
0.0768482
0.48224
0.0729398
0.499986
0.0664286
0.515157
0.0578709
0.527766
0.0478992
0.537849
0.0372143
0.545444
0.0264785
0.550611
0.0162143
0.553461
0.00676787
0.554062
-0.00153987
0.552497
-0.00856129
0.548925
-0.0143326
0.543586
-0.0189475
0.536777
-0.0225211
0.528835
-0.0251918
0.52012
-0.0271108
0.510988
-0.0284287
0.501779
-0.0292861
0.492793
-0.0298092
0.484286
-0.0301068
0.476461
-0.0302727
0.469466
-0.0303762
0.463402
-0.0304957
0.4583
-0.0305925
0.454229
-0.0309302
0.450837
-0.0306249
-0.0323316
-0.0146888
-0.0410587
-0.0131327
-0.0427325
-0.00873241
-0.0383226
-0.00452253
-0.0373119
0.000380251
-0.0375413
0.00627281
-0.0367993
0.0128401
-0.0337052
0.0197378
-0.0280337
0.026723
-0.0204818
0.0337892
-0.01231
0.0412521
-0.00462117
0.0498389
0.00233143
0.0604896
0.0090791
0.0739777
0.0161329
0.0906887
0.02367
0.110609
0.0314083
0.133385
0.0386947
0.158421
0.0447282
0.184974
0.0488035
0.212216
0.0505069
0.239274
0.0498109
0.265311
0.0469199
0.289528
0.0422257
0.311306
0.0361035
0.330322
0.0288902
0.346347
0.0211948
0.359224
0.013605
0.368963
0.00647668
0.375555
0.000176398
0.37928
-0.00526704
0.380815
-0.0100979
0.380841
-0.0143623
0.379978
-0.0180874
0.378765
-0.0213115
0.377655
-0.0240852
0.377004
-0.0264629
0.377071
-0.028498
0.378023
-0.030241
0.379952
-0.0317399
0.382884
-0.0330407
0.386798
-0.0341875
0.391643
-0.0352228
0.397336
-0.0361889
0.403842
-0.0370996
0.410979
-0.0380669
0.419039
-0.0386856
-0.0406181
-0.0213274
-0.0197382
-0.0423757
-0.0217071
-0.0598632
-0.0208545
-0.0751968
-0.0219956
-0.0887368
-0.0240167
-0.100176
-0.0253739
-0.109079
-0.0248161
-0.115323
-0.0218027
-0.119229
-0.0165886
-0.121521
-0.0100291
-0.122971
-0.00318156
-0.123764
0.00311616
-0.123177
0.00848548
-0.120128
0.0130812
-0.113654
0.0172009
-0.103067
0.0208352
-0.0880725
0.0237206
-0.0688493
0.0255307
-0.0459925
0.0259757
-0.0202654
0.0248138
0.00756886
0.0220135
0.036599
0.0179227
0.0654862
0.0133682
0.0935427
0.00807128
0.120455
0.00199545
0.145869
-0.00420615
0.169842
-0.0103593
0.19259
-0.0162674
0.214539
-0.0217711
0.236028
-0.0267568
0.256985
-0.0310568
0.277308
-0.0346888
0.296942
-0.0377247
0.315869
-0.0402417
0.334092
-0.0423114
0.351625
-0.0439991
0.368488
-0.0453635
0.384703
-0.0464582
0.400293
-0.0473321
0.415283
-0.0480319
0.429695
-0.0486008
0.44356
-0.0490887
0.456894
-0.0495234
0.469798
-0.0500045
0.482165
-0.0504346
0.494727
-0.0512473
-0.0517965
-0.0299588
0.0102037
-0.0633992
0.011713
-0.0943839
0.0101182
-0.123131
0.00674599
-0.149842
0.00269237
-0.174392
-0.000825046
-0.196482
-0.00272867
-0.215796
-0.0024927
-0.232091
-0.000298851
-0.245265
0.00313988
-0.25534
0.00688929
-0.262284
0.0100562
-0.265805
0.012004
-0.265136
0.0124134
-0.259287
0.0113555
-0.247343
0.00889957
-0.228597
0.00498714
-0.202777
-0.000274864
-0.170397
-0.0063882
-0.132604
-0.0129587
-0.0906824
-0.0198864
-0.045613
-0.027121
0.00204574
-0.0342608
0.0511619