/*--------------------------------*- C++ -*----------------------------------*\
| =========                 |                                                 |
| \\      /  F ield         | OpenFOAM: The Open Source CFD Toolbox           |
|  \\    /   O peration     | Version:  2406                                  |
|   \\  /    A nd           | Website:  www.openfoam.com                      |
|    \\/     M anipulation  |                                                 |
\*---------------------------------------------------------------------------*/
FoamFile
{
    version     2.0;
    format      ascii;
    arch        "LSB;label=32;scalar=64";
    class       volVectorField;
    location    "91";
    object      U;
}
// * * * * * * * * * * * * * * * * * * * * * * * * * * * * * * * * * * * * * //

dimensions      [0 1 -1 0 0 0 0];

internalField   nonuniform List<vector> 
1964
(
(0.489391 -0.00256319 0)
(0.494053 -0.00389097 0)
(0.498836 -0.00318341 0)
(0.503068 -0.00227644 0)
(0.506575 -0.00163904 0)
(0.509478 -0.00118378 0)
(0.51189 -0.000837005 0)
(0.513879 -0.000586209 0)
(0.515518 -0.000417986 0)
(0.516883 -0.000308047 0)
(0.518038 -0.000235428 0)
(0.519033 -0.000187656 0)
(0.519904 -0.000158239 0)
(0.520683 -0.000142806 0)
(0.521398 -0.000138313 0)
(0.522075 -0.00014263 0)
(0.522735 -0.00015524 0)
(0.523403 -0.000176499 0)
(0.524104 -0.000208056 0)
(0.524867 -0.000252127 0)
(0.525729 -0.000312378 0)
(0.526733 -0.000393351 0)
(0.527936 -0.000501642 0)
(0.529412 -0.000645408 0)
(0.531254 -0.000836112 0)
(0.533588 -0.00108841 0)
(0.536577 -0.00142276 0)
(0.540436 -0.00186582 0)
(0.54545 -0.00245429 0)
(0.551998 -0.00323639 0)
(0.56058 -0.00427793 0)
(0.57186 -0.00566596 0)
(0.586724 -0.00751826 0)
(0.606343 -0.0099903 0)
(0.632269 -0.0132881 0)
(0.666543 -0.0176763 0)
(0.711823 -0.0234886 0)
(0.771523 -0.0311239 0)
(0.849927 -0.0410305 0)
(0.95225 -0.0536553 0)
(1.08458 -0.0693563 0)
(1.25354 -0.0882224 0)
(1.46581 -0.109916 0)
(1.72663 -0.13308 0)
(2.03851 -0.155452 0)
(2.39831 -0.172576 0)
(2.79457 -0.179655 0)
(1.38541 -0.00241953 0)
(1.38419 -0.00490328 0)
(1.38389 -0.00532621 0)
(1.38391 -0.00499345 0)
(1.38437 -0.00452985 0)
(1.38522 -0.00402948 0)
(1.3863 -0.00350934 0)
(1.38746 -0.00301814 0)
(1.38863 -0.00259196 0)
(1.38978 -0.00223785 0)
(1.3909 -0.00194848 0)
(1.39198 -0.00171511 0)
(1.39302 -0.00153126 0)
(1.39401 -0.00139233 0)
(1.39498 -0.00129489 0)
(1.39593 -0.00123691 0)
(1.39688 -0.00121835 0)
(1.39786 -0.00124175 0)
(1.39888 -0.00131254 0)
(1.39999 -0.00143934 0)
(1.40122 -0.00163465 0)
(1.40264 -0.00191593 0)
(1.4043 -0.00230701 0)
(1.40631 -0.00284001 0)
(1.40879 -0.00355777 0)
(1.41188 -0.00451719 0)
(1.41581 -0.00579379 0)
(1.42082 -0.00748758 0)
(1.42728 -0.00973105 0)
(1.43564 -0.0126994 0)
(1.44651 -0.0166239 0)
(1.46067 -0.0218091 0)
(1.47913 -0.0286537 0)
(1.50323 -0.037676 0)
(1.53467 -0.0495416 0)
(1.57564 -0.0650899 0)
(1.6289 -0.0853513 0)
(1.69792 -0.111542 0)
(1.78697 -0.145013 0)
(1.9012 -0.187122 0)
(2.04665 -0.238996 0)
(2.23005 -0.301112 0)
(2.45881 -0.372856 0)
(2.73924 -0.451032 0)
(3.07711 -0.530653 0)
(3.47198 -0.599196 0)
(3.91445 -0.642865 0)
(2.1861 -0.00132226 0)
(2.18552 -0.00297265 0)
(2.18502 -0.00354743 0)
(2.18412 -0.00362015 0)
(2.18332 -0.00355987 0)
(2.18287 -0.00343227 0)
(2.18267 -0.00323843 0)
(2.18261 -0.00301057 0)
(2.18266 -0.0027853 0)
(2.18279 -0.00258113 0)
(2.183 -0.00240291 0)
(2.18327 -0.00225174 0)
(2.18358 -0.00212944 0)
(2.18392 -0.0020392 0)
(2.18431 -0.00198479 0)
(2.18474 -0.00197077 0)
(2.18522 -0.00200332 0)
(2.18576 -0.00209156 0)
(2.18638 -0.00224828 0)
(2.1871 -0.00249102 0)
(2.18795 -0.00284308 0)
(2.18898 -0.00333571 0)
(2.19024 -0.00401037 0)
(2.19181 -0.00492226 0)
(2.19378 -0.00614418 0)
(2.19628 -0.00777236 0)
(2.19948 -0.00993337 0)
(2.2036 -0.0127941 0)
(2.20892 -0.016574 0)
(2.21583 -0.0215617 0)
(2.22482 -0.028135 0)
(2.23651 -0.0367883 0)
(2.25174 -0.0481635 0)
(2.27158 -0.0630897 0)
(2.29742 -0.0826253 0)
(2.33105 -0.108103 0)
(2.37475 -0.141165 0)
(2.43148 -0.183774 0)
(2.50498 -0.238164 0)
(2.60003 -0.306718 0)
(2.72262 -0.391576 0)
(2.88003 -0.494202 0)
(3.08153 -0.614176 0)
(3.33543 -0.747625 0)
(3.65629 -0.888012 0)
(4.04467 -1.01273 0)
(4.5042 -1.10468 0)
(2.88646 -0.000771346 0)
(2.88626 -0.00198843 0)
(2.88605 -0.0026728 0)
(2.88529 -0.00296893 0)
(2.88445 -0.0030757 0)
(2.88384 -0.00307493 0)
(2.88341 -0.00298992 0)
(2.88307 -0.00285032 0)
(2.88279 -0.00269096 0)
(2.88256 -0.00253589 0)
(2.88239 -0.00239703 0)
(2.88227 -0.00228046 0)
(2.88219 -0.00219138 0)
(2.88215 -0.00213559 0)
(2.88214 -0.00211958 0)
(2.88217 -0.00215056 0)
(2.88224 -0.00223781 0)
(2.88236 -0.00239394 0)
(2.88255 -0.00263643 0)
(2.88281 -0.00298858 0)
(2.88317 -0.00348149 0)
(2.88366 -0.00415624 0)
(2.8843 -0.00506754 0)
(2.88516 -0.00628762 0)
(2.88628 -0.00791205 0)
(2.88776 -0.0100664 0)
(2.88971 -0.0129159 0)
(2.89226 -0.0166775 0)
(2.8956 -0.0216359 0)
(2.89998 -0.0281641 0)
(2.90572 -0.0367501 0)
(2.91322 -0.0480299 0)
(2.92303 -0.0628298 0)
(2.93586 -0.0822171 0)
(2.95266 -0.107562 0)
(2.97466 -0.140605 0)
(3.00353 -0.183532 0)
(3.04151 -0.239038 0)
(3.09168 -0.310346 0)
(3.15837 -0.401206 0)
(3.24745 -0.515481 0)
(3.36743 -0.657021 0)
(3.52946 -0.826983 0)
(3.74721 -1.0239 0)
(4.04543 -1.23794 0)
(4.4225 -1.43132 0)
(4.93602 -1.59888 0)
(3.48664 -0.000505498 0)
(3.4866 -0.00139529 0)
(3.48658 -0.00199742 0)
(3.48602 -0.00231899 0)
(3.48528 -0.00246591 0)
(3.48469 -0.00251262 0)
(3.48422 -0.00248833 0)
(3.48381 -0.00241446 0)
(3.48344 -0.00231602 0)
(3.4831 -0.00221393 0)
(3.48281 -0.00212113 0)
(3.48256 -0.00204557 0)
(3.48233 -0.00199386 0)
(3.48213 -0.00197316 0)
(3.48195 -0.00199139 0)
(3.4818 -0.00205762 0)
(3.48167 -0.00218317 0)
(3.48157 -0.00238313 0)
(3.48149 -0.00267774 0)
(3.48145 -0.00309391 0)
(3.48145 -0.00366697 0)
(3.4815 -0.00444367 0)
(3.48161 -0.0054857 0)
(3.48181 -0.00687468 0)
(3.48211 -0.00871807 0)
(3.48255 -0.0111573 0)
(3.48316 -0.0143779 0)
(3.484 -0.0186237 0)
(3.48514 -0.0242138 0)
(3.48666 -0.0315668 0)
(3.48869 -0.04123 0)
(3.49139 -0.0539186 0)
(3.49496 -0.0705643 0)
(3.49969 -0.0923791 0)
(3.50599 -0.120934 0)
(3.51444 -0.158259 0)
(3.52585 -0.206965 0)
(3.54153 -0.270397 0)
(3.56342 -0.352794 0)
(3.59481 -0.459521 0)
(3.64051 -0.597019 0)
(3.71025 -0.773303 0)
(3.81464 -0.995427 0)
(3.98451 -1.27106 0)
(4.23553 -1.59723 0)
(4.62522 -1.91973 0)
(5.24438 -2.31306 0)
(3.98676 -0.000346903 0)
(3.98678 -0.000986144 0)
(3.98687 -0.00146609 0)
(3.98644 -0.0017648 0)
(3.9858 -0.00193003 0)
(3.98523 -0.00201026 0)
(3.98476 -0.00202952 0)
(3.98433 -0.0020034 0)
(3.98391 -0.00194984 0)
(3.98353 -0.00188613 0)
(3.98317 -0.00182509 0)
(3.98284 -0.00177587 0)
(3.98254 -0.00174616 0)
(3.98225 -0.00174384 0)
(3.98197 -0.00177745 0)
(3.98171 -0.00185677 0)
(3.98145 -0.00199382 0)
(3.98119 -0.00220437 0)
(3.98092 -0.0025092 0)
(3.98065 -0.00293571 0)
(3.98036 -0.00351976 0)
(3.98004 -0.00430856 0)
(3.97969 -0.00536436 0)
(3.97929 -0.00676939 0)
(3.97882 -0.00863186 0)
(3.97826 -0.0110941 0)
(3.97758 -0.014343 0)
(3.97674 -0.0186237 0)
(3.97568 -0.0242577 0)
(3.97434 -0.0316669 0)
(3.97263 -0.0414037 0)
(3.97043 -0.0541926 0)
(3.96761 -0.0709823 0)
(3.96401 -0.0930163 0)
(3.95942 -0.121925 0)
(3.95366 -0.159852 0)
(3.94657 -0.209618 0)
(3.93813 -0.27496 0)
(3.92862 -0.360854 0)
(3.91924 -0.47399 0)
(3.91192 -0.623464 0)
(3.91446 -0.821803 0)
(3.9314 -1.08651 0)
(4.013 -1.44038 0)
(4.13103 -1.92202 0)
(4.57491 -2.4891 0)
(5.10987 -3.51124 0)
(4.38682 -0.000238064 0)
(4.38688 -0.000688858 0)
(4.38703 -0.00104906 0)
(4.38669 -0.00129589 0)
(4.38612 -0.00144662 0)
(4.38558 -0.00152886 0)
(4.38512 -0.00156106 0)
(4.38468 -0.00155601 0)
(4.38424 -0.00152707 0)
(4.38382 -0.00148751 0)
(4.38342 -0.00144825 0)
(4.38304 -0.00141767 0)
(4.38268 -0.00140305 0)
(4.38232 -0.00141158 0)
(4.38197 -0.00145109 0)
(4.38161 -0.00153056 0)
(4.38124 -0.00166115 0)
(4.38086 -0.00185729 0)
(4.38043 -0.002138 0)
(4.37996 -0.00252816 0)
(4.37942 -0.00306035 0)
(4.37878 -0.00377736 0)
(4.37802 -0.00473561 0)
(4.37709 -0.00600947 0)
(4.37592 -0.00769693 0)
(4.37446 -0.00992672 0)
(4.37259 -0.012868 0)
(4.3702 -0.0167427 0)
(4.36712 -0.0218421 0)
(4.36312 -0.0285488 0)
(4.35793 -0.0373655 0)
(4.35118 -0.0489529 0)
(4.34239 -0.0641814 0)
(4.33094 -0.0841997 0)
(4.31605 -0.11053 0)
(4.29672 -0.145201 0)
(4.27171 -0.190935 0)
(4.23954 -0.25142 0)
(4.19839 -0.331739 0)
(4.14643 -0.438959 0)
(4.08121 -0.583348 0)
(4.00304 -0.779519 0)
(3.90559 -1.05185 0)
(3.82041 -1.43305 0)
(3.67967 -2.00392 0)
(3.93293 -2.80134 0)
(3.6347 -4.51498 0)
(4.68687 -0.000155443 0)
(4.68694 -0.000456096 0)
(4.68712 -0.000703879 0)
(4.68684 -0.000883008 0)
(4.68631 -0.000998647 0)
(4.68581 -0.00106561 0)
(4.68536 -0.00109641 0)
(4.68491 -0.00110044 0)
(4.68446 -0.00108673 0)
(4.68402 -0.00106426 0)
(4.68359 -0.00104088 0)
(4.68317 -0.00102315 0)
(4.68276 -0.00101692 0)
(4.68236 -0.00102799 0)
(4.68194 -0.00106263 0)
(4.68152 -0.00112813 0)
(4.68107 -0.00123347 0)
(4.68058 -0.00139029 0)
(4.68003 -0.0016138 0)
(4.67939 -0.00192386 0)
(4.67865 -0.00234642 0)
(4.67775 -0.00291555 0)
(4.67664 -0.00367609 0)
(4.67526 -0.00468716 0)
(4.67352 -0.0060266 0)
(4.6713 -0.00779674 0)
(4.66845 -0.010132 0)
(4.66477 -0.0132088 0)
(4.65999 -0.0172591 0)
(4.65378 -0.0225878 0)
(4.64568 -0.0295962 0)
(4.6351 -0.0388137 0)
(4.62126 -0.0509403 0)
(4.60317 -0.0669057 0)
(4.57951 -0.0879512 0)
(4.54854 -0.115747 0)
(4.50803 -0.152562 0)
(4.45504 -0.201516 0)
(4.38572 -0.266977 0)
(4.29507 -0.355113 0)
(4.1762 -0.475 0)
(4.02059 -0.63959 0)
(3.8128 -0.87027 0)
(3.54038 -1.1948 0)
(3.1307 -1.67949 0)
(2.64889 -2.41823 0)
(0.994648 -3.59475 0)
(4.88689 -8.68512e-05 0)
(4.88698 -0.00025929 0)
(4.88717 -0.00040213 0)
(4.88692 -0.000507837 0)
(4.88643 -0.00057778 0)
(4.88594 -0.000619006 0)
(4.8855 -0.000638394 0)
(4.88505 -0.000641494 0)
(4.8846 -0.000633561 0)
(4.88414 -0.000619799 0)
(4.88369 -0.000604985 0)
(4.88325 -0.000593325 0)
(4.88281 -0.00058865 0)
(4.88237 -0.000594729 0)
(4.88192 -0.000615595 0)
(4.88145 -0.000655939 0)
(4.88094 -0.00072158 0)
(4.88038 -0.000820027 0)
(4.87974 -0.000961072 0)
(4.87899 -0.0011575 0)
(4.8781 -0.00142601 0)
(4.87701 -0.00178847 0)
(4.87567 -0.00227369 0)
(4.87397 -0.00291963 0)
(4.87182 -0.00377625 0)
(4.86906 -0.00490928 0)
(4.86551 -0.00640505 0)
(4.8609 -0.00837698 0)
(4.8549 -0.0109742 0)
(4.84709 -0.014393 0)
(4.83689 -0.018892 0)
(4.82355 -0.0248133 0)
(4.80608 -0.0326102 0)
(4.78317 -0.0428873 0)
(4.75312 -0.0564553 0)
(4.71364 -0.0744112 0)
(4.66171 -0.0982552 0)
(4.59329 -0.130063 0)
(4.50293 -0.172752 0)
(4.38323 -0.230456 0)
(4.2239 -0.30918 0)
(4.01086 -0.417429 0)
(3.72329 -0.568029 0)
(3.33409 -0.776552 0)
(2.79586 -1.06895 0)
(2.06689 -1.44134 0)
(0.922472 -1.81388 0)
(4.98691 -2.52635e-05 0)
(4.98699 -8.09012e-05 0)
(4.98719 -0.0001239 0)
(4.98695 -0.00015443 0)
(4.98648 -0.000173269 0)
(4.98601 -0.000182579 0)
(4.98556 -0.000184536 0)
(4.98512 -0.000180976 0)
(4.98466 -0.000173644 0)
(4.9842 -0.000164262 5.61902e-34)
(4.98374 -0.000154436 0)
(4.98329 -0.000145607 0)
(4.98284 -0.000139083 0)
(4.98239 -0.000136138 0)
(4.98192 -0.000138131 0)
(4.98142 -0.000146663 5.60144e-34)
(4.98088 -0.000163727 0)
(4.98029 -0.000191899 0)
(4.9796 -0.000234536 0)
(4.9788 -0.000296037 0)
(4.97783 -0.000382146 0)
(4.97665 -0.000500397 0)
(4.97518 -0.000660703 0)
(4.97333 -0.000876124 -5.59046e-34)
(4.97096 -0.00116387 0)
(4.96792 -0.00154656 0)
(4.964 -0.00205396 0)
(4.95891 -0.00272516 0)
(4.95229 -0.00361159 0)
(4.94365 -0.00478095 0)
(4.93235 -0.00632257 0)
(4.91757 -0.00835462 0)
(4.89819 -0.011034 0)
(4.87276 -0.0145702 0)
(4.83935 -0.0192449 0)
(4.79539 -0.0254398 0)
(4.73743 -0.0336786 0)
(4.66086 -0.0446867 0)
(4.55935 -0.0594837 0)
(4.42428 -0.0795126 0)
(4.24368 -0.10684 0)
(4.0011 -0.144372 -8.58961e-34)
(3.67302 -0.196196 0)
(3.23007 -0.267482 0)
(2.62567 -0.363791 0)
(1.84647 -0.487786 0)
(0.731916 -0.577921 0)
(4.98691 3.41233e-05 0)
(4.98699 9.17012e-05 0)
(4.98719 0.000146712 0)
(4.98696 0.000191629 0)
(4.98648 0.000225423 0)
(4.98601 0.000249873 0)
(4.98557 0.000267084 0)
(4.98513 0.000278884 0)
(4.98467 0.000287042 0)
(4.98421 0.00029331 -5.61894e-34)
(4.98375 0.000299313 0)
(4.9833 0.000306515 0)
(4.98285 0.000316273 0)
(4.9824 0.000329915 0)
(4.98193 0.000348839 0)
(4.98144 0.000374662 -5.60129e-34)
(4.98091 0.000409409 0)
(4.98031 0.000455714 0)
(4.97963 0.000517005 0)
(4.97883 0.000597729 0)
(4.97787 0.00070367 0)
(4.9767 0.000842396 0)
(4.97523 0.00102386 0)
(4.97338 0.00126118 5.59017e-34)
(4.97102 0.00157161 0)
(4.96799 0.0019778 0)
(4.96407 0.00250955 0)
(4.95899 0.00320596 0)
(4.95237 0.00411846 0)
(4.94374 0.00531477 0)
(4.93245 0.00688424 0)
(4.91767 0.0089451 0)
(4.8983 0.0116544 0)
(4.87288 0.0152218 0)
(4.83948 0.0199293 0)
(4.79553 0.0261595 0)
(4.73759 0.0344369 0)
(4.66103 0.0454891 0)
(4.55954 0.0603383 0)
(4.4245 0.080432 0)
(4.24392 0.107842 0)
(4.00137 0.145483 8.58783e-34)
(3.67333 0.197448 0)
(3.23041 0.268906 0)
(2.62602 0.365413 0)
(1.84677 0.489479 0)
(0.731997 0.580093 0)
(4.88689 9.55004e-05 0)
(4.88698 0.000269746 0)
(4.88717 0.00042428 0)
(4.88692 0.00054401 0)
(4.88643 0.000628535 0)
(4.88595 0.00068452 0)
(4.8855 0.000718767 0)
(4.88506 0.000736825 0)
(4.88461 0.00074398 0)
(4.88416 0.000745465 0)
(4.88371 0.000746061 0)
(4.88328 0.000749988 0)
(4.88285 0.000761129 0)
(4.88242 0.00078331 0)
(4.88197 0.000820599 0)
(4.88151 0.000877704 0)
(4.88101 0.000960489 0)
(4.88046 0.00107653 0)
(4.87983 0.00123568 0)
(4.87909 0.00145079 0)
(4.87821 0.00173856 0)
(4.87714 0.00212091 0)
(4.87581 0.00262668 0)
(4.87413 0.00329386 0)
(4.87199 0.00417248 0)
(4.86925 0.00532828 0)
(4.86571 0.00684764 0)
(4.86112 0.00884399 0)
(4.85515 0.0114665 0)
(4.84736 0.0149113 0)
(4.83719 0.0194373 0)
(4.82387 0.0253863 0)
(4.80642 0.0332119 0)
(4.78354 0.0435186 0)
(4.75352 0.0571176 0)
(4.71407 0.0751061 0)
(4.66219 0.0989853 0)
(4.59381 0.130832 0)
(4.5035 0.173567 0)
(4.38386 0.231328 0)
(4.22461 0.310126 0)
(4.01167 0.418474 0)
(3.72421 0.569215 0)
(3.33513 0.777927 0)
(2.79701 1.07061 0)
(2.06802 1.44327 0)
(0.923182 1.81653 0)
(4.68687 0.000163669 0)
(4.68694 0.000465867 0)
(4.68712 0.000724713 0)
(4.68684 0.000917147 0)
(4.68632 0.00104663 0)
(4.68582 0.0011276 0)
(4.68537 0.00117248 0)
(4.68493 0.00119066 0)
(4.68449 0.00119123 0)
(4.68405 0.00118316 0)
(4.68362 0.00117433 0)
(4.68322 0.00117129 0)
(4.68282 0.00117997 0)
(4.68242 0.00120623 0)
(4.68203 0.00125635 0)
(4.68161 0.00133761 0)
(4.68118 0.00145907 0)
(4.6807 0.00163242 0)
(4.68017 0.00187294 0)
(4.67956 0.00220053 0)
(4.67883 0.00264117 0)
(4.67795 0.00322897 0)
(4.67687 0.00400879 0)
(4.67552 0.0050398 0)
(4.67381 0.00639988 0)
(4.67162 0.00819139 0)
(4.66879 0.0105487 0)
(4.66514 0.0136485 0)
(4.6604 0.0177224 0)
(4.65422 0.0230755 0)
(4.64616 0.0301089 0)
(4.63562 0.0393521 0)
(4.62183 0.0515049 0)
(4.60378 0.0674969 0)
(4.58017 0.0885694 0)
(4.54925 0.116392 0)
(4.5088 0.153235 0)
(4.45588 0.202219 0)
(4.38664 0.267712 0)
(4.2961 0.355886 0)
(4.17735 0.475823 0)
(4.02191 0.640482 0)
(3.81431 0.871276 0)
(3.54215 1.19599 0)
(3.13268 1.68106 0)
(2.65123 2.42042 0)
(0.995663 3.59938 0)
(4.38683 0.000245662 0)
(4.38688 0.000697615 0)
(4.38703 0.00106795 0)
(4.38669 0.00132703 0)
(4.38612 0.0014905 0)
(4.38559 0.00158563 0)
(4.38514 0.00163078 0)
(4.3847 0.00163873 0)
(4.38428 0.00162286 0)
(4.38386 0.00159647 0)
(4.38347 0.00157046 0)
(4.38311 0.00155327 0)
(4.38276 0.0015522 0)
(4.38242 0.00157454 0)
(4.38208 0.0016281 0)
(4.38174 0.00172188 0)
(4.3814 0.00186707 0)
(4.38103 0.00207818 0)
(4.38063 0.00237427 0)
(4.38019 0.00278027 0)
(4.37967 0.00332878 0)
(4.37907 0.00406265 0)
(4.37834 0.00503831 0)
(4.37744 0.0063302 0)
(4.37631 0.00803632 0)
(4.37488 0.0102855 0)
(4.37306 0.0132467 0)
(4.37071 0.0171421 0)
(4.36767 0.0222629 0)
(4.36373 0.0289915 0)
(4.35859 0.0378306 0)
(4.3519 0.0494407 0)
(4.34316 0.0646919 0)
(4.33178 0.0847329 0)
(4.31695 0.111085 0)
(4.29769 0.145777 0)
(4.27276 0.191529 0)
(4.24068 0.25203 0)
(4.19963 0.332362 0)
(4.1478 0.439592 0)
(4.08274 0.58399 0)
(4.00478 0.780174 0)
(3.90761 1.05255 0)
(3.82289 1.43382 0)
(3.68261 2.005 0)
(3.93756 2.80283 0)
(3.63983 4.51939 0)
(3.98676 0.000353663 0)
(3.98678 0.000993568 0)
(3.98687 0.00148244 0)
(3.98645 0.00179202 0)
(3.98581 0.00196857 0)
(3.98524 0.00206021 0)
(3.98478 0.00209092 0)
(3.98436 0.00207627 0)
(3.98395 0.00203422 0)
(3.98358 0.00198205 0)
(3.98323 0.00193261 0)
(3.98292 0.00189506 0)
(3.98264 0.00187717 0)
(3.98237 0.00188684 0)
(3.98211 0.00193263 0)
(3.98187 0.00202432 0)
(3.98164 0.00217402 0)
(3.9814 0.00239752 0)
(3.98117 0.00271564 0)
(3.98093 0.0031558 0)
(3.98067 0.00375391 0)
(3.9804 0.00455722 0)
(3.98009 0.00562805 0)
(3.97973 0.00704862 0)
(3.97931 0.00892721 0)
(3.9788 0.0114062 0)
(3.97817 0.0146723 0)
(3.97738 0.0189709 0)
(3.97638 0.0246233 0)
(3.9751 0.0320512 0)
(3.97345 0.0418073 0)
(3.97132 0.0546154 0)
(3.96857 0.0714241 0)
(3.96504 0.0934762 0)
(3.96054 0.122402 0)
(3.95486 0.160341 0)
(3.94786 0.210117 0)
(3.93952 0.275461 0)
(3.93012 0.361346 0)
(3.92088 0.47446 0)
(3.91373 0.623893 0)
(3.91649 0.822167 0)
(3.93374 1.08678 0)
(4.01587 1.44053 0)
(4.1346 1.92205 0)
(4.58002 2.48879 0)
(5.11745 3.51128 0)
(3.48664 0.00051123 0)
(3.4866 0.0014011 0)
(3.48659 0.0020107 0)
(3.48602 0.00234149 0)
(3.48529 0.00249802 0)
(3.4847 0.00255439 0)
(3.48424 0.00253976 0)
(3.48385 0.00247549 0)
(3.48348 0.00238662 0)
(3.48316 0.00229409 0)
(3.48289 0.00221088 0)
(3.48265 0.00214493 0)
(3.48245 0.00210292 0)
(3.48227 0.002092 0)
(3.48212 0.00212012 0)
(3.48199 0.00219642 0)
(3.48189 0.00233227 0)
(3.48182 0.00254275 0)
(3.48178 0.00284813 0)
(3.48178 0.00327532 0)
(3.48182 0.00385974 0)
(3.48191 0.00464815 0)
(3.48207 0.00570233 0)
(3.48232 0.00710388 0)
(3.48267 0.00896033 0)
(3.48317 0.0114131 0)
(3.48384 0.0146478 0)
(3.48474 0.018908 0)
(3.48595 0.0245131 0)
(3.48754 0.0318814 0)
(3.48965 0.0415603 0)
(3.49242 0.0542643 0)
(3.49607 0.0709252 0)
(3.50089 0.0927538 0)
(3.50728 0.12132 0)
(3.51581 0.158652 0)
(3.52733 0.207359 0)
(3.54311 0.270782 0)
(3.56511 0.353153 0)
(3.59662 0.45983 0)
(3.64246 0.597242 0)
(3.71239 0.773387 0)
(3.81702 0.995288 0)
(3.98724 1.27057 0)
(4.23882 1.59619 0)
(4.62921 1.9177 0)
(5.24991 2.30952 0)
(2.88646 0.00077583 0)
(2.88626 0.00199234 0)
(2.88605 0.00268251 0)
(2.88529 0.00298597 0)
(2.88446 0.00310037 0)
(2.88386 0.00310725 0)
(2.88343 0.00302981 0)
(2.8831 0.0028977 0)
(2.88283 0.00274571 0)
(2.88262 0.00259792 0)
(2.88247 0.00246632 0)
(2.88238 0.00235703 0)
(2.88232 0.00227521 0)
(2.8823 0.00222667 0)
(2.88232 0.00221795 0)
(2.88238 0.00225639 0)
(2.88248 0.00235124 0)
(2.88264 0.00251516 0)
(2.88287 0.00276552 0)
(2.88317 0.00312575 0)
(2.88358 0.00362692 0)
(2.88411 0.00431027 0)
(2.88481 0.00523044 0)
(2.88572 0.0064598 0)
(2.8869 0.0080938 0)
(2.88845 0.0102582 0)
(2.89046 0.013118 0)
(2.89308 0.0168905 0)
(2.89649 0.0218601 0)
(2.90095 0.0284 0)
(2.90676 0.0369978 0)
(2.91435 0.0482895 0)
(2.92425 0.0631008 0)
(2.93717 0.0824985 0)
(2.95406 0.107851 0)
(2.97615 0.140898 0)
(3.00511 0.183821 0)
(3.04319 0.239311 0)
(3.09346 0.310585 0)
(3.16024 0.401381 0)
(3.24942 0.515546 0)
(3.3695 0.656909 0)
(3.53164 0.826587 0)
(3.74949 1.02305 0)
(4.04788 1.2364 0)
(4.42507 1.42865 0)
(4.93881 1.59454 0)
(2.1861 0.00132525 0)
(2.18552 0.00297437 0)
(2.18502 0.00355332 0)
(2.18412 0.00363142 0)
(2.18333 0.00357666 0)
(2.18288 0.00345446 0)
(2.18269 0.00326589 0)
(2.18264 0.00304313 0)
(2.1827 0.0028228 0)
(2.18285 0.00262338 0)
(2.18308 0.00244989 0)
(2.18337 0.00230343 0)
(2.1837 0.00218578 0)
(2.18408 0.00210006 0)
(2.18449 0.00205021 0)
(2.18495 0.00204085 0)
(2.18547 0.00207819 0)
(2.18604 0.00217124 0)
(2.1867 0.00233284 0)
(2.18746 0.00258051 0)
(2.18836 0.0029377 0)
(2.18944 0.00343563 0)
(2.19075 0.00411586 0)
(2.19237 0.00503351 0)
(2.1944 0.00626148 0)
(2.19697 0.00789595 0)
(2.20023 0.0100636 0)
(2.20442 0.0129314 0)
(2.20982 0.0167187 0)
(2.21681 0.0217142 0)
(2.22587 0.0282957 0)
(2.23764 0.0369574 0)
(2.25296 0.0483409 0)
(2.27289 0.0632747 0)
(2.29882 0.0828162 0)
(2.33254 0.108297 0)
(2.37633 0.141354 0)
(2.43313 0.183949 0)
(2.50671 0.238308 0)
(2.60181 0.306802 0)
(2.72445 0.391558 0)
(2.88186 0.494016 0)
(3.08333 0.613725 0)
(3.33714 0.74676 0)
(3.65781 0.886527 0)
(4.04584 1.01029 0)
(4.5048 1.10087 0)
(1.38541 0.00242084 0)
(1.38419 0.00490166 0)
(1.38389 0.00532686 0)
(1.38391 0.00499761 0)
(1.38437 0.00453756 0)
(1.38523 0.00404046 0)
(1.38631 0.00352331 0)
(1.38748 0.00303483 0)
(1.38866 0.00261114 0)
(1.38983 0.0022593 0)
(1.39097 0.00197214 0)
(1.39207 0.00174092 0)
(1.39312 0.00155911 0)
(1.39414 0.00142212 0)
(1.39513 0.00132664 0)
(1.39611 0.00127069 0)
(1.39709 0.00125419 0)
(1.3981 0.00127965 0)
(1.39916 0.00135248 0)
(1.4003 0.00148138 0)
(1.40157 0.0016789 0)
(1.40303 0.0019625 0)
(1.40474 0.00235604 0)
(1.4068 0.00289159 0)
(1.40932 0.00361203 0)
(1.41247 0.00457429 0)
(1.41644 0.00585396 0)
(1.42151 0.00755108 0)
(1.42803 0.00979822 0)
(1.43646 0.0127705 0)
(1.44739 0.0166994 0)
(1.46162 0.0218891 0)
(1.48016 0.0287385 0)
(1.50433 0.0377653 0)
(1.53584 0.0496346 0)
(1.57688 0.0651846 0)
(1.63021 0.0854441 0)
(1.69929 0.111626 0)
(1.78839 0.145076 0)
(1.90264 0.187145 0)
(2.04808 0.238948 0)
(2.23142 0.300947 0)
(2.46003 0.372505 0)
(2.7402 0.450394 0)
(3.07762 0.529579 0)
(3.47178 0.597469 0)
(3.91312 0.640188 0)
(0.48939 0.0025631 0)
(0.494049 0.00389044 0)
(0.498828 0.00318373 0)
(0.503058 0.00227774 0)
(0.506566 0.00164116 0)
(0.509473 0.00118663 0)
(0.51189 0.000840414 0)
(0.513886 0.000590017 0)
(0.515533 0.000422019 0)
(0.516907 0.000312277 0)
(0.518073 0.000239732 0)
(0.519079 0.000191988 0)
(0.519962 0.000162553 0)
(0.520754 0.000147292 0)
(0.521484 0.000143018 0)
(0.522175 0.000147604 0)
(0.522851 0.000160309 0)
(0.523536 0.0001817 0)
(0.524255 0.000213369 0)
(0.525037 0.000257772 0)
(0.525918 0.000318339 0)
(0.526944 0.000399748 0)
(0.528169 0.000508306 0)
(0.529668 0.00065243 0)
(0.531535 0.000843365 0)
(0.533894 0.00109615 0)
(0.53691 0.00143095 0)
(0.540798 0.00187484 0)
(0.545844 0.00246413 0)
(0.552424 0.00324748 0)
(0.561041 0.0042902 0)
(0.572359 0.00567987 0)
(0.587263 0.00753377 0)
(0.606924 0.0100078 0)
(0.632895 0.0133074 0)
(0.667215 0.0176975 0)
(0.71254 0.0235105 0)
(0.772282 0.0311445 0)
(0.850717 0.0410456 0)
(0.95305 0.0536574 0)
(1.08535 0.0693335 0)
(1.25422 0.0881557 0)
(1.4663 0.109777 0)
(1.72675 0.132828 0)
(2.03804 0.155025 0)
(2.39687 0.171891 0)
(2.79164 0.178585 0)
(3.20569 -0.171553 0)
(3.59843 -0.145854 0)
(3.9381 -0.108565 0)
(4.20432 -0.0684974 0)
(4.39468 -0.0303903 0)
(4.51536 0.00433037 0)
(4.38233 -0.640242 0)
(4.83901 -0.579911 0)
(5.24757 -0.483862 0)
(5.59003 -0.378973 0)
(5.86589 -0.277694 0)
(6.08099 -0.184338 0)
(5.02097 -1.11232 0)
(5.54492 -1.01044 0)
(6.01133 -0.851538 0)
(6.39339 -0.682165 0)
(6.69183 -0.517716 0)
(6.91455 -0.365859 0)
(5.60928 -1.63204 0)
(6.29781 -1.50663 0)
(6.82767 -1.29308 0)
(7.16751 -1.04659 0)
(7.36581 -0.797243 0)
(7.46957 -0.571307 0)
(6.15989 -2.40337 0)
(6.79882 -2.1802 0)
(6.96834 -1.78189 0)
(6.82632 -1.33112 0)
(6.5943 -0.926135 0)
(6.3657 -0.614893 0)
(6.03447 -3.44705 0)
(5.61823 -2.5201 0)
(4.60646 -1.55727 0)
(3.72227 -0.823754 0)
(3.08803 -0.32275 0)
(2.64724 -0.00505041 0)
(3.6809 -2.97774 0)
(1.35138 -0.75435 0)
(-0.560634 0.389954 0)
(-0.520829 0.34987 0)
(-0.626704 0.204543 0)
(-0.554932 -0.0589324 0)
(3.68945 2.9826 0)
(1.36202 0.758579 0)
(-0.557747 -0.390392 0)
(-0.520339 -0.357936 0)
(-0.61832 -0.223647 0)
(-0.527205 0.0328868 0)
(6.04613 3.44636 0)
(5.63612 2.51927 0)
(4.63253 1.55648 0)
(3.75885 0.822198 0)
(3.13869 0.319081 0)
(2.70925 -0.00300348 0)
(6.16744 2.39665 0)
(6.80955 2.1698 0)
(6.98462 1.76762 0)
(6.85057 1.31224 0)
(6.6286 0.90188 0)
(6.41212 0.585653 0)
(5.61214 1.62477 0)
(6.30008 1.49489 0)
(6.82891 1.27543 0)
(7.16764 1.02183 0)
(7.36488 0.7646 0)
(7.46804 0.530366 0)
(5.02055 1.10644 0)
(5.5425 1.00147 0)
(6.00546 0.838302 0)
(6.38238 0.663497 0)
(6.67392 0.492607 0)
(6.88809 0.333269 0)
(4.37927 0.636197 0)
(4.83329 0.573973 0)
(5.23785 0.475396 0)
(5.57457 0.36724 0)
(5.84243 0.261775 0)
(6.04768 0.163118 0)
(3.20049 0.16994 0)
(3.58983 0.143487 0)
(3.9246 0.105195 0)
(4.18384 0.0638322 0)
(4.36467 0.0239876 0)
(4.47184 -0.0129925 0)
(4.5753 0.0359231 0)
(4.57725 0.0658531 0)
(4.52312 0.0945715 0)
(4.42186 0.120959 0)
(4.27966 0.143822 0)
(4.10014 0.162785 0)
(3.88574 0.178081 0)
(3.63828 0.189909 0)
(3.35944 0.19797 0)
(3.05165 0.201378 0)
(2.719 0.198865 0)
(2.36777 0.189148 0)
(2.00663 0.171351 0)
(1.64632 0.145451 0)
(1.29902 0.112677 0)
(0.977191 0.0757606 0)
(0.692131 0.0388501 0)
(0.452336 0.00682227 0)
(0.261963 -0.016194 0)
(0.120237 -0.0288042 0)
(0.0220374 -0.0335351 0)
(-0.0420099 -0.0339053 0)
(-0.0807856 -0.0301569 0)
(-0.101236 -0.0234042 0)
(-0.110232 -0.0161437 0)
(-0.11226 -0.0101365 0)
(-0.109519 -0.00600472 0)
(-0.103514 -0.00317673 0)
(-0.0935254 -0.00166825 0)
(-0.0780434 -0.00214495 0)
(-0.0550207 -0.00448064 0)
(-0.0226353 -0.0079661 0)
(0.0203173 -0.0119353 0)
(0.074452 -0.0160282 0)
(0.139855 -0.0201423 0)
(0.216209 -0.0241342 0)
(0.302744 -0.0278379 0)
(0.398339 -0.0311148 0)
(0.501653 -0.0338786 0)
(0.611211 -0.0360866 0)
(0.725636 -0.0377765 0)
(0.843343 -0.0389297 0)
(0.964119 -0.0399122 0)
(1.0839 -0.0398698 0)
(1.21271 -0.0418842 0)
(1.31206 -0.0362818 0)
(1.49803 -0.0491647 0)
(6.24166 -0.101186 0)
(6.36033 -0.0275837 0)
(6.44999 0.0390883 0)
(6.51266 0.100902 0)
(6.54826 0.159405 0)
(6.55547 0.216101 0)
(6.53183 0.272381 0)
(6.47363 0.328959 0)
(6.37631 0.385435 0)
(6.23514 0.440182 0)
(6.04606 0.490491 0)
(5.80644 0.532855 0)
(5.51572 0.56339 0)
(5.17607 0.578367 0)
(4.79296 0.574863 0)
(4.37529 0.551449 0)
(3.93517 0.508779 0)
(3.48705 0.449824 0)
(3.04646 0.379574 0)
(2.62848 0.304172 0)
(2.24631 0.229734 0)
(1.9098 0.161273 0)
(1.62586 0.102706 0)
(1.3981 0.0562341 0)
(1.22574 0.0216924 0)
(1.10486 -0.00306723 0)
(1.02971 -0.0209739 0)
(0.993341 -0.0352729 0)
(0.993526 -0.0479448 0)
(1.02393 -0.0601403 0)
(1.07839 -0.0730332 0)
(1.15317 -0.0872578 0)
(1.2457 -0.102661 0)
(1.35368 -0.118637 0)
(1.47487 -0.134474 0)
(1.60717 -0.14949 0)
(1.74854 -0.163107 0)
(1.897 -0.174902 0)
(2.05066 -0.184638 0)
(2.20778 -0.192262 0)
(2.36698 -0.197896 0)
(2.52673 -0.201783 0)
(2.68725 -0.204391 0)
(2.84425 -0.205851 0)
(3.01083 -0.207923 0)
(3.1406 -0.206637 0)
(3.38291 -0.218769 0)
(7.0742 -0.234197 0)
(7.18699 -0.124579 0)
(7.26629 -0.0330406 0)
(7.32247 0.0460296 0)
(7.3632 0.11819 0)
(7.39161 0.188726 0)
(7.40861 0.261814 0)
(7.41329 0.339822 0)
(7.40322 0.423184 0)
(7.37491 0.510622 0)
(7.32408 0.599436 0)
(7.2457 0.685729 0)
(7.13427 0.764639 0)
(6.98425 0.830686 0)
(6.79114 0.878314 0)
(6.55256 0.902694 0)
(6.26955 0.900626 0)
(5.94729 0.871306 0)
(5.59515 0.816642 0)
(5.22601 0.741001 0)
(4.85479 0.650472 0)
(4.49668 0.551843 0)
(4.16551 0.451317 0)
(3.87232 0.353716 0)
(3.62462 0.262358 0)
(3.42641 0.179078 0)
(3.27828 0.104441 0)
(3.179 0.0379829 0)
(3.12275 -0.0216282 0)
(3.1076 -0.0751137 0)
(3.12863 -0.123008 0)
(3.18009 -0.16587 0)
(3.25641 -0.204174 0)
(3.35239 -0.238169 0)
(3.46332 -0.267884 0)
(3.58513 -0.293245 0)
(3.71435 -0.314188 0)
(3.84809 -0.330744 0)
(3.98398 -0.343088 0)
(4.12015 -0.351568 0)
(4.25519 -0.356676 0)
(4.38796 -0.359104 0)
(4.51841 -0.359514 0)
(4.64412 -0.359215 0)
(4.77326 -0.358235 0)
(4.87556 -0.36058 0)
(5.05305 -0.363693 0)
(7.51701 -0.383521 0)
(7.53904 -0.230433 0)
(7.55457 -0.10417 0)
(7.57107 0.00165287 0)
(7.5893 0.0929599 0)
(7.6097 0.177104 0)
(7.6311 0.260759 0)
(7.65106 0.348344 0)
(7.66684 0.441676 0)
(7.67604 0.54037 0)
(7.67653 0.642564 0)
(7.66607 0.745434 0)
(7.6418 0.845313 0)
(7.60001 0.937598 0)
(7.53629 1.01681 0)
(7.44625 1.07703 0)
(7.32645 1.11273 0)
(7.17547 1.11977 0)
(6.99473 1.09623 0)
(6.78887 1.04282 0)
(6.56545 0.962851 0)
(6.33414 0.86164 0)
(6.10556 0.745568 0)
(5.89003 0.621165 0)
(5.69642 0.494418 0)
(5.53145 0.370268 0)
(5.3993 0.25231 0)
(5.30144 0.142831 0)
(5.23758 0.0428742 0)
(5.20386 -0.0475755 0)
(5.19722 -0.128476 0)
(5.21364 -0.199762 0)
(5.24886 -0.261534 0)
(5.29864 -0.314044 0)
(5.35904 -0.357633 0)
(5.42655 -0.392722 0)
(5.49816 -0.419836 0)
(5.5714 -0.439619 0)
(5.64431 -0.452842 0)
(5.71541 -0.4604 0)
(5.78366 -0.463276 0)
(5.84835 -0.462611 0)
(5.90922 -0.459389 0)
(5.96564 -0.455507 0)
(6.01954 -0.450361 0)
(6.06246 -0.451627 0)
(6.12458 -0.444478 0)
(6.17549 -0.40264 0)
(6.04727 -0.254555 0)
(5.97823 -0.142573 0)
(5.95778 -0.0518337 0)
(5.97561 0.0280482 0)
(6.02775 0.104598 0)
(6.10887 0.184147 0)
(6.21189 0.271026 0)
(6.32953 0.367101 0)
(6.45536 0.471944 0)
(6.58407 0.58338 0)
(6.7108 0.698397 0)
(6.83061 0.813454 0)
(6.9382 0.924149 0)
(7.02831 1.02496 0)
(7.0964 1.10951 0)
(7.13923 1.17133 0)
(7.1552 1.20479 0)
(7.14454 1.20609 0)
(7.10926 1.17391 0)
(7.05298 1.10963 0)
(6.98065 1.01706 0)
(6.8981 0.901828 0)
(6.81152 0.770559 0)
(6.72686 0.630118 0)
(6.64919 0.486931 0)
(6.58227 0.346476 0)
(6.52822 0.212966 0)
(6.48776 0.0893611 0)
(6.46002 -0.0226002 0)
(6.44296 -0.121998 0)
(6.43453 -0.208386 0)
(6.43241 -0.281768 0)
(6.43423 -0.342537 0)
(6.43783 -0.391353 0)
(6.44129 -0.429058 0)
(6.44306 -0.456637 0)
(6.44196 -0.4752 0)
(6.43723 -0.485948 0)
(6.42847 -0.490161 0)
(6.41556 -0.489156 0)
(6.39872 -0.484306 0)
(6.37796 -0.476847 0)
(6.35444 -0.468491 0)
(6.32514 -0.459212 0)
(6.30114 -0.454975 0)
(6.24596 -0.441802 0)
(2.35357 0.112153 0)
(2.26811 0.133254 0)
(2.30714 0.118348 0)
(2.4096 0.0985234 0)
(2.56139 0.0864485 0)
(2.75391 0.0897313 0)
(2.9776 0.112659 0)
(3.22261 0.157132 0)
(3.48307 0.221821 0)
(3.75541 0.303306 0)
(4.03646 0.398655 0)
(4.32361 0.505162 0)
(4.61281 0.619993 0)
(4.89769 0.739043 0)
(5.17051 0.856075 0)
(5.42384 0.963011 0)
(5.65193 1.05106 0)
(5.85135 1.1122 0)
(6.02105 1.14053 0)
(6.16185 1.13317 0)
(6.27575 1.09052 0)
(6.36542 1.01578 0)
(6.43384 0.914171 0)
(6.48418 0.792147 0)
(6.5196 0.656766 0)
(6.54301 0.515105 0)
(6.55675 0.37364 0)
(6.56244 0.237696 0)
(6.56099 0.111229 0)
(6.55303 -0.0030387 0)
(6.538 -0.103596 0)