/*--------------------------------*- C++ -*----------------------------------*\
| =========                 |                                                 |
| \\      /  F ield         | OpenFOAM: The Open Source CFD Toolbox           |
|  \\    /   O peration     | Version:  2406                                  |
|   \\  /    A nd           | Website:  www.openfoam.com                      |
|    \\/     M anipulation  |                                                 |
\*---------------------------------------------------------------------------*/
FoamFile
{
    version     2.0;
    format      ascii;
    arch        "LSB;label=32;scalar=64";
    class       volScalarField;
    location    "98";
    object      p;
}
// * * * * * * * * * * * * * * * * * * * * * * * * * * * * * * * * * * * * * //

dimensions      [0 2 -2 0 0 0 0];

internalField   nonuniform List<scalar> 
1800
(
9.58222
9.54749
9.49096
9.41845
9.32323
9.19495
9.02443
8.80066
8.5128
8.13319
9.6702
9.61431
9.54295
9.46595
9.37109
9.24558
9.08182
8.87413
8.62093
8.32921
9.91118
9.83947
9.75553
9.67763
9.59039
9.47949
9.34119
9.17766
8.99746
8.82237
10.3107
10.2291
10.1391
10.0661
9.99383
9.90734
9.8058
9.69533
9.58543
9.49102
10.8209
10.7316
10.6412
10.5789
10.5261
10.4677
10.4045
10.3438
10.2933
10.262
11.361
11.2662
11.1802
11.1318
11.099
11.0665
11.0365
11.0164
11.0115
11.0265
11.8404
11.7449
11.6667
11.6315
11.6146
11.6017
11.596
11.604
11.6288
11.6723
12.1819
12.096
12.0288
12.0016
11.9927
11.9907
11.9988
12.0216
12.0608
12.1166
12.3441
12.2812
12.2291
12.2048
12.1959
12.1956
12.2063
12.2309
12.2701
12.3236
12.3606
12.3134
12.2692
12.2442
12.2325
12.2302
12.2389
12.2607
12.2963
12.3452
7.95904
7.95827
7.95703
7.9555
7.95371
7.95161
7.94916
7.94631
7.94301
7.93919
7.93473
7.9295
7.92326
7.91571
7.90635
7.89444
7.87907
7.85942
7.83574
7.81061
7.78847
7.77204
7.76014
7.75641
7.78623
7.90259
8.17663
8.67682
9.42566
10.3707
11.4072
12.4025
13.2189
13.7809
13.9816
7.95993
7.95908
7.95788
7.95647
7.95479
7.95278
7.95043
7.9477
7.94453
7.94088
7.93665
7.93174
7.92597
7.9191
7.91091
7.90114
7.88952
7.87564
7.8589
7.83872
7.8135
7.77491
7.70404
7.5952
7.50674
7.56469
7.86227
8.42052
9.2003
10.1385
11.1514
12.1394
12.9623
13.4881
13.6212
7.96127
7.96017
7.9589
7.95757
7.95597
7.95404
7.95179
7.94918
7.94619
7.94277
7.93887
7.9344
7.9292
7.92324
7.91667
7.90971
7.90262
7.89544
7.88651
7.8694
7.82864
7.73911
7.5874
7.41521
7.32674
7.42512
7.7218
8.24094
8.97704
9.86316
10.8057
11.6905
12.3823
12.7544
12.7208
7.96214
7.96077
7.95936
7.958
7.95635
7.9544
7.95214
7.94955
7.94661
7.94326
7.93944
7.93508
7.93014
7.925
7.92058
7.91779
7.91684
7.91722
7.91546
7.90011
7.85041
7.74488
7.58805
7.42307
7.32926
7.40087
7.68261
8.16907
8.83504
9.61595
10.4111
11.0964
11.5382
11.618
11.2634
7.96086
7.95938
7.95783
7.95634
7.95453
7.95242
7.95
7.94727
7.94415
7.94053
7.93629
7.93145
7.92631
7.9216
7.91873
7.91905
7.92268
7.92847
7.93178
7.91951
7.87561
7.78282
7.64262
7.50045
7.43164
7.51329
7.77911
8.21773
8.79181
9.42684
10.0093
10.4021
10.4654
10.0832
9.20806
7.95473
7.95363
7.95226
7.95084
7.94904
7.94693
7.94449
7.94171
7.93849
7.93457
7.9297
7.92414
7.9187
7.91413
7.91171
7.91315
7.91874
7.92706
7.93342
7.92613
7.89004
7.81511
7.71229
7.62492
7.61421
7.73507
8.00914
8.41617
8.89969
9.36808
9.69708
9.74214
9.35815
8.40846
6.8397
7.93989
7.94067
7.94091
7.94071
7.93983
7.9385
7.93675
7.93457
7.93196
7.92854
7.92397
7.91875
7.91394
7.91006
7.90779
7.90869
7.91385
7.92278
7.93237
7.93546
7.92393
7.89712
7.87026
7.87766
7.96262
8.15847
8.46891
8.85901
9.2566
9.55734
9.62399
9.30497
8.45188
6.91774
4.6734
7.90967
7.91774
7.92431
7.92852
7.93053
7.93136
7.93133
7.93044
7.92905
7.92693
7.92325
7.91824
7.91317
7.90959
7.91002
7.91767
7.93485
7.96256
8.00037
8.04595
8.09718
8.15768
8.24121
8.37131
8.57303
8.85919
9.21754
9.60483
9.944
10.1268
9.99254
9.35906
7.96291
5.65547
2.52926
7.84402
7.88766
7.91325
7.92369
7.92898
7.93233
7.93297
7.93167
7.92963
7.92736
7.92568
7.92649
7.93225
7.94586
7.97114
8.01223
8.07246
8.15398
8.25785
8.38392
8.53223
8.70609
8.91407
9.16821
9.4779
9.84182
10.2409
10.6354
10.9612
11.1313
10.9921
10.3529
8.66438
5.5704
-0.0502634
7.65702
7.84853
7.92157
7.92221
7.92261
7.93019
7.93687
7.94299
7.95238
7.96746
7.99012
8.02299
8.06942
8.13308
8.21786
8.32751
8.46474
8.63087
8.82594
9.04915
9.29976
9.57844
9.88786
10.231
10.6076
11.01
11.4201
11.8102
12.1423
12.3759
12.436
12.257
11.3654
9.39547
1.64227
7.80109
7.92999
8.00232
7.98496
7.97998
8.00441
8.0393
8.07898
8.12813
8.19074
8.26891
8.36482
8.48113
8.62053
8.78542
8.97774
9.19844
9.44713
9.72236
10.022
10.3439
10.6861
11.0466
11.4229
11.8097
12.1972
12.5714
12.9162
13.2173
13.4717
13.6815
13.8993
14.0805
14.5033
13.4919
8.11804
8.13579
8.20363
8.23682
8.27586
8.34172
8.42422
8.51688
8.6228
8.74614
8.88896
9.05247
9.23788
9.44631
9.67851
9.93467
10.214
10.5147
10.8338
11.1678
11.513
11.8651
12.2193
12.57
12.9098
13.2294
13.5185
13.7689
13.9786
14.1587
14.3346
14.5631
14.8847
15.4069
15.8036
8.70374
8.69562
8.75871
8.82897
8.90453
9.00207
9.12253
9.26098
9.41697
9.59247
9.78836
10.0043
10.2398
10.4941
10.7663
11.0548
11.3571
11.6701
11.9895
12.3109
12.6292
12.9391
13.2351
13.5112
13.7612
13.9784
14.1567
14.2928
14.3887
14.4567
14.5222
14.6304
14.833
15.2055
15.5971
9.43585
9.44608
9.51605
9.61291
9.72472
9.85815
10.0157
10.1939
10.3902
10.6041
10.8349
11.0808
11.3398
11.6097
11.888
12.1717
12.4572
12.7407
13.0174
13.2826
13.5316
13.7602
13.9647
14.1422
14.2901
14.4061
14.4884
14.536
14.5503
14.5392
14.5227
14.5369
14.6326
14.8467
15.0891
10.2626
10.3074
10.396
10.5145
10.653
10.8115
10.9912
11.1898
11.4043
11.6324
11.8716
12.119
12.3709
12.6237
12.8737
13.1173
13.3511
13.5713
13.7746
13.9575
14.1176
14.2536
14.3659
14.4559
14.5252
14.5751
14.605
14.6122
14.5932
14.5507
14.5016
14.4783
14.5217
14.6431
14.8035
11.0674
11.1396
11.2434
11.3733
11.5235
11.6918
11.8775
12.0784
12.2909
12.5114
12.7359
12.96
13.1792
13.3891
13.586
13.7672
13.9306
14.0751
14.1997
14.3039
14.3885
14.4549
14.5061
14.5459
14.5778
14.6036
14.6204
14.6213
14.6002
14.5588
14.5108
14.4852
14.5058
14.6061
14.7235
11.7368
11.8244
11.935
12.0663
12.2148
12.3781
12.5541
12.7401
12.9323
13.1264
13.3176
13.5012
13.6726
13.8281
13.9661
14.0861
14.1887
14.2749
14.3462
14.4038
14.4495
14.4861
14.5163
14.5431
14.5685
14.5925
14.611
14.6177
14.6065
14.5772
14.5432
14.5315
14.5683
14.6541
14.7109
12.1893
12.2792
12.3858
12.5075
12.6422
12.7878
12.9422
13.1025
13.2655
13.427
13.5827
13.7283
13.8597
13.9747
14.0736
14.1585
14.2319
14.2958
14.3515
14.3986
14.4378
14.4718
14.503
14.5323
14.5593
14.5831
14.6011
14.6103
14.6084
14.5976
14.5896
14.6038
14.649
14.6983
14.7107
12.3908
12.4715
12.5648
12.6699
12.7858
12.9113
13.0449
13.1847
13.328
13.4715
13.6114
13.7439
13.8646
13.9703
14.0613
14.1404
14.2111
14.2756
14.3342
14.3856
14.4292
14.4659
14.498
14.527
14.5527
14.574
14.5901
14.6008
14.6072
14.6127
14.6255
14.6549
14.6952
14.7193
14.7159
12.4073
12.482
12.5689
12.6673
12.7766
12.8959
13.0239
13.159
13.2987
13.4401
13.5795
13.713
13.8367
13.9475
14.0445
14.1288
14.2026
14.2682
14.327
14.3788
14.4235
14.462
14.4956
14.5252
14.5502
14.5699
14.5844
14.595
14.6047
14.6175
14.6396
14.6741
14.7108
14.7278
14.7224
13.7125
12.9834
11.8649
10.4541
8.86154
7.19661
5.55453
4.00961
2.61382
1.39894
13.304
12.5396
11.3949
9.97206
8.38232
6.73139
5.11094
3.59239
2.22381
1.03129
12.2391
11.3271
10.0719
8.59148
6.99438
5.37456
3.81388
2.3748
1.09464
-0.0110813
10.4607
9.26953
7.8249
6.264
4.67653
3.13123
1.69364
0.410056
-0.701372
-1.64156
7.8893
6.28977
4.62967
3.02691
1.50558
0.0997281
-1.1399
-2.18948
-3.05681
-3.76166
4.74609
2.5543
0.695906
-0.858493
-2.2425
-3.4379
-4.39243
-5.11974
-5.66639
-6.07102
1.60796
-1.44621
-3.53695
-4.99267
-6.19897
-7.10785
-7.66035
-7.94484
-8.07462
-8.11218
-1.82047
-5.58423
-7.65198
-8.7217
-9.42098
-9.75928
-9.75394
-9.55557
-9.29065
-9.00601
-7.80087
-10.1794
-10.8139
-10.8325
-10.6076
-10.306
-9.98294
-9.67144
-9.36697
-9.04922
-14.1148
-12.4273
-11.2915
-11.2231
-10.9555
-10.5176
-10.0726
-9.70789
-9.43398
-9.16798
0.381471
-0.436425
-1.08384
-1.59934
-1.99814
-2.28741
-2.47991
-2.59339
-2.64621
-2.65524
-2.63543
-2.59913
-2.55501
-2.50708
-2.45441
-2.39166
-2.31049
-2.20188
-2.05874
-1.87817
-1.66523
-1.43089
-1.19282
-0.974455
-0.794986
-0.660714
-0.561155
-0.476236
-0.396697
-0.327571
-0.271697
-0.226277
-0.187677
-0.154846
-0.127242
0.0214405
-0.816358
-1.49141
-2.01124
-2.39296
-2.65503
-2.81622
-2.89594
-2.91309
-2.88522
-2.82808
-2.75488
-2.6752
-2.59387
-2.51052
-2.41996
-2.31365
-2.18223
-2.01863
-1.82077
-1.59147
-1.34284
-1.10093
-0.893852
-0.739899
-0.635227
-0.554866
-0.474959
-0.39227
-0.318316
-0.26287
-0.221605
-0.185399
-0.152974
-0.125926
-0.941873
-1.70646
-2.31731
-2.78922
-3.1397
-3.38678
-3.54655
-3.63307
-3.6589
-3.6353
-3.57236
-3.47873
-3.36127
-3.22444
-3.07002
-2.89722
-2.70332
-2.48512
-2.24085
-1.97241
-1.68782
-1.40299
-1.13923
-0.915987
-0.742968
-0.614577
-0.514559
-0.426091
-0.347086
-0.290042
-0.253097
-0.218913
-0.181359
-0.146777
-0.121056
-2.42055
-3.05385
-3.55914
-3.95149
-4.24223
-4.44358
-4.5692
-4.63182
-4.64234
-4.60984
-4.5416
-4.44297
-4.31743
-4.16665
-3.99057
-3.78769
-3.5557
-3.2925
-2.99771
-2.67434
-2.33032
-1.97902
-1.63766
-1.32336
-1.04824
-0.816423
-0.626624
-0.476519
-0.363801
-0.284604
-0.22916
-0.185903
-0.15258
-0.132221
-0.117255
-4.32659
-4.77702
-5.13497
-5.41238
-5.61568
-5.7528
-5.83307
-5.8645
-5.85384
-5.80703
-5.72878
-5.62218
-5.48881
-5.32918
-5.14307
-4.92958
-4.68733
-4.4147
-4.1106
-3.7755
-3.41248
-3.02799
-2.63215
-2.23773
-1.85808
-1.50481
-1.18653
-0.908986
-0.675622
-0.486976
-0.340894
-0.234839
-0.165119
-0.122818
-0.0959936
-6.36806
-6.59676
-6.77808
-6.91132
-7.0006
-7.05702
-7.08708
-7.09181
-7.07071
-7.02389
-6.95166
-6.85386
-6.72977
-6.57863
-6.40007
-6.19412
-5.961
-5.70055
-5.41225
-5.0954
-4.74961
-4.37549
-3.9756
-3.55495
-3.12121
-2.68415
-2.25455
-1.84348
-1.46212
-1.12126
-0.829241
-0.589913
-0.40211
-0.260735
-0.160413
-8.10191
-8.11331
-8.14945
-8.17494
-8.17913
-8.17067
-8.15642
-8.13668
-8.10876
-8.06917
-8.0141
-7.93982
-7.84288
-7.72092
-7.57303
-7.40001
-7.20315
-6.98356
-6.74137
-6.4753
-6.18204
-5.85688
-5.49506
-5.09372
-4.65404
-4.18236
-3.68973
-3.19043
-2.7002
-2.23372
-1.80189
-1.41062
-1.06312
-0.762949
-0.514742
-8.74378
-8.61654
-8.58429
-8.57886
-8.57599
-8.57406
-8.5744
-8.57688
-8.57981
-8.57934
-8.56985
-8.54555
-8.50166
-8.4352
-8.34596
-8.2364
-8.10943
-7.9674
-7.81191
-7.64178
-7.45076
-7.22761
-6.95839
-6.63074
-6.2388
-5.7862
-5.28534
-4.75464
-4.21498
-3.68424
-3.17255
-2.68182
-2.21032
-1.7589
-1.33523
-8.78293
-8.68019
-8.64867
-8.62805
-8.61204
-8.60391
-8.60469
-8.61434
-8.63187
-8.65351
-8.67298
-8.68331
-8.67836
-8.6546
-8.61342
-8.55998
-8.49944
-8.43645
-8.37639
-8.32041
-8.26149
-8.18255
-8.0588
-7.8647
-7.58379
-7.21444
-6.76907
-6.27151
-5.75146
-5.23428
-4.73058
-4.23447
-3.72999
-3.20252
-2.65031
-8.8066
-8.67261
-8.63337
-8.61582
-8.60593
-8.60234
-8.60573
-8.61697
-8.63543
-8.65748
-8.67776
-8.69051
-8.68983
-8.67238
-8.64107
-8.60352
-8.56614
-8.53731
-8.52874
-8.54721
-8.58853
-8.63421
-8.65138
-8.60167
-8.4568
-8.20724
-7.86179
-7.44932
-7.01357
-6.59298
-6.2004
-5.81746
-5.40355
-4.91615
-4.33327
-8.6562
-8.6298
-8.61757
-8.60947
-8.60443
-8.6033
-8.60763
-8.61867
-8.63609
-8.65709
-8.67644
-8.68727
-8.68326
-8.66218
-8.6289
-8.59022
-8.55212
-8.52581
-8.52724
-8.56802
-8.64922
-8.7567
-8.85609
-8.90053
-8.85333
-8.69917
-8.44149
-8.11411
-7.78061
-7.50023
-7.29566
-7.13822
-6.9512
-6.64423
-6.15851
-8.60149
-8.59874
-8.59821
-8.59707
-8.59636
-8.59726
-8.60126
-8.60973
-8.62322
-8.64052
-8.65804
-8.67004
-8.67052
-8.65573
-8.62664
-8.58872
-8.55095
-8.52783
-8.53723
-8.58912
-8.6813
-8.80261
-8.92365
-8.99665
-8.98221
-8.86074
-8.63074
-8.33556
-8.06971
-7.91883
-7.91919
-8.03742
-8.1581
-8.13338
-7.85625
-8.58493
-8.58589
-8.58863
-8.59066
-8.59241
-8.59442
-8.59758
-8.60283
-8.61078
-8.62142
-8.63341
-8.64385
-8.64878
-8.64458
-8.62952
-8.60522
-8.57794
-8.56006
-8.56777
-8.61473
-8.7049
-8.82659
-8.94264
-9.00538
-8.98507
-8.85481
-8.60204
-8.27725
-8.0069
-7.92317
-8.10525
-8.52077
-8.9895
-9.28556
-9.25798
-8.58135
-8.58315
-8.58623
-8.58909
-8.5918
-8.59445
-8.59735
-8.60097
-8.60576
-8.61205
-8.61968
-8.6278
-8.6347
-8.63802
-8.63551
-8.62661
-8.61403
-8.60464
-8.60859
-8.63659
-8.69624
-8.78607
-8.88533
-8.95172
-8.9375
-8.80123
-8.5323
-8.20282
-7.93308
-7.84516
-8.09184
-8.69759
-9.45546
-10.0487
-10.2617
-8.58311
-8.58486
-8.58752
-8.59026
-8.59305
-8.59585
-8.59871
-8.60181
-8.60538
-8.60971
-8.61497
-8.62123
-8.62813
-8.6347
-8.63958
-8.64186
-8.64192
-8.64179
-8.64536
-8.6576
-8.68271
-8.72145
-8.76836
-8.81026
-8.81966
-8.74864
-8.55505
-8.26502
-8.00753
-7.98553
-8.33994
-9.05846
-9.93757
-10.6403
-10.9401
-8.58639
-8.58766
-8.58971
-8.5921
-8.59473
-8.59748
-8.60039
-8.60352
-8.607
-8.61096
-8.61549
-8.62075
-8.62688
-8.63376
-8.64087
-8.64772
-8.65416
-8.66044
-8.66743
-8.67657
-8.68875
-8.70394
-8.72245
-8.74599
-8.76821
-8.76108
-8.68101
-8.50934
-8.31749
-8.31345
-8.7377
-9.58207
-10.5353
-11.2449
-11.5048
-8.58932
-8.59
-8.59147
-8.59351
-8.59594
-8.59863
-8.60158
-8.60484
-8.60848
-8.61256
-8.61713
-8.62226
-8.62808
-8.63465
-8.64189
-8.64965
-8.65784
-8.66644
-8.67566
-8.68579
-8.69692
-8.7089
-8.72252
-8.74074
-8.76506
-8.78729
-8.78463
-8.72892
-8.63289
-8.63999
-9.02073
-9.88458
-10.8891
-11.5306
-11.7425
-8.59122
-8.59147
-8.5925
-8.59432
-8.59661
-8.59925
-8.60224
-8.60562
-8.60941
-8.61364
-8.61835
-8.62359
-8.62939
-8.6358
-8.6429
-8.6507
-8.6592
-8.66843
-8.67851
-8.68957
-8.70174
-8.71524
-8.73033
-8.74804
-8.76978
-8.79509
-8.81845
-8.82695
-8.80968
-8.81686
-9.03013
-9.65319
-10.6061
-11.4177
-11.6886
-8.592
-8.592
-8.59274
-8.59441
-8.59667
-8.59936
-8.60243
-8.60589
-8.60975
-8.61405
-8.61883
-8.62412
-8.62996
-8.6364
-8.64348
-8.65124
-8.65976
-8.66913
-8.67949
-8.69099
-8.70386
-8.71841
-8.73484
-8.75326
-8.77421
-8.7986
-8.82654
-8.85454
-8.87926
-8.91036
-8.9807
-9.18917
-9.69718
-10.423
-10.9543
-8.59193
-8.59191
-8.59265
-8.59427
-8.59653
-8.59925
-8.60236
-8.60583
-8.6097
-8.61401
-8.61882
-8.62417
-8.63009
-8.63661
-8.64376
-8.65159
-8.66017
-8.66959
-8.67999
-8.69155
-8.7045
-8.71917
-8.73594
-8.75514
-8.77699
-8.80183
-8.83064
-8.86599
-8.91576
-8.98471
-9.05957
-9.14553
-9.30479
-9.57557
-9.83374
-0.103701
-0.083579
-0.0666565
-0.052675
-0.0413116
-0.0321493
-0.0247005
-0.0186038
-0.0130277
-0.00571793
-0.103226
-0.0835839
-0.0667714
-0.0526393
-0.0409671
-0.0313969
-0.0236128
-0.0175558
-0.0124308
-0.00532976
-0.100901
-0.0820498
-0.0651501
-0.0507375
-0.0385034
-0.0282994
-0.0200843
-0.0143725
-0.0107876
-0.00557925
-0.09853
-0.0780629
-0.0606272
-0.0462709
-0.0331445
-0.0220426
-0.0135509
-0.00848826
-0.00753993
-0.00598235
-0.0775607
-0.0664291
-0.0562771
-0.0419016
-0.0263696
-0.0139397
-0.00526037
-0.000798667
-0.00279365
-0.00646779
-0.0965107
-0.060678
-0.0401169
-0.0265776
-0.0171395
-0.00760331
0.00186703
0.006797
0.00264031
-0.00699215
-0.321806
-0.182502
-0.0903154
-0.036282
-0.00826707
0.00566379
0.0113898
0.0111172
0.00666286
-0.00786828
-0.953441
-0.629675
-0.375977
-0.195409
-0.0801535
-0.0165221
0.0126581
0.0166115
0.0151981
-0.0228219
-2.0897
-1.55127
-1.06967
-0.67321
-0.375673
-0.177524
-0.0574938
-0.012767
0.0333757
-0.0953882
-3.66441
-2.94666
-2.23219
-1.57564
-1.01985
-0.595507
-0.289275
-0.138164
0.0520905
-0.304325
-5.48793
-4.67103
-3.77245
-2.86863
-2.02978
-1.32312
-0.748045
-0.415486
0.0398983
-0.635151
-7.29502
-6.48045
-5.48047
-4.38592
-3.28984
-2.29614
-1.41967
-0.855308
-0.0686232
-0.95454
-8.86194
-8.12202
-7.09962
-5.88701
-4.59096
-3.34667
-2.19262
-1.38807
-0.317632
-1.12518
-10.0403
-9.40565
-8.40895
-7.13592
-5.69897
-4.25636
-2.88419
-1.86918
-0.664721
-1.08099
-10.7998
-10.2346
-9.26745
-7.96069
-6.42115
-4.82187
-3.29365
-2.11798
-0.972126
-0.828019
-11.3032
-10.6889
-9.68179
-8.31255
-6.66577
-4.91805
-3.26532
-1.97227
-1.04941
-0.414033
-11.5105
-10.8172
-9.72288
-8.24991
-6.46226
-4.54119
-2.74856
-1.34599
-0.715068
0.117055
-11.3945
-10.6203
-9.43033
-7.8422
-5.89845
-3.78817
-1.81901
-0.286244
0.098364
0.735637
-10.9085
-10.2108
-8.96542
-7.2524
-5.15138
-2.86782
-0.696746
1.02651
1.32565
1.52786
-9.84801
-9.39757
-8.33081
-6.64129
-4.4805
-2.09543
0.176279
1.94374
2.33533
2.38039
)
;

boundaryField
{
    inlet
    {
        type            zeroGradient;
    }
    outlet
    {
        type            fixedValue;
        value           uniform 0;
    }
    upperWall
    {
        type            zeroGradient;
    }
    lowerWall
    {
        type            zeroGradient;
    }
    frontAndBack
    {
        type            empty;
    }
}


// ************************************************************************* //
