/*--------------------------------*- C++ -*----------------------------------*\
| =========                 |                                                 |
| \\      /  F ield         | OpenFOAM: The Open Source CFD Toolbox           |
|  \\    /   O peration     | Version:  2406                                  |
|   \\  /    A nd           | Website:  www.openfoam.com                      |
|    \\/     M anipulation  |                                                 |
\*---------------------------------------------------------------------------*/
FoamFile
{
    version     2.0;
    format      ascii;
    arch        "LSB;label=32;scalar=64";
    class       surfaceScalarField;
    location    "98";
    object      phi;
}
// * * * * * * * * * * * * * * * * * * * * * * * * * * * * * * * * * * * * * //

dimensions      [0 3 -1 0 0 0 0];

oriented        oriented;

internalField   nonuniform List<scalar> 
3470
(
0.191553
-0.00155237
0.195217
-0.00366435
0.200614
-0.00539623
0.207646
-0.0070311
0.216328
-0.00868198
0.226752
-0.0104237
0.239106
-0.0123532
0.253819
-0.0147128
0.271432
-0.0176121
-0.0231966
0.294629
0.51051
-0.0020626
0.512505
-0.00565897
0.51612
-0.00901096
0.521389
-0.0122991
0.528376
-0.015669
0.537182
-0.01923
0.547949
-0.0231196
0.560802
-0.0275654
0.576049
-0.0328584
-0.0395232
0.592376
0.750451
-0.00251348
0.751871
-0.00707918
0.754388
-0.0115273
0.758069
-0.01598
0.762965
-0.0205654
0.769127
-0.0253914
0.776589
-0.0305817
0.785326
-0.036302
0.795197
-0.0427298
-0.0500458
0.80572
0.910263
-0.00277655
0.911058
-0.00787447
0.912459
-0.0129279
0.914521
-0.0180415
0.917267
-0.0233112
0.920697
-0.0288223
0.924787
-0.0346711
0.929455
-0.0409698
0.93455
-0.0478247
-0.0553099
0.939814
0.990036
-0.00281229
0.990157
-0.00799577
0.990411
-0.0131815
0.990829
-0.0184601
0.99141
-0.0238918
0.992121
-0.0295338
0.992905
-0.0354553
0.993664
-0.0417284
0.994249
-0.0484101
-0.0555221
0.994461
0.989792
-0.0026048
0.989212
-0.00741578
0.988312
-0.012281
0.987103
-0.0172517
0.985558
-0.0223468
0.983623
-0.0275987
0.98122
-0.0330528
0.978241
-0.0387492
0.974539
-0.044709
-0.0509243
0.969941
0.909529
-0.00213335
0.908241
-0.00612845
0.906211
-0.0102508
0.903426
-0.0144675
0.899833
-0.0187544
0.895362
-0.0231277
0.889921
-0.0276119
0.883389
-0.032218
0.875618
-0.0369385
-0.041744
0.866438
0.749197
-0.00133011
0.747212
-0.0041443
0.744109
-0.00714785
0.739833
-0.0101919
0.734305
-0.0132274
0.727442
-0.0162651
0.71914
-0.0193104
0.70927
-0.0223485
0.697681
-0.0253502
-0.0282727
0.68421
0.508754
-8.39486e-05
0.506148
-0.0015393
0.502147
-0.00314748
0.496653
-0.00469805
0.489577
-0.00615206
0.480837
-0.00752639
0.470347
-0.00882087
0.458013
-0.0100155
0.443747
-0.0110851
-0.0120028
0.427477
0.189916
0.188376
0.185228
0.18053
0.174378
0.166851
0.158029
0.148014
0.136928
0.124925
6.5977e-05
-6.58472e-05
-3.28975e-05
9.93983e-05
-0.000285835
0.000253358
-0.000620487
0.000334872
-0.000999275
0.00037873
-0.0014097
0.000410007
-0.00184895
0.000438443
-0.00231698
0.000466805
-0.0028137
0.0004952
-0.00333771
0.000522233
-0.00388569
0.000546016
-0.00445402
0.000566361
-0.00504167
0.000585779
-0.0056583
0.000615322
-0.00634964
0.000690632
-0.00725104
0.000901531
-0.00868694
0.00143651
-0.0113309
0.00264495
-0.0163784
0.00504822
-0.0255692
0.00919101
-0.0408283
0.0152592
-0.063298
0.02247
-0.0919816
0.0286841
-0.123098
0.0311181
-0.15103
0.0279324
-0.170285
0.0192566
-0.177108
0.00682341
-0.170492
-0.00661495
-0.151822
-0.0186711
-0.122751
-0.029072
-0.0846182
-0.0381346
-0.0383318
-0.0462883
0.0148331
-0.0531665
0.0731288
-0.0582965
-0.0608656
0.133994
-0.000279707
0.00021447
-0.00103876
0.000859867
-0.00211866
0.00133421
-0.00338225
0.00159891
-0.00477333
0.00176944
-0.00628037
0.00191582
-0.00791029
0.00206629
-0.00967772
0.00223132
-0.0116023
0.00241643
-0.0137096
0.00262574
-0.0160342
0.00286687
-0.01863
0.00315834
-0.0215912
0.00354388
-0.0250885
0.00411047
-0.0294204
0.0050219
-0.0350704
0.00655205
-0.0427278
0.00909509
-0.0532102
0.0131283
-0.0672197
0.0190583
-0.0848905
0.0268622
-0.105196
0.0355649
-0.125497
0.0427717
-0.141718
0.0449064
-0.149408
0.0388097
-0.145446
0.0239729
-0.129189
0.00300042
-0.104193
-0.0181716
-0.0732131
-0.0375961
-0.035254
-0.0566324
0.0107211
-0.0750509
0.0649951
-0.0924114
0.126236
-0.107531
0.192618
-0.11955
0.262118
-0.127797
-0.131474
0.332727
-0.000946216
0.0011614
-0.00278817
0.00270351
-0.00503735
0.00358473
-0.00750226
0.00406443
-0.0101413
0.00440847
-0.0129653
0.0047391
-0.0160033
0.00510287
-0.0192933
0.00551952
-0.0228816
0.00600232
-0.0268228
0.00656457
-0.0311803
0.00722137
-0.0360262
0.00800115
-0.0414482
0.0089627
-0.0475494
0.0102091
-0.0544314
0.0119019
-0.0621557
0.0142748
-0.0706638
0.017602
-0.0796262
0.02209
-0.0882447
0.0276763
-0.0950564
0.0336734
-0.0978708
0.0383795
-0.0941089
0.0390099
-0.0815078
0.0323056
-0.0589842
0.0162865
-0.0293937
-0.00561711
0.00298136
-0.0293751
0.0392125
-0.0544041
0.082176
-0.0805613
0.132393
-0.106852
0.189725
-0.132385
0.25317
-0.155858
0.321397
-0.175759
0.39266
-0.190813
0.464938
-0.200076
-0.202885
0.536349
-0.00189541
0.00305775
-0.00510353
0.00591356
-0.00870081
0.00718358
-0.0124445
0.00780911
-0.0163189
0.00828341
-0.020358
0.00877812
-0.0246021
0.00934655
-0.0290885
0.0100051
-0.0338477
0.0107602
-0.0388983
0.0116134
-0.0442319
0.0125525
-0.0497928
0.013559
-0.0554621
0.0146285
-0.0610399
0.0157834
-0.0661982
0.0170568
-0.0704242
0.0184983
-0.0729705
0.0201464
-0.0727837
0.0219015
-0.0684749
0.023366
-0.0584999
0.0236971
-0.0413518
0.0212304
-0.0160066
0.0136638
0.0164521
-0.000154688
0.0526212
-0.0198847
0.0920147
-0.0450123
0.136303
-0.0736646
0.186474
-0.104576
0.242699
-0.136787
0.304574
-0.168728
0.370931
-0.198744
0.440322
-0.22525
0.511307
-0.246745
0.58246
-0.261966
0.652266
-0.269883
-0.269784
0.719165
-0.00309409
0.00615277
-0.00775709
0.0105794
-0.0125858
0.0120144
-0.0173134
0.0125386
-0.0219529
0.0129243
-0.0265424
0.0133687
-0.0311011
0.0139062
-0.0356185
0.0145226
-0.04005
0.0151918
-0.0443163
0.0158782
-0.0482825
0.016517
-0.0517326
0.0170059
-0.0543471
0.0172398
-0.0557142
0.0171467
-0.0552804
0.0166199
-0.0522933
0.0155084
-0.045836
0.0136869
-0.0348451
0.0109087
-0.01808
0.00659844
0.00569435
-7.98606e-05
0.0369989
-0.0100768
0.0752807
-0.02462
0.119757
-0.0446328
0.169857
-0.069987
0.224809
-0.0999657
0.284322
-0.133179
0.347796
-0.168051
0.414027
-0.203019
0.481723
-0.236425
0.54965
-0.266671
0.616721
-0.292323
0.682118
-0.312142
0.745194
-0.325043
0.805164
-0.329853
-0.325448
0.860828
-0.0044922
0.0106466
-0.0104192
0.0165096
-0.0159172
0.0175151
-0.020795
0.0174189
-0.0251283
0.0172598
-0.0289545
0.0171969
-0.0322534
0.0172064
-0.0349428
0.017213
-0.0368845
0.0171335
-0.0379011
0.0168945
-0.0377669
0.0163808
-0.0361699
0.0154063
-0.0326747
0.0137405
-0.0267979
0.0112659
-0.0179705
0.00778887
-0.00547262
0.00300831
0.011678
-0.00346497
0.0347213
-0.0121361
0.0647378
-0.0234199
0.102417
-0.0377607
0.147963
-0.0556248
0.200768
-0.0774268
0.259493
-0.103359
0.322606
-0.133102
0.388451
-0.165811
0.45547
-0.200198
0.52218
-0.234761
0.587181
-0.26802
0.649329
-0.298573
0.707852
-0.325195
0.762329
-0.346801
0.812793
-0.362606
0.859552
-0.371802
0.902801
-0.373103
-0.364974
0.942327
-0.00605421
0.0167025
-0.0126051
0.0230638
-0.017481
0.0223941
-0.0208914
0.0208322
-0.0231133
0.0194843
-0.0242049
0.018291
-0.0241036
0.0171069
-0.0226565
0.0157678
-0.0196317
0.0141094
-0.0147544
0.0120176
-0.00770181
0.00932715
0.00193815
0.00576411
0.0146148
0.00106058
0.0310259
-0.00514751
0.0521221
-0.0133085
0.0788251
-0.0236947
0.111863
-0.0365023
0.151596
-0.0518697
0.198045
-0.0698694
0.250836
-0.0905524
0.309152
-0.113942
0.371708
-0.139984
0.436808
-0.168459
0.502558
-0.198853
0.567072
-0.230326
0.628658
-0.261784
0.685923
-0.292027
0.737811
-0.319908
0.783661
-0.344424
0.823278
-0.364812
0.856912
-0.380435
0.885354
-0.391048
0.909691
-0.39614
0.931003
-0.394416
-0.387713
0.953742
-0.00770648
0.0244107
-0.0129555
0.0283166
-0.0141419
0.0235841
-0.0128411
0.0195349
-0.00977726
0.016424
-0.00490749
0.0134241
0.00196631
0.0102362
0.0110531
0.00668283
0.0226644
0.00250015
0.0372807
-0.00259772
0.0555778
-0.00896931
0.0782477
-0.0169061
0.105908
-0.0266004
0.138976
-0.0382151
0.177528
-0.0518609
0.22142
-0.0675858
0.270292
-0.0853746
0.323573
-0.105151
0.380486
-0.126782
0.440034
-0.150101
0.500995
-0.174903
0.561932
-0.200922
0.621252
-0.227779
0.677328
-0.254929
0.728643
-0.281641
0.773904
-0.307046
0.812115
-0.330238
0.842592
-0.350385
0.865021
-0.366853
0.879532
-0.379324
0.886937
-0.38784
0.888848
-0.392959
0.887874
-0.395167
0.885991
-0.392533
-0.398869
0.897145
-0.00779311
0.0322054
-0.00225913
0.0227857
0.00869486
0.0126334
0.0211543
0.00707855
0.0353976
0.00218315
0.0521133
-0.00328976
0.071833
-0.00948236
0.095013
-0.0164961
0.122034
-0.0245202
0.153178
-0.0337407
0.188511
-0.0443021
0.227923
-0.0563185
0.271187
-0.0698645
0.317943
-0.0849707
0.367696
-0.101614
0.419827
-0.119716
0.473597
-0.139144
0.528165
-0.159719
0.582604
-0.181221
0.635903
-0.2034
0.686969
-0.22597
0.734645
-0.248597
0.777732
-0.270867
0.815061
-0.292258
0.845553
-0.312133
0.868279
-0.329772
0.882485
-0.344443
0.8876
-0.355501
0.883286
-0.362539
0.869503
-0.36554
0.846991
-0.365328
0.817708
-0.363677
0.787851
-0.365312
0.766028
-0.370713
-0.405441
0.7726
0.0454962
-0.0132899
0.0799578
-0.0116748
0.109849
-0.0172566
0.140173
-0.0232447
0.17182
-0.0294634
0.205086
-0.036555
0.24025
-0.0446461
0.277495
-0.0537412
0.316865
-0.0638899
0.35828
-0.0751556
0.401555
-0.0875772
0.446399
-0.101163
0.492421
-0.115886
0.539134
-0.131684
0.585973
-0.148454
0.632306
-0.166049
0.677448
-0.184286
0.720674
-0.202944
0.761222
-0.221769
0.798299
-0.240477
0.831076
-0.258747
0.858688
-0.276208
0.880245
-0.292424
0.894862
-0.306874
0.901691
-0.318962
0.899957
-0.328038
0.888984
-0.333469
0.868207
-0.334723
0.83718
-0.331511
0.79553
-0.32389
0.743014
-0.312812
0.679372
-0.300035
0.607498
-0.29344
0.540643
-0.303859
-0.416025
0.551226
0.313568
-0.0322293
0.340532
-0.0386383
0.368382
-0.0451071
0.397605
-0.0524673
0.428495
-0.0603533
0.460795
-0.068855
0.494297
-0.0781472
0.528849
-0.0882939
0.564263
-0.0993033
0.600279
-0.111172
0.636581
-0.123879
0.672798
-0.13738
0.708506
-0.151594
0.743234
-0.166413
0.77647
-0.18169
0.807667
-0.197245
0.836246
-0.212866
0.861605
-0.228303
0.883111
-0.243274
0.900094
-0.257461
0.911849
-0.270502
0.917628
-0.281986
0.916654
-0.29145
0.908156
-0.298376
0.891406
-0.302212
0.865782
-0.302413
0.830814
-0.298502
0.78623
-0.290139
0.73193
-0.277211
0.667886
-0.259846
0.593739
-0.238666
0.507911
-0.214208
0.403483
-0.189014
0.258399
-0.158778
-0.157627
0.60787
-0.0477239
0.625249
-0.0560175
0.64417
-0.0640284
0.6642
-0.0724972
0.685361
-0.0815137
0.707525
-0.0910192
0.730435
-0.101057
0.753811
-0.11167
0.777359
-0.122852
0.800756
-0.134568
0.823641
-0.146764
0.845621
-0.15936
0.866274
-0.172247
0.885145
-0.185283
0.901748
-0.198293
0.91557
-0.211067
0.926065
-0.22336
0.932653
-0.234891
0.93472
-0.245341
0.931614
-0.254355
0.922653
-0.261541
0.907145
-0.266477
0.88442
-0.268724
0.853892
-0.267848
0.815134
-0.263453
0.767959
-0.255238
0.712503
-0.243045
0.649264
-0.2269
0.579086
-0.207032
0.503097
-0.183857
0.422423
-0.157992
0.337801
-0.129586
0.246891
-0.0981046
0.145254
-0.0571408
-0.0123725
0.816302
-0.0583064
0.827304
-0.0670188
0.839032
-0.0757564
0.851264
-0.08473
0.863829
-0.0940787
0.876577
-0.103767
0.889286
-0.113767
0.901692
-0.124076
0.913507
-0.134668
0.924421
-0.145482
0.934092
-0.156435
0.942144
-0.167413
0.948172
-0.178275
0.951732
-0.188844
0.952348
-0.198909
0.949505
-0.208225
0.942656
-0.216511
0.931223
-0.223457
0.914608
-0.228726
0.892218
-0.231964
0.863491
-0.232813
0.82795
-0.230935
0.785263
-0.226038
0.735333
-0.217917
0.678376
-0.206495
0.615008
-0.19187
0.5463
-0.174336
0.473794
-0.154393
0.399511
-0.132747
0.325922
-0.110267
0.255502
-0.0875708
0.189564
-0.0636455
0.125641
-0.0341798
0.0591686
0.00933556
0.046798
0.944918
-0.0634114
0.949812
-0.0719126
0.954617
-0.0805611
0.959226
-0.0893393
0.963449
-0.0983025
0.967111
-0.107429
0.97001
-0.116665
0.971897
-0.125964
0.972494
-0.135265
0.971492
-0.144481
0.968551
-0.153494
0.963294
-0.162157
0.955311
-0.170292
0.944155
-0.177687
0.929346
-0.1841
0.910384
-0.189263
0.886763
-0.19289
0.857995
-0.194689
0.823648
-0.194379
0.78339
-0.191706
0.737045
-0.186467
0.684654
-0.178544
0.626549
-0.167932
0.563412
-0.154779
0.496326
-0.139409
0.426798
-0.122341
0.356754
-0.10429
0.288578
-0.0862158
0.225147
-0.0693145
0.169418
-0.054535
0.123021
-0.0411698
0.0846405
-0.0252609
0.0501224
0.000346436
0.0184268
0.0410399
0.0652264
0.994077
-0.0630277
0.992969
-0.070805
0.991103
-0.0786949
0.988376
-0.0866132
0.984612
-0.0945386
0.979613
-0.10243
0.973162
-0.110215
0.965008
-0.117809
0.954862
-0.125119
0.942407
-0.132026
0.927298
-0.138384
0.909161
-0.14402
0.887602
-0.148733
0.862217
-0.152302
0.832611
-0.154494
0.798425
-0.155077
0.759376
-0.153841
0.715302
-0.150615
0.666209
-0.145287
0.612327
-0.137824
0.55415
-0.12829
0.492475
-0.116868
0.428421
-0.103878
0.363425
-0.0897818
0.299189
-0.0751725
0.237639
-0.0607881
0.180954
-0.0476031
0.131707
-0.0369649
0.0924438
-0.0300478
0.0639145
-0.0260007
0.0434796
-0.0207288
0.0263851
-0.00815756
0.00901005
0.0177321
-0.0040837
0.0541408
0.0611445
0.964262
-0.0573484
0.957344
-0.0638879
0.94907
-0.0704208
0.939301
-0.0768443
0.92785
-0.0830885
0.914502
-0.089082
0.899019
-0.0947327
0.881143
-0.0999338
0.860593
-0.104569
0.837073
-0.108507
0.81029
-0.111601
0.779962
-0.113692
0.745841
-0.114612
0.707738
-0.114199
0.665555
-0.112311
0.619325
-0.108847
0.569252
-0.103769
0.515756
-0.0971185
0.459499
-0.0890289
0.401398
-0.0797229
0.342623
-0.0695148
0.28456
-0.0588041
0.228731
-0.0480477
0.176664
-0.0377126
0.129784
-0.0282894
0.0894446
-0.0204444
0.0571465
-0.0152999
0.034227
-0.0140398
0.0199625
-0.0157771
0.01076
-0.0167915
0.00217739
-0.012139
-0.00801692
0.00204467
-0.0173355
0.0270572
-0.0162206
0.053032
0.0449249
0.855666
-0.0465771
0.843127
-0.0513497
0.828659
-0.0559526
0.812092
-0.0602783
0.793238
-0.0642347
0.771891
-0.0677357
0.747847
-0.0706887
0.72091
-0.0729975
0.690909
-0.0745675
0.65771
-0.0753089
0.621246
-0.0751376
0.581534
-0.0739804
0.5387
-0.0717782
0.492999
-0.0684984
0.444842
-0.064155
0.394822
-0.0588266
0.343718
-0.0526648
0.292497
-0.0458974
0.242288
-0.0388199
0.19433
-0.0317644
0.149882
-0.0250654
0.110097
-0.0190175
0.0758324
-0.0137799
0.0475144
-0.00939088
0.0251813
-0.00595109
0.00869348
-0.00395125
-0.00229967
-0.00430127
-0.00912611
-0.00720882
-0.014181
-0.0107185
-0.0195835
-0.0113861
-0.0258716
-0.00584832
-0.0313688
0.00754395
-0.0310028
0.0266944
-0.0185129
0.040544
0.0264121
0.668688
-0.0310559
0.650959
-0.0336214
0.630886
-0.0358802
0.608353
-0.0377463
0.583267
-0.0391488
0.555562
-0.0400317
0.525223
-0.0403502
0.492297
-0.040072
0.456911
-0.0391819
0.419287
-0.0376852
0.379759
-0.0356103
0.338792
-0.0330128
0.296972
-0.0299589
0.255002
-0.0265287
0.213688
-0.0228407
0.173907
-0.0190447
0.136554
-0.0153122
0.10248
-0.0118225
0.0724865
-0.00882509
0.0472289
-0.00650491
0.0269254
-0.00475982
0.0112154
-0.00330371
-0.000714697
-0.00184541
-0.00977549
-0.00032533
-0.0165114
0.000788255
-0.0212386
0.000778718
-0.0247032
-0.000835033
-0.0281531
-0.00375785
-0.0323714
-0.00649998
-0.0369562
-0.0068015
-0.0402818
-0.0025237
-0.0396252
0.00688661
-0.0313245
0.0183929
-0.0143782
0.0235973
0.0120337
0.409157
-0.0127371
0.388786
-0.0132511
0.366414
-0.0135085
0.342148
-0.0134814
0.316156
-0.0131575
0.288664
-0.012541
0.259965
-0.0116516
0.230417
-0.0105246
0.200449
-0.00921421
0.170555
-0.00779201
0.141275
-0.00633117
0.113244
-0.00498197
0.0871701
-0.00388507
0.0637018
-0.00306039
0.0433543
-0.00249302
0.0263776
-0.00206764
0.012694
-0.00162756
0.00196461
-0.0010919
-0.00636671
-0.000491917
-0.0128558
-1.37508e-05
-0.0178452
0.000232255
-0.0215448
0.000398776
-0.0240442
0.000656887
-0.0253958
0.00102885
-0.0258978
0.0012922
-0.0262269
0.00110915
-0.0273418
0.000280643
-0.0300074
-0.00109206
-0.0340083
-0.00249929
-0.0378042
-0.00300625
-0.0388925
-0.00143638
-0.0346217
0.00261471
-0.0235968
0.00736696
-0.00863458
0.00863422
0.00339897
0.112187
0.0989359
0.085427
0.0719451
0.0587873
0.0462459
0.034594
0.024069
0.0148546
0.00706232
0.000730991
-0.00425117
-0.00813632
-0.0111968
-0.0136897
-0.0157573
-0.0173847
-0.0184764
-0.0189681
-0.0189815
-0.0187488
-0.0183496
-0.0176922
-0.0166629
-0.0153704
-0.0142611
-0.0139803
-0.0150723
-0.0175715
-0.0205779
-0.0220143
-0.0193997
-0.012033
-0.00339897
0.194938
-0.0609435
0.253779
-0.0588419
0.30861
-0.0548307
0.358027
-0.0494173
0.401162
-0.0431357
0.437574
-0.0364124
0.467142
-0.0295696
0.48999
-0.0228498
0.506395
-0.0164074
-0.0102929
0.516685
0.402222
-0.130439
0.468499
-0.125119
0.529931
-0.116263
0.585434
-0.10492
0.634419
-0.0921209
0.676682
-0.0786764
0.712312
-0.0652004
0.741607
-0.052147
0.764997
-0.0397997
-0.0282791
0.782981
0.604945
-0.199035
0.668769
-0.188943
0.726434
-0.173927
0.777321
-0.155807
0.82134
-0.136139
0.858693
-0.11603
0.889787
-0.0962949
0.915159
-0.0775199
0.935397
-0.0600396
-0.0439732
0.95109
0.781379
-0.261249
0.83712
-0.244684
0.885584
-0.222391
0.927004
-0.197226
0.961936
-0.171071
0.990942
-0.145036
1.01462
-0.11997
1.0336
-0.0964984
1.0485
-0.0749458
-0.055393
1.05992
0.910403
-0.310824
0.952557
-0.286838
0.98767
-0.257504
1.0168
-0.226357
1.04059
-0.194856
1.05942
-0.163867
1.07382
-0.134376
1.08449
-0.107169
1.09217
-0.0826213
-0.0607909
1.09756
0.976145
-0.344642
1.00313
-0.313826
1.02431
-0.27868
1.03969
-0.24174
1.04884
-0.204007
1.05225
-0.167272
1.0513
-0.133424
1.04762
-0.10349
1.04267
-0.0776699
-0.0557613
1.03764
0.974546
-0.365446
0.986386
-0.325666
0.987319
-0.279614
0.975892
-0.230313
0.953911
-0.182026
0.925779
-0.13914
0.896002
-0.103647
0.867874
-0.0753621
0.843353
-0.0531489
-0.0359149
0.823508
0.90229
-0.370593
0.877922
-0.301298
0.824303
-0.225996
0.753895
-0.159905
0.679721
-0.107853
0.610631
-0.0700503
0.55121
-0.0442258
0.502989
-0.0271402
0.465731
-0.0158882
-0.00839403
0.438211
0.709107
-0.3071
0.588992
-0.181184
0.446587
-0.0835923
0.325325
-0.0386436
0.231176
-0.0137041
0.161236
-0.000110834
0.111795
0.00521676
0.0789912
0.00566741
0.0578322
0.00526814
0.0024427
0.046998
0.244125
0.0629407
-0.0206521
-0.0592958
-0.0729997
-0.07311
-0.0678928
-0.0622263
-0.0569581
-0.0545156
0.521099
-0.00441746
0.519623
0.00147326
0.512283
0.00733715
0.499416
0.0128655
0.481496
0.0179183
0.459007
0.0224874
0.432424
0.0265818
0.402228
0.0301936
0.368932
0.0332948
0.333092
0.0358376
0.295334
0.0377554
0.256362
0.0389685
0.216965
0.0393938
0.178003
0.0389586
0.140384
0.0376157
0.105023
0.0353581
0.0727903
0.0322302
0.0444549
0.0283342
0.0206221
0.0238324
0.0017246
0.0188979
-0.0120212
0.013746
-0.0208474
0.00882708
-0.0253714
0.00452367
-0.0268073
0.00143663
-0.0268423
3.40004e-05
-0.0271489
0.000306224
-0.028421
0.00127059
-0.0294397
0.00101625
-0.0289359
-0.000505034
-0.0274354
-0.00150339
-0.0258587
-0.00157674
-0.0244957
-0.00136539
-0.0230836
-0.00141257
-0.0215806
-0.00150475
-0.00146529
-0.0201154
0.796157
-0.0175958
0.805338
-0.00771042
0.811116
0.00155674
0.813574
0.0104056
0.812594
0.0188964
0.808006
0.027074
0.799602
0.0349853
0.787143
0.042651
0.770386
0.050051
0.749102
0.0571204
0.723107
0.0637483
0.692292
0.0697814
0.656651
0.0750324
0.616311
0.0792967
0.57155
0.0823739
0.522815
0.0840917
0.470715
0.0843283
0.41602
0.0830281
0.359647
0.0802057
0.302594
0.075951
0.245911
0.070431
0.190892
0.0638481
0.13902
0.0563976
0.0921815
0.0482758
0.052552
0.0396644
0.021984
0.0308729
0.000912288
0.0223391
-0.0125779
0.0145035
-0.0214024
0.0083147
-0.0273748
0.0044683
-0.0316807
0.00272581
-0.034674
0.00162813
-0.0360957
8.67575e-06
-0.036225
-0.00137239
-0.00203869
-0.0356456
0.962786
-0.0292938
0.970954
-0.0158808
0.976066
-0.00355672
0.978591
0.00787787
0.978873
0.0186129
0.977147
0.0287984
0.97355
0.0385811
0.968112
0.0480888
0.960749
0.0574133
0.951267
0.0666023
0.93936
0.0756552
0.924622
0.084519
0.906564
0.0930886
0.884647
0.101212
0.858318
0.108701
0.827058
0.11535
0.790435
0.12095
0.748157
0.125306
0.700115
0.128248
0.646435
0.129632
0.58753
0.129336
0.524129
0.12725
0.457283
0.123245
0.388378
0.117181
0.319102
0.10894
0.251443
0.0985309
0.187569
0.0862119
0.129544
0.0725271
0.0796423
0.0582154
0.0400672
0.0440424
0.0118644
0.0309297
-0.00636317
0.0198599
-0.0179814
0.0116359
-0.0257999
0.00645913
0.00337643
-0.0311969
1.06839
-0.0377657
1.07437
-0.0218663
1.07823
-0.00741286
1.08024
0.00586648
1.08064
0.0182099
1.07961
0.0298286
1.07728
0.0409121
1.07374
0.0516239
1.06906
0.0620939
1.06325
0.0724153
1.05626
0.082644
1.04798
0.0927975
1.03821
0.102857
1.02665
0.112772
1.01288
0.12247
0.996371
0.131856
0.976496
0.140824
0.95255
0.14925
0.923809
0.156989
0.889574
0.163866
0.84925
0.169661
0.802406
0.174094
0.748834
0.176817
0.688605
0.17741
0.622119
0.175426
0.550194
0.170454
0.47418
0.162225
0.396
0.150707
0.318077
0.136137
0.243129
0.11899
0.174051
0.100009
0.113683
0.0802313
0.0645124
0.0608152
0.0280431
0.0429448
0.0278317
0.00360872
1.10134
-0.0415382
1.10398
-0.0245151
1.10582
-0.00925057
1.10706
0.00462549
1.10785
0.0174164
1.10826
0.02942
1.10829
0.0408802
1.10792
0.0519965
1.10709
0.0629297
1.1057
0.0738014
1.10366
0.0846894
1.10083
0.0956271
1.09707
0.106609
1.09223
0.117605
1.08613
0.128572
1.07851
0.139468
1.06907
0.150261
1.0574
0.160923
1.04296
0.171422
1.02514
0.181696
1.00317
0.19163
0.976238
0.201023
0.943503
0.209552
0.904141
0.216772
0.857443
0.222123
0.802916
0.224981
0.740406
0.224734
0.670252
0.22086
0.593386
0.213003
0.511364
0.201012
0.426398
0.184975
0.341358
0.165274
0.25956
0.142618
0.184472
0.118039
0.0928936
0.119418
1.03345
-0.0373559
1.03059
-0.0216539
1.02917
-0.00782838
1.02918
0.00461801
1.03054
0.0160563
1.03314
0.0268184
1.03684
0.0371768
1.04148
0.047363
1.04684
0.0575717
1.05268
0.0679575
1.05874
0.0786258
1.06474
0.089625
1.07039
0.100954
1.07542
0.112575
1.07955
0.124435
1.08253
0.136482
1.0841
0.148685
1.084
0.161029
1.0819
0.173518
1.07744
0.186154
1.07016
0.198912
1.05949
0.2117
1.04472
0.224318
1.02506
0.236438
0.999579
0.247599
0.967325
0.257233
0.927354
0.264704
0.878864
0.269348
0.821342
0.270524
0.754699
0.267655
0.679403
0.260271
0.596614
0.248063
0.508283
0.230951
0.417181
0.209144
0.183222
0.326858
0.809166
-0.0230135
0.800102
-0.0125879
0.795729
-0.00345487
0.795497
0.004851
0.79894
0.0126127
0.805692
0.0200662
0.815424
0.0274434
0.827813
0.0349719
0.842514
0.0428684
0.85915
0.0513199
0.877313
0.060459
0.896582
0.0703528
0.916525
0.0810079
0.936713
0.0923827
0.956728
0.104416
0.976157
0.11705
0.994594
0.130246
1.01164
0.143985
1.02689
0.158271
1.03992
0.173124
1.05029
0.188546
1.05752
0.204478
1.06108
0.220758
1.06041
0.237103
1.0549
0.253118
1.04381
0.268318
1.02634
0.28217
1.00158
0.294109
0.96854
0.303558
0.926271
0.309922
0.873954
0.312587
0.811111
0.310906
0.737834
0.304229
0.655008
0.291973
0.273756
0.564478
0.421037
-0.00583705
0.412141
-0.00368864
0.41018
-0.00149185
0.414337
0.000692818
0.42379
0.00315746
0.437823
0.00602913
0.4559
0.00936193
0.477607
0.0132609
0.502585
0.0178861
0.530488
0.0234132
0.56096
0.0299826
0.593642
0.0376671
0.628168
0.0464784
0.664171
0.0563766
0.701269
0.0673142
0.739049
0.0792677
0.777059
0.0922375
0.81481
0.106237
0.851762
0.121324
0.887298
0.137592
0.920733
0.155116
0.951333
0.173881
0.978361
0.193731
1.00112
0.214346
1.01897
0.235261
1.03135
0.255934
1.0377
0.275819
1.03741
0.294402
1.02973
0.311229
1.01376
0.325894
0.988392
0.337954
0.952462
0.346838
0.904922
0.351772
0.845108
0.35179
0.345845
0.773023
0.0539534
-0.0127892
0.0666213
-0.0163579
0.0812521
-0.0161283
0.0964284
-0.0144954
0.112188
-0.0126191
0.12907
-0.0108709
0.147617
-0.00919985
0.168285
-0.00741914
0.191417
-0.00525056
0.217271
-0.00244338
0.24604
0.00121563
0.277808
0.00590164
0.312614
0.0116706
0.350511
0.0184794
0.391504
0.0263171
0.435487
0.0352864
0.482234
0.045494
0.531425
0.0570558
0.582586
0.0701708
0.635047
0.0851364
0.687935
0.10223
0.740215
0.121601
0.790752
0.143192
0.838412
0.166683
0.882153
0.191515
0.921064
0.217017
0.954371
0.242507
0.981399
0.26737
1.00147
0.291155
1.01379
0.313582
1.01732
0.33442
1.01085
0.353312
0.993016
0.36961
0.96252
0.382291
0.390022
0.918348
-0.0296203
-0.0376918
-0.0169168
-0.0290725
-0.0098195
-0.023248
-0.0043204
-0.020027
0.00134714
-0.0183249
0.00804206
-0.0175983
0.0161807
-0.0173617
0.0259162
-0.0171607
0.037244
-0.016575
0.0500761
-0.0152593
0.0643855
-0.013076
0.0804635
-0.0101647
0.0990207
-0.00687836
0.120983
-0.00349032
0.147228
6.88296e-05
0.17835
0.00416006
0.214719
0.00913165
0.256559
0.0152215
0.303873
0.022865
0.35629
0.0327213
0.413084
0.0454344
0.473241
0.06144
0.535526
0.080902
0.598599
0.103603
0.661142
0.128962
0.72186
0.156288
0.779547
0.18481
0.833121
0.213793
0.881511
0.242764
0.923539
0.271557
0.957835
0.300128
0.982845
0.328308
0.99693
0.35553
0.998537
0.38069
0.402248
0.986314
-0.0170743
-0.0206227
-0.022838
-0.0233297
-0.0256367
-0.0204717
-0.0271521
-0.0185358
-0.0278158
-0.0176834
-0.0277769
-0.0176532
-0.0270182
-0.0181266
-0.0254374
-0.018736
-0.0229071
-0.0190882
-0.0192998
-0.0188415
-0.0145338
-0.0178151
-0.00863864
-0.016036
-0.0018039
-0.0137055
0.00592598
-0.0112278
0.0152381
-0.0092639
0.0276867
-0.008313
0.0449699
-0.00817836
0.0683912
-0.00822389
0.0986282
-0.00739585
0.135672
-0.00434616
0.179375
0.00172303
0.229373
0.0114361
0.284878
0.0253949
0.345089
0.0433781
0.40931
0.064721
0.476558
0.0890205
0.545733
0.115624
0.615687
0.143833
0.685048
0.173406
0.752095
0.204518
0.814712
0.23752
0.870434
0.272595
0.916745
0.309226
0.95144
0.346
0.380921
0.972771
-0.00969948
-0.0109368
-0.0183754
-0.0146765
-0.0245719
-0.0142971
-0.0293278
-0.013799
-0.0332478
-0.0137776
-0.0366904
-0.0142186
-0.0398602
-0.0149555
-0.0428416
-0.0157458
-0.0456024
-0.0163101
-0.0480083
-0.0164146
-0.0498481
-0.015954
-0.050862
-0.0150049
-0.0507386
-0.0138219
-0.0491573
-0.0128151
-0.0459666
-0.0124814
-0.0410928
-0.0132336
-0.0341364
-0.0151973
-0.0242502
-0.0181749
-0.0100517
-0.0216488
0.0100486
-0.0244684
0.0361617
-0.0243945
0.0672031
-0.0195926
0.102777
-0.0101794
0.143635
0.00251019
0.191048
0.0172788
0.245521
0.0345153
0.307207
0.0539117
0.376011
0.0750198
0.450953
0.0984664
0.530195
0.125286
0.611033
0.156695
0.689934
0.193707
0.763214
0.235955
0.827675
0.281544
0.327777
0.88082
-0.00613509
-0.00481249
-0.0132912
-0.00755001
-0.0194721
-0.00814013
-0.024823
-0.00846646
-0.0296867
-0.00892608
-0.0343483
-0.0095615
-0.0389971
-0.0103043
-0.0437093
-0.0110235
-0.0484467
-0.0115587
-0.0530712
-0.0117739
-0.0573854
-0.0116257
-0.0611723
-0.01121
-0.0642266
-0.0107692
-0.0663889
-0.01067
-0.0675773
-0.0113268
-0.0677672
-0.0130926
-0.0668633
-0.0161535
-0.0646368
-0.0204449
-0.060799
-0.0255122
-0.0549253
-0.0303496
-0.0458793
-0.0334314
-0.0322099
-0.0332425
-0.0135219
-0.0288468
0.00898774
-0.0200036
0.034526
-0.008293
0.0656768
0.00332527
0.105991
0.0135629
0.158407
0.0225726
0.22357
0.0332952
0.300387
0.048486
0.38577
0.0713326
0.474938
0.104555
0.56332
0.147578
0.647397
0.19747
0.250682
0.724489
-0.00363243
-0.00119663
-0.00865356
-0.00256192
-0.0135113
-0.00330893
-0.0180383
-0.00395837
-0.0223728
-0.00460264
-0.0266912
-0.00524668
-0.0311273
-0.00586409
-0.0357396
-0.00640261
-0.0404972
-0.00678962
-0.0452989
-0.00696306
-0.0500079
-0.00691321
-0.0544998
-0.00672295
-0.0587048
-0.00658102
-0.0626416
-0.00676083
-0.066435
-0.00757257
-0.0702734
-0.00929768
-0.0743346
-0.0121336
-0.0787138
-0.016096
-0.0833663
-0.0208756
-0.0880091
-0.0257122
-0.0919796
-0.0294549
-0.0943077
-0.0309022
-0.093845
-0.0292922
-0.0891057
-0.0247269
-0.0790179
-0.018377
-0.0634447
-0.0122739
-0.0410973
-0.00884414
-0.00846692
-0.0101153
0.0405507
-0.0157343
0.106513
-0.0174625
0.185369
-0.00750464
0.271204
0.0187292
0.359002
0.059784
0.446427
0.110039
0.164586
0.532512
-0.001823
0.000611864
-0.00481054
0.000389639
-0.00798175
-0.000166641
-0.0111205
-0.000840371
-0.0142461
-0.00148999
-0.0174423
-0.00205608
-0.0207878
-0.00251868
-0.0243189
-0.00286773
-0.0280161
-0.00308835
-0.0318121
-0.00316565
-0.0356213
-0.00310814
-0.0393835
-0.00297344
-0.0431072
-0.00287816
-0.0469078
-0.0029902
-0.0510097
-0.00350495
-0.0557221
-0.00462045
-0.0613885
-0.00649626
-0.068317
-0.00918664
-0.076664
-0.0125375
-0.0862778
-0.016097
-0.0965858
-0.0191373
-0.1066
-0.0208681
-0.115019
-0.0208468
-0.120331
-0.019393
-0.120989
-0.0177178
-0.115516
-0.0177772
-0.102405
-0.0220082
-0.0800677
-0.0325123
-0.0465786
-0.0492653
0.00304165
-0.0671092
0.0675042
-0.0719826
0.136431
-0.0502133
0.20441
-0.00820869
0.273418
0.0410073
0.0908239
0.347154
-0.000621604
0.0012174
-0.00193817
0.00167033
-0.00352171
0.00138661
-0.00522709
0.000841589
-0.0070221
0.000288231
-0.00892317
-0.000165839
-0.0109582
-0.000489835
-0.0131389
-0.000690201
-0.0154477
-0.000782149
-0.0178384
-0.000779443
-0.0202546
-0.000701411
-0.0226589
-0.000584705
-0.0250687
-0.00049196
-0.0275828
-0.00050494
-0.0303976
-0.000722146
-0.0337979
-0.00124801
-0.0381351
-0.00217844
-0.0437702
-0.0035581
-0.0509705
-0.00533103
-0.0597691
-0.00728211
-0.0698459
-0.00903505
-0.0804899
-0.010194
-0.0906765
-0.0106298
-0.099303
-0.0107501
-0.105444
-0.0115878
-0.108408
-0.0148584
-0.107476
-0.0230086
-0.101194
-0.0388587
-0.0867969
-0.063712
-0.0610941
-0.0928482
-0.0206401
-0.11247
0.0339134
-0.10479
0.0895394
-0.0638609
0.140106
-0.00958642
0.0380198
0.192874
8.28631e-05
0.00112066
-5.14701e-05
0.00177171
-0.000393071
0.00169972
-0.000910615
0.00133616
-0.00157249
0.000932662
-0.00235873
0.000607264
-0.00325644
0.000397921
-0.00425151
0.000295818
-0.00532071
0.000277598
-0.00643169
0.00031907
-0.00754832
0.000399363
-0.00864773
0.000493464
-0.00973663
0.000572512
-0.0108718
0.000603173
-0.012168
0.000550608
-0.0138053
0.000371616
-0.0160163
2.60793e-05
-0.0190661
-0.000504812
-0.02319
-0.00119466
-0.028503
-0.00194872
-0.0349188
-0.00259488
-0.0421171
-0.0029632
-0.0496497
-0.00307344
-0.0571495
-0.00323809
-0.0646256
-0.00413588
-0.0725991
-0.00693336
-0.0820056
-0.0136609
-0.0933428
-0.0275701