/*--------------------------------*- C++ -*----------------------------------*\
| =========                 |                                                 |
| \\      /  F ield         | OpenFOAM: The Open Source CFD Toolbox           |
|  \\    /   O peration     | Version:  2406                                  |
|   \\  /    A nd           | Website:  www.openfoam.com                      |
|    \\/     M anipulation  |                                                 |
\*---------------------------------------------------------------------------*/
FoamFile
{
    version     2.0;
    format      ascii;
    arch        "LSB;label=32;scalar=64";
    class       volVectorField;
    location    "98";
    object      U;
}
// * * * * * * * * * * * * * * * * * * * * * * * * * * * * * * * * * * * * * //

dimensions      [0 1 -1 0 0 0 0];

internalField   nonuniform List<vector> 
1800
(
(1.90091 -0.0112417 0)
(1.92798 -0.0273791 0)
(1.97525 -0.0378964 0)
(2.03811 -0.04584 0)
(2.11641 -0.0531455 0)
(2.21143 -0.0607634 0)
(2.32503 -0.0693861 0)
(2.45829 -0.0811015 0)
(2.62143 -0.0941218 0)
(2.78828 -0.13879 0)
(5.0971 -0.0164362 0)
(5.10992 -0.046504 0)
(5.13939 -0.0735797 0)
(5.18398 -0.099488 0)
(5.24477 -0.125777 0)
(5.32329 -0.153509 0)
(5.42072 -0.183876 0)
(5.5383 -0.219089 0)
(5.67716 -0.262058 0)
(5.83559 -0.320009 0)
(7.49804 -0.0215011 0)
(7.50767 -0.0631813 0)
(7.52873 -0.103383 0)
(7.55988 -0.143349 0)
(7.60228 -0.18439 0)
(7.65721 -0.227629 0)
(7.72519 -0.274415 0)
(7.80613 -0.326742 0)
(7.89925 -0.387064 0)
(8.0021 -0.459046 0)
(9.09807 -0.0250771 0)
(9.10378 -0.0744448 0)
(9.1162 -0.12314 0)
(9.13374 -0.172213 0)
(9.15736 -0.222745 0)
(9.188 -0.275727 0)
(9.22566 -0.332302 0)
(9.26965 -0.393873 0)
(9.31878 -0.46189 0)
(9.37118 -0.537433 0)
(9.89772 -0.0265835 0)
(9.8992 -0.079145 0)
(9.90269 -0.131482 0)
(9.90632 -0.184592 0)
(9.91092 -0.239294 0)
(9.91723 -0.296311 0)
(9.92489 -0.356471 0)
(9.93291 -0.420687 0)
(9.93999 -0.489746 0)
(9.94448 -0.564037 0)
(9.89714 -0.025775 0)
(9.89426 -0.0769608 0)
(9.88874 -0.128301 0)
(9.87845 -0.180601 0)
(9.86427 -0.234362 0)
(9.84679 -0.290032 0)
(9.82537 -0.348154 0)
(9.79882 -0.409272 0)
(9.76579 -0.473762 0)
(9.72474 -0.541669 0)
(9.09631 -0.0225025 0)
(9.089 -0.0677822 0)
(9.07461 -0.113761 0)
(9.05076 -0.160673 0)
(9.01843 -0.208616 0)
(8.97808 -0.257838 0)
(8.92886 -0.308676 0)
(8.86941 -0.36138 0)
(8.79829 -0.41601 0)
(8.71397 -0.472362 0)
(7.49507 -0.0165724 0)
(7.483 -0.0513974 0)
(7.46004 -0.0879322 0)
(7.42337 -0.125295 0)
(7.37393 -0.162988 0)
(7.312 -0.201079 0)
(7.23657 -0.239736 0)
(7.14614 -0.278953 0)
(7.03924 -0.318531 0)
(6.91435 -0.358075 0)
(5.09316 -0.00842936 0)
(5.07601 -0.0284282 0)
(5.04556 -0.0511175 0)
(4.99841 -0.0745564 0)
(4.93519 -0.0977167 0)
(4.85615 -0.120476 0)
(4.76033 -0.142821 0)
(4.64653 -0.164539 0)
(4.51375 -0.185265 0)
(4.36121 -0.204544 0)
(1.89723 -0.00193702 0)
(1.89216 -0.00880103 0)
(1.87233 -0.0173713 0)
(1.83329 -0.0253607 0)
(1.77804 -0.0319782 0)
(1.70915 -0.0373675 0)
(1.62734 -0.0416699 0)
(1.53302 -0.0448144 0)
(1.42718 -0.0466616 0)
(1.3113 -0.0470935 0)
(0.000635182 -0.000729055 0)
(0.000523166 -0.000386918 0)
(-0.00134591 2.10873e-05 0)
(-0.00438042 0.000194246 0)
(-0.00799788 0.000252304 0)
(-0.011958 0.000266039 0)
(-0.0162043 0.000255577 0)
(-0.0207335 0.000222011 0)
(-0.0255496 0.000156911 0)
(-0.030646 4.22331e-05 0)
(-0.0359953 -0.00014257 0)
(-0.041554 -0.000412925 0)
(-0.0472807 -0.000797182 0)
(-0.0531787 -0.00137759 0)
(-0.0594476 -0.00229495 0)
(-0.0668721 -0.00368323 0)
(-0.0776081 -0.00546278 0)
(-0.0964356 -0.00678024 0)
(-0.132082 -0.00493159 0)
(-0.198194 0.00610353 0)
(-0.314191 0.0355267 0)
(-0.501264 0.0878316 0)
(-0.765395 0.149502 0)
(-1.0803 0.190584 0)
(-1.39225 0.186714 0)
(-1.64108 0.138751 0)
(-1.77711 0.0699731 0)
(-1.76954 0.00267907 0)
(-1.6313 -0.0539423 0)
(-1.38578 -0.103356 0)
(-1.03861 -0.151962 0)
(-0.60559 -0.202822 0)
(-0.111479 -0.249094 0)
(0.429092 -0.273016 0)
(1.01778 -0.274643 0)
(-0.000293054 -0.000310856 0)
(-0.00570693 0.00279736 0)
(-0.0151847 0.0056325 0)
(-0.027133 0.00723409 0)
(-0.0404877 0.00817402 0)
(-0.0549759 0.00889159 0)
(-0.0706252 0.00956879 0)
(-0.0875623 0.0102604 0)
(-0.105964 0.0109741 0)
(-0.126049 0.0116958 0)
(-0.148095 0.012414 0)
(-0.172508 0.0131562 0)
(-0.199972 0.0140553 0)
(-0.231715 0.0155001 0)
(-0.269933 0.0185004 0)
(-0.318377 0.0253063 0)
(-0.382914 0.040076 0)
(-0.471504 0.0690626 0)
(-0.592607 0.119087 0)
(-0.75129 0.193357 0)
(-0.94428 0.285166 0)
(-1.15581 0.372311 0)
(-1.35412 0.419138 0)
(-1.49245 0.393363 0)
(-1.52162 0.288947 0)
(-1.41277 0.131709 0)
(-1.18285 -0.0400848 0)
(-0.898087 -0.207259 0)
(-0.554696 -0.365331 0)
(-0.126364 -0.512431 0)
(0.376693 -0.648535 0)
(0.950191 -0.770482 0)
(1.5866 -0.872982 0)
(2.26827 -0.942915 0)
(2.97204 -0.973847 0)
(-0.00227065 0.00536824 0)
(-0.0174584 0.0151824 0)
(-0.0383529 0.0217571 0)
(-0.0622266 0.0254725 0)
(-0.087792 0.0279947 0)
(-0.115049 0.0302589 0)
(-0.144268 0.0326466 0)
(-0.1758 0.0353137 0)
(-0.21007 0.0383624 0)
(-0.247575 0.0419107 0)
(-0.288889 0.0461439 0)
(-0.334691 0.051416 0)
(-0.385807 0.0584196 0)
(-0.443203 0.0684252 0)
(-0.507919 0.0835886 0)
(-0.580864 0.1071 0)
(-0.662232 0.142864 0)
(-0.750367 0.194539 0)
(-0.840051 0.263474 0)
(-0.920557 0.344603 0)
(-0.974733 0.421075 0)
(-0.980288 0.462542 0)
(-0.912411 0.434379 0)
(-0.749323 0.319319 0)
(-0.484828 0.131473 0)
(-0.138171 -0.0931716 0)
(0.215654 -0.322763 0)
(0.607485 -0.551689 0)
(1.06649 -0.782314 0)
(1.60208 -1.0093 0)
(2.20731 -1.22182 0)
(2.86788 -1.40505 0)
(3.56767 -1.547 0)
(4.28839 -1.63918 0)
(5.01009 -1.67608 0)
(-0.00529651 0.0192188 0)
(-0.0337213 0.040189 0)
(-0.0683645 0.0510391 0)
(-0.105404 0.0568113 0)
(-0.143472 0.0610927 0)
(-0.182936 0.0653737 0)
(-0.224249 0.0702011 0)
(-0.267813 0.0758086 0)
(-0.313979 0.0823614 0)
(-0.363011 0.0900295 0)
(-0.414992 0.0989644 0)
(-0.469671 0.109378 0)
(-0.526277 0.121715 0)
(-0.583251 0.136822 0)
(-0.637931 0.155957 0)
(-0.686211 0.180743 0)
(-0.721928 0.212675 0)
(-0.735908 0.251829 0)
(-0.715661 0.294981 0)
(-0.646682 0.332658 0)
(-0.514981 0.346278 0)
(-0.310434 0.312361 0)
(-0.0285354 0.210568 0)
(0.320706 0.0338741 0)
(0.713034 -0.195446 0)
(1.13468 -0.455562 0)
(1.6039 -0.742081 0)
(2.13578 -1.04493 0)
(2.72874 -1.34882 0)
(3.37287 -1.639 0)
(4.05462 -1.90041 0)
(4.75911 -2.11776 0)
(5.47203 -2.27805 0)
(6.17908 -2.37081 0)
(6.86533 -2.38902 0)
(-0.00949588 0.043911 0)
(-0.053487 0.0797374 0)
(-0.101688 0.0938787 0)
(-0.14977 0.100312 0)
(-0.196517 0.105253 0)
(-0.242581 0.110635 0)
(-0.28831 0.116974 0)
(-0.333749 0.124359 0)
(-0.37863 0.132757 0)
(-0.422381 0.142038 0)
(-0.463998 0.151829 0)
(-0.501776 0.161525 0)
(-0.5331 0.170583 0)
(-0.554349 0.178689 0)
(-0.560575 0.185406 0)
(-0.545195 0.190187 0)
(-0.499913 0.192292 0)
(-0.414016 0.189459 0)
(-0.275089 0.176774 0)
(-0.0738893 0.146169 0)
(0.192995 0.086053 0)
(0.53675 -0.0211075 0)
(0.951404 -0.185194 0)
(1.4296 -0.408065 0)
(1.96042 -0.684614 0)
(2.53669 -1.00071 0)
(3.15459 -1.34014 0)
(3.80666 -1.68739 0)
(4.48012 -2.02579 0)
(5.16125 -2.33853 0)
(5.83839 -2.60967 0)
(6.50165 -2.82489 0)
(7.14456 -2.97239 0)
(7.76008 -3.04123 0)
(8.34041 -3.02254 0)
(-0.0150381 0.0816155 0)
(-0.0753826 0.133414 0)
(-0.133094 0.147152 0)
(-0.185045 0.150616 0)
(-0.230919 0.152977 0)
(-0.271696 0.156179 0)
(-0.307463 0.16033 0)
(-0.33766 0.16504 0)
(-0.361154 0.169798 0)
(-0.376451 0.173992 0)
(-0.381657 0.176611 0)
(-0.374022 0.176198 0)
(-0.349746 0.171324 0)
(-0.304512 0.160889 0)
(-0.232681 0.143353 0)
(-0.127313 0.116594 0)
(0.0192489 0.07835 0)
(0.218044 0.0242362 0)
(0.481055 -0.0519105 0)
(0.816492 -0.156777 0)
(1.23123 -0.297248 0)
(1.72377 -0.481084 0)
(2.28486 -0.714116 0)
(2.89926 -0.99546 0)
(3.54979 -1.31706 0)
(4.21946 -1.66491 0)
(4.89263 -2.02285 0)
(5.55494 -2.37488 0)
(6.19351 -2.70499 0)
(6.79849 -2.99847 0)
(7.36404 -3.24204 0)
(7.88745 -3.42494 0)
(8.37263 -3.53731 0)
(8.81952 -3.56797 0)
(9.2327 -3.50537 0)
(-0.0224252 0.135107 0)
(-0.0977644 0.197852 0)
(-0.154368 0.202414 0)
(-0.195105 0.196088 0)
(-0.22288 0.190124 0)
(-0.239484 0.185421 0)
(-0.244729 0.181303 0)
(-0.237437 0.176715 0)
(-0.21557 0.170362 0)
(-0.176836 0.161192 0)
(-0.118406 0.14805 0)
(-0.0363657 0.128987 0)
(0.0746186 0.101578 0)
(0.21737 0.0636406 0)
(0.40268 0.0107723 0)
(0.639846 -0.0612009 0)
(0.937373 -0.15653 0)
(1.301 -0.278631 0)
(1.73224 -0.429622 0)
(2.2294 -0.611604 0)
(2.78687 -0.826512 0)
(3.39439 -1.07565 0)
(4.03709 -1.35822 0)
(4.69661 -1.66945 0)
(5.35332 -2.00045 0)
(5.98864 -2.33909 0)
(6.58667 -2.67181 0)
(7.13516 -2.98536 0)
(7.62524 -3.26763 0)
(8.05295 -3.50882 0)
(8.41769 -3.7001 0)
(8.72525 -3.8357 0)
(8.98636 -3.90552 0)
(9.20806 -3.89521 0)
(9.41543 -3.7879 0)
(-0.0329347 0.209646 0)
(-0.115528 0.261287 0)
(-0.143026 0.239382 0)
(-0.139848 0.215117 0)
(-0.117585 0.194582 0)
(-0.0782269 0.175384 0)
(-0.0200294 0.156574 0)
(0.0589752 0.13612 0)
(0.162123 0.111429 0)
(0.291637 0.0805716 0)
(0.453851 0.0402821 0)
(0.657171 -0.0133095 0)
(0.907258 -0.0833666 0)
(1.21039 -0.173255 0)
(1.56875 -0.285385 0)
(1.98175 -0.421204 0)
(2.44684 -0.581341 0)
(2.95936 -0.765676 0)
(3.51252 -0.973484 0)
(4.09741 -1.20371 0)
(4.70301 -1.45498 0)
(5.31608 -1.72519 0)
(5.92142 -2.01088 0)
(6.50265 -2.30648 0)
(7.04364 -2.60409 0)
(7.52998 -2.89403 0)
(7.94995 -3.16601 0)
(8.29526 -3.41043 0)
(8.56039 -3.61946 0)
(8.74549 -3.78826 0)
(8.85122 -3.91432 0)
(8.89633 -4.00009 0)
(8.88559 -4.04344 0)
(8.86885 -4.02547 0)
(8.8646 -3.95083 0)
(-0.0519915 0.322317 0)
(-0.0695375 0.306598 0)
(0.0235753 0.22237 0)
(0.143345 0.177683 0)
(0.277555 0.141409 0)
(0.430495 0.100203 0)
(0.611155 0.0527424 0)
(0.824944 -0.00161057 0)
(1.07511 -0.0650654 0)
(1.3654 -0.140344 0)
(1.69788 -0.229853 0)
(2.07204 -0.335384 0)
(2.48615 -0.458222 0)
(2.93733 -0.599176 0)
(3.42133 -0.758497 0)
(3.93253 -0.935803 0)
(4.46407 -1.13012 0)
(5.00802 -1.33997 0)
(5.55547 -1.56343 0)
(6.09671 -1.79821 0)
(6.62124 -2.04171 0)
(7.11783 -2.29076 0)
(7.57465 -2.54131 0)
(7.97973 -2.78802 0)
(8.32164 -3.02416 0)
(8.5902 -3.242 0)
(8.77683 -3.43356 0)
(8.8751 -3.5917 0)
(8.87989 -3.71145 0)
(8.79119 -3.79138 0)
(8.60569 -3.83647 0)
(8.35418 -3.85981 0)
(8.01391 -3.89294 0)
(7.78618 -3.93162 0)
(7.51871 -4.19965 0)
(0.395615 0.105336 0)
(0.645569 0.0995929 0)
(0.931585 0.022112 0)
(1.2442 -0.0495492 0)
(1.55767 -0.113533 0)
(1.88034 -0.180935 0)
(2.22126 -0.25649 0)
(2.58319 -0.341521 0)
(2.96647 -0.437065 0)
(3.37072 -0.544304 0)
(3.79474 -0.664195 0)
(4.23619 -0.797299 0)
(4.69163 -0.94378 0)
(5.15664 -1.10339 0)
(5.62595 -1.27544 0)
(6.09351 -1.45872 0)
(6.55269 -1.65158 0)
(6.9964 -1.85195 0)
(7.4172 -2.05744 0)
(7.80732 -2.2653 0)
(8.15867 -2.47251 0)
(8.46279 -2.67552 0)
(8.7109 -2.87012 0)
(8.89405 -3.05114 0)
(9.00349 -3.21246 0)
(9.03098 -3.34727 0)
(8.96914 -3.44873 0)
(8.81187 -3.51081 0)
(8.55376 -3.52979 0)
(8.19274 -3.50551 0)
(7.72069 -3.4467 0)
(7.15976 -3.3702 0)
(6.44594 -3.34052 0)
(5.92901 -3.39673 0)
(4.97174 -4.20842 0)
(3.05437 -0.240137 0)
(3.2795 -0.303261 0)
(3.53416 -0.358599 0)
(3.82288 -0.417945 0)
(4.12776 -0.483877 0)
(4.44391 -0.558462 0)
(4.7725 -0.643139 0)
(5.11311 -0.738356 0)
(5.46364 -0.844178 0)
(5.82154 -0.960627 0)
(6.18398 -1.0876 0)
(6.54756 -1.22475 0)
(6.90831 -1.37142 0)
(7.26175 -1.52663 0)
(7.60293 -1.68903 0)
(7.92652 -1.85691 0)
(8.22689 -2.02823 0)
(8.49814 -2.20062 0)
(8.73408 -2.37141 0)
(8.92824 -2.53759 0)
(9.07374 -2.69577 0)
(9.16332 -2.84206 0)
(9.18933 -2.9719 0)
(9.14394 -3.08004 0)
(9.01951 -3.16053 0)
(8.80912 -3.20717 0)
(8.50712 -3.21404 0)
(8.10976 -3.17633 0)
(7.61505 -3.09154 0)
(7.02356 -2.96009 0)
(6.33181 -2.78923 0)
(5.54519 -2.5896 0)
(4.5964 -2.4113 0)
(3.59434 -2.30696 0)
(1.37111 -2.73732 0)
(6.00233 -0.401149 0)
(6.16697 -0.477878 0)
(6.34334 -0.552667 0)
(6.53759 -0.633275 0)
(6.74523 -0.720784 0)
(6.96261 -0.814464 0)
(7.18826 -0.914508 0)
(7.42028 -1.02137 0)
(7.65575 -1.13516 0)
(7.89138 -1.25572 0)
(8.12373 -1.38267 0)
(8.34907 -1.5154 0)
(8.56334 -1.65298 0)
(8.76214 -1.79419 0)
(8.94078 -1.93743 0)
(9.09425 -2.08079 0)
(9.21725 -2.22203 0)
(9.30417 -2.35852 0)
(9.34903 -2.4873 0)
(9.34551 -2.60497 0)
(9.28692 -2.70772 0)
(9.16632 -2.79124 0)
(8.97679 -2.85081 0)
(8.71189 -2.88134 0)
(8.36633 -2.87774 0)
(7.93679 -2.83531 0)
(7.42281 -2.75044 0)
(6.82746 -2.62121 0)
(6.15742 -2.44788 0)
(5.42301 -2.23294 0)
(4.63531 -1.98244 0)
(3.80933 -1.70122 0)
(2.93488 -1.40481 0)
(2.03767 -1.03808 0)
(0.937783 -0.792888 0)
(8.10968 -0.542886 0)
(8.2184 -0.6292 0)
(8.33079 -0.71578 0)
(8.44993 -0.805413 0)
(8.5746 -0.899187 0)
(8.70197 -0.996874 0)
(8.8298 -1.09856 0)
(8.95596 -1.20451 0)
(9.07782 -1.31469 0)
(9.19232 -1.42868 0)
(9.29614 -1.54581 0)
(9.38573 -1.66512 0)
(9.45719 -1.78536 0)
(9.50629 -1.90494 0)
(9.52843 -2.02194 0)
(9.51863 -2.13408 0)
(9.4716 -2.23873 0)
(9.38167 -2.33286 0)
(9.24295 -2.41311 0)
(9.04941 -2.47575 0)
(8.79516 -2.5168 0)
(8.47489 -2.53214 0)
(8.08436 -2.51774 0)
(7.62122 -2.47002 0)
(7.08582 -2.38623 0)
(6.48212 -2.26507 0)
(5.81842 -2.10707 0)
(5.10772 -1.91487 0)
(4.36765 -1.69312 0)
(3.62083 -1.44841 0)
(2.89314 -1.18881 0)
(2.20928 -0.915819 0)
(1.56495 -0.613083 0)
(0.971066 -0.206906 0)
(0.376577 0.126992 0)
(9.42399 -0.620047 0)
(9.47466 -0.706612 0)
(9.523 -0.79485 0)
(9.56985 -0.885115 0)
(9.6144 -0.978087 0)
(9.65449 -1.07369 0)
(9.68789 -1.17158 0)
(9.71242 -1.27144 0)
(9.72556 -1.37279 0)
(9.72436 -1.47485 0)
(9.70555 -1.57662 0)
(9.66555 -1.67677 0)
(9.60043 -1.77371 0)
(9.5059 -1.86547 0)
(9.37731 -1.94975 0)
(9.20974 -2.02391 0)
(8.9981 -2.08501 0)
(8.73734 -2.12985 0)
(8.42277 -2.15509 0)
(8.05042 -2.1574 0)
(7.61761 -2.13364 0)
(7.1235 -2.08118 0)
(6.5698 -1.99825 0)
(5.96143 -1.88434 0)
(5.30712 -1.74067 0)
(4.6198 -1.57053 0)
(3.9166 -1.37933 0)
(3.21883 -1.17446 0)
(2.55248 -0.965662 0)
(1.94835 -0.764562 0)
(1.43375 -0.5773 0)
(1.01284 -0.385632 0)
(0.657253 -0.127841 0)
(0.374569 0.282728 0)
(0.0997153 0.602211 0)
(9.94425 -0.643207 0)
(9.93732 -0.725744 0)
(9.92265 -0.809908 0)
(9.8998 -0.895084 0)
(9.86772 -0.981237 0)
(9.82449 -1.06804 0)
(9.76787 -1.15488 0)
(9.6955 -1.24108 0)
(9.60474 -1.32585 0)
(9.49258 -1.40818 0)
(9.35568 -1.48673 0)
(9.19042 -1.55987 0)
(8.99295 -1.62567 0)
(8.75924 -1.68185 0)
(8.48525 -1.72588 0)
(8.16712 -1.75507 0)
(7.80155 -1.76668 0)
(7.38617 -1.7581 0)
(6.92007 -1.72706 0)
(6.40431 -1.67187 0)
(5.8424 -1.59165 0)
(5.24072 -1.48664 0)
(4.60885 -1.3585 0)
(3.95966 -1.2106 0)
(3.30902 -1.04815 0)
(2.67519 -0.878157 0)
(2.07848 -0.709438 0)
(1.54199 -0.553728 0)
(1.09269 -0.426062 0)
(0.752789 -0.335098 0)
(0.514439 -0.260604 0)
(0.332773 -0.142164 0)
(0.176376 0.105702 0)
(0.0360515 0.529687 0)
(-0.0382957 0.708898 0)
(9.67386 -0.612548 0)
(9.61136 -0.685344 0)
(9.53576 -0.758764 0)
(9.44587 -0.831911 0)
(9.34022 -0.904263 0)
(9.21681 -0.975226 0)
(9.07331 -1.04398 0)
(8.90721 -1.10956 0)
(8.71581 -1.17086 0)
(8.49622 -1.22655 0)
(8.24545 -1.27504 0)
(7.96057 -1.31452 0)
(7.63888 -1.34297 0)
(7.27813 -1.35825 0)
(6.87679 -1.35828 0)
(6.43445 -1.34116 0)
(5.95218 -1.30545 0)
(5.43301 -1.25034 0)
(4.88226 -1.17584 0)
(4.30783 -1.08298 0)
(3.72018 -0.97386 0)
(3.13224 -0.851897 0)
(2.55881 -0.721845 0)
(2.01559 -0.589467 0)
(1.5177 -0.461117 0)
(1.07896 -0.344101 0)
(0.712712 -0.249042 0)
(0.433958 -0.192379 0)
(0.251421 -0.182849 0)
(0.141536 -0.191984 0)
(0.0548358 -0.159015 0)
(-0.034578 -0.0228673 0)
(-0.132546 0.265477 0)
(-0.175216 0.597158 0)
(-0.0960364 0.566184 0)
(8.61469 -0.529895 0)
(8.49862 -0.587707 0)
(8.36404 -0.644683 0)
(8.20929 -0.699787 0)
(8.03266 -0.752146 0)
(7.83219 -0.800881 0)
(7.60577 -0.844981 0)
(7.35136 -0.88332 0)
(7.06707 -0.914697 0)
(6.75135 -0.937844 0)
(6.40313 -0.95143 0)
(6.02208 -0.954115 0)
(5.60887 -0.944604 0)
(5.16533 -0.921759 0)
(4.69477 -0.884829 0)
(4.20216 -0.833699 0)
(3.69434 -0.769099 0)
(3.18009 -0.692709 0)
(2.66994 -0.607121 0)
(2.17586 -0.515678 0)
(1.71064 -0.422393 0)
(1.28678 -0.331819 0)
(0.914807 -0.248418 0)
(0.601433 -0.175572 0)
(0.34912 -0.116108 0)
(0.157253 -0.0751954 0)
(0.0222851 -0.0642371 0)
(-0.0639839 -0.090434 0)
(-0.120355 -0.129803 0)
(-0.172647 -0.139091 0)
(-0.235096 -0.0765721 0)
(-0.297094 0.0815463 0)
(-0.323401 0.312721 0)
(-0.263802 0.498767 0)
(-0.0915037 0.353497 0)
(6.76981 -0.39696 0)
(6.60396 -0.434316 0)
(6.41529 -0.469109 0)
(6.20253 -0.500303 0)
(5.96464 -0.526969 0)
(5.70081 -0.548257 0)
(5.4106 -0.563348 0)
(5.0941 -0.571479 0)
(4.75215 -0.571992 0)
(4.38644 -0.564384 0)
(3.99973 -0.548331 0)
(3.59594 -0.523766 0)
(3.18029 -0.490836 0)
(2.75932 -0.449938 0)
(2.34071 -0.401949 0)
(1.93296 -0.348415 0)
(1.54512 -0.291577 0)
(1.1861 -0.234273 0)
(0.864054 -0.179753 0)
(0.586149 -0.131666 0)
(0.357957 -0.0928971 0)
(0.179711 -0.0634492 0)
(0.0445758 -0.040093 0)
(-0.0583669 -0.0195613 0)
(-0.136507 -0.00451151 0)
(-0.192355 -0.00273648 0)
(-0.230627 -0.0210817 0)
(-0.262771 -0.055191 0)
(-0.302181 -0.0856433 0)
(-0.351771 -0.0843653 0)
(-0.397224 -0.025971 0)
(-0.412168 0.0954332 0)
(-0.366723 0.244661 0)
(-0.241103 0.321602 0)
(-0.0561965 0.17749 0)
(4.18833 -0.221813 0)
(3.99483 -0.2364 0)
(3.78093 -0.247583 0)
(3.54739 -0.254701 0)
(3.29562 -0.257251 0)
(3.02759 -0.254913 0)
(2.74587 -0.247549 0)
(2.45373 -0.235221 0)
(2.15509 -0.218237 0)
(1.85456 -0.197174 0)
(1.55741 -0.17288 0)
(1.26937 -0.146376 0)
(0.996905 -0.11911 0)
(0.747231 -0.0930051 0)
(0.526712 -0.0698453 0)
(0.339713 -0.0505333 0)
(0.187435 -0.0348037 0)
(0.0673079 -0.021915 0)
(-0.0265607 -0.0120699 0)
(-0.100558 -0.00623869 0)
(-0.15782 -0.00283988 0)
(-0.200873 0.00147844 0)
(-0.231181 0.00812257 0)
(-0.249513 0.0154361 0)
(-0.257702 0.0194895 0)
(-0.259823 0.0153267 0)
(-0.264756 0.000178121 0)
(-0.282939 -0.0233446 0)
(-0.319366 -0.0450328 0)
(-0.365377 -0.0486515 0)
(-0.395507 -0.0181004 0)
(-0.379163 0.0488315 0)
(-0.298976 0.12419 0)
(-0.165053 0.147423 0)
(-0.0263781 0.0654606 0)
(1.18709 -0.0460127 0)
(1.05655 -0.0433438 0)
(0.92206 -0.039084 0)
(0.786378 -0.0333691 0)
(0.652468 -0.0265105 0)
(0.523344 -0.0189677 0)
(0.4019 -0.0112953 0)
(0.290758 -0.00409069 0)
(0.192072 0.00206547 0)
(0.107312 0.00672136 0)
(0.0371324 0.00979146 0)
(-0.0193362 0.0115704 0)
(-0.0638705 0.0115518 0)
(-0.0986249 0.00954262 0)
(-0.126395 0.00677694 0)
(-0.149192 0.00483909 0)
(-0.167599 0.00456785 0)
(-0.180968 0.00555425 0)
(-0.188517 0.00656659 0)
(-0.190738 0.00669245 0)
(-0.189493 0.00598662 0)
(-0.186331 0.00519453 0)
(-0.181087 0.00518418 0)
(-0.172459 0.00613977 0)
(-0.160239 0.00723698 0)
(-0.147162 0.00718684 0)
(-0.139007 0.00488295 0)
(-0.142465 -0.000251884 0)
(-0.16175 -0.00761828 0)
(-0.193331 -0.0142793 0)
(-0.219982 -0.0141454 0)
(-0.21412 -0.00207458 0)
(-0.160252 0.0165902 0)
(-0.0770735 0.0233291 0)
(-0.0102631 0.00774341 0)
(1.63251 -0.265384 0)
(2.23993 -0.248158 0)
(2.81489 -0.223683 0)
(3.34082 -0.193638 0)
(3.80697 -0.160197 0)
(4.20698 -0.125217 0)
(4.53815 -0.0901194 0)
(4.8007 -0.0559794 0)
(4.99688 -0.0234722 0)
(5.12995 0.00722603 0)
(3.67596 -0.96936 0)
(4.35881 -0.933229 0)
(5.00115 -0.870375 0)
(5.58862 -0.78795 0)
(6.11279 -0.693371 0)
(6.56993 -0.592748 0)
(6.95966 -0.490794 0)
(7.28404 -0.391033 0)
(7.54684 -0.295721 0)
(7.75288 -0.205818 0)
(5.71347 -1.65656 0)
(6.37906 -1.58439 0)
(6.98936 -1.46911 0)
(7.53354 -1.3241 0)
(8.00825 -1.16212 0)
(8.41473 -0.993248 0)
(8.75634 -0.825131 0)
(9.03779 -0.663327 0)
(9.26474 -0.511224 0)
(9.4432 -0.370237 0)
(7.51421 -2.33057 0)
(8.10699 -2.20114 0)
(8.62952 -2.01774 0)
(9.07849 -1.80179 0)
(9.45885 -1.57082 0)
(9.7773 -1.33726 0)
(10.0397 -1.11015 0)
(10.2519 -0.895694 0)
(10.42 -0.697276 0)
(10.5503 -0.515989 0)
(8.86957 -2.90811 0)
(9.33031 -2.70396 0)
(9.71659 -2.44229 0)
(10.036 -2.1559 0)
(10.2988 -1.86355 0)
(10.511 -1.57603 0)
(10.6763 -1.30182 0)
(10.8003 -1.04688 0)
(10.8902 -0.814086 0)
(10.9539 -0.604007 0)
(9.59917 -3.32972 0)
(9.90918 -3.05124 0)
(10.1544 -2.72413 0)
(10.3362 -2.38586 0)
(10.4569 -2.04697 0)
(10.518 -1.71482 0)
(10.5273 -1.40038 0)
(10.5002 -1.11264 0)
(10.4535 -0.855597 0)
(10.401 -0.62958 0)
(9.63191 -3.55334 0)
(9.82713 -3.22959 0)
(9.91106 -2.86364 0)
(9.84826 -2.47189 0)
(9.66735 -2.06795 0)
(9.4079 -1.67567 0)
(9.11055 -1.31791 0)
(8.81387 -1.00705 0)
(8.54616 -0.745663 0)
(8.32284 -0.531035 0)
(9.01668 -3.67751 0)
(8.98805 -3.2718 0)
(8.59249 -2.76195 0)
(7.91654 -2.19073 0)
(7.15966 -1.64619 0)
(6.43321 -1.18609 0)
(5.7865 -0.825719 0)
(5.24537 -0.554194 0)
(4.81771 -0.352458 0)
(4.50045 -0.204821 0)
(7.63892 -3.80852 0)
(6.67452 -2.88376 0)
(5.15066 -1.88935 0)
(3.79913 -1.08293 0)
(2.71927 -0.508118 0)
(1.90985 -0.149941 0)
(1.32107 0.031303 0)
(0.914646 0.097192 0)
(0.658566 0.122944 0)
(0.525562 0.144581 0)
(4.39123 -2.81791 0)
(1.87584 -0.968315 0)
(-0.347758 0.227875 0)
(-0.498248 0.298824 0)
(-0.668498 0.207254 0)
(-0.73291 0.125908 0)
(-0.697986 0.0704962 0)
(-0.654675 0.0243978 0)
(-0.620599 -0.0413988 0)
(-0.561244 -0.17857 0)
(5.20368 0.0366894 0)
(5.22058 0.0668463 0)
(5.17486 0.0982884 0)
(5.07187 0.129278 0)
(4.9168 0.157585 0)
(4.71388 0.181762 0)
(4.46746 0.20104 0)
(4.18234 0.214925 0)
(3.86355 0.222994 0)
(3.51638 0.224852 0)
(3.14666 0.220164 0)
(2.76098 0.208709 0)
(2.36678 0.190485 0)
(1.97233 0.165836 0)
(1.58657 0.135594 0)
(1.21876 0.101218 0)
(0.87807 0.0648888 0)
(0.57307 0.0295543 0)
(0.31097 -0.00110905 0)
(0.0989643 -0.0240485 0)
(-0.0590326 -0.042935 0)
(-0.169109 -0.0586152 0)
(-0.234149 -0.0627092 0)
(-0.262636 -0.0533135 0)
(-0.269997 -0.0346274 0)
(-0.272936 -0.0159235 0)
(-0.281536 -0.00664336 0)
(-0.291992 -0.00818844 0)
(-0.293977 -0.0133698 0)
(-0.283163 -0.0149581 0)
(-0.266997 -0.0117401 0)
(-0.252113 -0.00834473 0)
(-0.238265 -0.00726081 0)
(-0.223626 -0.00689503 0)
(-0.208623 -0.00595979 0)
(7.90738 -0.121084 0)
(8.01628 -0.0401199 0)
(8.09093 0.0384233 0)
(8.13238 0.114268 0)
(8.14011 0.186762 0)
(8.11276 0.255726 0)
(8.04836 0.321254 0)
(7.94464 0.383297 0)
(7.79913 0.44144 0)
(7.60941 0.494847 0)
(7.37333 0.542279 0)
(7.08934 0.582147 0)
(6.75679 0.612644 0)
(6.37623 0.631915 0)
(5.94966 0.638298 0)
(5.48072 0.63056 0)
(4.97474 0.608128 0)
(4.43873 0.571262 0)
(3.88111 0.521124 0)
(3.31165 0.459872 0)
(2.74123 0.389471 0)
(2.18052 0.311811 0)
(1.64287 0.230997 0)
(1.14393 0.152959 0)
(0.702943 0.0856953 0)
(0.342839 0.0383792 0)
(0.0855622 0.0121665 0)
(-0.069511 -0.00822827 0)
(-0.173521 -0.0230356 0)
(-0.248813 -0.022286 0)
(-0.302077 -0.0154235 0)
(-0.337036 -0.0152077 0)
(-0.35685 -0.0208239 0)
(-0.364005 -0.0247678 0)
(-0.36102 -0.0248497 0)
(9.57897 -0.240366 0)
(9.67727 -0.120983 0)
(9.74244 -0.0108828 0)
(9.77969 0.0916688 0)
(9.79297 0.188444 0)
(9.78522 0.281 0)
(9.75835 0.370646 0)
(9.71321 0.458351 0)
(9.64953 0.544631 0)
(9.5659 0.629484 0)
(9.45982 0.712331 0)
(9.32767 0.792001 0)
(9.16494 0.866767 0)
(8.9664 0.934464 0)
(8.72649 0.992671 0)
(8.43973 1.03895 0)
(8.10125 1.07106 0)
(7.70732 1.08719 0)
(7.25585 1.08606 0)
(6.74681 1.06699 0)
(6.18277 1.03007 0)
(5.56922 0.975992 0)
(4.91492 0.905428 0)
(4.23192 0.818935 0)
(3.53575 0.717281 0)
(2.84522 0.602611 0)
(2.18197 0.479615 0)
(1.56955 0.353909 0)
(1.02522 0.233385 0)
(0.569215 0.131783 0)
(0.226169 0.062554 0)
(0.00735614 0.0243099 0)
(-0.129473 0.00351147 0)
(-0.226215 -0.00533262 0)
(-0.29219 -0.0124633 0)
(10.6486 -0.35138 0)
(10.7198 -0.201899 0)
(10.7682 -0.0652722 0)
(10.7968 0.0610163 0)
(10.8085 0.179166 0)
(10.8049 0.290957 0)
(10.7878 0.397902 0)
(10.7582 0.501295 0)
(10.717 0.602197 0)
(10.6645 0.701396 0)
(10.6007 0.799359 0)
(10.5247 0.89617 0)
(10.435 0.991488 0)
(10.3292 1.08454 0)
(10.2037 1.17417 0)
(10.0538 1.25889 0)
(9.87357 1.33697 0)
(9.65633 1.40651 0)
(9.3948 1.46548 0)
(9.08169 1.5117 0)
(8.71034 1.54283 0)
(8.27541 1.55632 0)
(7.77351 1.54919 0)
(7.20383 1.51808 0)
(6.56862 1.4596 0)
(5.87388 1.37124 0)
(5.13014 1.25282 0)
(4.35371 1.10783 0)
(3.56652 0.942529 0)
(2.79463 0.764471 0)
(2.06697 0.583337 0)
(1.41425 0.41083 0)
(0.861247 0.258897 0)
(0.427838 0.141791 0)
(0.128648 0.0679849 0)
(10.9983 -0.415692 0)
(11.0292 -0.246689 0)
(11.0509 -0.0937893 0)
(11.0658 0.0458494 0)
(11.0758 0.174802 0)
(11.0817 0.295645 0)
(11.0839 0.410762 0)
(11.0823 0.522131 0)
(11.0764 0.631248 0)
(11.0655 0.739146 0)
(11.0486 0.846432 0)
(11.0245 0.953333 0)
(10.9919 1.05977 0)
(10.9494 1.16544 0)
(10.8952 1.26994 0)
(10.8273 1.37284 0)
(10.7429 1.47369 0)
(10.6386 1.57193 0)
(10.5095 1.66681 0)
(10.35 1.75715 0)
(10.153 1.84108 0)
(9.91069 1.91576 0)
(9.61453 1.97727 0)
(9.256 2.02062 0)
(8.82725 2.04005 0)
(8.32198 2.02975 0)
(7.73666 1.98462 0)
(7.07179 1.90127 0)
(6.33354 1.77865 0)
(5.53439 1.61808 0)
(4.69312 1.42368 0)
(3.8351 1.20355 0)
(2.99192 0.969279 0)
(2.19854 0.734547 0)
(1.4904 0.514809 0)
(10.3531 -0.432688 0)
(10.3167 -0.259832 0)
(10.2951 -0.105225 0)
(10.2885 0.0352331 0)
(10.2956 0.164386 0)
(10.3155 0.284966 0)
(10.3474 0.399613 0)
(10.3896 0.510698 0)
(10.4401 0.620214 0)
(10.4967 0.729691 0)
(10.5568 0.840131 0)
(10.6178 0.951992 0)
(10.6768 1.06527 0)
(10.7309 1.17965 0)
(10.7774 1.29468 0)
(10.8136 1.40995 0)
(10.8371 1.52521 0)
(10.8451 1.64042 0)
(10.8349 1.75562 0)
(10.8032 1.87075 0)
(10.7458 1.98536 0)
(10.6576 2.09813 0)
(10.5323 2.2066 0)
(10.3623 2.30686 0)
(10.139 2.39365 0)
(9.85285 2.46059 0)
(9.49402 2.50077 0)
(9.0535 2.50732 0)
(8.5243 2.47412 0)
(7.90304 2.39654 0)
(7.19132 2.27194 0)
(6.39696 2.10028 0)
(5.5354 1.88462 0)
(4.63035 1.63148 0)
(3.7135 1.35161 0)
(8.15065 -0.35728 0)
(8.03273 -0.213505 0)
(7.96738 -0.0896478 0)
(7.94664 0.0214145 0)
(7.96381 0.124508 0)
(8.01545 0.222759 0)
(8.09858 0.318547 0)
(8.21001 0.41394 0)
(8.34632 0.510844 0)
(8.5039 0.610904 0)
(8.67886 0.715309 0)
(8.86706 0.82465 0)
(9.06422 0.938973 0)
(9.26601 1.05791 0)
(9.46814 1.18088 0)
(9.66645 1.30734 0)
(9.85683 1.43687 0)
(10.0352 1.56926 0)
(10.1977 1.70451 0)
(10.3401 1.84275 0)
(10.4583 1.98395 0)
(10.5475 2.12747 0)
(10.6028 2.27178 0)
(10.6188 2.41416 0)
(10.5896 2.55067 0)
(10.5085 2.67633 0)
(10.368 2.78536 0)
(10.1593 2.87145 0)
(9.87278 2.92798 0)
(9.49852 2.94826 0)
(9.02727 2.92582 0)
(8.45209 2.85468 0)
(7.77043 2.73001 0)
(6.98664 2.54913 0)
(6.11395 2.31273 0)
(4.27405 -0.103242 0)
(4.14302 -0.0281331 0)
(4.09299 0.0329898 0)
(4.10806 0.0855028 0)
(4.17861 0.133292 0)
(4.29758 0.180058 0)
(4.45929 0.228668 0)
(4.6591 0.281464 0)
(4.89322 0.340572 0)
(5.1583 0.407885 0)
(5.45093 0.484825 0)
(5.76757 0.572163 0)
(6.1046 0.669948 0)
(6.45832 0.777706 0)
(6.82494 0.894774 0)
(7.20052 1.02058 0)
(7.58073 1.15475 0)
(7.96086 1.29706 0)
(8.33574 1.44758 0)
(8.69967 1.60659 0)
(9.04617 1.77421 0)
(9.36812 1.94983 0)
(9.65809 2.13177 0)
(9.90879 2.31705 0)
(10.1135 2.50156 0)
(10.2662 2.68053 0)
(10.3614 2.84896 0)
(10.3933 3.00188 0)
(10.3555 3.1344 0)
(10.2397 3.24149 0)
(10.0358 3.31744 0)
(9.73215 3.3554 0)
(9.31718 3.34723 0)
(8.78155 3.28406 0)
(8.12118 3.15764 0)
(0.46192 0.0345225 0)
(0.573166 -0.0324823 0)
(0.733776 -0.0556753 0)
(0.888127 -0.0578001 0)
(1.04155 -0.0490957 0)
(1.20326 -0.0340028 0)
(1.37926 -0.0140345 0)
(1.57414 0.0112084 0)
(1.79198 0.04323 0)
(2.03584 0.0839278 0)
(2.30823 0.135013 0)
(2.61077 0.197641 0)
(2.94382 0.272375 0)
(3.30764 0.359112 0)
(3.70243 0.45763 0)
(4.12789 0.568039 0)
(4.58244 0.690668 0)
(5.06321 0.826026 0)
(5.5662 0.975135 0)
(6.08589 1.13961 0)
(6.6147 1.32089 0)
(7.14311 1.51929 0)
(7.66011 1.73343 0)
(8.15408 1.95985 0)
(8.61382 2.1933 0)
(9.02945 2.42774 0)
(9.39252 2.65711 0)
(9.6959 2.87604 0)
(9.93307 3.08035 0)
(10.097 3.26692 0)
(10.1788 3.43261 0)
(10.1673 3.57277 0)
(10.0493 3.68008 0)
(9.81091 3.74412 0)
(9.43992 3.75228 0)
(-0.397152 -0.354833 0)
(-0.241058 -0.283765 0)
(-0.134979 -0.238215 0)
(-0.0711037 -0.206287 0)
(-0.0159249 -0.183789 0)
(0.0452342 -0.168785 0)
(0.119118 -0.158455 0)
(0.207598 -0.149715 0)
(0.311845 -0.1389 0)
(0.431787 -0.122841 0)
(0.566519 -0.0993614 0)
(0.716638 -0.0672775 0)
(0.888544 -0.0268495 0)
(1.09004 0.0215799 0)
(1.32965 0.0785116 0)
(1.61573 0.146255 0)
(1.95309 0.226729 0)
(2.34404 0.32158 0)
(2.7897 0.43348 0)
(3.28878 0.566456 0)
(3.83621 0.72476 0)
(4.4234 0.911417 0)
(5.03896 1.12701 0)
(5.6696 1.36865 0)
(6.30152 1.6303 0)
(6.92147 1.90471 0)
(7.51679 2.18423 0)
(8.0759 2.46189 0)
(8.58822 2.73281 0)
(9.04295 2.99455 0)
(9.42772 3.24572 0)
(9.72801 3.48388 0)
(9.92763 3.70327 0)
(10.0102 3.89354 0)
(9.96068 4.0405 0)
(-0.108986 -0.278727 0)
(-0.214097 -0.272532 0)
(-0.248398 -0.226424 0)
(-0.266624 -0.200363 0)
(-0.276004 -0.189166 0)
(-0.278363 -0.187674 0)
(-0.274247 -0.191052 0)
(-0.262947 -0.194653 0)
(-0.243469 -0.194303 0)
(-0.214471 -0.186845 0)
(-0.174732 -0.171218 0)
(-0.123471 -0.148864 0)
(-0.0590181 -0.122806 0)
(0.0160908 -0.095968 0)
(0.101715 -0.0708185 0)
(0.206823 -0.0485345 0)
(0.353633 -0.0256057 0)
(0.554979 0.00303534 0)
(0.820707 0.045289 0)
(1.15512 0.110069 0)
(1.55657 0.203884 0)
(2.02561 0.333006 0)
(2.5555 0.501883 0)
(3.13732 0.709989 0)
(3.76272 0.952151 0)
(4.42362 1.22155 0)
(5.10953 1.51019 0)
(5.80861 1.81031 0)
(6.50844 2.11735 0)
(7.19425 2.43029 0)
(7.84727 2.74956 0)
(8.44465 3.07425 0)
(8.96101 3.39884 0)
(9.37182 3.71158 0)
(9.65667 3.99587 0)
(-0.0432911 -0.158338 0)
(-0.148978 -0.189309 0)
(-0.219979 -0.175937 0)
(-0.272333 -0.165094 0)
(-0.314076 -0.162072 0)
(-0.349785 -0.165709 0)
(-0.382225 -0.173354 0)
(-0.412883 -0.181526 0)
(-0.442146 -0.186394 0)
(-0.469234 -0.184774 0)
(-0.492253 -0.175288 0)
(-0.508375 -0.159095 0)
(-0.513968 -0.139796 0)
(-0.505246 -0.123313 0)
(-0.480406 -0.115493 0)
(-0.439387 -0.119072 0)
(-0.378827 -0.133133 0)
(-0.292849 -0.153958 0)
(-0.175636 -0.17443 0)
(-0.0134065 -0.181636 0)
(0.212721 -0.158911 0)
(0.497315 -0.093785 0)
(0.829531 0.0148827 0)
(1.21372 0.162119 0)
(1.65549 0.345089 0)
(2.16614 0.560992 0)
(2.74923 0.803508 0)
(3.40331 1.06637 0)
(4.12394 1.34911 0)
(4.89849 1.65686 0)
(5.70451 1.99718 0)
(6.51103 2.37426 0)
(7.2812 2.78209 0)
(7.97873 3.20365 0)
(8.57376 3.61622 0)
(-0.0227265 -0.074693 0)
(-0.100281 -0.107684 0)
(-0.166598 -0.110398 0)
(-0.223317 -0.110429 0)