/*--------------------------------*- C++ -*----------------------------------*\
| =========                 |                                                 |
| \\      /  F ield         | OpenFOAM: The Open Source CFD Toolbox           |
|  \\    /   O peration     | Version:  2406                                  |
|   \\  /    A nd           | Website:  www.openfoam.com                      |
|    \\/     M anipulation  |                                                 |
\*---------------------------------------------------------------------------*/
FoamFile
{
    version     2.0;
    format      ascii;
    arch        "LSB;label=32;scalar=64";
    class       surfaceScalarField;
    location    "28";
    object      phi;
}
// * * * * * * * * * * * * * * * * * * * * * * * * * * * * * * * * * * * * * //

dimensions      [0 3 -1 0 0 0 0];

oriented        oriented;

internalField   nonuniform List<scalar> 
3680
(
0.0193528
-0.00035279
0.01974
-0.000387199
0.0200891
-0.000349035
0.0204768
-0.000387765
0.0209686
-0.000491778
0.0216471
-0.000678481
0.0226645
-0.00101741
0.0243195
-0.001655
0.0273743
-0.00305483
-0.00729843
0.0346727
0.0509948
-0.000347619
0.0512772
-0.000669535
0.0517381
-0.000809945
0.0523494
-0.000999001
0.0531548
-0.00129715
0.0542318
-0.00175543
0.0557011
-0.00248675
0.0577477
-0.00370159
0.060526
-0.00583323
-0.00977354
0.0630011
0.0749812
-0.000328858
0.0751101
-0.00079836
0.0754345
-0.00113436
0.0759356
-0.00150006
0.0766218
-0.00198337
0.0775208
-0.00265441
0.0786591
-0.0036251
0.0800228
-0.00506526
0.0814087
-0.00721916
-0.0103889
0.0820241
0.0909759
-0.000304741
0.0909928
-0.000815307
0.0911227
-0.00126421
0.0913696
-0.00174704
0.0917249
-0.00233863
0.0921769
-0.00310638
0.0926899
-0.00413808
0.093167
-0.00554241
0.0933813
-0.00743337
-0.00988188
0.0928742
0.0989512
-0.000255911
0.0988631
-0.00072725
0.0987976
-0.00119869
0.0987636
-0.00171308
0.0987422
-0.00231712
0.0987008
-0.00306494
0.0985792
-0.00401655
0.0982682
-0.00523134
0.0975863
-0.00675149
-0.00856526
0.0962698
0.0989139
-0.000169779
0.0987219
-0.000535311
0.0984851
-0.000961868
0.0982064
-0.00143433
0.0978579
-0.00196858
0.0973981
-0.00260502
0.0967623
-0.0033808
0.0958537
-0.00432265
0.0945406
-0.00543829
-0.00669473
0.0926701
0.0908696
-3.94085e-05
0.0905936
-0.000259287
0.0902417
-0.000609865
0.0898
-0.000992614
0.0892323
-0.00140087
0.0884947
-0.0018674
0.0875277
-0.00241368
0.0862538
-0.00304871
0.0845837
-0.00376814
-0.00454281
0.0824318
0.0748276
0.000132988
0.0745381
3.02196e-05
0.0741765
-0.000248187
0.0736965
-0.000512569
0.0730599
-0.000764251
0.0722287
-0.0010361
0.0711554
-0.00134038
0.069786
-0.00167927
0.0680663
-0.00204838
-0.00243103
0.0659545
0.0508459
0.00028711
0.0507115
0.000164687
0.0504861
-2.27815e-05
0.0501157
-0.000142181
0.0495873
-0.00023582
0.048881
-0.000329693
0.0479699
-0.000429281
0.0468254
-0.000534767
0.0454219
-0.00064487
-0.000754863
0.0437458
0.0192871
0.0194518
0.019429
0.0192869
0.019051
0.0187214
0.0182921
0.0177573
0.0171124
0.0163576
-0.000143702
0.000143701
-0.000468205
0.000324494
-0.000826994
0.000358787
-0.00111121
0.000284222
-0.00126543
0.00015423
-0.00127114
5.72058e-06
-0.00113262
-0.000138489
-0.000867092
-0.000265486
-0.000498259
-0.000368776
-5.21514e-05
-0.000446036
0.000445535
-0.000497601
0.000971078
-0.000525446
0.00150375
-0.000532568
0.00202635
-0.000522485
0.00252533
-0.000498851
0.00299066
-0.000465206
0.00341557
-0.000424787
0.00379611
-0.000380423
0.0041307
-0.000334476
0.00441963
-0.000288835
0.00466465
-0.000244929
0.00486852
-0.000203784
0.00503464
-0.000166067
0.00516684
-0.000132154
0.00526906
-0.000102188
0.00534521
-7.61352e-05
0.00539904
-5.38343e-05
0.00543406
-3.50404e-05
0.00545349
-1.94526e-05
0.00546019
-6.74867e-06
0.00545674
3.40444e-06
0.00544535
1.13266e-05
0.00542796
1.73265e-05
0.0054062
2.16852e-05
2.46628e-05
0.00538147
-0.000354676
0.000498363
-0.00101321
0.000983031
-0.00167684
0.00102243
-0.00214787
0.000755278
-0.00232312
0.000329524
-0.00217045
-0.000146887
-0.00170354
-0.000605309
-0.000962704
-0.00100619
-1.30902e-06
-0.00133001
0.00112304
-0.00157019
0.00235408
-0.00172842
0.00364043
-0.00181156
0.00493746
-0.00182933
0.00620808
-0.00179282
0.00742296
-0.00171344
0.00856019
-0.00160214
0.00960464
-0.00146895
0.0105471
-0.00132263
0.0113835
-0.00117058
0.0121136
-0.00101876
0.0127407
-0.000871787
0.0132701
-0.000733046
0.013709
-0.000604831
0.0140655
-0.00048853
0.0143482
-0.000384792
0.0145658
-0.00029369
0.0147268
-0.00021487
0.0148394
-0.000147671
0.0149111
-9.1239e-05
0.0149488
-4.4602e-05
0.0149589
-6.742e-06
0.0149467
2.33593e-05
0.0149172
4.66861e-05
0.0148745
6.41664e-05
7.66576e-05
0.0148224
-0.000461241
0.000959616
-0.0012323
0.0017541
-0.00191657
0.00170673
-0.00228831
0.00112706
-0.00224537
0.000286635
-0.00176967
-0.000622525
-0.000894714
-0.00148018
0.000317889
-0.00221869
0.00179438
-0.00280637
0.00345899
-0.00323465
0.00524016
-0.00350941
0.00707382
-0.00364502
0.0089051
-0.0036604
0.0106889
-0.00357645
0.0123899
-0.00341421
0.0139817
-0.00319371
0.0154461
-0.00293313
0.0167721
-0.00264839
0.0179546
-0.00235291
0.0189937
-0.00205761
0.019893
-0.00177099
0.0206595
-0.00149938
0.021302
-0.00124718
0.0218307
-0.00101715
0.0222567
-0.000810683
0.0225912
-0.000628128
0.0228453
-0.000469007
0.0230299
-0.000332256
0.023155
-0.000216406
0.0232301
-0.000119741
0.0232637
-4.04175e-05
0.0232635
2.34397e-05
0.0232364
7.36715e-05
0.0231884
0.000112035
0.000140178
0.0231248
-0.000485499
0.0014451
-0.00118642
0.00245507
-0.00165226
0.0021726
-0.00167476
0.00114959
-0.00119391
-0.000194173
-0.000232446
-0.00158393
0.00114383
-0.00285638
0.00285061
-0.00392539
0.0047998
-0.00475547
0.00690769
-0.00534243
0.00909903
-0.00570063
0.011309
-0.00585483
0.0134836
-0.00583491
0.0155798
-0.00567251
0.0175645
-0.00539872
0.0194136
-0.00504268
0.0211112
-0.00463056
0.0226481
-0.00418517
0.0240211
-0.00372567
0.0252312
-0.00326766
0.0262837
-0.00282334
0.0271863
-0.00240183
0.0279488
-0.00200953
0.0285822
-0.00165052
0.0290986
-0.00132697
0.02951
-0.0010395
0.0298286
-0.000787547
0.030066
-0.000569683
0.0302335
-0.000383858
0.0303413
-0.000227628
0.0303992
-9.83315e-05
0.0304158
6.77634e-06
0.030399
9.04175e-05
0.0303557
0.000155221
0.00020367
0.0302921
-0.000446387
0.00189152
-0.000893149
0.00290179
-0.000887475
0.00216693
-0.000302235
0.000564352
0.000836036
-0.00133243
0.0024401
-0.00318798
0.00440428
-0.00482052
0.00662438
-0.00614545
0.0090062
-0.00713723
0.0114685
-0.00780465
0.0139434
-0.00817543
0.0163757
-0.00828705
0.0187219
-0.00818104
0.020949
-0.00789947
0.0230329
-0.00748257
0.0249577
-0.00696735
0.0267139
-0.00638668
0.0282978
-0.00576887
0.0297098
-0.00513762
0.0309544
-0.0045121
0.0320384
-0.00390725
0.0329709
-0.00333423
0.0337623
-0.00280086
0.034424
-0.00231211
0.0349677
-0.00187063
0.0354054
-0.00147715
0.0357489
-0.00113096
0.0360095
-0.000830241
0.036198
-0.000572395
0.0363247
-0.00035432
0.036399
-0.000172615
0.0364294
-2.37481e-05
0.036424
9.5807e-05
0.0363897
0.000189478
0.000260529
0.0363328
-0.000323917
0.00221538
-0.000274287
0.00285212
0.000516587
0.001376
0.00199928
-0.000918381
0.00401092
-0.00334411
0.00638697
-0.00556404
0.00898782
-0.00742137
0.0117022
-0.00885978
0.0144441
-0.00987912
0.0171483
-0.0105089
0.019766
-0.0107931
0.0222614
-0.0107824
0.0246092
-0.0105288
0.0267925
-0.0100828
0.0288017
-0.0094917
0.0306325
-0.00879806
0.0322851
-0.0080392
0.0337632
-0.00724689
0.0350731
-0.00644743
0.036223
-0.0056619
0.0372224
-0.00490659
0.0380818
-0.00419354
0.0388121
-0.00353106
0.0394244
-0.00292433
0.0399298
-0.00237595
0.0403391
-0.00188646
0.040663
-0.00145478
0.0409114
-0.00107863
0.0410939
-0.000754884
0.0412194
-0.00047984
0.0412962
-0.000249465
0.041332
-5.95754e-05
0.0413338
9.40194e-05
0.0413078
0.000215406
0.00030849
0.0412598
-2.28125e-05
0.00223817
0.000922476
0.00190672
0.00292576
-0.00062739
0.00561914
-0.00361184
0.00867421
-0.00639924
0.0118705
-0.00876036
0.0150659
-0.0106169
0.0181709
-0.0119648
0.0211301
-0.0128383
0.0239105
-0.0132893
0.0264936
-0.0133763
0.0288709
-0.0131596
0.0310404
-0.0126983
0.0330055
-0.0120479
0.0347729
-0.0112591
0.036352
-0.0103771
0.0377536
-0.00944079
0.0389896
-0.00848289
0.0400724
-0.0075301
0.0410141
-0.00660355
0.0418268
-0.00571925
0.0425221
-0.00488881
0.043111
-0.00411998
0.0436041
-0.00341734
0.044011
-0.00278287
0.0443411
-0.00221649
0.0446029
-0.00171652
0.0448044
-0.00128011
0.0449531
-0.000903573
0.0450559
-0.000582685
0.0451193
-0.000312894
0.0451492
-8.95162e-05
0.0451511
9.21294e-05
0.0451299
0.000236603
0.000348272
0.04509
0.000697342
0.00154076
0.00330591
-0.000702014
0.00708653
-0.00440813
0.0112329
-0.00775835
0.015338
-0.0105044
0.0192206
-0.012643
0.0228035
-0.0141999
0.026061
-0.0152223
0.028993
-0.0157703
0.0316118
-0.0159082
0.0339361
-0.0157007
0.0359874
-0.015211
0.0377885
-0.0144994
0.0393623
-0.0136217
0.0407316
-0.0126284
0.0419182
-0.0115637
0.0429424
-0.010465
0.0438232
-0.00936367
0.0445777
-0.00828459
0.0452212
-0.00724708
0.0457674
-0.00626542
0.0462281
-0.00534954
0.0466139
-0.00450569
0.0469337
-0.00373712
0.0471955
-0.00304465
0.0474062
-0.00242722
0.0475721
-0.00188235
0.0476985
-0.00140652
0.0477904
-0.000995477
0.0478523
-0.000644542
0.0478881
-0.000348777
0.0479018
-0.000103162
0.0478966
9.72829e-05
0.0478758
0.000257392
0.000381789
0.0478422
0.00275732
-0.00121662
0.00843127
-0.00637612
0.0143781
-0.0103551
0.0198042
-0.0131846
0.0245653
-0.0152657
0.0286812
-0.016759
0.0322119
-0.0177307
0.0352236
-0.0182341
0.0377788
-0.0183255
0.0399341
-0.0180636
0.0417409
-0.0175075
0.0432458
-0.0167159
0.044491
-0.0157447
0.0455149
-0.0146456
0.0463518
-0.0134654
0.0470322
-0.0122441
0.0475829
-0.0110157
0.0480269
-0.00980776
0.048384
-0.00864163
0.0486703
-0.00753346
0.0488995
-0.00649459
0.0490823
-0.0055324
0.0492275
-0.00465094
0.049342
-0.00385161
0.0494311
-0.00313374
0.049499
-0.00249509
0.0495489
-0.00193226
0.0495834
-0.00144104
0.0496046
-0.00101668
0.0496142
-0.000654154
0.0496137
-0.000348278
0.0496044
-9.38748e-05
0.0495875
0.00011414
0.0495643
0.000280671
0.00041039
0.0495356
0.0112389
-0.0124556
0.0200718
-0.0152092
0.026847
-0.0171304
0.0322455
-0.0185831
0.0365947
-0.0196151
0.0401054
-0.0202698
0.0429303
-0.0205557
0.0451848
-0.0204887
0.0469603
-0.0201012
0.0483334
-0.0194367
0.0493702
-0.0185445
0.0501291
-0.0174749
0.0506616
-0.0162772
0.0510129
-0.0149971
0.0512226
-0.0136751
0.0513243
-0.0123459
0.0513465
-0.011038
0.0513127
-0.00977401
0.0512418
-0.00857073
0.0511485
-0.0074402
0.0510441
-0.00639023
0.0509368
-0.00542517
0.0508324
-0.00454658
0.0507346
-0.00375383
0.0506455
-0.00304469
0.0505661
-0.00241572
0.0504965
-0.00186264
0.0504361
-0.00138068
0.0503842
-0.000964728
0.0503396
-0.00060955
0.0503012
-0.000309908
0.050268
-6.06524e-05
0.0502389
0.000143211
0.0502131
0.000306456
0.000433612
0.0501899
0.0375987
-0.0153817
0.0414377
-0.0190483
0.0449884
-0.0206812
0.048045
-0.0216397
0.0505638
-0.022134
0.0525409
-0.0222469
0.0540163
-0.0220312
0.0550497
-0.0215222
0.0557047
-0.0207562
0.0560436
-0.0197757
0.0561256
-0.0186265
0.0560053
-0.0173547
0.0557322
-0.0160042
0.0553498
-0.0146147
0.0548955
-0.0132208
0.0544004
-0.0118509
0.0538899
-0.0105276
0.0533839
-0.00926806
0.0528973
-0.00808421
0.0524408
-0.00698381
0.0520216
-0.00597106
0.0516437
-0.00504729
0.0513087
-0.00421168
0.0510166
-0.00346176
0.0507658
-0.00279389
0.0505537
-0.00220365
0.0503772
-0.00168617
0.0502327
-0.00123626
0.0501167
-0.000848694
0.0500254
-0.000518246
0.0499553
-0.000239821
0.0499032
-8.49245e-06
0.0498659
0.00018045
0.0498409
0.000331469
0.000448777
0.0498258
0.062953
-0.0153336
0.062984
-0.0190793
0.0633441
-0.0210414
0.0637544
-0.0220501
0.0640525
-0.0224322
0.0641428
-0.0223372
0.0639857
-0.0218742
0.0635843
-0.0211208
0.0629654
-0.0201374
0.0621675
-0.0189779
0.0612336
-0.0176926
0.0602068
-0.0163279
0.0591271
-0.0149246
0.0580302
-0.0135178
0.0569458
-0.0121365
0.0558981
-0.0108033
0.0549055
-0.0095351
0.0539812
-0.00834381
0.0531338
-0.00723684
0.0523679
-0.00621802
0.0516851
-0.00528833
0.0510843
-0.00444659
0.0505626
-0.00369002
0.0501156
-0.00301474
0.0497378
-0.00241618
0.0494234
-0.00188932
0.0491662
-0.00142898
0.0489599
-0.00102995
0.0487983
-0.00068711
0.0486756
-0.000395505
0.0485861
-0.000150391
0.0485249
5.27391e-05
0.0484873
0.000218141
0.048469
0.000349812
0.000451503
0.0484663
0.0810036
-0.014313
0.0793849
-0.0174606
0.0777551
-0.0194116
0.0761694
-0.0204644
0.0745897
-0.0208524
0.0729721
-0.0207197
0.0712865
-0.0201886
0.0695261
-0.0193604
0.0677039
-0.0183153
0.065845
-0.017119
0.0639798
-0.0158274
0.0621396
-0.0144877
0.0603534
-0.0131385
0.0586462
-0.0118107
0.0570377
-0.0105281
0.0555424
-0.00930802
0.0541697
-0.0081624
0.0529243
-0.00709848
0.0518072
-0.00611983
0.0508163
-0.00522716
0.0499469
-0.00441903
0.0491927
-0.00369246
0.0485461
-0.00304344
0.0479986
-0.0024673
0.0475415
-0.00195908
0.0471657
-0.00151364
0.0468627
-0.00112594
0.0466238
-0.000791045
0.0464409
-0.000504268
0.0463066
-0.000261151
0.0462137
-5.75065e-05
0.0461559
0.000110589
0.0461273
0.000246793
0.0461226
0.000354519
0.000436951
0.0461372
0.0912293
-0.0126681
0.0888377
-0.0150689
0.0861384
-0.0167122
0.0833175
-0.0176436
0.0804507
-0.0179856
0.0775762
-0.0178451
0.0747156
-0.0173279
0.0718879
-0.0165327
0.0691159
-0.0155433
0.0664253
-0.0144283
0.0638416
-0.0132437
0.0613881
-0.0120342
0.0590842
-0.0108346
0.0569443
-0.0096708
0.0549777
-0.00856147
0.0531887
-0.00751901
0.0515771
-0.00655092
0.0501395
-0.00566083
0.048869
-0.00484946
0.0477572
-0.00411536
0.0467937
-0.00345562
0.0459676
-0.00286635
0.0452672
-0.00234308
0.0446808
-0.00188104
0.0441971
-0.00147542
0.043805
-0.0011215
0.0434937
-0.000814721
0.0432535
-0.000550791
0.0430749
-0.00032568
0.0429494
-0.000135634
0.0428691
2.28179e-05
0.0428268
0.000152893
0.0428161
0.000257558
0.0428311
0.00033957
0.000401479
0.0428666
0.0941115
-0.0105098
0.0912606
-0.0122179
0.0879863
-0.0134379
0.0844789
-0.014136
0.0808617
-0.0143683
0.0772244
-0.0142078
0.073633
-0.0137364
0.0701369
-0.0130365
0.0667756
-0.0121819
0.0635811
-0.0112337
0.0605781
-0.0102407
0.0577846
-0.00924071
0.0552119
-0.00826185
0.0528651
-0.00732396
0.0507439
-0.00644023
0.0488435
-0.00561862
0.0471556
-0.00486306
0.0456693
-0.00417458
0.0443719
-0.00355206
0.0432495
-0.00299299
0.0422878
-0.00249392
0.0414723
-0.00205087
0.0407888
-0.00165965
0.0402237
-0.00131599
0.039764
-0.00101575
0.0393975
-0.000754974
0.0391127
-0.000529939
0.0388991
-0.0003372
0.038747
-0.00017357
0.0386475
-3.61375e-05
0.0385926
7.7776e-05
0.0385749
0.000170609
0.0385879
0.000244615
0.0386257
0.000301854
0.000344243
0.038683
0.0901412
-0.00798075
0.0870233
-0.0090999
0.0834851
-0.00989947
0.0796878
-0.0103387
0.0757639
-0.0104442
0.0718226
-0.0102664
0.0679511
-0.00986484
0.0642163
-0.0093016
0.0606674
-0.00863294
0.0573394
-0.00790557
0.0542549
-0.00715614
0.0514264
-0.00641214
0.0488578
-0.00569318
0.0465462
-0.00501238
0.0444838
-0.00437777
0.0426587
-0.00379355
0.0410567
-0.00326111
0.039662
-0.00277988
0.0384579
-0.00234799
0.0374277
-0.00196275
0.0365547
-0.00162099
0.0358232
-0.00131934
0.0352179
-0.0010544
0.0347247
-0.00082285
0.0343305
-0.000621533
0.034023
-0.000447506
0.0337911
-0.00029805
0.0336246
-0.000170682
0.0335142
-6.31372e-05
0.0334515
2.66311e-05
0.0334288
0.000100485
0.0334394
0.000160112
0.033477
0.000207056
0.0335362
0.00024273
0.000268433
0.0336121
0.0797554
-0.00530429
0.0766044
-0.00594878
0.073098
-0.00639306
0.0693707
-0.00661126
0.0655463
-0.00661975
0.0617325
-0.00645245
0.0580174
-0.00614967
0.054468
-0.00575223
0.0511319
-0.00529677
0.0480395
-0.00481312
0.0452074
-0.00432405
0.0426413
-0.00384601
0.0403384
-0.00339022
0.0382897
-0.0029637
0.0364822
-0.00257029
0.0349001
-0.00221151
0.0335263
-0.00188731
0.032343
-0.00159654
0.0313323
-0.0013374
0.0304773
-0.00110773
0.0297615
-0.000905196
0.0291696
-0.000727416
0.0286872
-0.000572094
0.0283014
-0.000437028
0.0280001
-0.00032019
0.0277723
-0.000219694
0.0276081
-0.000133847
0.0274986
-6.10994e-05
0.0274356
-7.49473e-08
0.0274118
5.04811e-05
0.0274207
9.16803e-05
0.0274564
0.000124544
0.0275136
0.000149985
0.0275876
0.000168847
0.000181896
0.0276742
0.0634431
-0.00279276
0.06058
-0.00308575
0.0574598
-0.00327274
0.0541923
-0.00334376
0.0508826
-0.00331001
0.0476217
-0.00319153
0.0444826
-0.00301056
0.0415189
-0.00278853
0.0387661
-0.00254391
0.0362441
-0.00229119
0.0339611
-0.00204099
0.0319157
-0.00180061
0.0301001
-0.00157469
0.0285023
-0.0013659
0.0271073
-0.0011754
0.0258991
-0.00100333
0.0248609
-0.000849162
0.0239763
-0.000711954
0.0232294
-0.000590523
0.0226052
-0.000483592
0.0220899
-0.000389854
0.0216705
-0.000308043
0.0213354
-0.000236952
0.0210738
-0.000175469
0.0208763
-0.000122568
0.020734
-7.73295e-05
0.0206391
-3.89161e-05
0.0205847
-6.59114e-06
0.0205644
2.03125e-05
0.0205726
4.23807e-05
0.0206043
6.01459e-05
0.0206549
7.40797e-05
0.0207204
8.46134e-05
0.0207973
9.2136e-05
9.70061e-05
0.0208823
0.0418076
-0.000854552
0.0396519
-0.000930033
0.0373504
-0.000971221
0.0349836
-0.000976888
0.0326258
-0.000952256
0.030339
-0.000904692
0.0281699
-0.000841499
0.0261506
-0.000769196
0.0242997
-0.000693046
0.0226255
-0.000616933
0.0211279
-0.000543488
0.0198017
-0.000474389
0.0186375
-0.000410581
0.0176241
-0.000352498
0.0167489
-0.000300198
0.015999
-0.000253511
0.0153619
-0.00021211
0.0148256
-0.000175609
0.0143786
-0.000143573
0.0140106
-0.000115586
0.0137119
-9.1225e-05
0.013474
-7.01145e-05
0.013289
-5.18891e-05
0.0131498
-3.62356e-05
0.0130501
-2.28543e-05
0.0129843
-1.14976e-05
0.0129474
-1.9269e-06
0.0129349
6.04863e-06
0.0129426
1.26174e-05
0.0129672
1.79253e-05
0.0130053
2.2122e-05
0.0130542
2.53209e-05
0.0131113
2.76448e-05
0.0131744
2.91844e-05
3.00443e-05
0.0132415
0.015503
0.014573
0.0136018
0.0126249
0.0116726
0.010768
0.00992646
0.00915726
0.00846421
0.00784728
0.00730379
0.00682939
0.00641881
0.00606631
0.00576611
0.00551259
0.00530048
0.00512486
0.00498129
0.0048657
0.00477448
0.00470436
0.00465248
0.00461624
0.0045934
0.0045819
0.00457999
0.00458604
0.00459867
0.00461661
0.00463874
0.00466408
0.00469174
0.00472094
0.00475099
0.00535491
2.64874e-05
0.00532747
2.73651e-05
0.00529993
2.74725e-05
0.0052729
2.69673e-05
0.00524686
2.5982e-05
0.00522218
2.46343e-05
0.00519911
2.30213e-05
0.00517785
2.1229e-05
0.00515849
1.93271e-05
1.73766e-05
0.00514109
0.0147637
8.49382e-05
0.0147012
8.97081e-05
0.014637
9.15879e-05
0.0145727
9.1126e-05
0.0145097
8.88007e-05
0.0144492
8.50297e-05
0.0143919
8.01722e-05
0.0143385
7.45392e-05
0.0142894
6.83935e-05
6.19603e-05
0.0142448
0.02305
0.000159612
0.0229678
0.000171711
0.0228816
0.000177711
0.0227939
0.000178712
0.0227069
0.000175684
0.0226223
0.000169482
0.0225416
0.00016085
0.0224656
0.000150433
0.0223951
0.000138789
0.00012639
0.0223306
0.0302136
0.000238074
0.0301246
0.00026055
0.0300292
0.000273018
0.0299306
0.000277204
0.0298316
0.000274649
0.0297342
0.000266714
0.0296404
0.000254602
0.0295514
0.00023936
0.0294682
0.000221898
0.000202998
0.0293916
0.0362587
0.000312018
0.0361724
0.000346773
0.036078
0.000367378
0.0359789
0.000376178
0.0358782
0.000375282
0.0357783
0.000366571
0.0356811
0.000351715
0.0355882
0.000332185
0.0355007
0.000309264
0.000284065
0.0354196
0.0411948
0.000376954
0.0411173
0.000424223
0.0410311
0.000453453
0.0409397
0.000467526
0.0408459
0.000469053
0.040752
0.000460381
0.04066
0.00044361
0.0405715
0.0004206
0.0404878
0.000392988
0.000362202
0.0404096
0.0450357
0.000431265
0.0449704
0.000489442
0.0448974
0.000526378
0.0448195
0.00054536
0.0447392
0.000549383
0.0446583
0.000541159
0.0445787
0.000523131
0.0445018
0.000497475
0.0444286
0.000466123
0.000430767
0.04436
0.0477986
0.00047485
0.0477473
0.000540678
0.0476906
0.000583088
0.0476303
0.000605604
0.0475682
0.000611457
0.0475057
0.000603592
0.0474442
0.000584671
0.0473845
0.000557088
0.0473276
0.000522975
0.000484214
0.0472741
0.0495028
0.000507719
0.0494666
0.000576806
0.0494282
0.00062152
0.0493883
0.000645448
0.0493479
0.000651894
0.0493076
0.000643882
0.049268
0.000624166
0.0492299
0.000595231
0.0491935
0.000559305
0.000518366
0.0491594
0.0501687
0.000528953
0.050149
0.00059649
0.0501306
0.000639969
0.0501132
0.000662872
0.0500966
0.000668417
0.050081
0.000659563
0.0500661
0.000639019
0.0500521
0.000609239
0.050039
0.000572435
0.000530579
0.0500268
0.0498184
0.000536336
0.0498171
0.00059786
0.0498203
0.000636816
0.0498268
0.000656437
0.0498355
0.000659716
0.0498457
0.000649419
0.0498566
0.000628082
0.0498679
0.000598019
0.049879
0.00056132
0.000519859
0.0498897
0.0484759
0.000526728
0.0484951
0.000578778
0.0485212
0.000610723
0.0485523
0.000625427
0.0485865
0.000625552
0.0486224
0.00061356
0.0486588
0.000591722
0.0486948
0.000562112
0.0487295
0.000526614
0.00048692
0.0487625
0.0461669
0.000497061
0.0462081
0.000537624
0.0462577
0.000561231
0.0463129
0.0005703
0.0463714
0.000567081
0.0464314
0.000553663
0.0464912
0.000531977
0.0465496
0.00050379
0.0466055
0.000470715
0.000434201
0.0466583
0.0429181
0.000445664
0.0429815
0.000474338
0.0430532
0.000489569
0.0431303
0.000493285
0.0432102
0.000487288
0.0432906
0.00047325
0.04337
0.000452721
0.0434467
0.000427125
0.0435197
0.000397763
0.000365805
0.0435881
0.0387552
0.000373548
0.0388381
0.000391423
0.0389284
0.000399403
0.0390228
0.000398929
0.0391189
0.000391342
0.0392143
0.000377896
0.0393073
0.000359747
0.0393966
0.00033797
0.0394808
0.000313535
0.00028733
0.0395594
0.0337003
0.00028537
0.0337972
0.000294659
0.0338993
0.000297347
0.0340039
0.000294409
0.0341086
0.000286761
0.0342113
0.000275254
0.0343104
0.000260683
0.0344047
0.000243776
0.0344931
0.000225204
0.000205566
0.0345749
0.0277699
0.000189847
0.0278713
0.000193361
0.0279757
0.000193057
0.0280807
0.000189513
0.0281843
0.000183273
0.0282848
0.000174843
0.0283808
0.000164694
0.0284714
0.000153263
0.0285557
0.000140945
0.0001281
0.0286332
0.0209727
9.9555e-05
0.0210662
0.000100089
0.0211605
9.88992e-05
0.0212538
9.62522e-05
0.0213448
9.24044e-05
0.0214322
8.75902e-05
0.0215149
8.20333e-05
0.0215923
7.59348e-05
0.0216638
6.94836e-05
6.28454e-05
0.0217291
0.0133108
3.03002e-05
0.013381
3.00444e-05
0.0134507
2.93422e-05
0.0135187
2.82767e-05
0.0135843
2.69052e-05
0.0136467
2.53024e-05
0.0137053
2.35172e-05
0.0137596
2.16157e-05
0.0138095
1.96376e-05
1.76388e-05
0.0138548
0.00478131
0.00481136
0.00484072
0.00486901
0.00489592
0.00492123
0.00494476
0.00496638
0.00498602
0.00500366
0.00512565
1.54256e-05
0.00511212
1.35161e-05
0.00510044
1.1679e-05
0.0050905
9.94101e-06
0.00508218
8.31967e-06
0.00507536
6.82969e-06
0.0050699
5.47785e-06
0.00506564
4.26968e-06
0.00506245
3.2038e-06
0.00506019
2.27896e-06
0.00505872
1.48794e-06
0.00505791
8.24948e-07
0.00505765
2.79061e-07
0.00505783
-1.58102e-07
0.00505834
-4.99323e-07
0.00505911
-7.5389e-07
0.00506006
-9.34865e-07
0.00506112
-1.0512e-06
0.00506224
-1.11516e-06
0.00506339
-1.13448e-06
0.00506451
-1.11993e-06
0.0050656
-1.07756e-06
0.00506662
-1.01626e-06
0.00506756
-9.4029e-07
0.00506842
-8.5661e-07
0.00506919
-7.67729e-07
0.00506987
-6.78894e-07
0.00507046
-5.91067e-07
0.00507097
-5.08093e-07
0.0050714
-4.29694e-07
0.00507176
-3.58645e-07
0.00507205
-2.93711e-07
0.00507229
-2.36934e-07
0.00507247
-1.86453e-07
-1.43818e-07
0.00507262
0.0142047
5.54257e-05
0.0141693
4.89462e-05
0.0141383
4.26466e-05
0.0141116
3.66281e-05
0.014089
3.09666e-05
0.0140701
2.57192e-05
0.0140547
2.09228e-05
0.0140424
1.66001e-05
0.0140329
1.2758e-05
0.0140258
9.39341e-06
0.0140208
6.49167e-06
0.0140177
4.03174e-06
0.014016
1.98483e-06
0.0140156
3.19122e-07
0.0140161
-1.00163e-06
0.0140174
-2.01397e-06
0.0140192
-2.75625e-06
0.0140215
-3.26498e-06
0.014024
-3.57652e-06
0.0140266
-3.72397e-06
0.0140292
-3.73911e-06
0.0140318
-3.64963e-06
0.0140343
-3.48135e-06
0.0140366
-3.25575e-06
0.0140387
-2.99235e-06
0.0140407
-2.70647e-06
0.0140424
-2.41181e-06
0.0140439
-2.11819e-06
0.0140453
-1.83435e-06
0.0140464
-1.56565e-06
0.0140474
-1.31693e-06
0.0140482
-1.09015e-06
0.0140488
-8.87354e-07
0.0140493
-7.08145e-07
-5.5263e-07
0.0140497
0.0222724
0.000113637
0.0222204
0.000100866
0.0221747
8.83489e-05
0.022135
7.63077e-05
0.022101
6.49133e-05
0.0220725
5.4294e-05
0.0220489
4.45389e-05
0.0220298
3.57035e-05
0.0220148
2.7813e-05
0.0220033
2.0868e-05
0.021995
1.48472e-05
0.0219893
9.71268e-06
0.0219859
5.4123e-06
0.0219844
1.88451e-06
0.0219844
-9.39862e-07
0.0219855
-3.13335e-06
0.0219876
-4.77082e-06
0.0219903
-5.92581e-06
0.0219934
-6.67033e-06
0.0219967
-7.07182e-06
0.0220002
-7.19375e-06
0.0220037
-7.09322e-06
0.022007
-6.82214e-06
0.0220102
-6.42536e-06
0.0220132
-5.94234e-06
0.0220159
-5.40569e-06
0.0220183
-4.84314e-06
0.0220205
-4.2763e-06
0.0220224
-3.72279e-06
0.022024
-3.19517e-06
0.0220254
-2.70307e-06
0.0220265
-2.25212e-06
0.0220275
-1.84612e-06
0.0220283
-1.4858e-06
-1.17094e-06
0.0220289
0.0293218
0.000183326
0.0292592
0.000163442
0.0292037
0.00014381
0.0291552
0.000124804
0.0291134
0.000106721
0.0290779
8.97854e-05
0.0290483
7.41572e-05
0.029024
5.99408e-05
0.0290047
4.71909e-05
0.0289896
3.59199e-05
0.0289784
2.61045e-05
0.0289704
1.76923e-05
0.0289653
1.06077e-05
0.0289624
4.75769e-06
0.0289615
3.70356e-08
0.028962
-3.66716e-06
0.0289638
-6.47108e-06
0.0289663
-8.49103e-06
0.0289695
-9.84007e-06
0.0289731
-1.06261e-05
0.0289769
-1.09495e-05
0.0289807
-1.09027e-05
0.0289845
-1.05681e-05
0.0289881
-1.00192e-05
0.0289914
-9.31917e-06
0.0289946
-8.52189e-06
0.0289974
-7.67203e-06
0.0289999
-6.80606e-06
0.0290022
-5.95254e-06
0.0290041
-5.13342e-06
0.0290058
-4.36437e-06
0.0290072
-3.65619e-06
0.0290083
-3.01502e-06
0.0290093
-2.44369e-06
-1.94179e-06
0.0290101
0.0353454
0.000257541
0.0352782
0.000230502
0.0352184
0.000203619
0.0351657
0.000177443
0.03512
0.000152414
0.0350809
0.000128866
0.0350481
0.000107047
0.0350209
8.71215e-05
0.0349989
6.91825e-05
0.0349816
5.3263e-05
0.0349683
3.93437e-05
0.0349587
2.73627e-05
0.0349521
1.72241e-05
0.0349481
8.80575e-06
0.0349462
1.96718e-06
0.034946
-3.4441e-06
0.0349471
-7.58654e-06
0.0349492
-1.06196e-05
0.0349521
-1.26992e-05
0.0349555
-1.39749e-05
0.0349591
-1.45865e-05
0.0349629
-1.46627e-05
0.0349667
-1.43196e-05
0.0349703
-1.36601e-05
0.0349738
-1.27736e-05
0.034977
-1.17366e-05
0.0349799
-1.0613e-05
0.0349826
-9.45473e-06
0.034985
-8.30337e-06
0.034987
-7.19071e-06
0.0349888
-6.14017e-06
0.0349903
-5.16785e-06
0.0349916
-4.28373e-06
0.0349926
-3.49261e-06
-2.79515e-06
0.0349935
0.0403376
0.000329475
0.0402722
0.000295857
0.0402135
0.00026223
0.0401616
0.000229321
0.0401163
0.000197713
0.0400773
0.00016786
0.0400443
0.000140098
0.0400167
0.000114658
0.0399942
9.16778e-05
0.0399763
7.12166e-05
0.0399624
5.32647e-05
0.039952
3.77559e-05
0.0399447
2.45788e-05
0.0399399
1.35873e-05
0.0399373
4.60945e-06
0.0399364
-2.54285e-06
0.0399369
-8.06698e-06
0.0399384
-1.21626e-05
0.0399408
-1.50262e-05
0.0399437
-1.68466e-05
0.0399469
-1.78014e-05
0.0399503
-1.80543e-05
0.0399537
-1.77537e-05
0.0399571
-1.70315e-05
0.0399604
-1.60027e-05
0.0399634
-1.47661e-05
0.0399662
-1.34044e-05
0.0399687
-1.19854e-05
0.039971
-1.05636e-05
0.039973
-9.18092e-06
0.0399747
-7.86868e-06
0.0399762
-6.64883e-06
0.0399775
-5.53533e-06
0.0399785
-4.53561e-06
-3.65159e-06
0.0399794
0.0442966
0.000392878
0.0442387
0.00035372
0.0441865
0.000314357
0.0441402
0.000275675
0.0440995
0.000238387
0.0440643
0.000203056
0.0440342
0.000170101
0.0440091
0.000139817
0.0439884
0.000112387
0.0439717
8.78978e-05
0.0439586
6.63515e-05
0.0439487
4.76826e-05
0.0439415
3.17695e-05
0.0439367
1.84472e-05
0.0439338
7.51929e-06
0.0439325
-1.23238e-06
0.0439325
-8.03763e-06
0.0439334
-1.31305e-05
0.0439352
-1.67421e-05
0.0439374
-1.90953e-05
0.04394
-2.04006e-05
0.0439429
-2.08526e-05
0.0439457
-2.06278e-05
0.0439486
-1.98839e-05
0.0439514
-1.87587e-05
0.043954
-1.73708e-05
0.0439564
-1.58198e-05
0.0439586
-1.41881e-05
0.0439606
-1.25417e-05
0.0439623
-1.0932e-05
0.0439639
-9.39766e-06
0.0439652
-7.96613e-06
0.0439663
-6.65537e-06
0.0439672
-5.47537e-06
-4.4297e-06
0.043968
0.0472245
0.000442451
0.0471791
0.000399104
0.0471381
0.000355378
0.0471015
0.000312279
0.0470692
0.000270626
0.0470412
0.000231063
0.0470172
0.00019408
0.046997
0.000160024
0.0469803
0.000129115
0.0469667
0.000101464
0.046956
7.70856e-05
0.0469477
5.59171e-05
0.0469417
3.78309e-05
0.0469375
2.26495e-05
0.0469349
1.0158e-05
0.0469335
1.16815e-07
0.0469332
-7.72865e-06
0.0469337
-1.36383e-05
0.0469349
-1.78698e-05
0.0469365
-2.06723e-05
0.0469383
-2.22817e-05
0.0469404
-2.29162e-05
0.0469426
-2.27749e-05
0.0469447
-2.20353e-05
0.0469468
-2.08531e-05
0.0469488
-1.93626e-05
0.0469507
-1.76771e-05
0.0469524
-1.58901e-05
0.0469539
-1.40771e-05
0.0469553
-1.22973e-05
0.0469565
-1.05951e-05
0.0469575
-9.00272e-06
0.0469584
-7.54134e-06
0.0469592
-6.22338e-06
-5.05388e-06
0.0469598
0.0491277
0.00047415
0.0490986
0.000428163
0.0490723
0.000381691
0.0490487
0.000335809
0.0490279
0.000291398
0.0490098
0.000249158
0.0489943
0.00020962
0.0489811
0.000173164
0.0489702
0.000140037
0.0489613
0.000110363
0.0489542
8.41694e-05
0.0489487
6.13939e-05
0.0489447
4.19066e-05
0.0489418
2.55226e-05
0.0489399
1.20164e-05
0.0489389
1.13484e-06
0.0489386
-7.39171e-06
0.0489388
-1.38395e-05
0.0489394
-1.84827e-05
0.0489403
-2.15872e-05
0.0489414
-2.34046e-05
0.0489427
-2.41687e-05
0.048944
-2.40923e-05
0.0489454
-2.33657e-05
0.0489467
-2.21564e-05
0.0489479
-2.06084e-05
0.0489491
-1.88438e-05
0.0489502
-1.69636e-05
0.0489511
-1.50492e-05
0.048952
-1.31649e-05
0.0489528
-1.13591e-05
0.0489534
-9.66686e-06
0.048954
-8.11195e-06
0.0489545
-6.70834e-06
-5.46233e-06
0.0489549
0.0500155
0.000485413
0.0500052
0.00043845
0.0499959
0.000390989
0.0499876
0.000344121
0.0499802
0.000298742
0.0499738
0.000255565
0.0499683
0.000215134
0.0499636
0.000177841
0.0499597
0.000143937
0.0499565
0.000113556
0.049954
8.67246e-05
0.049952
6.33843e-05
0.0499505
4.34035e-05
0.0499494
2.6595e-05
0.0499487
1.27296e-05
0.0499482
1.54957e-06
0.0499481
-7.21999e-06
0.0499481
-1.38607e-05
0.0499482
-1.86529e-05
0.0499485
-2.18677e-05
0.0499489
-2.37627e-05
0.0499493
-2.45765e-05
0.0499497
-2.45271e-05
0.0499502
-2.38092e-05
0.0499506
-2.25941e-05
0.049951
-2.10295e-05
0.0499514
-1.92404e-05