/*--------------------------------*- C++ -*----------------------------------*\
| =========                 |                                                 |
| \\      /  F ield         | OpenFOAM: The Open Source CFD Toolbox           |
|  \\    /   O peration     | Version:  2406                                  |
|   \\  /    A nd           | Website:  www.openfoam.com                      |
|    \\/     M anipulation  |                                                 |
\*---------------------------------------------------------------------------*/
FoamFile
{
    version     2.0;
    format      ascii;
    arch        "LSB;label=32;scalar=64";
    class       volScalarField;
    location    "1656";
    object      p;
}
// * * * * * * * * * * * * * * * * * * * * * * * * * * * * * * * * * * * * * //

dimensions      [0 2 -2 0 0 0 0];

internalField   nonuniform List<scalar> 
190000
(
-4.44473
-4.43067
-4.42684
-4.42905
-4.43354
-4.43921
-4.44562
-4.45252
-4.45974
-4.46718
-4.47481
-4.48258
-4.49046
-4.49845
-4.50654
-4.5147
-4.52295
-4.53126
-4.53965
-4.54809
-4.5566
-4.56517
-4.57379
-4.58247
-4.5912
-4.59999
-4.60883
-4.61772
-4.62667
-4.63566
-4.64471
-4.6538
-4.66295
-4.67215
-4.6814
-4.6907
-4.70005
-4.70945
-4.71891
-4.72841
-4.73797
-4.74758
-4.75725
-4.76697
-4.77674
-4.78657
-4.79646
-4.8064
-4.8164
-4.82645
-4.83657
-4.84674
-4.85698
-4.86728
-4.87764
-4.88807
-4.89856
-4.90912
-4.91974
-4.93044
-4.9412
-4.95204
-4.96296
-4.97395
-4.98501
-4.99616
-5.00739
-5.01871
-5.03011
-5.0416
-5.05319
-5.06487
-5.07666
-5.08855
-5.10055
-5.11266
-5.12489
-5.13724
-5.14973
-5.16235
-5.17512
-5.18805
-5.20115
-5.21442
-5.22789
-5.24158
-5.25549
-5.26967
-5.28413
-5.29892
-5.31409
-5.3297
-5.34585
-5.36268
-5.38042
-5.39954
-5.42084
-5.44517
-5.47517
-5.53617
-4.42492
-4.42431
-4.4256
-4.42907
-4.43395
-4.43973
-4.44613
-4.45298
-4.46015
-4.46755
-4.47514
-4.48287
-4.49074
-4.49871
-4.50678
-4.51494
-4.52318
-4.53149
-4.53986
-4.54831
-4.55681
-4.56538
-4.574
-4.58268
-4.59141
-4.6002
-4.60904
-4.61794
-4.62688
-4.63588
-4.64493
-4.65402
-4.66317
-4.67238
-4.68163
-4.69093
-4.70028
-4.70969
-4.71915
-4.72866
-4.73822
-4.74784
-4.75751
-4.76723
-4.77701
-4.78684
-4.79673
-4.80668
-4.81668
-4.82674
-4.83686
-4.84704
-4.85729
-4.86759
-4.87796
-4.88839
-4.89889
-4.90945
-4.92009
-4.93079
-4.94156
-4.95241
-4.96333
-4.97433
-4.98541
-4.99656
-5.00781
-5.01913
-5.03055
-5.04205
-5.05365
-5.06535
-5.07715
-5.08905
-5.10107
-5.1132
-5.12544
-5.13782
-5.15033
-5.16298
-5.17578
-5.18874
-5.20187
-5.21519
-5.22871
-5.24245
-5.25643
-5.27068
-5.28524
-5.30015
-5.31546
-5.33126
-5.34765
-5.36477
-5.38284
-5.40218
-5.42319
-5.4464
-5.47388
-5.51108
-4.41441
-4.42018
-4.42461
-4.42894
-4.43413
-4.44006
-4.4465
-4.45334
-4.46047
-4.46785
-4.47541
-4.48313
-4.49098
-4.49894
-4.507
-4.51515
-4.52338
-4.53168
-4.54006
-4.5485
-4.557
-4.56557
-4.57419
-4.58287
-4.5916
-4.60039
-4.60923
-4.61813
-4.62707
-4.63607
-4.64512
-4.65422
-4.66338
-4.67258
-4.68184
-4.69114
-4.7005
-4.70991
-4.71937
-4.72888
-4.73845
-4.74807
-4.75774
-4.76747
-4.77725
-4.78709
-4.79698
-4.80693
-4.81694
-4.82701
-4.83714
-4.84732
-4.85757
-4.86788
-4.87825
-4.88869
-4.89919
-4.90976
-4.9204
-4.93111
-4.94189
-4.95275
-4.96368
-4.97468
-4.98577
-4.99693
-5.00818
-5.01952
-5.03094
-5.04246
-5.05407
-5.06578
-5.07759
-5.0895
-5.10153
-5.11367
-5.12594
-5.13833
-5.15085
-5.16352
-5.17634
-5.18933
-5.20248
-5.21582
-5.22937
-5.24314
-5.25716
-5.27145
-5.28605
-5.301
-5.31635
-5.33218
-5.34857
-5.36563
-5.38348
-5.40218
-5.42168
-5.44143
-5.45981
-5.47248
-4.40929
-4.41736
-4.42348
-4.42848
-4.43399
-4.44012
-4.44666
-4.45352
-4.46066
-4.46803
-4.47558
-4.48329
-4.49113
-4.49908
-4.50714
-4.51528
-4.52351
-4.53181
-4.54018
-4.54862
-4.55712
-4.56568
-4.57431
-4.58298
-4.59172
-4.60051
-4.60935
-4.61825
-4.6272
-4.6362
-4.64525
-4.65435
-4.66351
-4.67271
-4.68197
-4.69128
-4.70064
-4.71005
-4.71951
-4.72903
-4.7386
-4.74822
-4.7579
-4.76763
-4.77741
-4.78725
-4.79715
-4.8071
-4.81711
-4.82718
-4.83731
-4.8475
-4.85775
-4.86807
-4.87844
-4.88888
-4.89939
-4.90997
-4.92061
-4.93132
-4.94211
-4.95296
-4.9639
-4.97491
-4.98599
-4.99716
-5.00842
-5.01976
-5.03118
-5.0427
-5.05432
-5.06603
-5.07784
-5.08976
-5.10179
-5.11394
-5.1262
-5.1386
-5.15113
-5.16379
-5.17661
-5.18959
-5.20274
-5.21607
-5.2296
-5.24335
-5.25733
-5.27158
-5.2861
-5.30095
-5.31615
-5.33174
-5.34774
-5.36418
-5.381
-5.398
-5.41465
-5.42976
-5.44069
-5.44274
-4.40577
-4.4149
-4.42219
-4.42784
-4.4337
-4.44005
-4.44672
-4.45363
-4.46079
-4.46816
-4.4757
-4.4834
-4.49123
-4.49918
-4.50722
-4.51536
-4.52358
-4.53188
-4.54025
-4.54868
-4.55718
-4.56574
-4.57437
-4.58304
-4.59178
-4.60057
-4.60941
-4.61831
-4.62726
-4.63626
-4.64531
-4.65442
-4.66357
-4.67278
-4.68204
-4.69135
-4.70071
-4.71012
-4.71959
-4.7291
-4.73867
-4.7483
-4.75797
-4.76771
-4.77749
-4.78734
-4.79723
-4.80719
-4.8172
-4.82727
-4.8374
-4.84759
-4.85785
-4.86816
-4.87854
-4.88898
-4.89949
-4.91007
-4.92071
-4.93142
-4.94221
-4.95307
-4.964
-4.97501
-4.9861
-4.99727
-5.00852
-5.01985
-5.03128
-5.0428
-5.05441
-5.06611
-5.07792
-5.08984
-5.10186
-5.114
-5.12625
-5.13863
-5.15114
-5.16379
-5.17658
-5.18952
-5.20263
-5.21591
-5.22938
-5.24304
-5.25692
-5.27102
-5.28536
-5.29995
-5.31479
-5.32988
-5.34518
-5.36058
-5.3759
-5.3907
-5.40424
-5.41513
-5.42101
-5.41847
-4.40299
-4.41267
-4.4208
-4.42703
-4.43323
-4.43983
-4.44665
-4.45364
-4.46084
-4.46822
-4.47577
-4.48347
-4.49129
-4.49922
-4.50726
-4.51539
-4.52361
-4.5319
-4.54026
-4.54869
-4.55719
-4.56575
-4.57437
-4.58304
-4.59178
-4.60057
-4.60941
-4.61831
-4.62725
-4.63625
-4.64531
-4.65441
-4.66357
-4.67277
-4.68203
-4.69134
-4.7007
-4.71012
-4.71958
-4.7291
-4.73867
-4.74829
-4.75797
-4.7677
-4.77749
-4.78733
-4.79723
-4.80719
-4.8172
-4.82727
-4.8374
-4.84759
-4.85784
-4.86816
-4.87853
-4.88897
-4.89948
-4.91005
-4.92069
-4.9314
-4.94219
-4.95304
-4.96397
-4.97497
-4.98606
-4.99722
-5.00847
-5.01979
-5.03121
-5.04272
-5.05432
-5.06601
-5.0778
-5.0897
-5.1017
-5.11381
-5.12604
-5.13838
-5.15086
-5.16346
-5.17619
-5.18907
-5.2021
-5.21529
-5.22863
-5.24215
-5.25584
-5.2697
-5.28373
-5.29792
-5.31224
-5.32663
-5.34098
-5.35512
-5.36873
-5.3813
-5.39199
-5.39953
-5.40209
-5.39742
-4.40065
-4.41062
-4.41935
-4.42604
-4.43257
-4.43942
-4.44641
-4.45352
-4.46077
-4.46819
-4.47575
-4.48345
-4.49128
-4.49921
-4.50724
-4.51536
-4.52357
-4.53185
-4.54021
-4.54864
-4.55713
-4.56569
-4.5743
-4.58298
-4.59171
-4.60049
-4.60933
-4.61823
-4.62718
-4.63617
-4.64523
-4.65433
-4.66348
-4.67269
-4.68195
-4.69125
-4.70062
-4.71003
-4.71949
-4.72901
-4.73858
-4.7482
-4.75788
-4.76761
-4.77739
-4.78723
-4.79713
-4.80708
-4.81709
-4.82716
-4.83729
-4.84747
-4.85772
-4.86803
-4.8784
-4.88884
-4.89934
-4.90991
-4.92054
-4.93125
-4.94202
-4.95287
-4.96379
-4.97478
-4.98586
-4.99701
-5.00824
-5.01955
-5.03095
-5.04244
-5.05401
-5.06568
-5.07745
-5.08931
-5.10128
-5.11335
-5.12553
-5.13782
-5.15023
-5.16276
-5.17541
-5.18819
-5.20109
-5.21413
-5.2273
-5.2406
-5.25403
-5.26756
-5.28118
-5.29485
-5.30851
-5.32206
-5.33535
-5.34812
-5.36003
-5.37052
-5.37883
-5.38388
-5.38433
-5.37877
-4.39854
-4.40869
-4.41784
-4.4249
-4.43172
-4.4388
-4.44598
-4.45322
-4.46055
-4.46802
-4.47562
-4.48334
-4.49117
-4.4991
-4.50713
-4.51525
-4.52345
-4.53173
-4.54009
-4.54851
-4.557
-4.56555
-4.57416
-4.58283
-4.59156
-4.60034
-4.60918
-4.61807
-4.62701
-4.63601
-4.64506
-4.65416
-4.66331
-4.67251
-4.68177
-4.69107
-4.70043
-4.70984
-4.7193
-4.72882
-4.73838
-4.748
-4.75767
-4.7674
-4.77718
-4.78702
-4.79691
-4.80686
-4.81686
-4.82693
-4.83705
-4.84723
-4.85747
-4.86777
-4.87814
-4.88857
-4.89906
-4.90962
-4.92024
-4.93094
-4.9417
-4.95253
-4.96344
-4.97441
-4.98547
-4.9966
-5.00781
-5.0191
-5.03047
-5.04193
-5.05347
-5.06511
-5.07683
-5.08865
-5.10056
-5.11258
-5.12469
-5.1369
-5.14922
-5.16165
-5.17418
-5.18682
-5.19957
-5.21241
-5.22535
-5.23838
-5.25147
-5.26459
-5.27772
-5.29079
-5.3037
-5.31634
-5.3285
-5.33994
-5.35026
-5.35895
-5.36535
-5.36861
-5.36778
-5.362
-4.39658
-4.40684
-4.41628
-4.42364
-4.43069
-4.43799
-4.44535
-4.45272
-4.46016
-4.4677
-4.47534
-4.48309
-4.49094
-4.49888
-4.50692
-4.51504
-4.52324
-4.53152
-4.53987
-4.54829
-4.55677
-4.56531
-4.57392
-4.58259
-4.59131
-4.60009
-4.60892
-4.61781
-4.62675
-4.63574
-4.64479
-4.65388
-4.66303
-4.67223
-4.68148
-4.69078
-4.70014
-4.70954
-4.719
-4.72851
-4.73807
-4.74768
-4.75735
-4.76707
-4.77685
-4.78668
-4.79656
-4.80651
-4.8165
-4.82656
-4.83667
-4.84684
-4.85707
-4.86737
-4.87772
-4.88814
-4.89862
-4.90916
-4.91977
-4.93045
-4.94119
-4.952
-4.96289
-4.97384
-4.98487
-4.99598
-5.00716
-5.01842
-5.02975
-5.04117
-5.05267
-5.06426
-5.07593
-5.08768
-5.09953
-5.11146
-5.12349
-5.1356
-5.14781
-5.1601
-5.17249
-5.18495
-5.19749
-5.2101
-5.22276
-5.23546
-5.24816
-5.26082
-5.27339
-5.2858
-5.29793
-5.30963
-5.3207
-5.33087
-5.33979
-5.34698
-5.3519
-5.3539
-5.35234
-5.34668
-4.39467
-4.40501
-4.41468
-4.42227
-4.42951
-4.43699
-4.44453
-4.45204
-4.45957
-4.46719
-4.47489
-4.48268
-4.49056
-4.49852
-4.50657
-4.5147
-4.5229
-4.53118
-4.53953
-4.54795
-4.55643
-4.56497
-4.57357
-4.58223
-4.59095
-4.59973
-4.60855
-4.61744
-4.62637
-4.63536
-4.6444
-4.65349
-4.66264
-4.67183
-4.68108
-4.69037
-4.69972
-4.70912
-4.71857
-4.72807
-4.73763
-4.74723
-4.75689
-4.76661
-4.77638
-4.7862
-4.79607
-4.806
-4.81599
-4.82604
-4.83614
-4.8463
-4.85652
-4.86679
-4.87713
-4.88753
-4.89799
-4.90852
-4.91911
-4.92976
-4.94048
-4.95127
-4.96213
-4.97306
-4.98405
-4.99512
-5.00626
-5.01748
-5.02877
-5.04014
-5.05158
-5.0631
-5.0747
-5.08638
-5.09814
-5.10998
-5.1219
-5.13389
-5.14596
-5.1581
-5.1703
-5.18255
-5.19486
-5.20719
-5.21953
-5.23186
-5.24412
-5.25628
-5.26827
-5.27999
-5.29132
-5.30211
-5.31215
-5.32119
-5.32889
-5.33486
-5.33866
-5.33981
-5.33786
-5.33249
-4.39278
-4.40317
-4.41303
-4.42079
-4.42818
-4.43583
-4.44352
-4.45115
-4.45879
-4.46649
-4.47426
-4.4821
-4.49001
-4.498
-4.50607
-4.51421
-4.52242
-4.53071
-4.53906
-4.54747
-4.55595
-4.56449
-4.57309
-4.58175
-4.59047
-4.59924
-4.60806
-4.61694
-4.62587
-4.63485
-4.64389
-4.65297
-4.66211
-4.6713
-4.68053
-4.68982
-4.69916
-4.70856
-4.718
-4.72749
-4.73704
-4.74664
-4.75629
-4.76599
-4.77575
-4.78556
-4.79542
-4.80534
-4.81532
-4.82535
-4.83543
-4.84558
-4.85578
-4.86604
-4.87636
-4.88674
-4.89718
-4.90768
-4.91824
-4.92887
-4.93956
-4.95032
-4.96114
-4.97203
-4.98299
-4.99401
-5.0051
-5.01627
-5.0275
-5.03881
-5.05018
-5.06163
-5.07315
-5.08473
-5.09639
-5.10811
-5.1199
-5.13175
-5.14366
-5.15561
-5.16761
-5.17963
-5.19166
-5.20369
-5.21568
-5.2276
-5.23941
-5.25104
-5.26242
-5.27346
-5.28401
-5.29394
-5.30304
-5.31108
-5.31776
-5.32276
-5.32573
-5.32631
-5.3242
-5.31921
-4.39086
-4.4013
-4.4113
-4.4192
-4.42672
-4.4345
-4.44232
-4.45008
-4.45782
-4.4656
-4.47344
-4.48133
-4.48929
-4.49731
-4.5054
-4.51356
-4.52178
-4.53008
-4.53843
-4.54685
-4.55533
-4.56387
-4.57247
-4.58113
-4.58984
-4.5986
-4.60742
-4.6163
-4.62522
-4.6342
-4.64322
-4.6523
-4.66143
-4.67061
-4.67985
-4.68913
-4.69846
-4.70784
-4.71727
-4.72676
-4.73629
-4.74588
-4.75552
-4.76521
-4.77495
-4.78475
-4.7946
-4.8045
-4.81446
-4.82447
-4.83454
-4.84467
-4.85485
-4.86508
-4.87538
-4.88573
-4.89615
-4.90662
-4.91715
-4.92775
-4.9384
-4.94912
-4.9599
-4.97075
-4.98165
-4.99263
-5.00366
-5.01477
-5.02593
-5.03716
-5.04846
-5.05982
-5.07124
-5.08272
-5.09426
-5.10585
-5.11749
-5.12917
-5.1409
-5.15265
-5.16441
-5.17617
-5.18792
-5.19961
-5.21123
-5.22273
-5.23406
-5.24516
-5.25594
-5.26631
-5.27613
-5.28526
-5.29352
-5.30069
-5.30652
-5.31076
-5.31311
-5.31333
-5.31121
-5.30665
-4.3889
-4.39937
-4.40949
-4.4175
-4.42512
-4.43301
-4.44095
-4.44882
-4.45665
-4.46451
-4.47242
-4.48037
-4.48837
-4.49643
-4.50455
-4.51273
-4.52097
-4.52927
-4.53764
-4.54607
-4.55455
-4.56309
-4.57169
-4.58034
-4.58905
-4.59781
-4.60663
-4.6155
-4.62442
-4.63339
-4.64241
-4.65148
-4.6606
-4.66977
-4.67899
-4.68827
-4.69759
-4.70696
-4.71638
-4.72585
-4.73538
-4.74495
-4.75457
-4.76425
-4.77398
-4.78376
-4.79359
-4.80347
-4.81341
-4.8234
-4.83345
-4.84355
-4.85371
-4.86392
-4.87419
-4.88451
-4.89489
-4.90533
-4.91583
-4.92638
-4.937
-4.94767
-4.9584
-4.96919
-4.98005
-4.99096
-5.00193
-5.01296
-5.02405
-5.03519
-5.0464
-5.05765
-5.06896
-5.08032
-5.09173
-5.10317
-5.11465
-5.12615
-5.13767
-5.1492
-5.16072
-5.1722
-5.18363
-5.19498
-5.20622
-5.21729
-5.22814
-5.2387
-5.2489
-5.25863
-5.26777
-5.27618
-5.2837
-5.29013
-5.29527
-5.29891
-5.30082
-5.30083
-5.29879
-5.29465
-4.38686
-4.39736
-4.40758
-4.41568
-4.42338
-4.43137
-4.43941
-4.44738
-4.4553
-4.46323
-4.4712
-4.47921
-4.48726
-4.49535
-4.5035
-4.51171
-4.51997
-4.52829
-4.53667
-4.5451
-4.55359
-4.56214
-4.57074
-4.57939
-4.5881
-4.59685
-4.60566
-4.61453
-4.62344
-4.6324
-4.64142
-4.65048
-4.65959
-4.66876
-4.67797
-4.68723
-4.69654
-4.7059
-4.71531
-4.72477
-4.73427
-4.74383
-4.75344
-4.7631
-4.77281
-4.78257
-4.79238
-4.80224
-4.81216
-4.82213
-4.83215
-4.84222
-4.85235
-4.86253
-4.87276
-4.88305
-4.8934
-4.90379
-4.91425
-4.92476
-4.93533
-4.94595
-4.95662
-4.96736
-4.97814
-4.98899
-4.99988
-5.01083
-5.02184
-5.03289
-5.04399
-5.05513
-5.06632
-5.07754
-5.0888
-5.10008
-5.11138
-5.12269
-5.13399
-5.14528
-5.15653
-5.16773
-5.17884
-5.18983
-5.20067
-5.21131
-5.22169
-5.23174
-5.24138
-5.25051
-5.25903
-5.26679
-5.27366
-5.27947
-5.28405
-5.28723
-5.28883
-5.28873
-5.28684
-5.28312
-4.38473
-4.39525
-4.40555
-4.41374
-4.4215
-4.42956
-4.4377
-4.44575
-4.45375
-4.46176
-4.46979
-4.47785
-4.48595
-4.49408
-4.50227
-4.5105
-4.51878
-4.52712
-4.53551
-4.54395
-4.55245
-4.561
-4.5696
-4.57825
-4.58696
-4.59571
-4.60452
-4.61338
-4.62228
-4.63124
-4.64025
-4.6493
-4.6584
-4.66755
-4.67676
-4.686
-4.6953
-4.70465
-4.71404
-4.72348
-4.73297
-4.74252
-4.75211
-4.76174
-4.77143
-4.78117
-4.79096
-4.8008
-4.81069
-4.82063
-4.83062
-4.84066
-4.85075
-4.8609
-4.8711
-4.88135
-4.89165
-4.902
-4.91241
-4.92287
-4.93338
-4.94394
-4.95456
-4.96523
-4.97594
-4.98671
-4.99752
-5.00838
-5.01928
-5.03023
-5.04122
-5.05224
-5.06329
-5.07437
-5.08546
-5.09657
-5.10768
-5.11878
-5.12986
-5.1409
-5.15187
-5.16277
-5.17355
-5.18418
-5.19463
-5.20484
-5.21476
-5.22432
-5.23344
-5.24202
-5.24997
-5.25717
-5.26348
-5.26877
-5.27289
-5.27572
-5.27711
-5.27698
-5.27526
-5.27195
-4.38249
-4.39303
-4.4034
-4.41165
-4.41947
-4.4276
-4.43582
-4.44394
-4.45201
-4.46008
-4.46818
-4.47629
-4.48443
-4.49261
-4.50083
-4.50909
-4.51739
-4.52575
-4.53415
-4.54261
-4.55111
-4.55966
-4.56827
-4.57692
-4.58563
-4.59438
-4.60318
-4.61204
-4.62094
-4.62989
-4.63888
-4.64793
-4.65702
-4.66616
-4.67535
-4.68458
-4.69386
-4.70319
-4.71257
-4.722
-4.73147
-4.74099
-4.75056
-4.76018
-4.76984
-4.77955
-4.78932
-4.79913
-4.80899
-4.8189
-4.82885
-4.83886
-4.84892
-4.85902
-4.86918
-4.87939
-4.88964
-4.89995
-4.9103
-4.9207
-4.93115
-4.94165
-4.9522
-4.96279
-4.97343
-4.98411
-4.99483
-5.00559
-5.01639
-5.02722
-5.03808
-5.04897
-5.05988
-5.0708
-5.08173
-5.09265
-5.10356
-5.11444
-5.12529
-5.13606
-5.14676
-5.15735
-5.1678
-5.17808
-5.18814
-5.19794
-5.20742
-5.21651
-5.22514
-5.23322
-5.24066
-5.24736
-5.25319
-5.25805
-5.26181
-5.26437
-5.26564
-5.26553
-5.26401
-5.26108
-4.38013
-4.39068
-4.40112
-4.40943
-4.41729
-4.42547
-4.43376
-4.44195
-4.45008
-4.45822
-4.46637
-4.47453
-4.48272
-4.49093
-4.49918
-4.50747
-4.5158
-4.52417
-4.53259
-4.54106
-4.54957
-4.55813
-4.56674
-4.5754
-4.5841
-4.59285
-4.60165
-4.6105
-4.61939
-4.62833
-4.63732
-4.64635
-4.65543
-4.66456
-4.67374
-4.68296
-4.69222
-4.70153
-4.71089
-4.7203
-4.72975
-4.73925
-4.7488
-4.75839
-4.76803
-4.77771
-4.78744
-4.79722
-4.80705
-4.81693
-4.82685
-4.83682
-4.84683
-4.85689
-4.867
-4.87716
-4.88736
-4.89761
-4.90791
-4.91825
-4.92863
-4.93906
-4.94953
-4.96005
-4.9706
-4.98118
-4.99181
-5.00246
-5.01315
-5.02386
-5.03459
-5.04534
-5.05609
-5.06685
-5.0776
-5.08833
-5.09903
-5.10969
-5.12029
-5.1308
-5.14122
-5.1515
-5.16162
-5.17155
-5.18124
-5.19064
-5.1997
-5.20836
-5.21654
-5.22416
-5.23115
-5.23741
-5.24284
-5.24734
-5.25081
-5.25318
-5.25437
-5.25431
-5.25301
-5.25045
-4.37764
-4.3882
-4.3987
-4.40705
-4.41495
-4.42318
-4.43152
-4.43978
-4.44797
-4.45615
-4.46435
-4.47257
-4.48079
-4.48904
-4.49733
-4.50564
-4.514
-4.52239
-4.53083
-4.5393
-4.54783
-4.55639
-4.56501
-4.57366
-4.58237
-4.59112
-4.59991
-4.60875
-4.61764
-4.62657
-4.63555
-4.64457
-4.65364
-4.66275
-4.67191
-4.68112
-4.69036
-4.69966
-4.709
-4.71838
-4.72781
-4.73729
-4.7468
-4.75637
-4.76598
-4.77563
-4.78534
-4.79508
-4.80487
-4.81471
-4.82459
-4.83452
-4.84449
-4.8545
-4.86456
-4.87467
-4.88481
-4.895
-4.90523
-4.91551
-4.92582
-4.93617
-4.94656
-4.95699
-4.96745
-4.97793
-4.98845
-4.999
-5.00956
-5.02014
-5.03073
-5.04133
-5.05193
-5.06251
-5.07307
-5.08361
-5.0941
-5.10453
-5.11488
-5.12513
-5.13526
-5.14524
-5.15505
-5.16463
-5.17396
-5.18298
-5.19165
-5.1999
-5.20767
-5.21488
-5.22147
-5.22735
-5.23243
-5.23664
-5.2399
-5.24213
-5.24328
-5.24331
-5.24222
-5.24001
-4.37501
-4.38558
-4.39612
-4.40452
-4.41245
-4.42072
-4.42911
-4.43742
-4.44566
-4.4539
-4.46214
-4.4704
-4.47866
-4.48695
-4.49526
-4.50361
-4.51199
-4.5204
-4.52885
-4.53734
-4.54587
-4.55445
-4.56306
-4.57172
-4.58043
-4.58917
-4.59796
-4.6068
-4.61568
-4.6246
-4.63357
-4.64258
-4.65163
-4.66073
-4.66987
-4.67906
-4.68829
-4.69756
-4.70688
-4.71624
-4.72564
-4.73509
-4.74458
-4.75412
-4.7637
-4.77332
-4.78298
-4.79269
-4.80244
-4.81224
-4.82208
-4.83196
-4.84188
-4.85184
-4.86185
-4.8719
-4.88198
-4.89211
-4.90227
-4.91247
-4.92271
-4.93298
-4.94328
-4.95361
-4.96397
-4.97436
-4.98476
-4.99519
-5.00563
-5.01607
-5.02652
-5.03696
-5.04739
-5.0578
-5.06817
-5.0785
-5.08878
-5.09897
-5.10908
-5.11907
-5.12892
-5.13861
-5.14809
-5.15735
-5.16633
-5.175
-5.1833
-5.19118
-5.19857
-5.20542
-5.21166
-5.21721
-5.222
-5.22597
-5.22905
-5.23119
-5.23234
-5.23248
-5.2316
-5.22972
-4.37223
-4.3828
-4.39339
-4.40182
-4.40978
-4.41809
-4.42652
-4.43488
-4.44316
-4.45144
-4.45973
-4.46802
-4.47633
-4.48465
-4.49299
-4.50136
-4.50976
-4.51819
-4.52666
-4.53516
-4.5437
-4.55228
-4.5609
-4.56957
-4.57827
-4.58701
-4.5958
-4.60463
-4.6135
-4.62241
-4.63137
-4.64036
-4.6494
-4.65849
-4.66761
-4.67678
-4.68599
-4.69524
-4.70453
-4.71387
-4.72324
-4.73266
-4.74212
-4.75163
-4.76117
-4.77076
-4.78039
-4.79005
-4.79976
-4.80951
-4.81931
-4.82914
-4.83901
-4.84891
-4.85886
-4.86885
-4.87887
-4.88892
-4.89901
-4.90914
-4.91929
-4.92948
-4.93969
-4.94992
-4.96018
-4.97045
-4.98074
-4.99104
-5.00135
-5.01165
-5.02195
-5.03223
-5.04249
-5.05272
-5.0629
-5.07303
-5.08308
-5.09305
-5.10291
-5.11264
-5.12222
-5.13161
-5.1408
-5.14974
-5.1584
-5.16673
-5.17469
-5.18223
-5.18928
-5.19581
-5.20173
-5.207
-5.21155
-5.21533
-5.21828
-5.22035
-5.22153
-5.22178
-5.22112
-5.21955
-4.36929
-4.37987
-4.3905
-4.39896
-4.40695
-4.41528
-4.42375
-4.43215
-4.44047
-4.44879
-4.45712
-4.46545
-4.47379
-4.48214
-4.49051
-4.4989
-4.50732
-4.51577
-4.52426
-4.53277
-4.54132
-4.54991
-4.55853
-4.56719
-4.5759
-4.58464
-4.59342
-4.60224
-4.6111
-4.62
-4.62895
-4.63793
-4.64695
-4.65602
-4.66512
-4.67427
-4.68346
-4.69268
-4.70195
-4.71126
-4.72061
-4.73
-4.73943
-4.74889
-4.7584
-4.76795
-4.77754
-4.78716
-4.79683
-4.80653
-4.81627
-4.82605
-4.83586
-4.84571
-4.8556
-4.86552
-4.87547
-4.88545
-4.89547
-4.90551
-4.91558
-4.92567
-4.93578
-4.94592
-4.95607
-4.96623
-4.97639
-4.98657
-4.99673
-5.00689
-5.01704
-5.02716
-5.03725
-5.04729
-5.05728
-5.0672
-5.07703
-5.08677
-5.09639
-5.10586
-5.11518
-5.12429
-5.13319
-5.14183
-5.15019
-5.1582
-5.16585
-5.17307
-5.17982
-5.18606
-5.19171
-5.19674
-5.20109
-5.20471
-5.20756
-5.20961
-5.21082
-5.2112
-5.21074
-5.20947
-4.3662
-4.37678
-4.38744
-4.39594
-4.40394
-4.41229
-4.4208
-4.42923
-4.4376
-4.44595
-4.45431
-4.46267
-4.47104
-4.47942
-4.48782
-4.49623
-4.50468
-4.51314
-4.52164
-4.53016
-4.53872
-4.54731
-4.55594
-4.56461
-4.57331
-4.58204
-4.59082
-4.59963
-4.60848
-4.61737
-4.6263
-4.63527
-4.64428
-4.65333
-4.66241
-4.67153
-4.6807
-4.6899
-4.69914
-4.70842
-4.71774
-4.72709
-4.73649
-4.74592
-4.75539
-4.76489
-4.77444
-4.78402
-4.79364
-4.80329
-4.81298
-4.8227
-4.83245
-4.84224
-4.85206
-4.86191
-4.87179
-4.8817
-4.89163
-4.90158
-4.91156
-4.92156
-4.93157
-4.9416
-4.95164
-4.96168
-4.97172
-4.98176
-4.99179
-5.0018
-5.01179
-5.02175
-5.03166
-5.04152
-5.05131
-5.06103
-5.07065
-5.08016
-5.08954
-5.09877
-5.10782
-5.11667
-5.12529
-5.13365
-5.14172
-5.14945
-5.1568
-5.16374
-5.17022
-5.17619
-5.18161
-5.18644
-5.19062
-5.19411
-5.19689
-5.19893
-5.20021
-5.20072
-5.20046
-5.19946
-4.36294
-4.37353
-4.38422
-4.39274
-4.40076
-4.40913
-4.41767
-4.42613
-4.43453
-4.44291
-4.4513
-4.4597
-4.46809
-4.4765
-4.48492
-4.49336
-4.50181
-4.5103
-4.5188
-4.52734
-4.53591
-4.5445
-4.55313
-4.5618
-4.5705
-4.57923
-4.588
-4.5968
-4.60565
-4.61452
-4.62344
-4.63239
-4.64138
-4.65041
-4.65947
-4.66857
-4.67771
-4.68688
-4.69609
-4.70534
-4.71463
-4.72395
-4.7333
-4.7427
-4.75213
-4.76159
-4.77109
-4.78062
-4.79019
-4.79979
-4.80942
-4.81908
-4.82877
-4.83849
-4.84825
-4.85802
-4.86783
-4.87765
-4.8875
-4.89737
-4.90725
-4.91715
-4.92706
-4.93698
-4.9469
-4.95682
-4.96674
-4.97664
-4.98653
-4.99639
-5.00622
-5.01601
-5.02575
-5.03542
-5.04502
-5.05454
-5.06394
-5.07323
-5.08238
-5.09137
-5.10017
-5.10877
-5.11713
-5.12522
-5.13302
-5.14048
-5.14757
-5.15425
-5.16049
-5.16623
-5.17145
-5.1761
-5.18014
-5.18354
-5.18628
-5.18832
-5.18967
-5.1903
-5.19024
-5.1895
-4.35952
-4.37011
-4.38083
-4.38937
-4.3974
-4.4058
-4.41436
-4.42285
-4.43127
-4.43968
-4.4481
-4.45652
-4.46494
-4.47337
-4.48181
-4.49027
-4.49874
-4.50724
-4.51576
-4.5243
-4.53288
-4.54148
-4.55011
-4.55877
-4.56747
-4.5762
-4.58496
-4.59375
-4.60258
-4.61145
-4.62035
-4.62928
-4.63825
-4.64726
-4.6563
-4.66537
-4.67449
-4.68363
-4.69281
-4.70203
-4.71128
-4.72056
-4.72988
-4.73923
-4.74862
-4.75804
-4.76749
-4.77697
-4.78648
-4.79602
-4.8056
-4.8152
-4.82483
-4.83448
-4.84416
-4.85386
-4.86359
-4.87333
-4.88309
-4.89287
-4.90265
-4.91245
-4.92226
-4.93206
-4.94187
-4.95166
-4.96145
-4.97122
-4.98096
-4.99067
-5.00034
-5.00996
-5.01952
-5.02902
-5.03843
-5.04774
-5.05694
-5.06601
-5.07494
-5.08369
-5.09226
-5.10061
-5.10873
-5.11657
-5.12412
-5.13133
-5.13818
-5.14463
-5.15065
-5.15619
-5.16123
-5.16573
-5.16966
-5.17299
-5.17569
-5.17776
-5.17918
-5.17995
-5.18008
-5.17959
-4.35593
-4.36652
-4.37727
-4.38583
-4.39387
-4.40228
-4.41086
-4.41938
-4.42783
-4.43626
-4.4447
-4.45315
-4.46159
-4.47004
-4.4785
-4.48697
-4.49546
-4.50397
-4.5125
-4.52106
-4.52963
-4.53824
-4.54687
-4.55553
-4.56422
-4.57295
-4.5817
-4.59049
-4.5993
-4.60815
-4.61704
-4.62595
-4.6349
-4.64389
-4.6529
-4.66195
-4.67103
-4.68015
-4.6893
-4.69848
-4.70769
-4.71694
-4.72622
-4.73553
-4.74487
-4.75424
-4.76364
-4.77307
-4.78252
-4.79201
-4.80152
-4.81106
-4.82062
-4.8302
-4.83981
-4.84943
-4.85907
-4.86873
-4.8784
-4.88808
-4.89777
-4.90747
-4.91716
-4.92685
-4.93654
-4.94621
-4.95586
-4.96549
-4.97509
-4.98465
-4.99416
-5.00361
-5.013
-5.02232
-5.03154
-5.04065
-5.04965
-5.05852
-5.06722
-5.07576
-5.0841
-5.09222
-5.1001
-5.10771
-5.11503
-5.12201
-5.12864
-5.13489
-5.14071
-5.14608
-5.15096
-5.15534
-5.15918
-5.16245
-5.16515
-5.16725
-5.16875
-5.16965
-5.16996
-5.1697
-4.35217
-4.36277
-4.37354
-4.38212
-4.39017
-4.39859
-4.40719
-4.41573
-4.4242
-4.43265
-4.44112
-4.44958
-4.45804
-4.46651
-4.47499
-4.48348
-4.49198
-4.5005
-4.50904
-4.5176
-4.52618
-4.53479
-4.54342
-4.55208
-4.56077
-4.56948
-4.57823
-4.587
-4.5958
-4.60464
-4.6135
-4.6224
-4.63133
-4.64029
-4.64928
-4.6583
-4.66735
-4.67644
-4.68555
-4.6947
-4.70387
-4.71308
-4.72232
-4.73158
-4.74087
-4.75019
-4.75954
-4.76892
-4.77832
-4.78774
-4.79719
-4.80666
-4.81615
-4.82566
-4.83519
-4.84473
-4.85429
-4.86386
-4.87344
-4.88302
-4.89261
-4.9022
-4.91178
-4.92136
-4.93092
-4.94047
-4.94999
-4.95948
-4.96893
-4.97834
-4.98769
-4.99698
-5.0062
-5.01534
-5.02437
-5.0333
-5.0421
-5.05076
-5.05926
-5.06759
-5.07571
-5.08362
-5.09128
-5.09867
-5.10577
-5.11255
-5.11898
-5.12504
-5.13069
-5.1359
-5.14066
-5.14493
-5.14869
-5.15193
-5.15463
-5.15677
-5.15835
-5.15939
-5.15987
-5.15983
-4.34825
-4.35885
-4.36964
-4.37823
-4.38629
-4.39473
-4.40335
-4.4119
-4.42039
-4.42886
-4.43734
-4.44582
-4.45431
-4.46279
-4.47128
-4.47978
-4.4883
-4.49683
-4.50537
-4.51394
-4.52252
-4.53113
-4.53976
-4.54841
-4.5571
-4.5658
-4.57454
-4.5833
-4.59209
-4.60091
-4.60975
-4.61863
-4.62754
-4.63647
-4.64543
-4.65443
-4.66345
-4.6725
-4.68158
-4.69069
-4.69982
-4.70899
-4.71818
-4.7274
-4.73664
-4.74591
-4.7552
-4.76452
-4.77386
-4.78322
-4.79261
-4.80201
-4.81143
-4.82086
-4.83031
-4.83978
-4.84925
-4.85873
-4.86821
-4.8777
-4.88719
-4.89667
-4.90614
-4.9156
-4.92504
-4.93445
-4.94384
-4.95319
-4.9625
-4.97176
-4.98096
-4.99009
-4.99914
-5.0081
-5.01695
-5.0257
-5.03431
-5.04277
-5.05108
-5.0592
-5.06712
-5.07482
-5.08228
-5.08947
-5.09637
-5.10296
-5.10921
-5.1151
-5.12059
-5.12568
-5.13032
-5.13451
-5.13821
-5.14142
-5.14413
-5.14632
-5.14799
-5.14915
-5.14981
-5.14997
-4.34416
-4.35477
-4.36558
-4.37418
-4.38225
-4.39069
-4.39932
-4.40789
-4.4164
-4.42489
-4.43338
-4.44188
-4.45038
-4.45888
-4.46738
-4.47589
-4.48442
-4.49295
-4.5015
-4.51007
-4.51866
-4.52727
-4.53589
-4.54454
-4.55322
-4.56192
-4.57064
-4.57939
-4.58816
-4.59696
-4.60579
-4.61464
-4.62353
-4.63243
-4.64137
-4.65033
-4.65932
-4.66834
-4.67738
-4.68645
-4.69555
-4.70467
-4.71381
-4.72298
-4.73218
-4.74139
-4.75063
-4.75989
-4.76917
-4.77847
-4.78778
-4.79711
-4.80646
-4.81582
-4.82519
-4.83457
-4.84395
-4.85334
-4.86273
-4.87212
-4.8815
-4.89087
-4.90023
-4.90957
-4.91889
-4.92818
-4.93743
-4.94665
-4.95581
-4.96492
-4.97397
-4.98294
-4.99182
-5.00061
-5.00929
-5.01786
-5.02629
-5.03456
-5.04268
-5.05061
-5.05834
-5.06585
-5.07311
-5.08012
-5.08684
-5.09326
-5.09934
-5.10508
-5.11044
-5.11541
-5.11995
-5.12407
-5.12773
-5.13093
-5.13366
-5.1359
-5.13766
-5.13895
-5.13976
-5.14012
-4.33991
-4.35052
-4.36135
-4.36996
-4.37803
-4.38648
-4.39513
-4.40372
-4.41223
-4.42073
-4.42925
-4.43776
-4.44627
-4.45478
-4.46329
-4.47181
-4.48034
-4.48888
-4.49744
-4.50601
-4.5146
-4.5232
-4.53183
-4.54047
-4.54914
-4.55782
-4.56653
-4.57527
-4.58403
-4.59281
-4.60162
-4.61045
-4.6193
-4.62819
-4.63709
-4.64602
-4.65498
-4.66396
-4.67297
-4.682
-4.69105
-4.70012
-4.70922
-4.71834
-4.72748
-4.73665
-4.74583
-4.75503
-4.76424
-4.77347
-4.78272
-4.79198
-4.80125
-4.81053
-4.81982
-4.82912
-4.83841
-4.84771
-4.857
-4.86629
-4.87556
-4.88483
-4.89407
-4.9033
-4.91249
-4.92165
-4.93078
-4.93985
-4.94888
-4.95784
-4.96673
-4.97555
-4.98427
-4.9929
-5.00141
-5.0098
-5.01805
-5.02616
-5.03409
-5.04184
-5.04939
-5.05671
-5.06381
-5.07064
-5.0772
-5.08345
-5.08939
-5.09499
-5.10024
-5.1051
-5.10957
-5.11363
-5.11726
-5.12045
-5.1232
-5.1255
-5.12736
-5.12876
-5.12973
-5.13028
-4.33551
-4.34611
-4.35695
-4.36558
-4.37366
-4.38211
-4.39077
-4.39937
-4.40789
-4.41641
-4.42493
-4.43346
-4.44197
-4.45049
-4.45902
-4.46755
-4.47608
-4.48463
-4.49319
-4.50176
-4.51034
-4.51895
-4.52756
-4.5362
-4.54486
-4.55353
-4.56223
-4.57095
-4.57969
-4.58845
-4.59724
-4.60605
-4.61488
-4.62373
-4.63261
-4.64151
-4.65043
-4.65937
-4.66834
-4.67733
-4.68633
-4.69536
-4.70441
-4.71348
-4.72257
-4.73168
-4.7408
-4.74994
-4.75909
-4.76826
-4.77743
-4.78662
-4.79581
-4.80502
-4.81422
-4.82343
-4.83264
-4.84184
-4.85103
-4.86022
-4.86939
-4.87855
-4.88768
-4.89679
-4.90586
-4.9149
-4.92389
-4.93283
-4.94171
-4.95053
-4.95928
-4.96794
-4.97651
-4.98497
-4.99332
-5.00155
-5.00963
-5.01756
-5.02533
-5.0329
-5.04028
-5.04744
-5.05437
-5.06104
-5.06745
-5.07356
-5.07937
-5.08485
-5.08999
-5.09476
-5.09917
-5.10318
-5.10679
-5.10999
-5.11277
-5.11513
-5.11707
-5.1186
-5.11972
-5.12044
-4.33094
-4.34155
-4.35241
-4.36105
-4.36912
-4.37758
-4.38625
-4.39486
-4.40339
-4.41192
-4.42045
-4.42898
-4.43751
-4.44604
-4.45457
-4.4631
-4.47164
-4.48019
-4.48875
-4.49732
-4.5059
-4.5145
-4.52311
-4.53174
-4.54039
-4.54905
-4.55773
-4.56644
-4.57516
-4.5839
-4.59266
-4.60144
-4.61025
-4.61907
-4.62792
-4.63678
-4.64567
-4.65458
-4.6635
-4.67245
-4.68141
-4.69039
-4.69939
-4.70841
-4.71745
-4.72649
-4.73556
-4.74463
-4.75372
-4.76282
-4.77192
-4.78104
-4.79015
-4.79928
-4.8084
-4.81752
-4.82663
-4.83574
-4.84484
-4.85393
-4.86299
-4.87204
-4.88106
-4.89005
-4.899
-4.90791
-4.91678
-4.92559
-4.93433
-4.94301
-4.95161
-4.96013
-4.96854
-4.97686
-4.98505
-4.99311
-5.00104
-5.00881
-5.01641
-5.02382
-5.03104
-5.03805
-5.04482
-5.05135
-5.05762
-5.0636
-5.06929
-5.07466
-5.07971
-5.08441
-5.08875
-5.09273
-5.09633
-5.09954
-5.10236
-5.10478
-5.10681
-5.10846
-5.10972
-5.11061
-4.32623
-4.33684
-4.34771
-4.35635
-4.36443
-4.3729
-4.38157
-4.39019
-4.39873
-4.40726
-4.4158
-4.42434
-4.43288
-4.44141
-4.44995
-4.45848
-4.46703
-4.47558
-4.48413
-4.4927
-4.50128
-4.50987
-4.51848
-4.5271
-4.53573
-4.54438
-4.55305
-4.56173
-4.57044
-4.57916
-4.58789
-4.59665
-4.60543
-4.61422
-4.62303
-4.63186
-4.64071
-4.64958
-4.65847
-4.66737
-4.67629
-4.68522
-4.69417
-4.70314
-4.71211
-4.7211
-4.73011
-4.73912
-4.74814
-4.75717
-4.7662
-4.77524
-4.78428
-4.79332
-4.80236
-4.81139
-4.82042
-4.82943
-4.83843
-4.84742
-4.85638
-4.86532
-4.87423
-4.8831
-4.89193
-4.90072
-4.90946
-4.91814
-4.92675
-4.93529
-4.94375
-4.95212
-4.9604
-4.96856
-4.9766
-4.98451
-4.99228
-4.9999
-5.00735
-5.01461
-5.02168
-5.02854
-5.03518
-5.04157
-5.04771
-5.05358
-5.05916
-5.06444
-5.0694
-5.07404
-5.07834
-5.08229
-5.08588
-5.08911
-5.09197
-5.09445
-5.09658
-5.09833
-5.09973
-5.10078
-4.32137
-4.33198
-4.34286
-4.35151
-4.3596
-4.36806
-4.37674
-4.38537
-4.39392
-4.40245
-4.411
-4.41955
-4.42809
-4.43662
-4.44516
-4.4537
-4.46224
-4.47079
-4.47935
-4.48791
-4.49649
-4.50507
-4.51367
-4.52228
-4.5309
-4.53953
-4.54818
-4.55685
-4.56553
-4.57423
-4.58294
-4.59167
-4.60042
-4.60918
-4.61796
-4.62676
-4.63557
-4.6444
-4.65324
-4.6621
-4.67097
-4.67985
-4.68875
-4.69766
-4.70658
-4.71552
-4.72446
-4.7334
-4.74236
-4.75132
-4.76028
-4.76924
-4.77821
-4.78717
-4.79612
-4.80506
-4.814
-4.82292
-4.83183
-4.84071
-4.84957
-4.8584
-4.8672
-4.87596
-4.88467
-4.89334
-4.90195
-4.9105
-4.91899
-4.92739
-4.93572
-4.94395
-4.95208
-4.9601
-4.968
-4.97577
-4.98339
-4.99086