/*--------------------------------*- C++ -*----------------------------------*\
| =========                 |                                                 |
| \\      /  F ield         | OpenFOAM: The Open Source CFD Toolbox           |
|  \\    /   O peration     | Version:  2406                                  |
|   \\  /    A nd           | Website:  www.openfoam.com                      |
|    \\/     M anipulation  |                                                 |
\*---------------------------------------------------------------------------*/
FoamFile
{
    version     2.0;
    format      ascii;
    arch        "LSB;label=32;scalar=64";
    class       volScalarField;
    location    "40";
    object      p;
}
// * * * * * * * * * * * * * * * * * * * * * * * * * * * * * * * * * * * * * //

dimensions      [0 2 -2 0 0 0 0];

internalField   nonuniform List<scalar> 
1964
(
0.645716
0.645224
0.644161
0.642788
0.641256
0.639617
0.637905
0.636148
0.634361
0.632554
0.630729
0.628891
0.627042
0.625185
0.62332
0.621449
0.619572
0.617688
0.615798
0.613901
0.611997
0.610085
0.608162
0.606226
0.604274
0.602301
0.6003
0.598263
0.596178
0.594028
0.591791
0.589438
0.586927
0.5842
0.581178
0.577751
0.573762
0.568989
0.563116
0.555692
0.546075
0.533369
0.516358
0.493487
0.46298
0.423121
0.373154
0.647034
0.645661
0.6442
0.642766
0.641229
0.639582
0.637868
0.636118
0.634339
0.632534
0.630709
0.628872
0.627026
0.625175
0.623314
0.621445
0.619566
0.617681
0.615789
0.613892
0.611988
0.610077
0.608156
0.606222
0.60427
0.602298
0.600296
0.598258
0.596171
0.59402
0.591782
0.589428
0.586917
0.584193
0.581177
0.577762
0.573793
0.569052
0.563225
0.55586
0.546297
0.533599
0.516448
0.493096
0.461437
0.419273
0.365698
0.647825
0.645909
0.644154
0.642703
0.641191
0.63954
0.637819
0.636074
0.63431
0.632514
0.63069
0.628848
0.627002
0.625154
0.623303
0.621441
0.619568
0.617684
0.615792
0.613894
0.611992
0.610085
0.608172
0.606248
0.604311
0.602355
0.600377
0.598367
0.596318
0.594217
0.592048
0.589786
0.587399
0.584842
0.58205
0.578931
0.575351
0.571109
0.565901
0.559261
0.550473
0.538456
0.521597
0.497642
0.463662
0.415941
0.352585
0.648326
0.646176
0.644197
0.642687
0.641172
0.639505
0.637765
0.636023
0.634278
0.632499
0.630674
0.628823
0.626969
0.625124
0.623285
0.62144
0.61958
0.617704
0.615815
0.613919
0.61202
0.610122
0.608225
0.606327
0.604424
0.602514
0.600594
0.598662
0.596714
0.594747
0.592755
0.590731
0.588661
0.586527
0.584295
0.581912
0.579286
0.576258
0.572555
0.567699
0.560873
0.550713
0.535045
0.510689
0.473297
0.417163
0.339083
0.648715
0.646462
0.644313
0.642717
0.641174
0.63948
0.637713
0.635967
0.634241
0.632482
0.63066
0.628794
0.626926
0.62508
0.623254
0.621432
0.619595
0.617735
0.615855
0.613965
0.612073
0.610188
0.608314
0.606454
0.604605
0.602768
0.600944
0.599138
0.597354
0.595603
0.593898
0.592256
0.590696
0.589238
0.587901
0.586697
0.585608
0.584565
0.583376
0.581614
0.578407
0.572074
0.559484
0.535468
0.491412
0.417955
0.307691
0.649019
0.646711
0.644442
0.642771
0.641196
0.639471
0.637674
0.635919
0.634211
0.632473
0.630654
0.628773
0.626885
0.625031
0.623217
0.621419
0.619611
0.617775
0.615912
0.614031
0.612149
0.61028
0.608435
0.606619
0.604838
0.603094
0.601394
0.59975
0.59818
0.59671
0.595377
0.594229
0.593326
0.592743
0.592571
0.592911
0.593866
0.595513
0.597844
0.600653
0.603267
0.604099
0.599439
0.581898
0.533403
0.428993
0.204786
0.64925
0.64691
0.644561
0.642837
0.641235
0.639479
0.637649
0.635882
0.634186
0.632467
0.630654
0.628759
0.626851
0.624986
0.623178
0.621403
0.619624
0.617816
0.615973
0.614108
0.612238
0.610387
0.608572
0.606804
0.605094
0.603449
0.601884
0.600418
0.599083
0.597922
0.596999
0.596394
0.596216
0.596601
0.597723
0.599795
0.603071
0.607836
0.614375
0.622891
0.633318
0.644966
0.655501
0.659302
0.638161
0.552596
0.192582
0.649417
0.64706
0.64466
0.642901
0.641277
0.639493
0.637633
0.635852
0.634165
0.632464
0.630658
0.628754
0.626828
0.624951
0.623146
0.621387
0.619634
0.617852
0.616031
0.614181
0.612326
0.610492
0.608704
0.60698
0.605334
0.603782
0.602343
0.601044
0.599929
0.59906
0.598522
0.59843
0.598936
0.600238
0.602592
0.606326
0.611853
0.619687
0.630444
0.644823
0.66354
0.687166
0.715683
0.747936
0.778347
0.795778
0.729204
0.649526
0.647159
0.644728
0.642948
0.641311
0.639507
0.637624
0.635831
0.634151
0.632463
0.630664
0.628754
0.626815
0.624928
0.623123
0.621375
0.61964
0.617878
0.616074
0.614238
0.612395
0.610575
0.608808
0.607118
0.605522
0.604041
0.602698
0.601528
0.600585
0.599942
0.599703
0.60001
0.60105
0.603069
0.60639
0.611434
0.618747
0.629035
0.643189
0.662326
0.687772
0.721005
0.763328
0.815268
0.874146
0.931747
0.95477
0.64958
0.64721
0.644762
0.642972
0.641329
0.639516
0.63762
0.635822
0.634144
0.632463
0.630667
0.628755
0.626809
0.624917
0.623111
0.621369
0.619643
0.617891
0.616097
0.614268
0.612432
0.610621
0.608866
0.607194
0.605625
0.604182
0.602892
0.601793
0.600942
0.600423
0.600348
0.600873
0.602205
0.604617
0.608468
0.614233
0.622531
0.634173
0.650208
0.671966
0.701091
0.73947
0.788929
0.850433
0.921716
0.993735
1.03633
0.64958
0.64721
0.644762
0.642972
0.641329
0.639516
0.637621
0.635823
0.634144
0.632462
0.630666
0.628754
0.62681
0.624918
0.623112
0.62137
0.619643
0.617891
0.616096
0.614268
0.612431
0.610621
0.608866
0.607194
0.605626
0.604183
0.602893
0.601794
0.600943
0.600423
0.600349
0.600874
0.602206
0.604617
0.608469
0.614234
0.622532
0.634175
0.650209
0.671968
0.701094
0.739474
0.788928
0.85045
0.921717
0.993719
1.03633
0.649526
0.64716
0.644728
0.642947
0.64131
0.639507
0.637626
0.635834
0.63415
0.632461
0.630661
0.628753
0.626816
0.624932
0.623126
0.621378
0.619641
0.617877
0.616072
0.614235
0.612393
0.610574
0.608808
0.607119
0.605524
0.604043
0.6027
0.601531
0.600587
0.599943
0.599705
0.600012
0.601052
0.603071
0.606392
0.611436
0.61875
0.629038
0.643193
0.662331
0.687777
0.721011
0.763337
0.815275
0.87413
0.931765
0.954757
0.649417
0.64706
0.644661
0.6429
0.641275
0.639493
0.637636
0.635855
0.634164
0.63246
0.630654
0.628753
0.626831
0.624957
0.623151
0.621391
0.619635
0.61785
0.616028
0.614178
0.612323
0.610491
0.608704
0.606982
0.605337
0.603786
0.602346
0.601048
0.599932
0.599063
0.598525
0.598433
0.598939
0.600241
0.602596
0.60633
0.611858
0.619693
0.630451
0.644831
0.663548
0.687177
0.715694
0.747932
0.778341
0.795757
0.729193
0.64925
0.64691
0.644563
0.642837
0.641232
0.639479
0.637654
0.635886
0.634184
0.632462
0.630649
0.628758
0.626855
0.624993
0.623185
0.621407
0.619624
0.617814
0.61597
0.614104
0.612236
0.610387
0.608573
0.606807
0.605097
0.603454
0.601888
0.600422
0.599087
0.597926
0.597002
0.596398
0.59622
0.596605
0.597728
0.5998
0.603077
0.607844
0.614385
0.622901
0.633331
0.64498
0.655511
0.659311
0.638145
0.552518
0.192596
0.649019
0.64671
0.644443
0.642771
0.641194
0.639472
0.637679
0.635923
0.634209
0.632467
0.63065
0.628773
0.626889
0.625038
0.623223
0.621422
0.619611
0.617773
0.615909
0.614029
0.612148
0.61028
0.608437
0.606622
0.604842
0.603098
0.601398
0.599754
0.598184
0.596714
0.595381
0.594233
0.593331
0.592749
0.592577
0.592917
0.593873
0.595521
0.597855
0.600665
0.603281
0.604111
0.599457
0.581898
0.533395
0.429001
0.204735
0.648715
0.646462
0.644314
0.642717
0.641172
0.639481
0.637717
0.63597
0.63424
0.632478
0.630657
0.628795
0.62693
0.625085
0.623259
0.621434
0.619595
0.617734
0.615854
0.613964
0.612073
0.610189
0.608316
0.606456
0.604608
0.602772
0.600949
0.599142
0.597358
0.595608
0.593903
0.592261
0.590701
0.589244
0.587908
0.586704
0.585618
0.584576
0.58339
0.581631
0.578426
0.5721
0.55951
0.535512
0.491451
0.417957
0.307718
0.648326
0.646176
0.644198
0.642686
0.64117
0.639505
0.637768
0.636025
0.634276
0.632496
0.630673
0.628824
0.626972
0.625128
0.623288
0.621441
0.61958
0.617704
0.615814
0.613919
0.612021
0.610123
0.608227
0.606329
0.604427
0.602518
0.600599
0.598667
0.596719
0.594752
0.59276
0.590736
0.588667
0.586533
0.584302
0.58192
0.579296
0.57627
0.57257
0.567718
0.560896
0.550745
0.535086
0.51073
0.473347
0.417218
0.339047
0.647825
0.645909
0.644155
0.642704
0.641191
0.639541
0.637821
0.636075
0.634309
0.632513
0.63069
0.62885
0.627004
0.625157
0.623304
0.621442
0.619569
0.617685
0.615793
0.613895
0.611993
0.610086
0.608173
0.60625
0.604314
0.602359
0.600381
0.598372
0.596323
0.594222
0.592053
0.589791
0.587405
0.584849
0.582058
0.57894
0.575362
0.571122
0.565916
0.55928
0.550496
0.538481
0.52163
0.497677
0.463689
0.415949
0.352584
0.647034
0.645661
0.6442
0.642766
0.641229
0.639582
0.637869
0.636118
0.634339
0.632534
0.63071
0.628873
0.627028
0.625176
0.623315
0.621446
0.619568
0.617682
0.61579
0.613893
0.611989
0.610078
0.608158
0.606224
0.604273
0.602301
0.6003
0.598262
0.596176
0.594025
0.591787
0.589433
0.586923
0.5842
0.581185
0.577771
0.573804
0.569065
0.563241
0.555878
0.546319
0.533622
0.516474
0.493118
0.461455
0.419282
0.365688
0.645715
0.645224
0.644161
0.642788
0.641256
0.639617
0.637905
0.636148
0.634362
0.632554
0.63073
0.628892
0.627043
0.625186
0.623322
0.62145
0.619573
0.617689
0.615799
0.613902
0.611998
0.610086
0.608164
0.606228
0.604277
0.602304
0.600304
0.598267
0.596182
0.594032
0.591796
0.589444
0.586933
0.584207
0.581187
0.577761
0.573773
0.569002
0.563131
0.555709
0.546094
0.533389
0.51638
0.493508
0.462994
0.423128
0.373156
0.313963
0.249399
0.185959
0.128929
0.0799963
0.0391759
0.301588
0.232811
0.168221
0.11244
0.0658099
0.0279557
0.272659
0.190459
0.123249
0.0718636
0.0306898
-0.00199387
0.226122
0.115922
0.0449249
0.0013783
-0.0305542
-0.0535179
0.128774
-0.0146277
-0.0764068
-0.102993
-0.119213
-0.125734
-0.144742
-0.248904
-0.233523
-0.215135
-0.201575
-0.187134
-0.530073
-0.442073
-0.311021
-0.263016
-0.234177
-0.20632
-0.530027
-0.442026
-0.310976
-0.262976
-0.234147
-0.206299
-0.144696
-0.248843
-0.233516
-0.215108
-0.201539
-0.187091
0.128747
-0.0146992
-0.0764867
-0.103074
-0.1192
-0.125695
0.22606
0.115826
0.044843
0.00133117
-0.0305599
-0.0534918
0.272601
0.190397
0.123203
0.0718367
0.0306496
-0.0020279
0.301566
0.23277
0.168171
0.112372
0.0657303
0.0278908
0.313958
0.249374
0.185915
0.128872
0.0799376
0.0391265
0.00656559
-0.0180326
-0.0353915
-0.0465811
-0.0526707
-0.0546467
-0.0534268
-0.0498493
-0.0446397
-0.0383924
-0.0315737
-0.0245371
-0.0175413
-0.0107699
-0.00434902
0.00163725
0.00713521
0.0121131
0.0165554
0.0204586
0.0238282
0.026677
0.029023
0.0308885
0.0322992
0.0332834
0.0338708
0.0340913
0.0339748
0.0335507
0.032848
0.0318942
0.0307158
0.0293372
0.0277813
0.0260691
0.0242194
0.0222497
0.0201755
0.0180107
0.0157678
0.0134579
0.0110912
0.00867668
0.0062221
0.00373569
0.00120401
-0.00132875
-0.0226337
-0.0371598
-0.0461875
-0.0507406
-0.05168
-0.049835
-0.0459798
-0.0407665
-0.0347056
-0.028187
-0.021504
-0.0148734
-0.00845308
-0.00235636
0.00333727
0.00857418
0.0133213
0.0175609
0.0212878
0.0245055
0.0272246
0.029461
0.0312351
0.0325702
0.0334923
0.0340295
0.03421
0.0340619
0.0336134
0.0328921
0.0319248
0.030737
0.0293523
0.0277931
0.0260795
0.0242302
0.022262
0.0201901
0.0180281
0.0157883
0.0134817
0.0111177
0.00870505
0.00625434
0.00376349
0.00117976
-0.025683
-0.0411873
-0.0505193
-0.0553725
-0.0566053
-0.0548085
-0.0507116
-0.0450839
-0.0385578
-0.0315957
-0.0245277
-0.0175824
-0.0109106
-0.00460808
0.00126455
0.00666889
0.0115824
0.0159943
0.0199036
0.0233161
0.0262428
0.0286985
0.0307009
0.0322702
0.0334285
0.0341996
0.0346079
0.0346792
0.0344397
0.0339157
0.0331327
0.0321155
0.0308878
0.0294718
0.0278881
0.026156
0.0242928
0.0223145
0.0202354
0.0180685
0.0158254
0.0135167
0.0111511
0.00873714
0.00628184
0.00379668
0.00112051
-0.0670463
-0.0731088
-0.0748922
-0.0740661
-0.0706759
-0.0647496
-0.0569079
-0.0479724
-0.0386273
-0.029376
-0.0205705
-0.0124222
-0.00502389
0.00161054
0.00750713
0.012708
0.0172599
0.0212096
0.0246018
0.0274783
0.0298766
0.0318304
0.0333694
0.0345205
0.0353083
0.035756
0.035886
0.0357206
0.0352818
0.0345914
0.0336707
0.0325406
0.0312211
0.0297311
0.0280885
0.0263098
0.0244103
0.022404
0.0203035
0.0181204
0.0158651
0.0135473
0.0111748
0.00875725
0.00629359
0.00382502
0.00102679
-0.122741
-0.114444
-0.10621
-0.0984796
-0.0894341
-0.0784284
-0.0660291
-0.053006
-0.0400009
-0.0275678
-0.0161463
-0.00599811
0.00279202
0.0102621
0.0165159
0.0216841
0.0259041
0.0293077
0.0320156
0.0341333
0.0357491
0.0369351
0.0377477
0.0382309
0.0384185
0.0383371
0.038008
0.0374498
0.0366787
0.0357103
0.0345593
0.0332402
0.0317668
0.0301529
0.0284113
0.0265542
0.0245933
0.0225392
0.0204018
0.0181905
0.0159137
0.0135795
0.0111947
0.00876944
0.00629787
0.00384606
0.000957837
-0.168528
-0.147055
-0.131739
-0.119823
-0.106713
-0.0915523
-0.0752217
-0.0584822
-0.0419363
-0.0262331
-0.0119559
0.000527081
0.0110816
0.0197458
0.0266624
0.0320289
0.0360657
0.0389936
0.0410194
0.0423259
0.0430669
0.043366
0.0433184
0.0429946
0.042445
0.0417044
0.0407969
0.0397385
0.0385411
0.0372134
0.035763
0.0341968
0.0325215
0.0307439
0.0288707
0.0269088
0.0248649
0.0227456
0.0205573
0.0183062
0.0159983
0.0136397
0.0112355
0.00879494
0.00631393
0.0038521
0.000992198
-0.18076
-0.155704
-0.140257
-0.128763
-0.115094
-0.0986228
-0.0805238
-0.0616618
-0.0427776
-0.0247054
-0.00819801
0.00624151
0.0183808
0.0282036
0.0358428
0.0415241
0.045522
0.0481259
0.049615
0.0502409
0.0502182
0.0497207
0.0488827
0.0478033
0.0465519
0.0451749
0.0437014
0.0421482
0.0405243
0.0388339
0.0370784
0.0352584
0.0333738
0.0314252
0.0294134
0.0273399
0.0252068
0.0230163
0.0207714
0.0184753
0.0161312
0.0137427
0.0113138
0.00884853
0.00635426
0.00383809
0.00117252
-0.169273
-0.150993
-0.139215
-0.129314
-0.116518
-0.100425
-0.0820124
-0.0622744
-0.0422161
-0.0228518
-0.00504169
0.0106152
0.0237964
0.0344208
0.0425913
0.0485352
0.0525527
0.0549724
0.0561191
0.0562898
0.0557409
0.0546817
0.0532757
0.0516438
0.0498712
0.0480144
0.0461083
0.0441719
0.0422138
0.0402357
0.0382356
0.0362097
0.0341536
0.0320632
0.0299352
0.0277669
0.0255569
0.0233042
0.021009
0.0186717
0.0162936
0.013876
0.0114215
0.00892702
0.00641836
0.00381289
0.00146265
-0.148027
-0.142115
-0.135578
-0.126671
-0.11438
-0.0987853
-0.0805463
-0.0606824
-0.0403301
-0.0205762
-0.00231931
0.0137912
0.0273793
0.0383234
0.0467029
0.0527387
0.0567372
0.0590418
0.0599958
0.0599164
0.0590789
0.05771
0.0559873
0.0540435
0.0519725
0.0498372
0.0476761
0.0455106
0.0433497
0.0411946
0.0390418
0.0368857
0.0347197
0.0325372
0.0303326
0.028101
0.0258387
0.023543
0.0212123
0.0188455
0.0164423
0.0140024
0.0115276
0.00900798
0.00648653
0.00379295
0.0017568
-0.136469
-0.135
-0.131049
-0.123269
-0.111623
-0.0964488
-0.0784809
-0.0587888
-0.0385567
-0.0188593
-0.000577041
0.0155846
0.0292247
0.0402061
0.0485984
0.0546182
0.0585723
0.060807
0.06167
0.0614835
0.0605277
0.059034
0.0571843
0.0551148
0.0529225
0.0506724
0.048405
0.0461423
0.0438941
0.0416616
0.0394412
0.0372264
0.0350101
0.032785
0.0305443
0.0282826
0.025995
0.0236783
0.0213299
0.0189481
0.0165319
0.0140801
0.0115944
0.00906043
0.00653196
0.00378553
0.00193879
-0.13647
-0.135005
-0.131054
-0.123267
-0.111616
-0.0964421
-0.0784757
-0.0587863
-0.0385556
-0.0188583
-0.00057599
0.0155857
0.0292259
0.0402076
0.0486
0.0546196
0.0585731
0.0608071
0.0616693
0.0614821
0.0605258
0.0590319
0.0571823
0.0551131
0.0529212
0.0506716
0.0484045
0.0461421
0.0438941
0.0416616
0.0394411
0.0372263
0.0350098
0.0327846
0.0305438
0.028282
0.0259945
0.0236778
0.0213294
0.0189477
0.0165317
0.0140799
0.0115942
0.00906038
0.00653206
0.00378537
0.00193894
-0.148027
-0.142117
-0.135582
-0.126672
-0.114376
-0.0987793
-0.0805388
-0.0606758
-0.040325
-0.0205723
-0.00231648
0.013793
0.0273813
0.0383263
0.0467065
0.0527421
0.0567395
0.0590423
0.0599943
0.0599131
0.0590743
0.0577048
0.0559821
0.0540389
0.0519689
0.0498346
0.0476746
0.0455098
0.0433493
0.0411943
0.0390415
0.0368852
0.0347188
0.032536
0.0303312
0.0280994
0.0258372
0.0235416
0.0212111
0.0188445
0.0164416
0.0140018
0.0115272
0.00900773
0.00648643
0.00379297
0.00175722
-0.169272
-0.150987
-0.139211
-0.129316
-0.116515
-0.100415
-0.0819986
-0.0622609
-0.0422053
-0.0228449
-0.0050388
0.0106156
0.0237964
0.0344221
0.0425939
0.0485384
0.0525551
0.0549732
0.0561177
0.0562863
0.0557356
0.0546757
0.0532695
0.0516381
0.0498665
0.048011
0.046106
0.0441705
0.042213
0.0402351
0.038235
0.0362089
0.0341524
0.0320617
0.0299334
0.0277651
0.025555
0.0233025
0.0210075
0.0186705
0.0162927
0.0138754
0.0114211
0.00892675
0.00641833
0.00381267
0.00146352
-0.180758
-0.155698
-0.140254
-0.128766
-0.115097
-0.0986211
-0.0805176
-0.0616523
-0.0427678
-0.0246984
-0.00819502
0.00624148
0.0183797
0.0282033
0.0358436
0.0415256
0.0455232
0.0481261
0.0496137
0.0502381
0.050214
0.0497158
0.0488775
0.0477984
0.0465476
0.0451715
0.0436987
0.0421462
0.0405228
0.0388327
0.0370774
0.0352572
0.0333724
0.0314236
0.0294117
0.0273381
0.025205
0.0230147
0.0207701
0.0184742
0.0161304
0.0137422
0.0113134
0.00884831
0.00635432
0.00383778
0.00117356
-0.168508
-0.147054
-0.131736
-0.11982
-0.106716
-0.0915588
-0.0752238
-0.0584776
-0.0419275
-0.0262247
-0.0119496
0.000530994
0.0110847
0.0197487
0.0266656
0.0320317
0.0360679
0.0389945
0.0410194
0.0423247
0.043065
0.0433634
0.0433156
0.0429915
0.0424421
0.0417016
0.0407944
0.0397363
0.0385392
0.0372117
0.0357615
0.0341952
0.0325199
0.0307422
0.0288691
0.0269072
0.0248635
0.0227442
0.0205562
0.0183053
0.0159978
0.0136393
0.0112354
0.00879478
0.00631386
0.00385217
0.000992871
-0.122696
-0.114423
-0.106196
-0.0984656
-0.0894269
-0.0784283
-0.0660303
-0.0530048
-0.0399974
-0.0275627
-0.0161401
-0.0059908
0.0028
0.0102703
0.0165232
0.0216902
0.0259085
0.0293107
0.0320174
0.0341342
0.0357495
0.0369349
0.037747
0.0382297
0.0384168
0.038335
0.0380058
0.0374474
0.0366764
0.0357081
0.0345572
0.0332382
0.031765
0.0301512
0.0284096
0.0265528
0.0245919
0.022538
0.0204009
0.0181898
0.0159131
0.0135792
0.0111945
0.00876941
0.00629803
0.00384618
0.000957887
-0.0670199
-0.0730885
-0.074871
-0.0740444
-0.0706607
-0.0647415
-0.0569048
-0.0479701
-0.0386239
-0.0293692
-0.0205608
-0.01241
-0.00501142
0.00162254
0.00751699
0.0127162
0.0172657
0.0212142
0.0246051
0.0274811
0.0298784
0.0318317
0.0333696
0.0345201
0.0353068
0.0357541
0.0358835
0.035718
0.0352789
0.0345888
0.0336681
0.0325384
0.0312189
0.0297293
0.0280867
0.0263084
0.0244089
0.022403
0.0203025
0.0181197
0.0158645
0.013547
0.0111746
0.00875725
0.00629358
0.00382551
0.00102632
-0.0256968
-0.0411787
-0.0504988
-0.0553521
-0.0565905
-0.0548007
-0.0507077
-0.0450807
-0.0385513
-0.0315855
-0.0245139
-0.0175676
-0.0108961
-0.0045956
0.00127522
0.0066773
0.0115895
0.016
0.0199087
0.02332
0.026246
0.0287004
0.0307019
0.0322698
0.0334275
0.0341976
0.0346056
0.0346765
0.0344371
0.033913
0.0331303
0.0321132
0.0308858
0.0294698
0.0278866
0.0261545
0.0242917
0.0223134
0.0202346
0.0180678
0.015825
0.0135164
0.0111511
0.0087371
0.00628196
0.00379723
0.00111998
-0.00135717
-0.0226304
-0.0371425
-0.0461701
-0.0507287
-0.0516733
-0.04983
-0.0459736
-0.040757
-0.0346931
-0.0281727
-0.0214895
-0.01486
-0.00844144
-0.00234645
0.00334559
0.00858125
0.0133272
0.0175658
0.0212916
0.0245082
0.0272261
0.0294614
0.0312345
0.0325688
0.0334903
0.0340271
0.0342074
0.0340593
0.0336108
0.0328897
0.0319226
0.0307349
0.0293505
0.0277915
0.0260781
0.024229
0.022261
0.0201893
0.0180275
0.0157879
0.0134814
0.0111176
0.00870504
0.00625451
0.0037638
0.0011794
0.00653286
-0.0180482
-0.0353941
-0.0465757
-0.0526611
-0.0546355
-0.0534153
-0.0498377
-0.0446278
-0.0383799
-0.0315608
-0.0245241
-0.0175287
-0.010758
-0.00433827
0.00164668
0.00714318
0.0121196
0.0165605
0.0204623
0.0238306
0.0266783
0.0290233
0.0308879
0.0322979
0.0332816
0.0338686
0.0340889
0.0339723
0.0335483
0.0328456
0.031892
0.0307138
0.0293354
0.0277798
0.0260678
0.0242184
0.0222489
0.0201748
0.0180102
0.0157675
0.0134578
0.0110912
0.00867684
0.00622211
0.0037358
0.00120402
)
;

boundaryField
{
    inlet
    {
        type            zeroGradient;
    }
    outlet
    {
        type            fixedValue;
        value           uniform 0;
    }
    upperWall
    {
        type            zeroGradient;
    }
    lowerWall
    {
        type            zeroGradient;
    }
    frontAndBack
    {
        type            empty;
    }
}


// ************************************************************************* //
