/*--------------------------------*- C++ -*----------------------------------*\
| =========                 |                                                 |
| \\      /  F ield         | OpenFOAM: The Open Source CFD Toolbox           |
|  \\    /   O peration     | Version:  2406                                  |
|   \\  /    A nd           | Website:  www.openfoam.com                      |
|    \\/     M anipulation  |                                                 |
\*---------------------------------------------------------------------------*/
FoamFile
{
    version     2.0;
    format      ascii;
    arch        "LSB;label=32;scalar=64";
    class       volScalarField;
    location    "925";
    object      p;
}
// * * * * * * * * * * * * * * * * * * * * * * * * * * * * * * * * * * * * * //

dimensions      [0 2 -2 0 0 0 0];

internalField   nonuniform List<scalar> 
190000
(
-0.0149414
-0.0135783
-0.0132056
-0.0133925
-0.0137952
-0.0143046
-0.0148765
-0.0154858
-0.0161186
-0.0167674
-0.0174278
-0.0180971
-0.0187737
-0.0194566
-0.0201451
-0.0208385
-0.0215367
-0.0222392
-0.0229459
-0.0236567
-0.0243714
-0.0250901
-0.0258126
-0.0265389
-0.0272691
-0.028003
-0.0287408
-0.0294823
-0.0302278
-0.0309771
-0.0317304
-0.0324876
-0.0332488
-0.0340141
-0.0347835
-0.0355572
-0.036335
-0.0371172
-0.0379038
-0.0386949
-0.0394906
-0.0402908
-0.0410959
-0.0419057
-0.0427205
-0.0435404
-0.0443654
-0.0451956
-0.0460313
-0.0468724
-0.0477193
-0.0485719
-0.0494304
-0.0502951
-0.051166
-0.0520433
-0.0529272
-0.0538179
-0.0547156
-0.0556205
-0.0565328
-0.0574528
-0.0583806
-0.0593166
-0.060261
-0.0612141
-0.0621763
-0.0631478
-0.064129
-0.0651203
-0.066122
-0.0671347
-0.0681587
-0.0691945
-0.0702427
-0.0713039
-0.0723785
-0.0734674
-0.0745711
-0.0756905
-0.0768263
-0.0779793
-0.0791505
-0.0803407
-0.0815508
-0.0827818
-0.0840343
-0.0853089
-0.086606
-0.0879254
-0.0892667
-0.0906292
-0.0920133
-0.0934227
-0.0948755
-0.0964364
-0.0982405
-0.100311
-0.102704
-0.111599
-0.0130083
-0.0129602
-0.0130845
-0.0134051
-0.0138477
-0.0143666
-0.014936
-0.0155396
-0.0161667
-0.0168106
-0.0174672
-0.0181336
-0.0188082
-0.0194896
-0.020177
-0.0208698
-0.0215675
-0.0222698
-0.0229765
-0.0236873
-0.0244023
-0.0251213
-0.0258442
-0.026571
-0.0273017
-0.0280362
-0.0287746
-0.0295168
-0.030263
-0.031013
-0.0317671
-0.0325251
-0.0332872
-0.0340533
-0.0348237
-0.0355982
-0.0363771
-0.0371603
-0.0379479
-0.03874
-0.0395368
-0.0403382
-0.0411444
-0.0419554
-0.0427715
-0.0435926
-0.0444189
-0.0452505
-0.0460876
-0.0469303
-0.0477786
-0.0486328
-0.049493
-0.0503594
-0.051232
-0.0521112
-0.0529971
-0.0538898
-0.0547896
-0.0556967
-0.0566113
-0.0575336
-0.058464
-0.0594026
-0.0603498
-0.0613059
-0.0622712
-0.063246
-0.0642307
-0.0652257
-0.0662314
-0.0672483
-0.0682768
-0.0693175
-0.070371
-0.0714378
-0.0725186
-0.0736142
-0.0747253
-0.0758528
-0.0769976
-0.0781607
-0.0793432
-0.0805464
-0.0817715
-0.0830201
-0.0842936
-0.085594
-0.0869234
-0.0882844
-0.0896808
-0.0911183
-0.0926066
-0.094163
-0.0958223
-0.0976553
-0.0997791
-0.102361
-0.106073
-0.113616
-0.0119739
-0.0125001
-0.0129363
-0.013372
-0.0138616
-0.0144004
-0.0149764
-0.0155806
-0.0162062
-0.016848
-0.0175026
-0.0181674
-0.0188406
-0.0195211
-0.0202078
-0.0209002
-0.0215976
-0.0222999
-0.0230067
-0.0237178
-0.0244331
-0.0251525
-0.0258758
-0.0266032
-0.0273344
-0.0280696
-0.0288086
-0.0295516
-0.0302985
-0.0310493
-0.0318042
-0.0325631
-0.033326
-0.0340931
-0.0348644
-0.0356399
-0.0364198
-0.037204
-0.0379927
-0.0387859
-0.0395838
-0.0403864
-0.0411938
-0.0420061
-0.0428234
-0.0436458
-0.0444735
-0.0453066
-0.0461451
-0.0469893
-0.0478392
-0.048695
-0.0495569
-0.050425
-0.0512994
-0.0521805
-0.0530683
-0.0539631
-0.054865
-0.0557743
-0.0566912
-0.057616
-0.058549
-0.0594903
-0.0604403
-0.0613994
-0.0623678
-0.0633459
-0.0643341
-0.0653328
-0.0663425
-0.0673636
-0.0683967
-0.0694423
-0.070501
-0.0715734
-0.0726604
-0.0737626
-0.0748811
-0.0760166
-0.0771704
-0.0783435
-0.0795374
-0.0807535
-0.0819936
-0.0832597
-0.0845542
-0.0858802
-0.0872413
-0.0886427
-0.0900912
-0.091597
-0.0931758
-0.0948515
-0.0966632
-0.0986728
-0.100969
-0.103669
-0.107049
-0.111656
-0.0114912
-0.0121952
-0.0127735
-0.0132909
-0.0138284
-0.014395
-0.0149859
-0.0155978
-0.016227
-0.0168705
-0.0175258
-0.0181908
-0.018864
-0.0195444
-0.0202312
-0.0209236
-0.0216212
-0.0223236
-0.0230307
-0.0237421
-0.0244578
-0.0251776
-0.0259015
-0.0266293
-0.0273611
-0.0280969
-0.0288365
-0.0295802
-0.0303277
-0.0310793
-0.0318349
-0.0325945
-0.0333582
-0.0341261
-0.0348982
-0.0356746
-0.0364553
-0.0372404
-0.03803
-0.0388242
-0.039623
-0.0404266
-0.041235
-0.0420484
-0.0428668
-0.0436904
-0.0445192
-0.0453534
-0.0461932
-0.0470386
-0.0478898
-0.048747
-0.0496103
-0.0504798
-0.0513558
-0.0522384
-0.0531279
-0.0540243
-0.054928
-0.0558392
-0.056758
-0.0576848
-0.0586198
-0.0595633
-0.0605156
-0.0614771
-0.062448
-0.0634288
-0.0644199
-0.0654216
-0.0664345
-0.0674589
-0.0684956
-0.069545
-0.0706079
-0.0716848
-0.0727766
-0.0738841
-0.0750082
-0.07615
-0.0773107
-0.0784916
-0.0796941
-0.0809201
-0.0821716
-0.083451
-0.0847611
-0.0861057
-0.0874892
-0.0889177
-0.090399
-0.0919441
-0.0935679
-0.0952911
-0.0971421
-0.0991581
-0.10138
-0.103838
-0.106552
-0.109499
-0.0111989
-0.0119755
-0.0126278
-0.0132012
-0.0137782
-0.0143709
-0.0149783
-0.0156002
-0.0162355
-0.0168827
-0.0175401
-0.0182065
-0.0188806
-0.0195616
-0.0202488
-0.0209416
-0.0216396
-0.0223425
-0.0230499
-0.0237618
-0.0244779
-0.0251982
-0.0259226
-0.0266509
-0.0273833
-0.0281196
-0.0288598
-0.0296041
-0.0303523
-0.0311045
-0.0318607
-0.032621
-0.0333854
-0.034154
-0.0349269
-0.035704
-0.0364855
-0.0372714
-0.0380618
-0.0388568
-0.0396565
-0.040461
-0.0412703
-0.0420845
-0.0429039
-0.0437284
-0.0445583
-0.0453935
-0.0462343
-0.0470808
-0.0479332
-0.0487915
-0.049656
-0.0505267
-0.051404
-0.0522879
-0.0531787
-0.0540766
-0.0549817
-0.0558944
-0.0568148
-0.0577433
-0.05868
-0.0596253
-0.0605795
-0.0615429
-0.0625159
-0.0634988
-0.0644921
-0.0654962
-0.0665116
-0.0675387
-0.0685782
-0.0696306
-0.0706966
-0.0717769
-0.0728723
-0.0739837
-0.0751121
-0.0762585
-0.0774242
-0.0786106
-0.0798193
-0.0810521
-0.0823111
-0.0835991
-0.084919
-0.0862745
-0.0876703
-0.089112
-0.090607
-0.0921641
-0.0937943
-0.0955108
-0.0973277
-0.0992573
-0.101302
-0.103438
-0.105598
-0.107638
-0.0110012
-0.0118118
-0.0125064
-0.0131172
-0.013724
-0.0143385
-0.014961
-0.0155931
-0.0162351
-0.0168868
-0.0175473
-0.0182157
-0.0188913
-0.0195734
-0.0202614
-0.0209548
-0.0216534
-0.0223568
-0.0230647
-0.0237771
-0.0244937
-0.0252145
-0.0259393
-0.0266682
-0.0274011
-0.0281379
-0.0288787
-0.0296235
-0.0303723
-0.0311251
-0.0318819
-0.0326428
-0.0334079
-0.0341771
-0.0349506
-0.0357284
-0.0365106
-0.0372972
-0.0380883
-0.038884
-0.0396844
-0.0404897
-0.0412997
-0.0421148
-0.042935
-0.0437603
-0.044591
-0.0454271
-0.0462688
-0.0471162
-0.0479695
-0.0488288
-0.0496942
-0.050566
-0.0514443
-0.0523293
-0.0532212
-0.0541202
-0.0550265
-0.0559404
-0.056862
-0.0577918
-0.0587298
-0.0596765
-0.0606321
-0.061597
-0.0625716
-0.0635561
-0.0645511
-0.0655569
-0.0665741
-0.0676031
-0.0686445
-0.069699
-0.0707671
-0.0718497
-0.0729475
-0.0740613
-0.0751923
-0.0763415
-0.0775101
-0.0786995
-0.0799113
-0.0811474
-0.0824099
-0.0837012
-0.0850243
-0.0863825
-0.0877799
-0.089221
-0.0907114
-0.0922567
-0.093863
-0.0955351
-0.0972747
-0.0990757
-0.100917
-0.10275
-0.104488
-0.105984
-0.0108618
-0.011687
-0.0124058
-0.0130411
-0.0136696
-0.0143017
-0.0149373
-0.0155789
-0.0162277
-0.0168842
-0.0175481
-0.018219
-0.0188964
-0.0195798
-0.0202688
-0.0209631
-0.0216624
-0.0223664
-0.0230749
-0.0237878
-0.0245049
-0.0252262
-0.0259515
-0.0266809
-0.0274142
-0.0281516
-0.0288929
-0.0296382
-0.0303875
-0.0311408
-0.0318981
-0.0326596
-0.0334252
-0.034195
-0.034969
-0.0357474
-0.0365301
-0.0373173
-0.038109
-0.0389054
-0.0397064
-0.0405122
-0.0413229
-0.0421386
-0.0429594
-0.0437854
-0.0446168
-0.0454536
-0.046296
-0.0471441
-0.0479981
-0.0488581
-0.0497243
-0.0505969
-0.0514759
-0.0523617
-0.0532544
-0.0541542
-0.0550614
-0.0559761
-0.0568987
-0.0578293
-0.0587683
-0.0597159
-0.0606725
-0.0616383
-0.0626138
-0.0635994
-0.0645953
-0.0656022
-0.0666204
-0.0676504
-0.0686929
-0.0697483
-0.0708175
-0.071901
-0.0729997
-0.0741144
-0.0752462
-0.076396
-0.0775651
-0.0787547
-0.0799665
-0.081202
-0.0824632
-0.0837523
-0.0850717
-0.0864241
-0.0878125
-0.08924
-0.0907097
-0.0922238
-0.0937835
-0.0953866
-0.0970254
-0.0986827
-0.100326
-0.101901
-0.103322
-0.104474
-0.0107567
-0.0115876
-0.0123203
-0.0129717
-0.0136162
-0.0142621
-0.0149089
-0.015559
-0.0162143
-0.0168756
-0.017543
-0.0182165
-0.0188959
-0.0195808
-0.020271
-0.0209663
-0.0216664
-0.022371
-0.0230802
-0.0237936
-0.0245112
-0.025233
-0.0259588
-0.0266886
-0.0274224
-0.0281602
-0.028902
-0.0296477
-0.0303974
-0.0311512
-0.031909
-0.0326709
-0.033437
-0.0342072
-0.0349817
-0.0357605
-0.0365437
-0.0373314
-0.0381236
-0.0389204
-0.0397219
-0.0405281
-0.0413393
-0.0421555
-0.0429768
-0.0438033
-0.0446351
-0.0454724
-0.0463153
-0.0471639
-0.0480184
-0.0488789
-0.0497456
-0.0506186
-0.0514982
-0.0523845
-0.0532777
-0.054178
-0.0550856
-0.0560009
-0.0569239
-0.0578549
-0.0587944
-0.0597424
-0.0606994
-0.0616656
-0.0626415
-0.0636274
-0.0646236
-0.0656307
-0.066649
-0.0676791
-0.0687216
-0.0697769
-0.0708458
-0.0719289
-0.073027
-0.0741408
-0.0752714
-0.0764196
-0.0775865
-0.0787734
-0.0799816
-0.0812125
-0.0824677
-0.0837489
-0.0850579
-0.0863965
-0.0877665
-0.0891692
-0.0906052
-0.0920738
-0.0935718
-0.0950919
-0.0966207
-0.0981351
-0.0995995
-0.100961
-0.102149
-0.103078
-0.0106711
-0.0115038
-0.0122451
-0.0129072
-0.0135633
-0.0142203
-0.0148764
-0.015534
-0.0161953
-0.0168612
-0.0175322
-0.0182084
-0.0188899
-0.0195764
-0.0202679
-0.0209642
-0.0216652
-0.0223706
-0.0230803
-0.0237943
-0.0245124
-0.0252347
-0.0259609
-0.0266911
-0.0274254
-0.0281635
-0.0289057
-0.0296518
-0.0304019
-0.031156
-0.0319142
-0.0326764
-0.0334428
-0.0342134
-0.0349883
-0.0357674
-0.036551
-0.037339
-0.0381315
-0.0389286
-0.0397304
-0.040537
-0.0413485
-0.042165
-0.0429866
-0.0438134
-0.0446455
-0.0454831
-0.0463262
-0.0471751
-0.0480298
-0.0488906
-0.0497575
-0.0506307
-0.0515105
-0.0523969
-0.0532903
-0.0541907
-0.0550985
-0.0560137
-0.0569368
-0.0578679
-0.0588072
-0.0597552
-0.060712
-0.061678
-0.0626536
-0.063639
-0.0646348
-0.0656412
-0.0666588
-0.067688
-0.0687293
-0.0697834
-0.0708506
-0.0719318
-0.0730276
-0.0741387
-0.0752659
-0.0764102
-0.0775724
-0.0787535
-0.0799547
-0.0811769
-0.0824215
-0.0836895
-0.0849819
-0.0862997
-0.0876432
-0.0890122
-0.0904051
-0.0918186
-0.0932464
-0.0946778
-0.0960964
-0.0974773
-0.0987859
-0.099976
-0.100991
-0.101769
-0.0105961
-0.0114293
-0.0121761
-0.0128454
-0.0135102
-0.0141759
-0.0148399
-0.0155041
-0.0161708
-0.0168411
-0.0175156
-0.0181946
-0.0188782
-0.0195664
-0.0202593
-0.0209567
-0.0216585
-0.0223646
-0.023075
-0.0237896
-0.0245082
-0.0252308
-0.0259575
-0.0266881
-0.0274227
-0.0281612
-0.0289036
-0.02965
-0.0304004
-0.0311548
-0.0319133
-0.0326758
-0.0334424
-0.0342132
-0.0349883
-0.0357677
-0.0365514
-0.0373396
-0.0381323
-0.0389296
-0.0397316
-0.0405383
-0.04135
-0.0421666
-0.0429883
-0.0438152
-0.0446474
-0.045485
-0.0463282
-0.047177
-0.0480318
-0.0488925
-0.0497593
-0.0506325
-0.0515121
-0.0523984
-0.0532915
-0.0541917
-0.0550991
-0.056014
-0.0569366
-0.0578672
-0.058806
-0.0597532
-0.0607093
-0.0616744
-0.062649
-0.0636333
-0.0646277
-0.0656326
-0.0666485
-0.0676757
-0.0687148
-0.0697662
-0.0708305
-0.0719082
-0.073
-0.0741065
-0.0752284
-0.0763663
-0.0775211
-0.0786935
-0.0798843
-0.0810942
-0.0823238
-0.0835738
-0.0848445
-0.0861355
-0.0874463
-0.0887751
-0.0901185
-0.0914714
-0.0928253
-0.0941678
-0.0954815
-0.096742
-0.0979178
-0.0989703
-0.0998553
-0.100528
-0.0105264
-0.0113595
-0.0121102
-0.0127846
-0.0134558
-0.0141286
-0.0147991
-0.0154692
-0.0161408
-0.0168152
-0.017493
-0.0181747
-0.0188604
-0.0195504
-0.0202447
-0.0209432
-0.021646
-0.0223529
-0.0230639
-0.023779
-0.0244981
-0.0252212
-0.0259482
-0.0266791
-0.027414
-0.0281527
-0.0288954
-0.0296421
-0.0303927
-0.0311472
-0.0319058
-0.0326685
-0.0334353
-0.0342062
-0.0349814
-0.0357608
-0.0365447
-0.0373329
-0.0381256
-0.0389229
-0.0397249
-0.0405316
-0.0413432
-0.0421598
-0.0429814
-0.0438081
-0.0446401
-0.0454776
-0.0463206
-0.0471692
-0.0480236
-0.048884
-0.0497505
-0.0506232
-0.0515023
-0.0523881
-0.0532806
-0.0541801
-0.0550868
-0.0560009
-0.0569226
-0.0578521
-0.0587898
-0.0597358
-0.0606904
-0.061654
-0.0626268
-0.0636091
-0.0646014
-0.0656039
-0.066617
-0.0676412
-0.0686768
-0.0697244
-0.0707843
-0.071857
-0.0729431
-0.0740431
-0.0751575
-0.0762869
-0.0774318
-0.0785926
-0.0797699
-0.080964
-0.082175
-0.083403
-0.0846474
-0.0859072
-0.0871806
-0.0884648
-0.0897551
-0.0910449
-0.0923249
-0.0935818
-0.0947985
-0.0959524
-0.0970162
-0.0979581
-0.0987438
-0.0993408
-0.0104585
-0.0112915
-0.0120451
-0.0127231
-0.0133993
-0.0140777
-0.0147538
-0.0154288
-0.0161049
-0.0167832
-0.0174642
-0.0181485
-0.0188364
-0.0195282
-0.0202239
-0.0209236
-0.0216273
-0.022335
-0.0230467
-0.0237623
-0.0244818
-0.0252053
-0.0259326
-0.0266638
-0.0273989
-0.0281379
-0.0288807
-0.0296275
-0.0303782
-0.0311328
-0.0318915
-0.0326542
-0.033421
-0.0341919
-0.0349671
-0.0357465
-0.0365302
-0.0373183
-0.0381109
-0.0389081
-0.0397099
-0.0405164
-0.0413278
-0.042144
-0.0429653
-0.0437917
-0.0446234
-0.0454604
-0.0463029
-0.047151
-0.0480048
-0.0488645
-0.0497303
-0.0506023
-0.0514806
-0.0523654
-0.0532569
-0.0541554
-0.0550609
-0.0559736
-0.0568939
-0.0578219
-0.0587578
-0.0597019
-0.0606545
-0.0616158
-0.0625861
-0.0635657
-0.0645549
-0.0655541
-0.0665635
-0.0675835
-0.0686145
-0.0696569
-0.070711
-0.0717772
-0.072856
-0.0739477
-0.0750527
-0.0761713
-0.0773039
-0.0784506
-0.0796117
-0.080787
-0.0819762
-0.0831788
-0.0843935
-0.0856187
-0.0868518
-0.0880888
-0.0893244
-0.0905513
-0.0917595
-0.0929361
-0.0940647
-0.0951255
-0.0960949
-0.0969472
-0.097656
-0.0981973
-0.01039
-0.011223
-0.011979
-0.0126595
-0.0133395
-0.0140226
-0.0147034
-0.0153828
-0.016063
-0.0167447
-0.0174287
-0.0181156
-0.0188057
-0.0194992
-0.0201964
-0.0208972
-0.0216019
-0.0223104
-0.0230228
-0.0237389
-0.0244589
-0.0251827
-0.0259103
-0.0266417
-0.027377
-0.0281161
-0.028859
-0.0296059
-0.0303566
-0.0311112
-0.0318698
-0.0326325
-0.0333992
-0.03417
-0.0349449
-0.0357242
-0.0365077
-0.0372955
-0.0380878
-0.0388847
-0.0396861
-0.0404922
-0.0413031
-0.0421189
-0.0429396
-0.0437655
-0.0445965
-0.0454328
-0.0462745
-0.0471218
-0.0479748
-0.0488336
-0.0496983
-0.0505691
-0.0514462
-0.0523298
-0.0532199
-0.0541168
-0.0550206
-0.0559316
-0.0568499
-0.0577757
-0.0587094
-0.059651
-0.0606008
-0.0615592
-0.0625262
-0.0635022
-0.0644875
-0.0654824
-0.066487
-0.0675018
-0.068527
-0.0695629
-0.0706099
-0.0716682
-0.072738
-0.0738197
-0.0749134
-0.0760193
-0.0771375
-0.0782679
-0.0794103
-0.0805643
-0.0817292
-0.0829037
-0.0840864
-0.0852748
-0.0864657
-0.0876545
-0.0888356
-0.090001
-0.0911411
-0.0922435
-0.0932932
-0.0942729
-0.0951628
-0.095942
-0.0965902
-0.0970895
-0.0103192
-0.0111523
-0.0119105
-0.0125929
-0.0132759
-0.0139628
-0.0146475
-0.0153308
-0.0160145
-0.0166995
-0.0173864
-0.0180757
-0.0187678
-0.0194631
-0.0201617
-0.0208639
-0.0215695
-0.0222788
-0.0229918
-0.0237085
-0.0244289
-0.025153
-0.0258809
-0.0266125
-0.0273479
-0.028087
-0.02883
-0.0295768
-0.0303274
-0.031082
-0.0318404
-0.0326029
-0.0333694
-0.0341399
-0.0349146
-0.0356934
-0.0364766
-0.037264
-0.0380559
-0.0388522
-0.0396531
-0.0404586
-0.0412688
-0.0420839
-0.0429039
-0.0437289
-0.044559
-0.0453943
-0.046235
-0.0470812
-0.047933
-0.0487905
-0.0496539
-0.0505232
-0.0513987
-0.0522806
-0.0531688
-0.0540637
-0.0549654
-0.0558741
-0.0567899
-0.0577131
-0.0586438
-0.0595823
-0.0605288
-0.0614834
-0.0624464
-0.063418
-0.0643985
-0.0653881
-0.0663871
-0.0673956
-0.0684138
-0.0694421
-0.0704806
-0.0715295
-0.072589
-0.073659
-0.0747398
-0.0758312
-0.0769331
-0.0780452
-0.079167
-0.0802977
-0.0814362
-0.0825809
-0.0837299
-0.0848802
-0.0860281
-0.087169
-0.0882967
-0.0894034
-0.0904797
-0.0915143
-0.0924938
-0.093403
-0.0942257
-0.0949448
-0.0955445
-0.0960113
-0.0102449
-0.0110783
-0.0118384
-0.0125224
-0.0132076
-0.0138977
-0.0145858
-0.0152725
-0.0159593
-0.0166473
-0.0173368
-0.0180284
-0.0187226
-0.0194196
-0.0201197
-0.020823
-0.0215297
-0.0222398
-0.0229534
-0.0236706
-0.0243914
-0.0251159
-0.0258439
-0.0265757
-0.0273111
-0.0280503
-0.0287932
-0.0295399
-0.0302903
-0.0310447
-0.0318029
-0.032565
-0.0333312
-0.0341013
-0.0348755
-0.0356539
-0.0364365
-0.0372234
-0.0380146
-0.0388102
-0.0396103
-0.040415
-0.0412244
-0.0420385
-0.0428575
-0.0436815
-0.0445104
-0.0453446
-0.0461839
-0.0470287
-0.047879
-0.0487349
-0.0495965
-0.050464
-0.0513376
-0.0522173
-0.0531033
-0.0539957
-0.0548948
-0.0558007
-0.0567135
-0.0576334
-0.0585607
-0.0594954
-0.0604377
-0.0613879
-0.0623462
-0.0633126
-0.0642875
-0.0652709
-0.0662632
-0.0672643
-0.0682746
-0.0692941
-0.0703229
-0.0713612
-0.0724088
-0.0734659
-0.0745322
-0.0756076
-0.0766916
-0.0777838
-0.0788833
-0.0799891
-0.0810998
-0.0822135
-0.0833278
-0.0844396
-0.0855449
-0.0866387
-0.0877149
-0.0887662
-0.0897836
-0.0907567
-0.0916738
-0.0925219
-0.0932873
-0.0939565
-0.0945169
-0.0949581
-0.0101662
-0.0110001
-0.0117619
-0.012447
-0.0131342
-0.0138269
-0.0145179
-0.0152074
-0.0158971
-0.0165877
-0.0172797
-0.0179736
-0.0186697
-0.0193683
-0.0200698
-0.0207743
-0.021482
-0.0221929
-0.0229072
-0.0236249
-0.0243461
-0.0250708
-0.0257991
-0.0265309
-0.0272663
-0.0280054
-0.0287482
-0.0294947
-0.0302449
-0.030999
-0.0317568
-0.0325185
-0.0332842
-0.0340538
-0.0348275
-0.0356052
-0.0363871
-0.0371732
-0.0379636
-0.0387583
-0.0395575
-0.0403612
-0.0411695
-0.0419825
-0.0428002
-0.0436228
-0.0444504
-0.045283
-0.0461208
-0.0469638
-0.0478123
-0.0486662
-0.0495258
-0.0503911
-0.0512622
-0.0521394
-0.0530227
-0.0539123
-0.0548083
-0.0557108
-0.0566201
-0.0575362
-0.0584594
-0.0593897
-0.0603273
-0.0612724
-0.0622251
-0.0631856
-0.064154
-0.0651305
-0.0661151
-0.067108
-0.0681092
-0.0691188
-0.0701369
-0.0711633
-0.072198
-0.0732407
-0.0742913
-0.0753493
-0.0764142
-0.0774851
-0.0785612
-0.079641
-0.080723
-0.081805
-0.0828843
-0.0839577
-0.085021
-0.0860694
-0.0870967
-0.0880961
-0.0890593
-0.0899769
-0.0908387
-0.0916336
-0.0923502
-0.0929775
-0.0935056
-0.0939264
-0.0100824
-0.0109168
-0.0116803
-0.0123663
-0.013055
-0.0137499
-0.0144434
-0.0151355
-0.0158277
-0.0165207
-0.017215
-0.0179108
-0.0186087
-0.019309
-0.0200119
-0.0207175
-0.0214262
-0.0221379
-0.0228528
-0.023571
-0.0242926
-0.0250175
-0.0257459
-0.0264778
-0.0272132
-0.0279522
-0.0286947
-0.0294409
-0.0301908
-0.0309444
-0.0317018
-0.032463
-0.0332281
-0.033997
-0.03477
-0.0355469
-0.0363279
-0.0371131
-0.0379025
-0.0386962
-0.0394943
-0.0402967
-0.0411037
-0.0419153
-0.0427316
-0.0435526
-0.0443785
-0.0452093
-0.0460452
-0.0468862
-0.0477325
-0.0485841
-0.0494413
-0.050304
-0.0511724
-0.0520466
-0.0529268
-0.053813
-0.0547055
-0.0556042
-0.0565094
-0.0574212
-0.0583396
-0.0592649
-0.0601971
-0.0611365
-0.062083
-0.0630367
-0.0639979
-0.0649665
-0.0659427
-0.0669264
-0.0679176
-0.0689164
-0.0699226
-0.0709362
-0.0719568
-0.0729842
-0.0740179
-0.0750575
-0.0761021
-0.0771509
-0.0782026
-0.0792558
-0.0803085
-0.0813586
-0.0824031
-0.0834388
-0.0844614
-0.0854663
-0.0864475
-0.0873987
-0.0883122
-0.0891798
-0.0899926
-0.0907411
-0.0914158
-0.0920077
-0.0925089
-0.0929132
-0.00999288
-0.0108278
-0.011593
-0.0122798
-0.0129697
-0.0136665
-0.0143621
-0.0150564
-0.0157508
-0.016446
-0.0171423
-0.01784
-0.0185396
-0.0192414
-0.0199456
-0.0206523
-0.0213619
-0.0220744
-0.0227899
-0.0235086
-0.0242305
-0.0249556
-0.0256841
-0.026416
-0.0271513
-0.0278901
-0.0286324
-0.0293782
-0.0301277
-0.0308808
-0.0316376
-0.0323982
-0.0331625
-0.0339307
-0.0347027
-0.0354787
-0.0362587
-0.0370428
-0.0378311
-0.0386235
-0.0394202
-0.0402212
-0.0410267
-0.0418367
-0.0426512
-0.0434704
-0.0442943
-0.0451231
-0.0459568
-0.0467955
-0.0476393
-0.0484883
-0.0493427
-0.0502024
-0.0510677
-0.0519386
-0.0528152
-0.0536976
-0.054586
-0.0554805
-0.0563811
-0.0572879
-0.0582011
-0.0591208
-0.0600471
-0.06098
-0.0619195
-0.0628659
-0.0638191
-0.0647791
-0.065746
-0.0667197
-0.0677001
-0.0686872
-0.0696807
-0.0706804
-0.0716861
-0.0726972
-0.0737132
-0.0747335
-0.0757571
-0.076783
-0.0778098
-0.0788359
-0.0798593
-0.0808776
-0.0818879
-0.0828869
-0.0838704
-0.0848339
-0.0857719
-0.0866784
-0.0875467
-0.0883693
-0.0891386
-0.0898464
-0.0904849
-0.0910467
-0.0915254
-0.0919161
-0.00989721
-0.0107328
-0.0114995
-0.012187
-0.0128778
-0.0135762
-0.0142737
-0.0149699
-0.0156663
-0.0163634
-0.0170615
-0.017761
-0.0184621
-0.0191653
-0.0198707
-0.0205785
-0.021289
-0.0220022
-0.0227183
-0.0234374
-0.0241596
-0.0248849
-0.0256134
-0.0263453
-0.0270804
-0.0278189
-0.0285609
-0.0293063
-0.0300552
-0.0308078
-0.0315639
-0.0323236
-0.0330871
-0.0338544
-0.0346254
-0.0354003
-0.0361792
-0.036962
-0.0377489
-0.0385399
-0.039335
-0.0401344
-0.0409382
-0.0417463
-0.0425588
-0.0433759
-0.0441977
-0.0450241
-0.0458553
-0.0466914
-0.0475324
-0.0483785
-0.0492297
-0.0500861
-0.0509478
-0.051815
-0.0526876
-0.0535658
-0.0544497
-0.0553394
-0.0562349
-0.0571364
-0.0580438
-0.0589573
-0.059877
-0.0608028
-0.0617349
-0.0626732
-0.0636177
-0.0645684
-0.0655253
-0.0664882
-0.067457
-0.0684316
-0.0694116
-0.0703968
-0.0713867
-0.0723808
-0.0733784
-0.0743787
-0.0753807
-0.0763833
-0.077385
-0.0783839
-0.0793782
-0.0803652
-0.0813421
-0.0823056
-0.0832518
-0.0841762
-0.0850739
-0.0859393
-0.0867663
-0.0875485
-0.088279
-0.0889511
-0.0895582
-0.0900941
-0.0905538
-0.0909332
-0.00979501
-0.0106313
-0.0113995
-0.0120874
-0.0127792
-0.0134789
-0.014178
-0.0148758
-0.015574
-0.0162728
-0.0169725
-0.0176735
-0.0183761
-0.0190806
-0.0197871
-0.0204959
-0.0212072
-0.0219211
-0.0226377
-0.0233572
-0.0240796
-0.0248051
-0.0255336
-0.0262653
-0.0270002
-0.0277384
-0.02848
-0.0292249
-0.0299732
-0.030725
-0.0314803
-0.0322392
-0.0330018
-0.0337679
-0.0345378
-0.0353115
-0.036089
-0.0368704
-0.0376558
-0.0384451
-0.0392386
-0.0400361
-0.0408379
-0.0416439
-0.0424542
-0.043269
-0.0440883
-0.0449121
-0.0457405
-0.0465736
-0.0474116
-0.0482544
-0.0491021
-0.0499548
-0.0508127
-0.0516757
-0.0525439
-0.0534175
-0.0542965
-0.0551809
-0.0560709
-0.0569664
-0.0578676
-0.0587744
-0.0596869
-0.0606051
-0.061529
-0.0624586
-0.0633939
-0.0643346
-0.0652808
-0.0662323
-0.0671889
-0.0681503
-0.0691162
-0.0700861
-0.0710596
-0.0720361
-0.0730148
-0.0739947
-0.0749749
-0.0759539
-0.0769304
-0.0779024
-0.0788678
-0.0798243
-0.0807689
-0.0816984
-0.0826091
-0.0834968
-0.084357
-0.0851845
-0.0859739
-0.0867196
-0.0874156
-0.0880562
-0.0886359
-0.0891495
-0.0895928
-0.0899627
-0.00968599
-0.0105229
-0.0112926
-0.011981
-0.0126734
-0.0133744
-0.0140748
-0.0147741
-0.0154737
-0.016174
-0.0168752
-0.0175777
-0.0182816
-0.0189872
-0.0196947
-0.0204044
-0.0211165
-0.021831
-0.022548
-0.0232678
-0.0239905
-0.024716
-0.0254445
-0.026176
-0.0269106
-0.0276484
-0.0283895
-0.0291338
-0.0298814
-0.0306324
-0.0313868
-0.0321447
-0.0329061
-0.0336711
-0.0344397
-0.035212
-0.0359881
-0.0367679
-0.0375515
-0.038339
-0.0391305
-0.039926
-0.0407256
-0.0415293
-0.0423372
-0.0431494
-0.0439659
-0.0447869
-0.0456122
-0.0464422
-0.0472767
-0.0481159
-0.0489598
-0.0498085
-0.0506621
-0.0515206
-0.0523841
-0.0532526
-0.0541262
-0.055005
-0.0558889
-0.0567781
-0.0576724
-0.0585721
-0.0594769
-0.060387
-0.0613022
-0.0622226
-0.0631479
-0.0640782
-0.0650132
-0.0659526
-0.0668964
-0.067844
-0.0687952
-0.0697494
-0.0707061
-0.0716645
-0.0726239
-0.0735832
-0.0745413
-0.0754968
-0.0764482
-0.0773936
-0.0783309
-0.0792577
-0.0801712
-0.0810682
-0.0819453
-0.0827987
-0.0836239
-0.0844166
-0.0851718
-0.0858846
-0.0865498
-0.0871625
-0.0877181
-0.0882123
-0.0886416
-0.0890035
-0.0095699
-0.0104076
-0.0111786
-0.0118674
-0.0125604
-0.0132624
-0.0139639
-0.0146645
-0.0153654
-0.0160671
-0.0167696
-0.0174732
-0.0181783
-0.0188849
-0.0195934
-0.0203039
-0.0210166
-0.0217317
-0.0224491
-0.0231692
-0.0238919
-0.0246175
-0.0253458
-0.0260771
-0.0268114
-0.0275487
-0.0282892
-0.0290328
-0.0297796
-0.0305297
-0.0312831
-0.0320399
-0.0328001
-0.0335638
-0.034331
-0.0351017
-0.0358761
-0.0366541
-0.0374359
-0.0382214
-0.0390108
-0.039804
-0.0406012
-0.0414024
-0.0422077
-0.043017
-0.0438306
-0.0446483
-0.0454704
-0.0462968
-0.0471276
-0.0479629
-0.0488027
-0.049647
-0.050496
-0.0513496
-0.052208
-0.0530711
-0.0539389
-0.0548116
-0.0556891
-0.0565715
-0.0574586
-0.0583506
-0.0592473
-0.0601487
-0.0610548
-0.0619654
-0.0628804
-0.0637996
-0.0647228
-0.0656498
-0.0665802
-0.0675136
-0.0684497
-0.0693877
-0.0703272
-0.0712673
-0.0722072
-0.0731457
-0.0740818
-0.075014
-0.0759407
-0.07686
-0.0777699
-0.078668
-0.0795516
-0.0804178
-0.0812633
-0.0820844
-0.0828773
-0.083638
-0.084362
-0.085045
-0.0856826
-0.0862706
-0.0868049
-0.0872821
-0.0876993
-0.0880543
-0.00944657
-0.0102849
-0.0110572
-0.0117464
-0.0124399
-0.0131427
-0.0138454
-0.0145471
-0.0152491
-0.0159519
-0.0166555
-0.0173603
-0.0180663
-0.0187739
-0.0194832
-0.0201944
-0.0209077
-0.0216231
-0.0223409
-0.0230612
-0.023784
-0.0245094
-0.0252376
-0.0259686
-0.0267024
-0.0274392
-0.028179
-0.0289218
-0.0296678
-0.0304169
-0.0311692
-0.0319247
-0.0326836
-0.0334458
-0.0342114
-0.0349805
-0.035753
-0.0365292
-0.0373089
-0.0380922
-0.0388793
-0.0396701
-0.0404647
-0.0412631
-0.0420655
-0.0428718
-0.0436821
-0.0444965
-0.0453149
-0.0461375
-0.0469644
-0.0477954
-0.0486308
-0.0494704
-0.0503145
-0.0511629
-0.0520158
-0.052873
-0.0537348
-0.054601
-0.0554717
-0.0563468
-0.0572263
-0.0581101
-0.0589983
-0.0598907
-0.0607871
-0.0616875
-0.0625917
-0.0634994
-0.0644105
-0.0653245
-0.0662412
-0.0671601
-0.0680807
-0.0690023
-0.0699244
-0.070846
-0.0717663
-0.0726841
-0.0735983
-0.0745074
-0.0754098
-0.0763037
-0.0771871
-0.0780576
-0.0789127
-0.0797496
-0.0805653
-0.0813563
-0.0821193
-0.0828505
-0.0835461
-0.0842022
-0.084815
-0.0853809
-0.0858964
-0.0863586
-0.0867652
-0.0871143
-0.00931586
-0.0101549
-0.0109285
-0.011618
-0.0123118
-0.0130155
-0.013719
-0.0144216
-0.0151246
-0.0158284
-0.0165331
-0.0172387
-0.0179457
-0.018654
-0.019364
-0.0200758
-0.0207896
-0.0215054
-0.0222234
-0.0229438
-0.0236666
-0.0243919
-0.0251198
-0.0258504
-0.0265837
-0.0273198
-0.0280589
-0.0288008
-0.0295458
-0.0302937
-0.0310448
-0.031799
-0.0325564
-0.0333171
-0.034081
-0.0348482
-0.0356188
-0.0363929
-0.0371704
-0.0379514
-0.0387359
-0.0395241
-0.0403159
-0.0411114
-0.0419106
-0.0427137
-0.0435205
-0.0443312
-0.0451458
-0.0459644
-0.046787
-0.0476135
-0.0484441
-0.0492788
-0.0501176
-0.0509605
-0.0518075
-0.0526587
-0.053514
-0.0543733
-0.0552368
-0.0561043
-0.0569758
-0.0578512
-0.0587304
-0.0596133
-0.0604997
-0.0613895
-0.0622825
-0.0631784
-0.0640769
-0.0649777
-0.0658804
-0.0667844
-0.0676893
-0.0685943
-0.0694988
-0.0704019
-0.0713027
-0.0722
-0.0730925
-0.073979
-0.0748577
-0.0757269
-0.0765847
-0.0774287
-0.0782567
-0.0790659
-0.0798535
-0.0806166
-0.0813518
-0.082056
-0.0827255
-0.0833572
-0.0839477
-0.0844937
-0.0849925
-0.0854415
-0.0858387
-0.0861828
-0.0091777
-0.0100174
-0.0107922
-0.0114819
-0.0121761
-0.0128805
-0.0135848
-0.0142882
-0.0149921
-0.0156967
-0.0164022
-0.0171087
-0.0178163
-0.0185254
-0.019236
-0.0199483
-0.0206624
-0.0213785
-0.0220966
-0.022817
-0.0235397
-0.0242648
-0.0249923
-0.0257224
-0.0264552
-0.0271906
-0.0279288
-0.0286698
-0.0294136
-0.0301604
-0.0309101
-0.0316629
-0.0324187
-0.0331776
-0.0339397
-0.034705
-0.0354735
-0.0362453
-0.0370204
-0.0377989
-0.0385808
-0.0393661
-0.0401549
-0.0409473
-0.0417432
-0.0425427
-0.0433459
-0.0441527
-0.0449632
-0.0457775
-0.0465955
-0.0474173
-0.0482429
-0.0490723
-0.0499056
-0.0507426
-0.0515835
-0.0524282
-0.0532767
-0.0541289
-0.0549848
-0.0558444
-0.0567075
-0.0575741
-0.058444
-0.0593171
-0.0601932
-0.0610721
-0.0619536
-0.0628373
-0.063723
-0.0646103
-0.0654987
-0.0663877
-0.0672767
-0.068165
-0.069052
-0.0699366
-0.070818
-0.071695
-0.0725663
-0.0734306
-0.0742862
-0.0751316
-0.0759647
-0.0767834
-0.0775856
-0.0783687
-0.07913
-0.0798669
-0.0805765
-0.0812557
-0.0819015
-0.082511
-0.0830812
-0.0836094
-0.0840932
-0.0845305
-0.0849195
-0.0852591
-0.00903203
-0.00987237
-0.0106483
-0.0113383
-0.0120328
-0.0127377
-0.0134427
-0.0141468
-0.0148514
-0.0155568
-0.0162629
-0.0169701
-0.0176784
-0.018388
-0.0190991
-0.0198117
-0.0205261
-0.0212424
-0.0219606
-0.0226809
-0.0234034
-0.0241282
-0.0248553
-0.0255848
-0.0263169
-0.0270515
-0.0277887
-0.0285287
-0.0292713
-0.0300168
-0.0307651
-0.0315163
-0.0322704
-0.0330275
-0.0337876
-0.0345507
-0.035317
-0.0360864
-0.036859
-0.0376348
-0.0384138
-0.0391961
-0.0399818
-0.0407708
-0.0415632
-0.042359
-0.0431583
-0.043961
-0.0447672
-0.0455769
-0.0463902
-0.0472069
-0.0480273
-0.0488512
-0.0496786
-0.0505095
-0.051344
-0.0521819
-0.0530233
-0.0538681
-0.0547162
-0.0555675
-0.0564219
-0.0572794
-0.0581397
-0.0590027
-0.0598681
-0.0607359
-0.0616056
-0.062477
-0.0633496
-0.0642232
-0.0650972
-0.065971
-0.0668441
-0.0677158
-0.0685852
-0.0694515
-0.0703137
-0.0711707
-0.0720213
-0.072864
-0.0736973
-0.0745196
-0.0753291
-0.0761237
-0.0769014
-0.0776598
-0.0783965
-0.079109
-0.0797948
-0.080451
-0.081075
-0.0816642
-0.0822161
-0.0827283
-0.0831987
-0.0836254
-0.0840071
-0.0843428
-0.00887887
-0.00971985
-0.0104969
-0.0111871
-0.0118818
-0.0125872
-0.0132928
-0.0139975
-0.0147027
-0.0154087
-0.0161154
-0.0168232
-0.017532
-0.018242
-0.0189534
-0.0196664
-0.0203809
-0.0210973
-0.0218154
-0.0225356
-0.0232578
-0.0239822
-0.0247088
-0.0254376
-0.0261689
-0.0269026
-0.0276388
-0.0283776
-0.029119
-0.029863
-0.0306098
-0.0313593
-0.0321116
-0.0328667
-0.0336247
-0.0343856
-0.0351495
-0.0359164
-0.0366863
-0.0374592
-0.0382352
-0.0390144
-0.0397967
-0.0405822
-0.0413708
-0.0421627
-0.0429579
-0.0437563
-0.0445579
-0.0453629
-0.0461712
-0.0469827
-0.0477975
-0.0486156
-0.049437
-0.0502616
-0.0510893
-0.0519203
-0.0527543
-0.0535913
-0.0544313
-0.0552741
-0.0561196
-0.0569676
-0.0578181
-0.0586707
-0.0595254
-0.0603817
-0.0612394
-0.0620982
-0.0629577
-0.0638175
-0.064677
-0.0655356