/*--------------------------------*- C++ -*----------------------------------*\
| =========                 |                                                 |
| \\      /  F ield         | OpenFOAM: The Open Source CFD Toolbox           |
|  \\    /   O peration     | Version:  2406                                  |
|   \\  /    A nd           | Website:  www.openfoam.com                      |
|    \\/     M anipulation  |                                                 |
\*---------------------------------------------------------------------------*/
FoamFile
{
    version     2.0;
    format      ascii;
    arch        "LSB;label=32;scalar=64";
    class       surfaceScalarField;
    location    "24";
    object      phi;
}
// * * * * * * * * * * * * * * * * * * * * * * * * * * * * * * * * * * * * * //

dimensions      [0 3 -1 0 0 0 0];

oriented        oriented;

internalField   nonuniform List<scalar> 
3270
(
0.0193377
-0.000337713
0.0196898
-0.000352122
0.0200037
-0.000313887
0.020353
-0.000349279
0.0208033
-0.000450374
0.0214462
-0.000642988
0.0224533
-0.00100714
0.0241671
-0.00171387
0.0274737
-0.00330657
-0.00817534
0.0356489
0.0510037
-0.000341391
0.0512766
-0.000625067
0.0517064
-0.000743704
0.0522779
-0.000920914
0.0530425
-0.00121505
0.05409
-0.00169064
0.0555649
-0.00248213
0.0576936
-0.00384273
0.060692
-0.00630503
-0.0109373
0.0634539
0.0749838
-0.000325205
0.075117
-0.000758275
0.0754343
-0.00106104
0.0759195
-0.00140629
0.0765893
-0.00188496
0.0774806
-0.00258207
0.0786323
-0.00363386
0.0800399
-0.00525042
0.0814784
-0.00774363
-0.0114872
0.0820281
0.0909733
-0.000298543
0.090993
-0.000777927
0.0911251
-0.00119329
0.0913717
-0.001653
0.0917264
-0.00223974
0.0921794
-0.00303525
0.0926937
-0.00414823
0.0931598
-0.0057165
0.0933072
-0.00789105
-0.0107645
0.0925845
0.0989458
-0.000244373
0.0988554
-0.000687565
0.098792
-0.00112997
0.0987615
-0.00162257
0.0987432
-0.00222158
0.0987007
-0.00299283
0.0985639
-0.00401145
0.0982028
-0.00535537
0.0973967
-0.00708496
-0.00919058
0.0958228
0.0989074
-0.000151785
0.0987123
-0.00049252
0.0984786
-0.0008963
0.0982057
-0.00134973
0.0978622
-0.00187819
0.0973995
-0.00253017
0.0967403
-0.00335224
0.0957673
-0.00438236
0.0943191
-0.00563668
-0.00707868
0.0922073
0.0908656
-1.73291e-05
0.090594
-0.000220968
0.0902529
-0.000555234
0.0898245
-0.000921448
0.089269
-0.00132276
0.0885347
-0.00179596
0.0875503
-0.00236775
0.0862218
-0.00305384
0.0844388
-0.00385368
-0.00473448
0.0820946
0.074833
0.000149634
0.0745622
4.98793e-05
0.0742221
-0.000215128
0.0737655
-0.000464931
0.0731523
-0.00070971
0.0723379
-0.000981617
0.0712656
-0.00129549
0.069869
-0.00165719
0.0680793
-0.00206395
-0.00249683
0.0658416
0.0508655
0.000284195
0.0507541
0.000161259
0.0505503
-1.1405e-05
0.0502081
-0.000122792
0.0497113
-0.000212962
0.0490345
-0.000304859
0.0481447
-0.000405738
0.0470046
-0.000517042
0.0455784
-0.000637748
-0.000762326
0.0438438
0.0192842
0.0194455
0.019434
0.0193112
0.0190983
0.0187934
0.0183877
0.0178706
0.0172329
0.0164706
-0.000140665
0.000140785
-0.000412178
0.000271786
-0.000668327
0.000256404
-0.000813406
0.000145298
-0.000806365
-6.85207e-06
-0.00064245
-0.000163747
-0.000338356
-0.000303938
7.85644e-05
-0.000416774
0.000577469
-0.000498762
0.00112836
-0.000550752
0.00170465
-0.000576166
0.00228448
-0.000579707
0.00285117
-0.000566568
0.00339313
-0.000541868
0.00390359
-0.000510365
0.00437993
-0.000476268
0.00482319
-0.000443206
0.00523747
-0.000414239
0.00562944
-0.000391951
0.00600799
-0.000378546
0.00638394
-0.000375969
0.00676992
-0.000386011
0.00718027
-0.000410396
0.007631
-0.000450793
0.0081397
-0.000508766
0.00872517
-0.000585542
0.00940671
-0.000681617
0.0102026
-0.000796
0.0111277
-0.000925187
0.0121894
-0.00106169
0.0133819
-0.0011926
0.0146803
-0.00129847
0.0160344
-0.00135411
0.0173671
-0.00133271
-0.00121486
0.0185819
-0.000300656
0.000441703
-0.00079435
0.000766223
-0.00119558
0.000658283
-0.0013321
0.000282385
-0.00113046
-0.000208001
-0.000587308
-0.000706456
0.000258197
-0.00114905
0.00134553
-0.00150374
0.0026073
-0.00176018
0.00397846
-0.00192159
0.00540158
-0.00199898
0.00682942
-0.00200727
0.00822584
-0.00196273
0.00956566
-0.00188146
0.0108339
-0.00177838
0.0120246
-0.00166684
0.0131399
-0.00155842
0.0141888
-0.00146306
0.0151861
-0.0013892
0.0161517
-0.00134418
0.0171102
-0.00133447
0.0180901
-0.001366
0.019124
-0.0014444
0.020248
-0.00157498
0.0215016
-0.00176257
0.0229267
-0.00201078
0.0245658
-0.00232086
0.0264591
-0.00268948
0.0286393
-0.00310563
0.031124
-0.00354649
0.033904
-0.0039728
0.0369308
-0.00432541
0.0401032
-0.00452662
0.0432617
-0.00449124
-0.00415355
0.0462003
-0.000356561
0.000798583
-0.000863224
0.00127355
-0.0011603
0.000955987
-0.0010605
0.00018312
-0.000500886
-0.000767144
0.000500097
-0.00170704
0.00187796
-0.00252656
0.00354764
-0.00317311
0.00542012
-0.00363238
0.00741242
-0.00391364
0.00945285
-0.00403919
0.0114834
-0.00403764
0.0134604
-0.00393949
0.0153536
-0.00377452
0.0171456
-0.00357027
0.0188303
-0.00335135
0.0204112
-0.00313923
0.0219006
-0.0029524
0.0233182
-0.00280678
0.0246902
-0.00271622
0.0260488
-0.00269305
0.0274314
-0.00274863
0.0288805
-0.0028936
0.0304435
-0.00313807
0.032172
-0.00349118
0.0341211
-0.00395999
0.0363474
-0.00454736
0.0389061
-0.00524828
0.0418445
-0.00604429
0.0451937
-0.00689581
0.0489535
-0.00773281
0.0530746
-0.00844665
0.0574364
-0.00888851
0.0618319
-0.00888687
-0.00829754
0.0659759
-0.000343087
0.00114187
-0.00070293
0.00163406
-0.000690775
0.000944381
-0.000151946
-0.00035525
0.000925895
-0.00184459
0.00247902
-0.00325985
0.00441001
-0.00445727
0.00661288
-0.00537574
0.00898713
-0.00600642
0.0114448
-0.00637113
0.0139134
-0.00650764
0.0163365
-0.00646059
0.0186731
-0.00627592
0.0208962
-0.00599757
0.0229919
-0.00566584
0.0249571
-0.00531649
0.0267987
-0.00498076
0.028532
-0.00468562
0.0301797
-0.00445443
0.0317711
-0.00430764
0.0333417
-0.00426361
0.0349324
-0.00433934
0.0365897
-0.00455094
0.0383655
-0.00491391
0.0403168
-0.00544261
0.0425057
-0.00614896
0.0449978
-0.0070396
0.0478602
-0.00811088
0.0511566
-0.00934084
0.0549378
-0.0106772
0.059226
-0.0120212
0.0639891
-0.0132099
0.0691055
-0.014005
0.0743274
-0.014109
-0.0132464
0.0792763
-0.000275256
0.00141742
-0.000324538
0.00168375
0.000218505
0.00040173
0.00141182
-0.0015482
0.00317304
-0.00360553
0.00537304
-0.00545958
0.00787837
-0.00696239
0.0105689
-0.00806605
0.013344
-0.00878142
0.0161237
-0.00915066
0.0188468
-0.00923062
0.0214692
-0.00908286
0.0239614
-0.00876806
0.0263069
-0.00834293
0.0284998
-0.00785863
0.0305437
-0.00736034
0.0324503
-0.00688731
0.0342383
-0.00647351
0.0359323
-0.00614843
0.0375628
-0.0059381
0.0391654
-0.00586612
0.0407807
-0.00595459
0.0424546
-0.00622491
0.0442388
-0.00669811
0.0461908
-0.00739467
0.0483749
-0.00833309
0.0508622
-0.00952699
0.0537303
-0.0109791
0.0570607
-0.0126713
0.0609308
-0.0145475
0.0653978
-0.0164882
0.0704638
-0.0182761
0.0760202
-0.0195615
0.0817712
-0.0198598
-0.0186665
0.0871913
-0.000123089
0.00154054
0.000369729
0.00119121
0.00172961
-0.000957918
0.00382243
-0.00364084
0.00642614
-0.00620905
0.00933963
-0.00837291
0.0124045
-0.0100271
0.0155034
-0.0111648
0.0185526
-0.0118305
0.0214946
-0.0120925
0.0242915
-0.0120274
0.0269207
-0.0117119
0.0293712
-0.0112186
0.0316418
-0.0106134
0.0337384
-0.00995512
0.0356733
-0.00929517
0.037464
-0.00867795
0.0391324
-0.00814192
0.0407046
-0.00772054
0.0422102
-0.00744362
0.0436826
-0.00733849
0.0451593
-0.00743124
0.0466822
-0.00774775
0.0482985
-0.00831439
0.050062
-0.00915819
0.0520348
-0.010306
0.0542894
-0.0117816
0.0569107
-0.0136004
0.0599968
-0.0157575
0.0636555
-0.0182062
0.0679887
-0.0208215
0.0730522
-0.0233396
0.0787703
-0.0252795
0.0847927
-0.0258825
-0.0242313
0.0903576
0.000223623
0.00131701
0.00165599
-0.000241207
0.00422906
-0.003531
0.0074798
-0.00689156
0.0110303
-0.00975951
0.0146391
-0.0119817
0.018161
-0.013549
0.021513
-0.0145167
0.0246512
-0.0149686
0.0275559
-0.0149972
0.0302226
-0.0146941
0.0326566
-0.0141458
0.0348693
-0.0134312
0.0368768
-0.0126208
0.0386981
-0.0117764
0.0403545
-0.0109515
0.0418689
-0.0101924
0.0432659
-0.00953884
0.0445713
-0.00902583
0.0458124
-0.00868462
0.0470183
-0.00854437
0.0482207
-0.00863359
0.0494544
-0.00898136
0.0507586
-0.00961854
0.0521789
-0.0105784
0.0537699
-0.0118969
0.0555988
-0.0136105
0.0577505
-0.0157521
0.0603325
-0.0183395
0.0634779
-0.0213516
0.0673356
-0.0246794
0.0720313
-0.0280353
0.0775534
-0.0308021
0.0835157
-0.0318451
-0.0295292
0.0888133
0.00102406
0.000292844
0.00416178
-0.00337913
0.00845861
-0.007828
0.0130324
-0.0114655
0.0174609
-0.014188
0.0215684
-0.0160893
0.0252932
-0.0172739
0.0286277
-0.0178512
0.0315892
-0.0179302
0.0342064
-0.0176144
0.036512
-0.0169997
0.0385396
-0.0161735
0.0403227
-0.0152142
0.0418929
-0.014191
0.0432806
-0.013164
0.044514
-0.0121849
0.0456198
-0.0112981
0.046623
-0.010542
0.0475474
-0.00995015
0.048416
-0.00955315
0.0492517
-0.00937994
0.0500777
-0.00945954
0.050919
-0.00982254
0.0518032
-0.0105027
0.0527629
-0.0115381
0.0538385
-0.0129724
0.0550827
-0.0148545
0.0565666
-0.017236
0.0583893
-0.0201622
0.0606873
-0.0236497
0.0636388
-0.0276311
0.0674385
-0.0318355
0.0721797
-0.0355439
0.0775007
-0.0371666
-0.0338746
0.0818455
0.00324272
-0.00294997
0.00943205
-0.00956878
0.0157299
-0.0141261
0.0213566
-0.0170925
0.0262024
-0.019034
0.0303184
-0.0202054
0.0337915
-0.020747
0.0367099
-0.0207697
0.0391541
-0.0203744
0.0411953
-0.0196556
0.0428963
-0.0187006
0.0443122
-0.0175894
0.0454914
-0.0163935
0.0464763
-0.0151759
0.0473033
-0.013991
0.048004
-0.0128855
0.0486052
-0.0118992
0.0491295
-0.0110663
0.0495964
-0.010417
0.0500224
-0.00997909
0.050422
-0.00977941
0.0508081
-0.00984559
0.0511934
-0.0102077
0.0515908
-0.0109
0.0520155
-0.0119626
0.0524862
-0.0134431
0.0530291
-0.0153974
0.0536826
-0.0178894
0.0545051
-0.0209848
0.055588
-0.0247325
0.0570713
-0.0291147
0.0591553
-0.0339198
0.0620551
-0.0384443
0.0656668
-0.040779
-0.0360921
0.0678841
0.011996
-0.0149462
0.0211086
-0.0186818
0.0279265
-0.0209443
0.0332347
-0.022401
0.0374168
-0.0232162
0.040719
-0.0235077
0.0433177
-0.0233458
0.0453454
-0.0227975
0.0469073
-0.0219363
0.0480898
-0.0208382
0.0489663
-0.0195771
0.0495989
-0.018222
0.0500404
-0.0168351
0.0503352
-0.0154706
0.0505196
-0.0141754
0.0506229
-0.0129888
0.0506681
-0.0119444
0.0506724
-0.0110706
0.0506481
-0.0103927
0.0506034
-0.00993427
0.0505426
-0.00971853
0.0504671
-0.00977006
0.0503758
-0.0101163
0.0502652
-0.0107893
0.0501296
-0.011827
0.0499614
-0.0132748
0.0497503
-0.0151861
0.0494821
-0.0176211
0.0491371
-0.0206397
0.0486877
-0.0242831
0.0480974
-0.0285246
0.0473281
-0.0331511
0.0463611
-0.0374777
0.0452887
-0.0397067
-0.0346954
0.043892
0.0385259
-0.0178234
0.0421254
-0.0222816
0.0453771
-0.0241963
0.0481002
-0.0251243
0.0502694
-0.0253856
0.0518997
-0.0251381
0.0530457
-0.0244919
0.053778
-0.0235299
0.0541687
-0.022327
0.0542855
-0.0209552
0.0541904
-0.019482
0.0539374
-0.0179691
0.0535727
-0.0164704
0.0531341
-0.0150321
0.0526515
-0.0136928
0.052147
-0.0124843
0.0516357
-0.0114331
0.0511266
-0.0105614
0.0506227
-0.00988879
0.0501223
-0.00943383
0.049619
-0.00921522
0.0491023
-0.00925328
0.0485572
-0.00957117
0.0479641
-0.0101961
0.0472972
-0.0111601
0.0465226
-0.0125001
0.0455929
-0.0142564
0.0444391
-0.0164672
0.0429542
-0.0191547
0.0409633
-0.0222922
0.0381701
-0.0257315
0.0340625
-0.0290435
0.0277423
-0.0311575
0.0174611
-0.0294252
-0.0172342
0.0631818
-0.0175515
0.0628145
-0.0219145
0.0627316
-0.0241136
0.0626938
-0.0250867
0.0625557
-0.0252476
0.0622362
-0.0248188
0.0617083
-0.023964
0.0609832
-0.0228049
0.060093
-0.0214369
0.0590781
-0.0199403
0.0579799
-0.0183839
0.0568369
-0.0168262
0.0556819
-0.0153155
0.0545409
-0.0138911
0.0534323
-0.0125842
0.0523676
-0.0114197
0.0513517
-0.0104171
0.050383
-0.00959265
0.0494545
-0.00896033
0.0485543
-0.00853357
0.0476654
-0.00832627
0.0467661
-0.00835395
0.0458295
-0.00863457
0.0448225
-0.00918903
0.0437036
-0.0100411
0.0424194
-0.0112158
0.0408983
-0.0127352
0.03904
-0.0146088
0.0366984
-0.016813
0.0336565
-0.0192501
0.029595
-0.0216698
0.0240742
-0.0235226
0.0166115
-0.0236943
0.00728043
-0.0200935
-0.0099537
0.0806169
-0.0161404
0.0784787
-0.0197765
0.0763029
-0.0219378
0.0741901
-0.0229739
0.0721216
-0.0231792
0.0700647
-0.0227618
0.0679974
-0.0218967
0.065918
-0.0207256
0.0638409
-0.0193598
0.0617885
-0.017888
0.0597858
-0.0163812
0.0578553
-0.0148958
0.0560153
-0.0134754
0.0542776
-0.0121535
0.0526482
-0.0109548
0.0511261
-0.0098977
0.049705
-0.00899598
0.0483726
-0.00826033
0.0471122
-0.0076999
0.0459021
-0.00732347
0.0447163
-0.00714048
0.0435242
-0.00716176
0.0422897
-0.00740002
0.0409704
-0.0078697
0.0395153
-0.00858599
0.0378617
-0.00956202
0.0359294
-0.0108028
0.0336141
-0.0122933
0.0307777
-0.0139764
0.0272419
-0.0157141
0.0227971
-0.0172248
0.0172636
-0.0179887
0.0107042
-0.0171344
0.00403735
-0.0134261
-0.00591629
0.0904916
-0.0140476
0.0875315
-0.0168165
0.0842333
-0.0186397
0.0808376
-0.0195782
0.0774496
-0.0197913
0.0741216
-0.0194338
0.0708813
-0.0186564
0.0677493
-0.0175935
0.0647452
-0.0163557
0.0618878
-0.0150306
0.0591929
-0.0136863
0.0566717
-0.0123745
0.0543295
-0.0111332
0.0521656
-0.00998966
0.0501736
-0.00896276
0.0483413
-0.0080654
0.0466517
-0.00730638
0.0450833
-0.00669202
0.0436109
-0.0062275
0.0422053
-0.00591787
0.0408337
-0.00576884
0.0394592
-0.00578728
0.0380406
-0.0059813
0.0365306
-0.00635975
0.0348754
-0.00693068
0.0330113
-0.00769786
0.0308628
-0.00865419
0.0283393
-0.0097698
0.0253354
-0.0109723
0.0217385
-0.0121169
0.0174598
-0.0129459
0.0125166
-0.0130454
0.00721616
-0.0118335
0.00247355
-0.00868312
-0.0034427
0.093237
-0.0114617
0.089848
-0.0134275
0.0859964
-0.014788
0.0819263
-0.0155081
0.0777979
-0.0156628
0.0737207
-0.0153565
0.0697683
-0.014704
0.0659905
-0.0138156
0.062421
-0.0127861
0.059082
-0.0116916
0.0559859
-0.0105902
0.0531362
-0.00952478
0.0505287
-0.00852567
0.0481524
-0.00761345
0.0459911
-0.00680139
0.0440234
-0.00609772
0.0422243
-0.00550734
0.0405657
-0.00503333
0.0390161
-0.00467799
0.037542
-0.00444368
0.0361065
-0.00433338
0.0346702
-0.00435096
0.03319
-0.00450105
0.0316187
-0.00478841
0.0299042
-0.00521615
0.0279888
-0.00578238
0.0258088
-0.00647406
0.0232958
-0.00725676
0.020383
-0.00805929
0.0170195
-0.0087533
0.0132059
-0.00913207
0.00906208
-0.0089013
0.00494149
-0.0077126
0.00156439
-0.00530576
-0.00187828
0.0893133
-0.00856769
0.0857396
-0.00985378
0.0817044
-0.0107528
0.0774148
-0.0112183
0.0730379
-0.0112859
0.0687049
-0.0110235
0.0645128
-0.0105118
0.0605289
-0.00983163
0.0567968
-0.00905398
0.0533412
-0.00823593
0.0501717
-0.00742075
0.0472865
-0.00663955
0.0446745
-0.00591358
0.0423175
-0.00525651
0.0401926
-0.0046765
0.0382729
-0.00417801
0.0365288
-0.00376316
0.0349283
-0.0034329
0.0334381
-0.00318775
0.0320229
-0.00302841
0.0306456
-0.00295611
0.0292674
-0.00297275
0.0278471
-0.00308068
0.0263409
-0.00328212
0.0247024
-0.00357758
0.0228831
-0.00396305
0.0208342
-0.00442507
0.0185105
-0.00493292
0.0158791
-0.00542774
0.0129361
-0.00581008
0.00973534
-0.00593118
0.00643392
-0.00559971
0.00334873
-0.00462721
0.000993803
-0.00295064
-0.000884458
0.0791383
-0.00561134
0.0756385
-0.00635397
0.0717472
-0.00686148
0.0676322
-0.00710336
0.0634455
-0.00709921
0.0593139
-0.00689184
0.055335
-0.00653287
0.0515773
-0.00607398
0.0480838
-0.0055605
0.0448764
-0.00502858
0.0419608
-0.00450511
0.0393301
-0.00400892
0.0369689
-0.00355236
0.0348553
-0.0031429
0.0329634
-0.00278459
0.0312646
-0.00247921
0.0297287
-0.00222721
0.0283242
-0.00202843
0.0270191
-0.00188254
0.0257802
-0.00178946
0.0245736
-0.00174949
0.0233644
-0.00176343
0.0221161
-0.00183236
0.0207913
-0.00195721
0.0193515
-0.00213768
0.0177588
-0.00237026
0.0159786
-0.00264481
0.0139852
-0.00293935
0.0117708
-0.00321317
0.00936063
-0.00339979
0.00683382
-0.00340423
0.00434775
-0.00311351
0.00215645
-0.00243577
0.000597542
-0.00139165
-0.00028691
0.063144
-0.00291374
0.0600451
-0.00325522
0.0566595
-0.0034759
0.0531191
-0.00356308
0.0495487
-0.00352884
0.0460535
-0.00339671
0.0427145
-0.0031939
0.0395872
-0.00294676
0.0367045
-0.00267791
0.0340808
-0.00240491
0.031716
-0.00214043
0.0296
-0.00189299
0.0277155
-0.0016679
0.0260407
-0.0014681
0.024551
-0.00129492
0.0232205
-0.00114865
0.0220224
-0.00102907
0.0209297
-0.000935697
0.0199154
-0.000868088
0.0189519
-0.000825956
0.0180118
-0.000809286
0.0170669
-0.000818334
0.0160882
-0.000853569
0.0150465
-0.000915409
0.0139126
-0.00100368
0.012659
-0.00111654
0.0112629
-0.00124865
0.00971206
-0.00138834
0.00801293
-0.00151392
0.00620328
-0.00159001
0.00436597
-0.00156681
0.00263978
-0.00138724
0.0012152
-0.00101114
0.000295716
-0.000472134
8.8084e-06
0.0418085
-0.000878434
0.039522
-0.000968846
0.0370672
-0.00102116
0.0345373
-0.00103322
0.0320187
-0.00101031
0.0295825
-0.0009606
0.0272813
-0.000892748
0.0251491
-0.000814624
0.0232038
-0.000732674
0.0214504
-0.00065165
0.0198847
-0.000574795
0.0184959
-0.000504141
0.0172688
-0.000440829
0.016186
-0.000385378
0.015229
-0.000337899
0.0143786
-0.000298265
0.0136158
-0.000266239
0.0129218
-0.000241558
0.0122777
-0.000223999
0.0116653
-0.000213414
0.0110658
-0.000209758
0.0104607
-0.000213088
0.00983078
-0.00022356
0.00915682
-0.00024135
0.00841974
-0.000266514
0.00760195
-0.000298663
0.00668978
-0.000336394
0.0056779
-0.000376364
0.00457611
-0.000412022
0.00341854
-0.000432327
0.00227313
-0.000421319
0.00124621
-0.000360275
0.000470971
-0.000235865
6.08444e-05
-6.19925e-05
6.96545e-05
0.0155921
0.0146233
0.0136021
0.0125689
0.0115586
0.0105979
0.00970519
0.00889055
0.00815787
0.00750622
0.00693142
0.00642727
0.00598644
0.00560106
0.00526316
0.0049649
0.00469867
0.00445712
0.00423312
0.00401972
0.00380997
0.00359689
0.00337334
0.003132
0.0028655
0.00256684
0.00223046
0.00185411
0.0014421
0.00100978
0.00058847
0.000228199
-7.6636e-06
-6.96545e-05
0.0195824
-0.00100058
0.0203015
-0.000719088
0.0207153
-0.000413817
0.0208359
-0.000120544
0.0206951
0.00014084
0.0203312
0.000363866
0.0197801
0.000551159
0.01907
0.000710038
0.0182223
0.000847765
0.000966942
0.0172553
0.0487051
-0.00350539
0.0506179
-0.00263193
0.0518696
-0.00166551
0.0524665
-0.000717397
0.0524604
0.000146995
0.0519215
0.00090279
0.0509184
0.00155434
0.0495061
0.00212232
0.0477254
0.0026285
0.00308082
0.0456115
0.069557
-0.00708657
0.0723532
-0.00542803
0.0742789
-0.00359118
0.0753514
-0.00178986
0.075642
-0.000143581
0.0752392
0.00130565
0.0742222
0.0025713
0.0726463
0.00369826
0.0705418
0.00473305
0.00569408
0.0679286
0.0835131
-0.0113234
0.0867709
-0.00868583
0.0890086
-0.00582888
0.0903116
-0.00309285
0.0908053
-0.000637256
0.0906076
0.0015034
0.0898001
0.00337883
0.0884151
0.00508324
0.0864387
0.00670956
0.00829956
0.0838332
0.0916179
-0.0157499
0.0947779
-0.0118457
0.0967902
-0.00784119
0.0979011
-0.00420377
0.0983384
-0.00107465
0.0982634
0.00157836
0.0977508
0.00389135
0.0967864
0.00604769
0.0952741
0.00822181
0.0105082
0.0930655
0.0943623
-0.0197545
0.0966633
-0.0141468
0.0977679
-0.00894586
0.0981949
-0.00463086
0.0982947
-0.00117454
0.0982507
0.00162229
0.0981013
0.00404061
0.0977579
0.00639099
0.0970069
0.00897285
0.0119978
0.0955172
0.0914596
-0.0224011
0.0918785
-0.0145659
0.0913642
-0.00843181
0.0907442
-0.00401104
0.0903926
-0.000823186
0.0904186
0.00159614
0.0907726
0.00368652
0.091284
0.00587948
0.0916154
0.0086414
0.0124549
0.0911583
0.0815926
-0.0221486
0.0789641
-0.0119378
0.0764703
-0.00593841
0.0748953
-0.00243627
0.0743137
-0.000241836
0.0746054
0.00130426
0.0756148
0.00267704
0.0771715
0.00432254
0.0789291
0.00688384
0.0114938
0.0798901
0.0619796
-0.0162443
0.0558767
-0.0058351
0.052216
-0.00227794
0.050513
-0.000733468
0.0501815
8.94227e-05
0.0508552
0.00063044
0.0523745
0.00115756
0.0547716
0.00192549
0.0581425
0.00351279
0.00830026
0.0613361
0.0276476
0.0218125
0.0195345
0.018801
0.0188904
0.0195208
0.0206784
0.0226039
0.0261167
0.0344168
0.0161923
0.00106303
0.0150663
0.00112595
0.0139174
0.00114884
0.0127842
0.00113316
0.0116981
0.00108606
0.0106817
0.00101639
0.009749
0.000932689
0.00890658
0.00084239
0.00815523
0.000751319
0.00749156
0.00066364
0.00690951
0.000582028
0.00640143
0.000508059
0.00595893
0.000442483
0.00557338
0.000385536
0.00523629
0.000337094
0.00493941
0.000296881
0.0046749
0.000264525
0.00443522
0.000239697
0.00421315
0.000222097
0.00400164
0.00021155
0.00379371
0.000207967
0.00358235
0.000211399
0.00336042
0.000221973
0.0031206
0.000239868
0.00285552
0.000265121
0.00255821
0.000297348
0.00222311
0.000335131
0.00184801
0.000375127
0.00143725
0.000410785
0.0010062
0.000431089
0.000586148
0.000420076
0.000227017
0.000359164
-7.9831e-06
0.000235
-6.95679e-05
6.15891e-05
-6.95704e-05
0.0432112
0.00346328
0.0405975
0.0037395
0.0378642
0.00388213
0.0351066
0.00389066
0.0324082
0.00378438
0.0298343
0.00359028
0.0274303
0.00333656
0.0252236
0.00304907
0.0232257
0.00274914
0.0214365
0.00245279
0.0198473
0.00217114
0.018444
0.00191134
0.0172089
0.00167753
0.0161227
0.00147172
0.0151653
0.0012945
0.0143166
0.00114562
0.0135568
0.00102442
0.0128664
0.000930143
0.0122264
0.000862104
0.0116182
0.000819868
0.011023
0.00080329
0.0104219
0.000812556
0.00979595
0.000848063
0.00912573
0.000910194
0.00839221
0.000998731
0.00757784
0.00111181
0.00666897
0.00124407
0.00566033
0.00138384
0.0045618
0.00150941
0.00340751
0.00158546
0.00226538
0.00156231
0.00124155
0.00138302
0.000468894
0.00100771
6.03848e-05
0.000470068
-9.1874e-06
0.0648467
0.00654515
0.0613876
0.00719855
0.0576834
0.0075864
0.0538733
0.00770073
0.0500825
0.00757516
0.0464128
0.00726008
0.0429391
0.00681022
0.0397107
0.00627746
0.0367541
0.00570571
0.0340779
0.00512899
0.0316772
0.00457181
0.0295378
0.00405076
0.0276391
0.00357623
0.0259568
0.00315405
0.0244644
0.00278693
0.0231344
0.00247564
0.021939
0.00221982
0.0208505
0.00201872
0.0198411
0.00187157
0.018883
0.00177795
0.0179485
0.00173792
0.017009
0.00175209
0.0160357
0.00182143
0.0149993
0.00194675
0.0138704
0.00212768
0.0126216
0.00236065
0.0112303
0.00263546
0.00968411
0.0029301
0.00798973
0.00320388
0.00618495
0.00339037
0.00435256
0.00339477
0.00263122
0.00310449
0.00121087
0.00242805
0.000294472
0.00138647
0.000285281
0.0805942
0.00978416
0.0768185
0.0109743
0.0726737
0.0117313
0.0683354
0.0120391
0.0639586
0.011952
0.0596701
0.0115487
0.0555652
0.0109152
0.0517089
0.0101338
0.0481402
0.00927437
0.0448773
0.00839194
0.0419219
0.00752718
0.0392641
0.00670858
0.0368854
0.00595493
0.0347617
0.00527779
0.0328651
0.00468355
0.0311655
0.00417522
0.0296315
0.00375382
0.0282309
0.0034194
0.0269307
0.00317181
0.0256974
0.00301124
0.0244968
0.00293855
0.0232936
0.00295532
0.0220514
0.00306372
0.0207324
0.00326577
0.0192983
0.00356186
0.0177112
0.00394787
0.0159364
0.00441024
0.0139484
0.00491818
0.0117396
0.00541281
0.00933536
0.00579476
0.00681475
0.00591555
0.00433498
0.00558431
0.00214965
0.00461344
0.000595473
0.00294071
0.000880777
0.0900635
0.0127861
0.0863793
0.0146586
0.0822342
0.0158764
0.0778381
0.0164354
0.0733613
0.0164288
0.0689376
0.0159725
0.0646658
0.015187
0.0606145
0.0141852
0.0568272
0.0130617
0.0533281
0.0118911
0.0501257
0.0107296
0.0472167
0.00961757
0.0445885
0.00858315
0.0422216
0.00764468
0.0400916
0.00681355
0.0381705
0.00609637
0.0364275
0.00549674
0.0348303
0.00501666
0.0333445
0.0046576
0.0319345
0.00442127
0.0305629
0.00431015
0.0291906
0.00432769
0.0277761
0.00447824
0.0262756
0.00476631
0.0246426
0.00519483
0.0228288
0.00576173
0.0207853
0.00645382
0.0184671
0.00723654
0.0158413
0.00803863
0.0129045
0.0087318
0.0097106
0.00910956
0.00641665
0.00887843
0.00333906
0.00769125
0.000990575
0.00528936
0.00187138
0.0930293
0.0152741
0.0897323
0.0179556
0.0859515
0.0196573
0.0819265
0.0204604
0.0778193
0.0205361
0.0737445
0.0200474
0.0697817
0.0191499
0.0659861
0.0179807
0.0623963
0.0166515
0.0590375
0.0152499
0.0559239
0.0138431
0.0530601
0.0124814
0.0504422
0.011201
0.0480592
0.0100277
0.0458942
0.00897855
0.0439255
0.00806506
0.0421275
0.0072947
0.0404715
0.00667272
0.0389257
0.00620338
0.037456
0.00589101
0.0360254
0.00574074
0.0345941
0.00575898
0.0331189
0.00595346
0.0315525
0.00633273
0.0298428
0.0069046
0.027932
0.0076726
0.0257565
0.00862941
0.0232481
0.00974495
0.0203402
0.0109467
0.0169824
0.0120898
0.0131755
0.0129167
0.00903971
0.0130145
0.00492813
0.0118029
0.00155969
0.00865826
0.00343114
0.0893631
0.0170692
0.0866852
0.0206335
0.083624
0.0227185
0.080412
0.0236724
0.0771575
0.0237906
0.0739206
0.0232844
0.0707383
0.0223322
0.0676403
0.0210787
0.064654
0.0196378
0.0618042
0.0180997
0.0591111
0.0165362
0.0565888
0.0150036
0.0542447
0.0135451
0.0520793
0.012193
0.0500866
0.0109712
0.0482547
0.00989695
0.0465665
0.00898284
0.0450005
0.00823868
0.0435312
0.00767275
0.0421291
0.00729312
0.0407612
0.00710864
0.0393905
0.00712966
0.0379756
0.00736845
0.0364692
0.00783913
0.0348173
0.00855659
0.0329563
0.00953368
0.0308106
0.0107751
0.0282901
0.0122656
0.0252894
0.0139476
0.0216964
0.015683
0.0174232
0.0171901
0.0124878
0.01795
0.00719778
0.0170938
0.00246645
0.0133902
0.00589772
0.0789181
0.0180413
0.0771798
0.0223718
0.0753345
0.0245638
0.0734819
0.025525
0.0716107
0.0256617
0.0696983
0.0251968
0.0677337
0.0242968
0.0657249
0.0230874
0.0636948
0.0216679
0.0616727
0.0201218
0.0596888
0.0185202
0.0577697
0.0169227
0.0559364
0.0153784
0.0542029
0.0139265
0.0525763
0.0125979
0.0510565
0.0114167
0.0496376
0.0104018
0.0483075
0.00956872
0.0470495
0.00893079
0.0458419
0.00850075
0.0446586
0.00829197
0.0434688
0.00831949
0.0422364
0.00860086
0.040919
0.00915664
0.0394654
0.0100102
0.0378128
0.0111864
0.0358812
0.0127068
0.0335662
0.0145806
0.0307303
0.0167837
0.0271956
0.0192179
0.0227535
0.0216324
0.017226
0.0234781
0.0106774
0.0236428
0.00402587
0.0200427
0.00992368
0.0615074
0.0178698
0.0615132
0.022366
0.0617307
0.0243462
0.0619334
0.0253223
0.0619847
0.0256104
0.0618118
0.0253695
0.0613951
0.0247135
0.0607526
0.0237298
0.0599222
0.0224982
0.0589496
0.0210944
0.0578807
0.019589
0.0567575
0.0180458
0.0556157
0.0165201
0.0544833
0.0150588
0.0533806
0.0137006
0.05232
0.0124773
0.0513069
0.0114149
0.0503404
0.0105352
0.0494138
0.00985746
0.048515
0.00939956
0.0476272
0.00917977
0.0467288
0.00921799
0.0457927
0.00953704
0.0447857
0.0101638
0.0436662
0.0111299
0.0423807
0.012472
0.0408575
0.0142301
0.0389965
0.0164419
0.0366515
0.0191288
0.0336062
0.0222634
0.0295424
0.0256964
0.0240228
0.0289976
0.0165692
0.031097
0.0072589
0.0293532
0.0171825
0.0374883
0.0147983
0.0412402
0.0186139
0.0446376
0.0209486
0.0474966
0.0224632
0.0497877
0.0233192
0.0515237
0.0236334
0.0527584
0.0234787
0.0535625
0.0229256
0.0540095
0.0220512
0.0541692
0.0209345
0.0541058
0.0196524
0.0538758
0.0182759
0.0535272
0.0168687
0.0530998
0.0154862
0.0526247
0.0141757
0.0521252
0.0129768
0.0516171
0.011923
0.0511099
0.0110425
0.0506071
0.0103603
0.0501071
0.00989957
0.0496038
0.0096832
0.0490864
0.00973542
0.0485402
0.0100834
0.0479452
0.0107588
0.0472758
0.0117994
0.0464975
0.0132503
0.0455631
0.0151646
0.0444031
0.017602
0.0429103
0.0206218
0.0409098
0.024264
0.0381058
0.0285003
0.0339881
0.0331152
0.0276639
0.0374209
0.0173978
0.039619
0.0345803
0.0117671
0.00303109
0.0207649
0.00961583
0.027553
0.0141604
0.0328779
0.0171381
0.0371013
0.0190956
0.0404554
0.0202792
0.0431075
0.0208266
0.0451848
0.0208483
0.0467896
0.0204463
0.0480076
0.0197165
0.0489121
0.0187479
0.0495661
0.0176219
0.0500233
0.0164114
0.0503292
0.0151803
0.0505212
0.0139837
0.0506294
0.0128687
0.0506774
0.011875
0.0506831
0.0110368
0.0506591
0.0103844
0.0506137
0.009945
0.0505516
0.00974539
0.0504742
0.0098129
0.0503803
0.0101774
0.0502664
0.0108729
0.0501266
0.0119393
0.0499529
0.0134241
0.0497346
0.015383
0.0494571
0.0178796
0.0490997
0.0209792
0.0486336
0.0247301
0.0480209
0.0291129
0.0472211
0.0339145
0.0462127
0.0384288
0.0450843
0.040747
0.0360506
0.0436138
0.0032278
-0.000196724
0.00935141
0.0034921
0.0155967
0.00791507
0.0211994
0.0115353
0.0260452
0.0142497
0.0301773
0.016147
0.0336754
0.0173285
0.036622
0.0179016
0.039094
0.0179743
0.0411603
0.0176502
0.0428825
0.0170257
0.0443154
0.016189
0.0455076
0.0152192
0.0465017
0.0141861
0.0473351
0.0131504
0.0480395
0.0121642
0.0486425
0.011272
0.0491672
0.0105122
0.0496334
0.00991831
0.0500577
0.00952075
0.0504548
0.00934833
0.0508379
0.00942989
0.0512196
0.00979589
0.0516126
0.0104799
0.0520319
0.0115201
0.052496
0.01296
0.0530306
0.0148486
0.0536729
0.0172374
0.0544803
0.0201718
0.055542
0.0236684
0.0569949
0.0276597
0.0590342
0.0318747
0.0618674
0.035595
0.0653806
0.0372333
0.0339708
0.0674601
0.00103943
-0.0012362
0.00416926
0.00036232
0.00844379
0.00364058
0.0129992
0.00697998
0.0174194
0.00982951
0.0215289
0.0120376
0.0252633
0.0135941
0.0286119
0.014553
0.0315894
0.0149968
0.0342222
0.0150174
0.0365418
0.0147061
0.0385811
0.0141497
0.0403732
0.0134272
0.0419498
0.0126095
0.0433415
0.0117588
0.044577
0.0109288
0.0456831
0.0101659
0.0466854
0.00951003
0.0476078
0.00899597
0.0484737
0.00865497
0.049306
0.00851613
0.0501281
0.00860782
0.050965
0.00895907
0.0518444
0.00960071
0.0527984
0.0105661
0.0538674
0.0118912
0.0551031
0.0136129
0.0565762
0.0157643
0.0583842
0.0183638
0.0606614
0.021391
0.0635825
0.0247384
0.0673372
0.0281198
0.072011
0.0309208
0.0772319
0.0320121
0.0297691
0.0814334
0.00024275
-0.00147886
0.00169041
-0.00108517
0.00426626
0.00106489
0.0075142
0.00373219
0.0110624
0.00628145
0.014672
0.00842803
0.0181983
0.0100679
0.0215574
0.011194
0.0247042
0.0118501
0.0276177
0.0121038
0.0302926
0.0120313
0.0327334
0.011709
0.0349511
0.0112095
0.0369618
0.0105989
0.0387846
0.00993608
0.0404409
0.00927259
0.041954
0.00865292
0.0433485
0.00811553
0.0446507
0.00769389
0.045888
0.00741775
0.0470898
0.0073144
0.0482878
0.00740989
0.0495168
0.00773009
0.0508161
0.00830142
0.0522312
0.00915105
0.0538164
0.010306
0.0556386
0.0117907
0.0577819
0.013621
0.0603528
0.0157929
0.0634825
0.0182613
0.0673178
0.020903
0.0719799
0.0234574
0.0774526
0.025448
0.0833419
0.0261228
0.0245753
0.0885357
-0.000105281
-0.0013735
0.000410373
-0.00160056
0.00178676
-0.000311244
0.00388958
0.00162959
0.00649954
0.00367167
0.00941787
0.00550987
0.0124875
0.00699846
0.0155913
0.00809028
0.0186456
0.00879591
0.0215924
0.00915715