/*--------------------------------*- C++ -*----------------------------------*\
| =========                 |                                                 |
| \\      /  F ield         | OpenFOAM: The Open Source CFD Toolbox           |
|  \\    /   O peration     | Version:  2406                                  |
|   \\  /    A nd           | Website:  www.openfoam.com                      |
|    \\/     M anipulation  |                                                 |
\*---------------------------------------------------------------------------*/
FoamFile
{
    version     2.0;
    format      ascii;
    arch        "LSB;label=32;scalar=64";
    class       volVectorField;
    location    "24";
    object      U;
}
// * * * * * * * * * * * * * * * * * * * * * * * * * * * * * * * * * * * * * //

dimensions      [0 1 -1 0 0 0 0];

internalField   nonuniform List<vector> 
1700
(
(0.187009 -0.00126008 0)
(0.194798 -0.00100986 0)
(0.198693 -0.000880187 0)
(0.201671 -0.000960559 0)
(0.205468 -0.00123069 0)
(0.210703 -0.00184026 0)
(0.218366 -0.00313707 0)
(0.230844 -0.00614056 0)
(0.255815 -0.0166708 0)
(0.294951 -0.0639448 0)
(0.502934 -0.00370892 0)
(0.510139 -0.0055304 0)
(0.515217 -0.00562782 0)
(0.519666 -0.00648096 0)
(0.526014 -0.00839576 0)
(0.534854 -0.0118363 0)
(0.547086 -0.0180244 0)
(0.564568 -0.0294509 0)
(0.590424 -0.0518697 0)
(0.620134 -0.100336 0)
(0.743277 -0.00350781 0)
(0.749046 -0.00723196 0)
(0.753115 -0.0094127 0)
(0.756534 -0.0120574 0)
(0.761972 -0.0160155 0)
(0.769721 -0.0220913 0)
(0.779891 -0.0317159 0)
(0.792752 -0.0473155 0)
(0.807872 -0.0730326 0)
(0.819982 -0.115327 0)
(0.903671 -0.00314343 0)
(0.908449 -0.00787505 0)
(0.911122 -0.0116792 0)
(0.912425 -0.0158924 0)
(0.915109 -0.0214289 0)
(0.919233 -0.0291705 0)
(0.924258 -0.040375 0)
(0.929498 -0.0567842 0)
(0.933402 -0.080582 0)
(0.931938 -0.113647 0)
(0.983809 -0.00273632 0)
(0.987767 -0.00752223 0)
(0.988975 -0.0120072 0)
(0.987933 -0.0169652 0)
(0.987385 -0.023109 0)
(0.987246 -0.0311951 0)
(0.986641 -0.0421439 0)
(0.984533 -0.0569993 0)
(0.979313 -0.0767008 0)
(0.968219 -0.101429 0)
(0.983733 -0.00202777 0)
(0.987004 -0.00608836 0)
(0.986862 -0.0104405 0)
(0.983773 -0.015309 0)
(0.980417 -0.0211098 0)
(0.976585 -0.028408 0)
(0.971281 -0.0377978 0)
(0.963454 -0.0498171 0)
(0.951764 -0.0647676 0)
(0.934408 -0.0823109 0)
(0.903454 -0.000887915 0)
(0.906313 -0.00367731 0)
(0.905234 -0.00739362 0)
(0.900848 -0.0115629 0)
(0.8957 -0.0163082 0)
(0.889454 -0.0220323 0)
(0.881132 -0.0290819 0)
(0.869824 -0.0376908 0)
(0.854532 -0.0478861 0)
(0.834127 -0.0592748 0)
(0.742968 0.000786382 0)
(0.74606 -0.00066388 0)
(0.744925 -0.00366849 0)
(0.740434 -0.00681483 0)
(0.734908 -0.0100876 0)
(0.727946 -0.0138189 0)
(0.718719 -0.0182112 0)
(0.706548 -0.0233513 0)
(0.69077 -0.0291959 0)
(0.670736 -0.0354723 0)
(0.502657 0.00246241 0)
(0.507346 0.00177535 0)
(0.507436 -0.00063584 0)
(0.504247 -0.00257234 0)
(0.499915 -0.00425266 0)
(0.494158 -0.00600448 0)
(0.486447 -0.00794501 0)
(0.476392 -0.0101105 0)
(0.463633 -0.0124811 0)
(0.447859 -0.0149384 0)
(0.186924 0.00109435 0)
(0.19355 0.000481015 0)
(0.194919 3.43349e-05 0)
(0.193967 -0.000231365 0)
(0.192211 -0.000455303 0)
(0.189656 -0.000669867 0)
(0.186138 -0.000895818 0)
(0.18155 -0.00113057 0)
(0.175794 -0.00136605 0)
(0.168794 -0.00159148 0)
(-0.000464782 0.000453951 0)
(-0.00276209 0.000818676 0)
(-0.00554213 0.000797417 0)
(-0.00768533 0.000543707 0)
(-0.00842859 0.000206198 0)
(-0.00756085 -0.000136856 0)
(-0.00517312 -0.000439559 0)
(-0.0015058 -0.00067984 0)
(0.00313804 -0.000851347 0)
(0.00844712 -0.000957441 0)
(0.0141347 -0.00100682 0)
(0.0199566 -0.00101068 0)
(0.0257195 -0.00098079 0)
(0.0312827 -0.000928579 0)
(0.0365552 -0.000864252 0)
(0.0414911 -0.000796635 0)
(0.0460838 -0.000732928 0)
(0.05036 -0.000679038 0)
(0.0543744 -0.000639626 0)
(0.0582055 -0.000618651 0)
(0.0619524 -0.000619457 0)
(0.0657325 -0.000645338 0)
(0.0696809 -0.000699488 0)
(0.0739496 -0.000785389 0)
(0.0787072 -0.000906376 0)
(0.0841367 -0.00106546 0)
(0.0904311 -0.00126401 0)
(0.0977827 -0.00150024 0)
(0.106364 -0.00176625 0)
(0.116295 -0.00204465 0)
(0.127596 -0.0023044 0)
(0.140128 -0.00249887 0)
(0.153523 -0.002568 0)
(0.167138 -0.00245075 0)
(0.180081 -0.00210924 0)
(-0.000924223 0.00281229 0)
(-0.00556419 0.0051013 0)
(-0.0103891 0.0046951 0)
(-0.0133575 0.0025478 0)
(-0.0131188 -0.000366417 0)
(-0.00934413 -0.00337056 0)
(-0.0022767 -0.00605873 0)
(0.00754052 -0.0082258 0)
(0.0194411 -0.00980256 0)
(0.032748 -0.0108044 0)
(0.0468406 -0.0112963 0)
(0.0611918 -0.0113681 0)
(0.0753841 -0.0111189 0)
(0.0891118 -0.0106465 0)
(0.102176 -0.0100422 0)
(0.114475 -0.0093869 0)
(0.125993 -0.00875063 0)
(0.136786 -0.00819281 0)
(0.146976 -0.00776385 0)
(0.156739 -0.00750686 0)
(0.166297 -0.00746003 0)
(0.175917 -0.00765825 0)
(0.185905 -0.00813486 0)
(0.196606 -0.00892151 0)
(0.208398 -0.0100473 0)
(0.221692 -0.011534 0)
(0.236914 -0.0133884 0)
(0.254488 -0.0155883 0)
(0.274792 -0.018063 0)
(0.2981 -0.0206666 0)
(0.32448 -0.0231515 0)
(0.353677 -0.0251491 0)
(0.384966 -0.0261865 0)
(0.417045 -0.0257623 0)
(0.448035 -0.0235165 0)
(-0.00112621 0.00619093 0)
(-0.00643189 0.0103808 0)
(-0.0108804 0.00857153 0)
(-0.0121557 0.00314852 0)
(-0.00890236 -0.00379664 0)
(-0.000985145 -0.0108075 0)
(0.0110998 -0.0170079 0)
(0.0265509 -0.0219611 0)
(0.0444681 -0.025531 0)
(0.0639755 -0.0277672 0)
(0.084292 -0.0288268 0)
(0.104767 -0.0289196 0)
(0.124891 -0.0282738 0)
(0.144298 -0.0271142 0)
(0.162752 -0.0256495 0)
(0.180138 -0.0240667 0)
(0.196446 -0.0225284 0)
(0.21176 -0.0211743 0)
(0.22624 -0.0201242 0)
(0.240119 -0.0194818 0)
(0.253689 -0.0193393 0)
(0.267299 -0.0197808 0)
(0.28135 -0.0208857 0)
(0.296292 -0.0227289 0)
(0.312621 -0.0253773 0)
(0.330874 -0.0288813 0)
(0.351616 -0.0332572 0)
(0.375415 -0.0384581 0)
(0.4028 -0.0443317 0)
(0.43419 -0.0505619 0)
(0.469777 -0.0566047 0)
(0.509363 -0.0616372 0)
(0.552147 -0.0645704 0)
(0.596513 -0.0641967 0)
(0.639948 -0.0595672 0)
(-0.00122103 0.00984008 0)
(-0.00595629 0.0151006 0)
(-0.00810482 0.0105074 0)
(-0.00552431 0.000457474 0)
(0.0026374 -0.011591 0)
(0.0160029 -0.0233496 0)
(0.0336797 -0.0335042 0)
(0.0546019 -0.0414478 0)
(0.0777138 -0.0470353 0)
(0.102064 -0.0504036 0)
(0.126847 -0.0518422 0)
(0.15142 -0.0517126 0)
(0.175298 -0.0503953 0)
(0.198144 -0.0482598 0)
(0.219758 -0.0456468 0)
(0.240058 -0.0428605 0)
(0.259065 -0.0401665 0)
(0.276893 -0.037794 0)
(0.293736 -0.0359409 0)
(0.309854 -0.0347801 0)
(0.325572 -0.0344656 0)
(0.341273 -0.0351395 0)
(0.357395 -0.0369354 0)
(0.374429 -0.0399804 0)
(0.392922 -0.0443893 0)
(0.41347 -0.0502538 0)
(0.436714 -0.057614 0)
(0.463328 -0.0664175 0)
(0.493979 -0.0764475 0)
(0.529267 -0.0872297 0)
(0.569603 -0.0979073 0)
(0.615008 -0.107128 0)
(0.664805 -0.113001 0)
(0.717218 -0.113294 0)
(0.769089 -0.10607 0)
(-0.00128425 0.0130931 0)
(-0.00430545 0.0176022 0)
(-0.002091 0.00832677 0)
(0.00666936 -0.00764571 0)
(0.0217184 -0.0253786 0)
(0.0418541 -0.0419019 0)
(0.0656934 -0.0556663 0)
(0.0919396 -0.0660637 0)
(0.119483 -0.0730665 0)
(0.147422 -0.0769755 0)
(0.175058 -0.0782561 0)
(0.20187 -0.0774392 0)
(0.227496 -0.0750616 0)
(0.25171 -0.071632 0)
(0.274404 -0.067614 0)
(0.295569 -0.0634184 0)
(0.315285 -0.0594034 0)
(0.333706 -0.0558787 0)
(0.35105 -0.0531131 0)
(0.367593 -0.0513424 0)
(0.383667 -0.0507796 0)
(0.399652 -0.0516221 0)
(0.415981 -0.054059 0)
(0.433142 -0.0582728 0)
(0.451678 -0.0644364 0)
(0.472197 -0.0726976 0)
(0.495377 -0.0831498 0)
(0.521965 -0.095775 0)
(0.552765 -0.110352 0)
(0.588595 -0.126313 0)
(0.630181 -0.142539 0)
(0.677917 -0.157121 0)
(0.731428 -0.167171 0)
(0.788867 -0.168946 0)
(0.846195 -0.158844 0)
(-0.00122781 0.0154012 0)
(-0.000858571 0.0160962 0)
(0.00852205 -0.000399512 0)
(0.0262856 -0.0234495 0)
(0.0502957 -0.0468411 0)
(0.0783157 -0.0673677 0)
(0.108537 -0.0836283 0)
(0.139594 -0.0952775 0)
(0.170499 -0.102562 0)
(0.200563 -0.106024 0)
(0.229324 -0.106335 0)
(0.25649 -0.104193 0)
(0.281901 -0.100274 0)
(0.305499 -0.0952029 0)
(0.327311 -0.0895379 0)
(0.347432 -0.0837711 0)
(0.366013 -0.0783291 0)
(0.383251 -0.0735807 0)
(0.399388 -0.0698472 0)
(0.414701 -0.0674126 0)
(0.429506 -0.0665363 0)
(0.444157 -0.0674624 0)
(0.459049 -0.0704304 0)
(0.474625 -0.0756782 0)
(0.491388 -0.0834439 0)
(0.509914 -0.0939504 0)
(0.530869 -0.10738 0)
(0.555036 -0.123807 0)
(0.583332 -0.143094 0)
(0.6168 -0.164693 0)
(0.656542 -0.187337 0)
(0.703468 -0.208583 0)
(0.757735 -0.224319 0)
(0.817565 -0.228565 0)
(0.87778 -0.214776 0)
(-0.000733803 0.0161455 0)
(0.00643283 0.00794779 0)
(0.0272703 -0.018904 0)
(0.0574544 -0.0495379 0)
(0.0922058 -0.0774675 0)
(0.128445 -0.100176 0)
(0.164357 -0.116965 0)
(0.19887 -0.128042 0)
(0.23139 -0.134054 0)
(0.261626 -0.13582 0)
(0.289475 -0.134202 0)
(0.314954 -0.130033 0)
(0.33815 -0.124085 0)
(0.359207 -0.117055 0)
(0.378302 -0.109558 0)
(0.395636 -0.102129 0)
(0.411433 -0.0952288 0)
(0.42593 -0.089258 0)
(0.439378 -0.0845645 0)
(0.452043 -0.0814597 0)
(0.464206 -0.0802311 0)
(0.476169 -0.0811563 0)
(0.488263 -0.0845136 0)
(0.500854 -0.0905929 0)
(0.514362 -0.0996976 0)
(0.529281 -0.112142 0)
(0.54621 -0.128226 0)
(0.5659 -0.148184 0)
(0.5893 -0.172061 0)
(0.617612 -0.199486 0)
(0.652282 -0.229226 0)
(0.694815 -0.258444 0)
(0.746142 -0.281594 0)
(0.804908 -0.289415 0)
(0.864909 -0.270113 0)
(0.00107972 0.0130456 0)
(0.0227321 -0.012194 0)
(0.0615191 -0.0519384 0)
(0.107395 -0.0885178 0)
(0.153138 -0.117877 0)
(0.196059 -0.139555 0)
(0.235274 -0.15407 0)
(0.270551 -0.162318 0)
(0.301973 -0.165327 0)
(0.329787 -0.164122 0)
(0.354314 -0.159675 0)
(0.375894 -0.152878 0)
(0.394866 -0.144536 0)
(0.411556 -0.135359 0)
(0.426274 -0.12597 0)
(0.439313 -0.116904 0)
(0.450948 -0.108622 0)
(0.461434 -0.101523 0)
(0.471016 -0.0959543 0)
(0.479927 -0.0922317 0)
(0.488394 -0.0906505 0)
(0.496647 -0.0915032 0)
(0.504923 -0.0950928 0)
(0.513483 -0.101748 0)
(0.522623 -0.11183 0)
(0.5327 -0.125744 0)
(0.544168 -0.143925 0)
(0.557632 -0.166802 0)
(0.573922 -0.194695 0)
(0.594196 -0.227576 0)
(0.62003 -0.26453 0)
(0.653375 -0.302673 0)
(0.696059 -0.33517 0)
(0.747685 -0.348357 0)
(0.802298 -0.320726 0)
(0.0129689 -0.00988357 0)
(0.0629155 -0.0583723 0)
(0.12598 -0.106138 0)
(0.186996 -0.141542 0)
(0.239667 -0.166257 0)
(0.284278 -0.182406 0)
(0.321989 -0.191486 0)
(0.35375 -0.194738 0)
(0.380388 -0.193288 0)
(0.402653 -0.188166 0)
(0.421217 -0.180317 0)
(0.436672 -0.17059 0)
(0.449536 -0.15975 0)
(0.46026 -0.148464 0)
(0.469237 -0.137314 0)
(0.476806 -0.126799 0)
(0.483256 -0.117344 0)
(0.488833 -0.10932 0)
(0.493747 -0.103048 0)
(0.498176 -0.0988251 0)
(0.502272 -0.096935 0)
(0.506172 -0.0976651 0)
(0.510002 -0.101324 0)
(0.513887 -0.108258 0)
(0.517965 -0.118868 0)
(0.5224 -0.13362 0)
(0.527413 -0.153061 0)
(0.533313 -0.177795 0)
(0.54057 -0.208424 0)
(0.549913 -0.245341 0)
(0.56248 -0.288213 0)
(0.579958 -0.33473 0)
(0.604565 -0.377883 0)
(0.637582 -0.400409 0)
(0.677466 -0.365738 0)
(0.0918705 -0.0806205 0)
(0.172329 -0.14349 0)
(0.246749 -0.179328 0)
(0.308263 -0.201436 0)
(0.355641 -0.214876 0)
(0.392562 -0.221863 0)
(0.421681 -0.223503 0)
(0.444548 -0.220665 0)
(0.462281 -0.214198 0)
(0.475814 -0.20494 0)
(0.485942 -0.193692 0)
(0.493345 -0.181196 0)
(0.498597 -0.168121 0)
(0.50218 -0.155056 0)
(0.504497 -0.142509 0)
(0.505873 -0.130915 0)
(0.506568 -0.12064 0)
(0.50678 -0.112004 0)
(0.506658 -0.105285 0)
(0.506299 -0.100742 0)
(0.505766 -0.0986302 0)
(0.505087 -0.0992131 0)
(0.504262 -0.102783 0)
(0.503268 -0.109679 0)
(0.50206 -0.120299 0)
(0.500573 -0.135126 0)
(0.498722 -0.154731 0)
(0.496391 -0.179777 0)
(0.493426 -0.210967 0)
(0.48962 -0.248878 0)
(0.48469 -0.2935 0)
(0.478242 -0.343063 0)
(0.47005 -0.391161 0)
(0.461648 -0.420072 0)
(0.464688 -0.384751 0)
(0.386591 -0.180634 0)
(0.40883 -0.218165 0)
(0.437453 -0.235506 0)
(0.468284 -0.244992 0)
(0.493311 -0.248842 0)
(0.512147 -0.248043 0)
(0.5258 -0.243292 0)
(0.535016 -0.235217 0)
(0.540471 -0.224488 0)
(0.542854 -0.211799 0)
(0.542819 -0.197835 0)
(0.540953 -0.183236 0)
(0.537761 -0.168576 0)
(0.533663 -0.154354 0)
(0.528995 -0.140997 0)
(0.524016 -0.128859 0)
(0.518909 -0.118242 0)
(0.513794 -0.109398 0)
(0.508729 -0.102554 0)
(0.503719 -0.0979208 0)
(0.498723 -0.0957093 0)
(0.493657 -0.0961462 0)
(0.488392 -0.0994881 0)
(0.482759 -0.106036 0)
(0.476536 -0.116146 0)
(0.469431 -0.130245 0)
(0.461055 -0.148818 0)
(0.450852 -0.172388 0)
(0.437995 -0.201412 0)
(0.421171 -0.236032 0)
(0.39818 -0.275458 0)
(0.365055 -0.316503 0)
(0.31439 -0.349879 0)
(0.235674 -0.349706 0)
(0.124954 -0.237017 0)
(0.639624 -0.180949 0)
(0.632254 -0.226819 0)
(0.62715 -0.248092 0)
(0.627002 -0.257143 0)
(0.626718 -0.258568 0)
(0.624517 -0.254515 0)
(0.62022 -0.246411 0)
(0.613884 -0.235288 0)
(0.605723 -0.221989 0)
(0.596098 -0.207261 0)
(0.585432 -0.191777 0)
(0.574137 -0.176127 0)
(0.562574 -0.16082 0)
(0.551041 -0.146279 0)
(0.539757 -0.132851 0)
(0.528873 -0.120818 0)
(0.518468 -0.110409 0)
(0.508556 -0.101813 0)
(0.499095 -0.0952004 0)
(0.489989 -0.0907283 0)
(0.481092 -0.0885601 0)
(0.472212 -0.0888754 0)
(0.463108 -0.091881 0)
(0.453483 -0.0978195 0)
(0.442971 -0.106973 0)
(0.431109 -0.119654 0)
(0.41729 -0.136181 0)
(0.400687 -0.156793 0)
(0.380115 -0.181472 0)
(0.353834 -0.209552 0)
(0.319206 -0.238905 0)
(0.272208 -0.264284 0)
(0.207412 -0.274026 0)
(0.12384 -0.243995 0)
(0.0303618 -0.133205 0)
(0.817472 -0.170831 0)
(0.797534 -0.211106 0)
(0.773961 -0.233739 0)
(0.752257 -0.244195 0)
(0.731557 -0.246048 0)
(0.710989 -0.241613 0)
(0.690344 -0.232698 0)
(0.669576 -0.22069 0)
(0.648748 -0.206664 0)
(0.628042 -0.191485 0)
(0.607706 -0.175861 0)
(0.587989 -0.160368 0)
(0.569099 -0.14547 0)
(0.551189 -0.131527 0)
(0.53435 -0.11882 0)
(0.518603 -0.107562 0)
(0.503911 -0.0979179 0)
(0.490181 -0.0900203 0)
(0.477266 -0.0839831 0)
(0.464973 -0.0799153 0)
(0.453064 -0.0779325 0)
(0.441258 -0.0781652 0)
(0.429222 -0.0807658 0)
(0.416568 -0.0859102 0)
(0.402837 -0.0937915 0)
(0.387469 -0.104597 0)
(0.369764 -0.118454 0)
(0.348819 -0.135316 0)
(0.323445 -0.154738 0)
(0.292069 -0.175459 0)
(0.252665 -0.194656 0)
(0.20289 -0.20672 0)
(0.141362 -0.201463 0)
(0.0733857 -0.162669 0)
(0.0112207 -0.0739329 0)
(0.91856 -0.15249 0)
(0.892172 -0.184275 0)
(0.859513 -0.204606 0)
(0.825459 -0.21491 0)
(0.791383 -0.217228 0)
(0.757705 -0.213385 0)
(0.724776 -0.205062 0)
(0.69285 -0.193696 0)
(0.66212 -0.180441 0)
(0.632771 -0.166211 0)
(0.604975 -0.151718 0)
(0.578873 -0.137515 0)
(0.55455 -0.124016 0)
(0.53203 -0.111524 0)
(0.511275 -0.100259 0)
(0.492191 -0.0903762 0)
(0.47463 -0.0819849 0)
(0.458399 -0.075168 0)
(0.443264 -0.0699946 0)
(0.428951 -0.0665316 0)
(0.415151 -0.0648524 0)
(0.401518 -0.0650435 0)
(0.387662 -0.0672065 0)
(0.373144 -0.071455 0)
(0.357464 -0.0779006 0)
(0.340039 -0.0866197 0)
(0.320181 -0.0975877 0)
(0.297064 -0.110555 0)
(0.269702 -0.124829 0)
(0.236968 -0.138927 0)
(0.197715 -0.150057 0)
(0.151213 -0.153468 0)
(0.098528 -0.141979 0)
(0.0463719 -0.106862 0)
(0.00581169 -0.0439316 0)
(0.947758 -0.128623 0)
(0.917297 -0.151943 0)
(0.880203 -0.167906 0)
(0.839985 -0.176387 0)
(0.79865 -0.178374 0)
(0.75739 -0.175111 0)
(0.717074 -0.167928 0)
(0.67831 -0.158073 0)
(0.641502 -0.146599 0)
(0.606918 -0.134349 0)
(0.574723 -0.121971 0)
(0.544995 -0.109949 0)
(0.517728 -0.098629 0)
(0.492844 -0.0882532 0)
(0.470204 -0.078982 0)
(0.449617 -0.0709189 0)
(0.43085 -0.0641301 0)
(0.413635 -0.0586598 0)
(0.397675 -0.0545427 0)
(0.382644 -0.0518133 0)
(0.368191 -0.0505126 0)
(0.353935 -0.0506916 0)
(0.339464 -0.0524113 0)
(0.32433 -0.0557356 0)
(0.308038 -0.0607148 0)
(0.29004 -0.0673491 0)
(0.269729 -0.0755229 0)
(0.246436 -0.0848918 0)
(0.219462 -0.0947045 0)
(0.188165 -0.103553 0)
(0.152162 -0.109082 0)
(0.111781 -0.107773 0)
(0.0690984 -0.0951607 0)
(0.030153 -0.0672893 0)
(0.00319302 -0.0251237 0)
(0.909532 -0.1007 0)
(0.876847 -0.116603 0)
(0.838209 -0.127746 0)
(0.796058 -0.133649 0)
(0.752335 -0.134769 0)
(0.708493 -0.131922 0)
(0.665654 -0.126073 0)
(0.62463 -0.118179 0)
(0.585965 -0.109081 0)
(0.549985 -0.0994523 0)
(0.51685 -0.0898105 0)
(0.486594 -0.0805302 0)
(0.459144 -0.0718714 0)
(0.434351 -0.0640051 0)
(0.412004 -0.0570369 0)
(0.391852 -0.0510277 0)
(0.373609 -0.0460102 0)
(0.356967 -0.0420016 0)
(0.341599 -0.0390135 0)
(0.327161 -0.037059 0)
(0.313293 -0.0361567 0)
(0.299615 -0.036333 0)
(0.285728 -0.0376202 0)
(0.271208 -0.0400494 0)
(0.255603 -0.0436336 0)
(0.238437 -0.0483355 0)
(0.219217 -0.054011 0)
(0.197457 -0.060318 0)
(0.172738 -0.0665861 0)
(0.144821 -0.0716588 0)
(0.113859 -0.0737616 0)
(0.0807422 -0.0705275 0)
(0.047732 -0.0594487 0)
(0.0195637 -0.0392406 0)
(0.0017648 -0.0128285 0)
(0.807665 -0.0707475 0)
(0.775136 -0.0805335 0)
(0.737758 -0.0873066 0)
(0.697297 -0.0906837 0)
(0.655425 -0.0909054 0)
(0.613546 -0.0885004 0)
(0.57278 -0.0841181 0)
(0.533956 -0.0784136 0)
(0.49762 -0.0719651 0)
(0.464082 -0.0652373 0)
(0.433469 -0.0585794 0)
(0.405765 -0.052239 0)
(0.380852 -0.0463813 0)
(0.358537 -0.0411088 0)
(0.338578 -0.0364794 0)
(0.320697 -0.0325214 0)
(0.3046 -0.0292449 0)
(0.289976 -0.0266515 0)
(0.276509 -0.0247401 0)
(0.263871 -0.0235119 0)
(0.251729 -0.0229728 0)
(0.239738 -0.0231343 0)
(0.227543 -0.0240117 0)
(0.214773 -0.0256179 0)
(0.201046 -0.0279506 0)
(0.185976 -0.0309674 0)
(0.169191 -0.0345437 0)
(0.150371 -0.0384081 0)
(0.129319 -0.0420555 0)
(0.10608 -0.0446559 0)
(0.0811112 -0.0450108 0)
(0.0555164 -0.0416634 0)
(0.0313515 -0.0333484 0)
(0.01202 -0.0200667 0)
(0.000888099 -0.00511605 0)
(0.646032 -0.0415685 0)
(0.616849 -0.0466117 0)
(0.584112 -0.0499405 0)
(0.549148 -0.0513644 0)
(0.513299 -0.0510381 0)
(0.477733 -0.0492825 0)
(0.443389 -0.0464791 0)
(0.410946 -0.0430046 0)
(0.380838 -0.0391854 0)
(0.353288 -0.0352786 0)
(0.328358 -0.0314718 0)
(0.305988 -0.0278936 0)
(0.286033 -0.0246257 0)
(0.268294 -0.0217147 0)
(0.252533 -0.0191837 0)
(0.238497 -0.0170398 0)
(0.22592 -0.015282 0)
(0.214532 -0.0139053 0)
(0.204064 -0.0129044 0)
(0.194242 -0.0122763 0)
(0.184794 -0.0120214 0)
(0.175438 -0.0121436 0)
(0.165892 -0.0126497 0)
(0.155863 -0.0135451 0)
(0.145057 -0.014826 0)
(0.133184 -0.0164645 0)
(0.119984 -0.0183826 0)
(0.105262 -0.0204128 0)
(0.088965 -0.0222477 0)
(0.0712815 -0.0233903 0)
(0.0527783 -0.0231445 0)
(0.0345395 -0.0207132 0)
(0.0182642 -0.0155254 0)
(0.00623575 -0.00797818 0)
(0.000245165 -0.00082023 0)
(0.428956 -0.0172334 0)
(0.407195 -0.0190312 0)
(0.383273 -0.0200949 0)
(0.358124 -0.0203804 0)
(0.332684 -0.0199826 0)
(0.307755 -0.0190532 0)
(0.283959 -0.0177572 0)
(0.261726 -0.0162474 0)
(0.241309 -0.0146506 0)
(0.222813 -0.0130617 0)
(0.206235 -0.0115468 0)
(0.191492 -0.0101482 0)
(0.178451 -0.00889057 0)
(0.166945 -0.00778564 0)
(0.156791 -0.00683692 0)
(0.1478 -0.00604294 0)
(0.13978 -0.00539981 0)
(0.132541 -0.00490298 0)
(0.125896 -0.0045485 0)
(0.119658 -0.00433375 0)
(0.113644 -0.00425798 0)
(0.107668 -0.0043223 0)
(0.101539 -0.00452945 0)
(0.0950672 -0.00488222 0)
(0.0880576 -0.00538049 0)
(0.0803229 -0.00601473 0)
(0.0716986 -0.0067551 0)
(0.0620764 -0.00753379 0)
(0.0514597 -0.00822194 0)
(0.0400454 -0.00860677 0)
(0.0283249 -0.0083868 0)
(0.0171717 -0.00721887 0)
(0.00784782 -0.00487836 0)
(0.00177632 -0.00165312 0)
(-0.00027179 0.000821366 0)
(0.160558 -0.0017827 0)
(0.151256 -0.00190395 0)
(0.14122 -0.00193546 0)
(0.130863 -0.00188493 0)
(0.120573 -0.0017735 0)
(0.110664 -0.00162333 0)
(0.101361 -0.00145365 0)
(0.0928042 -0.00127981 0)
(0.085061 -0.00111247 0)
(0.0781424 -0.000958067 0)
(0.0720197 -0.000819837 0)
(0.0666389 -0.000699022 0)
(0.0619303 -0.000595618 0)
(0.0578166 -0.00050891 0)
(0.054218 -0.000437801 0)
(0.0510548 -0.000381042 0)
(0.0482496 -0.000337421 0)
(0.0457275 -0.000305857 0)
(0.0434164 -0.000285489 0)
(0.0412458 -0.000275701 0)
(0.0391465 -0.000276176 0)
(0.0370492 -0.000286915 0)
(0.0348831 -0.00030826 0)
(0.0325759 -0.000340845 0)
(0.0300533 -0.000385386 0)
(0.0272419 -0.000442159 0)
(0.0240754 -0.000509839 0)
(0.0205092 -0.000583407 0)
(0.0165453 -0.000650954 0)
(0.0122726 -0.00068995 0)
(0.00791713 -0.000664307 0)
(0.00389215 -0.000524946 0)
(0.000800081 -0.000223165 0)
(-0.000740895 0.000221803 0)
(-0.000508219 0.000514228 0)
(0.191337 -0.00155894 0)
(0.200043 -0.000893379 0)
(0.205733 -0.000228835 0)
(0.208369 0.000358977 0)
(0.208198 0.000842475 0)
(0.205599 0.00122379 0)
(0.200957 0.00152052 0)
(0.194599 0.00175673 0)
(0.186769 0.00195095 0)
(0.177652 0.00210751 0)
(0.475716 -0.0194512 0)
(0.498098 -0.0141116 0)
(0.514009 -0.00829865 0)
(0.523187 -0.00267266 0)
(0.525997 0.00238786 0)
(0.523107 0.00674827 0)
(0.515251 0.0104491 0)
(0.503064 0.0136198 0)
(0.487018 0.0163885 0)
(0.467461 0.0187967 0)
(0.679269 -0.0505345 0)
(0.711577 -0.0383135 0)
(0.735284 -0.024759 0)
(0.750157 -0.0114059 0)
(0.756768 0.000838516 0)
(0.755996 0.0116154 0)
(0.74873 0.0209808 0)
(0.735664 0.0292208 0)
(0.717216 0.0366389 0)
(0.693581 0.0433411 0)
(0.81598 -0.0908106 0)
(0.853927 -0.0698961 0)
(0.881359 -0.0468391 0)
(0.898765 -0.0242973 0)
(0.907424 -0.00371911 0)
(0.908648 0.0144163 0)
(0.90347 0.0303261 0)
(0.892479 0.0446239 0)
(0.875752 0.057932 0)
(0.852942 0.0705018 0)
(0.896797 -0.135476 0)
(0.935114 -0.103681 0)
(0.960491 -0.0697737 0)
(0.975421 -0.0377383 0)
(0.982642 -0.00929286 0)
(0.984152 0.0153388 0)
(0.981114 0.0369286 0)
(0.973839 0.0567503 0)
(0.961762 0.0760396 0)
(0.943541 0.0953802 0)
(0.927645 -0.179519 0)
(0.959094 -0.133337 0)
(0.974674 -0.0874093 0)
(0.981044 -0.0468331 0)
(0.982993 -0.012749 0)
(0.983003 0.0156663 0)
(0.982051 0.0403517 0)
(0.979889 0.0637022 0)
(0.975054 0.0879973 0)
(0.964699 0.114576 0)
(0.907532 -0.21539 0)
(0.92136 -0.14983 0)
(0.917732 -0.0921497 0)
(0.910235 -0.0465233 0)
(0.90485 -0.0114881 0)
(0.903193 0.0160381 0)
(0.905283 0.0397122 0)
(0.910078 0.0633541 0)
(0.915296 0.0907626 0)
(0.916215 0.125039 0)
(0.826118 -0.230701 0)
(0.806785 -0.141023 0)
(0.776021 -0.0769095 0)
(0.754253 -0.0342513 0)
(0.743798 -0.00557862 0)
(0.742756 0.015219 0)
(0.749549 0.0332265 0)
(0.762761 0.0531977 0)
(0.780477 0.0807277 0)
(0.796409 0.12321 0)
(0.658533 -0.21014 0)
(0.589334 -0.0983915 0)
(0.535168 -0.0427411 0)
(0.50931 -0.0148303 0)
(0.500791 0.000659147 0)
(0.503165 0.0109404 0)
(0.51421 0.0204607 0)
(0.533601 0.0332718 0)
(0.562903 0.0559124 0)
(0.596793 0.103775 0)
(0.34366 -0.133321 0)
(0.244706 -0.0270566 0)
(0.200014 -0.0050245 0)
(0.188407 -0.000504359 0)
(0.187088 0.00133802 0)
(0.191 0.0025183 0)
(0.199581 0.0039326 0)
(0.214043 0.00685602 0)
(0.24124 0.0171209 0)
(0.282602 0.0635268 0)
(0.167442 0.00221345 0)
(0.156418 0.00224502 0)
(0.144955 0.00219308 0)
(0.133463 0.00207187 0)
(0.122301 0.0019045 0)
(0.111742 0.00171223 0)
(0.101968 0.00151182 0)
(0.0930795 0.00131612 0)
(0.0851099 0.00113352 0)
(0.0780426 0.000968785 0)
(0.0718273 0.000823724 0)
(0.0663934 0.000698652 0)
(0.0616588 0.000592684 0)
(0.0575376 0.000504641 0)
(0.0539432 0.000432902 0)
(0.0507917 0.000376049 0)
(0.0480026 0.000332568 0)
(0.0454989 0.000301369 0)
(0.0432069 0.000281399 0)
(0.0410556 0.000272099 0)
(0.0389749 0.000273012 0)
(0.0368953 0.00028421 0)
(0.034746 0.000305927 0)
(0.0324544 0.000338875 0)
(0.0299466 0.000383692 0)
(0.0271489 0.000440705 0)
(0.0239956 0.000508479 0)
(0.0204419 0.000582028 0)
(0.0164906 0.000649487 0)
(0.0122304 0.000688406 0)
(0.00788776 0.000662609 0)
(0.00387505 0.000523413 0)
(0.000793299 0.000221781 0)
(-0.000741032 -0.00022211 0)
(-0.00050707 -0.000513109 0)
(0.444757 0.0207504 0)
(0.419489 0.0220533 0)
(0.39252 0.0225744 0)
(0.36484 0.0223393 0)
(0.337373 0.0214806 0)
(0.310871 0.0201657 0)
(0.285889 0.0185604 0)
(0.262785 0.0168106 0)
(0.241745 0.0150328 0)
(0.222818 0.0133108 0)
(0.205952 0.0117001 0)
(0.191027 0.0102342 0)
(0.177879 0.00893011 0)
(0.16632 0.00779405 0)
(0.15615 0.0068251 0)
(0.147168 0.00601855 0)
(0.139172 0.00536815 0)
(0.131967 0.00486767 0)
(0.125362 0.00451192 0)
(0.119166 0.00429745 0)
(0.113195 0.00422286 0)
(0.10726 0.00428889 0)
(0.101172 0.00449792 0)
(0.094738 0.00485257 0)
(0.0877649 0.0053525 0)
(0.080065 0.00598812 0)
(0.0714741 0.00672944 0)
(0.0618846 0.00750866 0)
(0.0513002 0.00819686 0)
(0.0399187 0.00858167 0)
(0.0282312 0.00836202 0)
(0.0171104 0.00719619 0)
(0.00781597 0.00486095 0)
(0.00176557 0.00164402 0)
(-0.000271323 -0.000821459 0)
(0.664971 0.0490819 0)
(0.631999 0.0533095 0)
(0.595834 0.0556155 0)
(0.557919 0.0559825 0)
(0.519624 0.0546716 0)
(0.482096 0.0520578 0)
(0.44622 0.0485418 0)
(0.412614 0.0444968 0)
(0.381645 0.0402342 0)
(0.353476 0.0359913 0)
(0.328115 0.0319354 0)
(0.305457 0.0281763 0)
(0.285321 0.0247796 0)
(0.267478 0.021779 0)
(0.251671 0.019187 0)
(0.237626 0.0170032 0)
(0.225068 0.0152203 0)
(0.213716 0.013829 0)
(0.203294 0.0128207 0)
(0.193526 0.0121902 0)
(0.184132 0.0119359 0)
(0.174833 0.0120608 0)
(0.165341 0.0125704 0)
(0.155365 0.0134696 0)
(0.14461 0.0147542 0)
(0.132787 0.0163958 0)
(0.119634 0.0183159 0)
(0.104959 0.0203471 0)
(0.0887091 0.0221819 0)
(0.0710735 0.0233239 0)
(0.0526196 0.0230785 0)
(0.0344305 0.0206513 0)
(0.0182017 0.0154737 0)
(0.00621097 0.00794562 0)
(0.000243663 0.000811854 0)
(0.823666 0.0818275 0)
(0.788284 0.0906622 0)
(0.748226 0.0960819 0)
(0.705366 0.0979786 0)
(0.661425 0.0967668 0)
(0.617815 0.0930735 0)
(0.575642 0.0875917 0)
(0.535702 0.0809843 0)
(0.498506 0.0738166 0)
(0.464324 0.0665303 0)
(0.433244 0.0594484 0)
(0.405214 0.0527924 0)
(0.380084 0.0467044 0)
(0.357637 0.0412673 0)
(0.337607 0.0365229 0)
(0.319702 0.0324867 0)
(0.303613 0.0291591 0)
(0.28902 0.026534 0)
(0.275598 0.0246047 0)
(0.263014 0.0233682 0)
(0.250931 0.0228272 0)
(0.239001 0.0229908 0)
(0.226866 0.0238727 0)
(0.214155 0.0254844 0)
(0.200486 0.0278227 0)
(0.185472 0.0308441 0)
(0.168742 0.0344236 0)
(0.149977 0.0382891 0)
(0.12898 0.0419356 0)
(0.105797 0.0445338 0)
(0.0808888 0.0448878 0)
(0.055357 0.0415443 0)
(0.0312558 0.0332453 0)
(0.011979 0.019995 0)
(0.00088482 0.0050915 0)
(0.917602 0.113851 0)
(0.883802 0.128813 0)
(0.844051 0.138492 0)
(0.800809 0.142736 0)
(0.756048 0.142206 0)
(0.711248 0.137838 0)
(0.667553 0.13066 0)
(0.625793 0.121647 0)
(0.586515 0.111634 0)
(0.550043 0.101278 0)
(0.51653 0.0910698 0)
(0.485994 0.0813573 0)
(0.458348 0.0723754 0)
(0.433428 0.0642723 0)
(0.411009 0.0571345 0)
(0.390827 0.0510068 0)
(0.372585 0.0459093 0)
(0.355967 0.0418492 0)
(0.340638 0.0388303 0)
(0.32625 0.0368595 0)
(0.312436 0.0359512 0)
(0.298817 0.0361281 0)
(0.284989 0.03742 0)
(0.270526 0.0398559 0)
(0.254978 0.0434471 0)
(0.237868 0.0481551 0)
(0.218702 0.0538344 0)
(0.196995 0.0601422 0)
(0.172331 0.0664073 0)
(0.144473 0.0714744 0)
(0.113575 0.0735713 0)
(0.0805313 0.0703387 0)
(0.0475985 0.0592767 0)
(0.0195027 0.0391132 0)
(0.00175825 0.0127781 0)
(0.945189 0.141856 0)
(0.915715 0.164284 0)
(0.879457 0.178886 0)
(0.839823 0.185818 0)
(0.79881 0.186239 0)
(0.757655 0.181502 0)
(0.717284 0.172997 0)
(0.678366 0.161995 0)
(0.641359 0.149556 0)
(0.606567 0.136513 0)
(0.574182 0.1235 0)
(0.544295 0.110978 0)
(0.516906 0.0992754 0)
(0.491937 0.0886113 0)
(0.469246 0.0791281 0)
(0.448637 0.0709132 0)
(0.429872 0.0640192 0)
(0.412677 0.058479 0)
(0.39675 0.0543184 0)
(0.381761 0.0515648 0)
(0.367354 0.0502535 0)
(0.353148 0.0504312 0)
(0.338728 0.0521554 0)
(0.323644 0.0554874 0)
(0.3074 0.060475 0)
(0.289449 0.0671166 0)
(0.269183 0.0752948 0)
(0.245935 0.0846634 0)
(0.219009 0.0944701 0)
(0.187763 0.103307 0)
(0.151821 0.108822 0)
(0.111514 0.107505 0)
(0.0689187 0.0949038 0)
(0.0300656 0.0670881 0)
(0.0031816 0.0250348 0)
(0.90576 0.163689 0)
(0.882363 0.194663 0)
(0.852357 0.213952 0)
(0.820414 0.223109 0)
(0.787909 0.22425 0)
(0.755332 0.21926 0)
(0.723125 0.209861 0)
(0.691639 0.197518 0)
(0.661151 0.183403 0)
(0.631915 0.168435 0)
(0.604157 0.153327 0)
(0.578053 0.138624 0)
(0.553712 0.124727 0)
(0.531173 0.111927 0)
(0.510406 0.10043 0)
(0.49132 0.0903756 0)
(0.473769 0.0818627 0)
(0.457557 0.0749631 0)
(0.442449 0.0697368 0)
(0.42817 0.0662432 0)
(0.414407 0.0645498 0)
(0.400812 0.0647381 0)
(0.386994 0.0669059 0)
(0.372513 0.0711633 0)
(0.356867 0.0776191 0)
(0.339474 0.0863473 0)
(0.319646 0.0973207 0)
(0.296557 0.110287 0)
(0.269224 0.124551 0)
(0.236524 0.13863 0)
(0.197317 0.149732 0)
(0.150881 0.153117 0)
(0.0982876 0.141626 0)
(0.0462427 0.106564 0)
(0.00579292 0.0437897 0)
(0.79826 0.178139 0)
(0.782644 0.21784 0)
(0.762801 0.240006 0)
(0.744045 0.24997 0)
(0.725602 0.251257 0)
(0.706716 0.246194 0)
(0.687284 0.236612 0)
(0.667361 0.223934 0)
(0.647102 0.209266 0)
(0.626767 0.193499 0)
(0.606665 0.177355 0)
(0.587089 0.161419 0)
(0.568284 0.146153 0)
(0.550426 0.131916 0)
(0.533619 0.118979 0)
(0.517896 0.107548 0)
(0.503227 0.097778 0)
(0.489518 0.0897926 0)
(0.476626 0.0836983 0)
(0.464358 0.0795972 0)
(0.452475 0.0775987 0)
(0.440693 0.0778287 0)
(0.428679 0.0804354 0)
(0.416046 0.085591 0)
(0.402331 0.0934854 0)
(0.386975 0.104303 0)
(0.369279 0.118168 0)
(0.348339 0.13503 0)
(0.322968 0.15444 0)
(0.291597 0.175133 0)
(0.252209 0.194287 0)
(0.202475 0.206297 0)
(0.141028 0.201002 0)
(0.0731843 0.162247 0)
(0.0111845 0.073709 0)
(0.620583 0.183516 0)
(0.617455 0.229299 0)
(0.615823 0.250865 0)
(0.618347 0.26016 0)
(0.620173 0.261659 0)
(0.619633 0.257507 0)
(0.616611 0.249161 0)
(0.61123 0.237699 0)
(0.603766 0.224011 0)
(0.594639 0.208881 0)
(0.58432 0.19301 0)
(0.573262 0.177009 0)
(0.561859 0.161396 0)
(0.550431 0.146599 0)
(0.539217 0.132965 0)
(0.52838 0.120771 0)
(0.518008 0.110243 0)
(0.508121 0.101563 0)
(0.49868 0.0948947 0)
(0.48959 0.0903905 0)
(0.480706 0.0882082 0)
(0.471836 0.088523 0)
(0.462739 0.0915377 0)
(0.453116 0.0974913 0)
(0.442601 0.106662 0)
(0.430729 0.119361 0)
(0.416895 0.135901 0)
(0.400267 0.156518 0)
(0.379665 0.181187 0)
(0.353348 0.209235 0)
(0.318687 0.238527 0)
(0.271676 0.263814 0)
(0.206924 0.273453 0)
(0.123489 0.24338 0)
(0.0302545 0.132788 0)
(0.374689 0.179175 0)
(0.39907 0.217528 0)
(0.42942 0.235794 0)
(0.461626 0.245973 0)
(0.48792 0.25027 0)
(0.507899 0.249693 0)
(0.522528 0.244981 0)
(0.532544 0.23681 0)
(0.538635 0.225893 0)
(0.541507 0.212966 0)
(0.541839 0.198744 0)
(0.540242 0.18389 0)
(0.537241 0.168996 0)
(0.533275 0.154569 0)