/*--------------------------------*- C++ -*----------------------------------*\
| =========                 |                                                 |
| \\      /  F ield         | OpenFOAM: The Open Source CFD Toolbox           |
|  \\    /   O peration     | Version:  2406                                  |
|   \\  /    A nd           | Website:  www.openfoam.com                      |
|    \\/     M anipulation  |                                                 |
\*---------------------------------------------------------------------------*/
FoamFile
{
    version     2.0;
    format      ascii;
    arch        "LSB;label=32;scalar=64";
    class       surfaceScalarField;
    location    "36";
    object      phi;
}
// * * * * * * * * * * * * * * * * * * * * * * * * * * * * * * * * * * * * * //

dimensions      [0 3 -1 0 0 0 0];

oriented        oriented;

internalField   nonuniform List<scalar> 
3270
(
0.0194135
-0.000413464
0.0199691
-0.00055562
0.0205029
-0.000533748
0.0210473
-0.000544428
0.021654
-0.000606687
0.0223701
-0.000716032
0.0232633
-0.000893209
0.0244523
-0.00118893
0.0261845
-0.00173213
-0.00344721
0.0296317
0.0508934
-0.000306805
0.0510399
-0.000702124
0.0514191
-0.000912909
0.0519724
-0.00109771
0.0526916
-0.00132588
0.0535966
-0.00162092
0.0547244
-0.00202093
0.0561336
-0.00259805
0.0578643
-0.00346291
-0.00488599
0.0593031
0.0749593
-0.000266107
0.0749774
-0.000720144
0.0751415
-0.00107709
0.075458
-0.00141413
0.075925
-0.00179286
0.0765477
-0.0022436
0.0773276
-0.0028008
0.0782456
-0.00351607
0.0792287
-0.00444601
-0.00565988
0.0800026
0.0909813
-0.000247356
0.090959
-0.000697873
0.0909962
-0.00111434
0.0911145
-0.00153244
0.0913134
-0.00199173
0.0915882
-0.00251839
0.0919256
-0.00313818
0.0922911
-0.00388153
0.0926188
-0.00477374
-0.00582513
0.0927841
0.0989701
-0.000217419
0.0988974
-0.00062516
0.0988213
-0.00103833
0.0987623
-0.00147342
0.0987168
-0.00194627
0.0986728
-0.00247435
0.0986107
-0.00307614
0.0984972
-0.00376795
0.098281
-0.0045576
-0.00543708
0.097893
0.0989459
-0.000163337
0.0988052
-0.000484431
0.0986149
-0.000848108
0.098391
-0.00124951
0.0981252
-0.00168049
0.0978014
-0.00215056
0.0973985
-0.00267318
0.0968861
-0.00325553
0.0962246
-0.0038961
-0.00458231
0.0953698
0.09091
-7.33179e-05
0.0906887
-0.000263196
0.0903914
-0.00055079
0.0900262
-0.000884349
0.0895784
-0.00123274
0.0890305
-0.00160258
0.0883611
-0.00200379
0.0875429
-0.0024373
0.0865442
-0.00289743
-0.00337262
0.0853345
0.0748465
8.01418e-05
0.0745529
3.04384e-05
0.0741925
-0.000190393
0.0737521
-0.000443987
0.0732079
-0.00068858
0.0725404
-0.000935083
0.0717277
-0.00119096
0.0707447
-0.00145431
0.0695675
-0.00172022
-0.00198204
0.0681769
0.0507621
0.000318026
0.0505333
0.000259264
0.0502833
5.95661e-05
0.04994
-0.000100747
0.0494733
-0.000221858
0.0488675
-0.000329228
0.0481077
-0.000431171
0.0471807
-0.000527295
0.0460771
-0.000616612
-0.00069822
0.0447932
0.019318
0.0195773
0.0196368
0.0195361
0.0193142
0.018985
0.0185539
0.0180266
0.0174099
0.0167117
-8.09836e-05
8.09459e-05
-0.00034617
0.000265119
-0.000721969
0.000375747
-0.00114074
0.000418749
-0.00156889
0.000428157
-0.00199328
0.00042443
-0.00240938
0.000416188
-0.00281496
0.000405693
-0.00320718
0.000392359
-0.00358139
0.00037437
-0.00393077
0.00034953
-0.00424606
0.000315429
-0.00451556
0.000269621
-0.00472521
0.000209739
-0.00485885
0.000133694
-0.00489871
3.98806e-05
-0.00482589
-7.28195e-05
-0.00462154
-0.000204408
-0.00426757
-0.000354038
-0.0037475
-0.000520158
-0.00304721
-0.000700392
-0.0021557
-0.000891598
-0.0010652
-0.00109058
0.000229019
-0.00129429
0.00172775
-0.00149879
0.00342695
-0.00169926
0.00531841
-0.00189151
0.00738883
-0.00207046
0.00961811
-0.00222932
0.011977
-0.00235892
0.014424
-0.0024469
0.0169012
-0.00247719
0.0193322
-0.0024309
0.0216209
-0.00228858
-0.00203633
0.0236573
-0.00031151
0.000392397
-0.000990401
0.000943836
-0.00186116
0.0012464
-0.00280082
0.00135838
-0.00374112
0.00136851
-0.00464928
0.00133272
-0.0055096
0.00127674
-0.0063121
0.00120848
-0.00704667
0.00112727
-0.00770066
0.00102873
-0.00825795
0.000907164
-0.00869871
0.000756507
-0.00899977
0.000570929
-0.00913523
0.000345376
-0.00907761
7.61513e-05
-0.00879882
-0.000238914
-0.00827208
-0.000599658
-0.00747286
-0.00100378
-0.00638006
-0.00144704
-0.00497706
-0.00192339
-0.00325241
-0.00242526
-0.00119939
-0.00294479
0.00118372
-0.00347381
0.00389154
-0.00400218
0.00691317
-0.00452046
0.0102345
-0.00502056
0.0138371
-0.00549415
0.0176982
-0.0059316
0.0217892
-0.00632026
0.0260726
-0.00664229
0.0304983
-0.00687253
0.0349981
-0.00697682
0.0394801
-0.00691271
0.0438241
-0.0066325
-0.00609649
0.0478844
-0.000506838
0.00089914
-0.00149385
0.00193071
-0.00267742
0.00242986
-0.00389838
0.00257929
-0.00507326
0.00254341
-0.00616037
0.00241992
-0.00713774
0.00225427
-0.00799053
0.0020615
-0.00870452
0.00184154
-0.0092634
0.00158792
-0.00964787
0.00129197
-0.0098358
0.000944738
-0.0098029
0.000538302
-0.00952421
6.68844e-05
-0.0089754
-0.000472547
-0.00813455
-0.00107973
-0.00698271
-0.00175152
-0.0055049
-0.00248166
-0.00369103
-0.00326101
-0.00153582
-0.00407868
0.0009613
-0.00492242
0.00379486
-0.00577834
0.00695307
-0.00663198
0.0104214
-0.00747047
0.0141834
-0.00828227
0.0182203
-0.00905745
0.0225128
-0.00978653
0.0270398
-0.0104586
0.0317782
-0.0110586
0.0367
-0.011564
0.041768
-0.0119405
0.046929
-0.0121379
0.0521061
-0.0120898
0.0571877
-0.011714
-0.0109351
0.0620263
-0.000634664
0.00153377
-0.00178691
0.00308281
-0.00308041
0.00372324
-0.00433286
0.00383167
-0.00546046
0.003671
-0.00642472
0.00338422
-0.00720649
0.00303616
-0.00779328
0.00264845
-0.00817322
0.00222172
-0.00833291
0.00174788
-0.00825692
0.0012163
-0.00792847
0.000616587
-0.00733048
-5.94069e-05
-0.0064472
-0.000816185
-0.00526544
-0.00165415
-0.00377491
-0.00257017
-0.00196893
-0.00355744
0.000154989
-0.00460554
0.00259523
-0.00570119
0.00534434
-0.00682772
0.00838961
-0.0079676
0.0117148
-0.00910341
0.0153016
-0.0102186
0.0191305
-0.0112991
0.0231819
-0.0123336
0.0274377
-0.0133131
0.0318816
-0.0142304
0.0365004
-0.0150774
0.0412834
-0.0158416
0.0462206
-0.0165012
0.0512978
-0.0170177
0.0564888
-0.0173288
0.0617409
-0.0173419
0.0669529
-0.0169261
-0.0159547
0.0719724
-0.000699618
0.00223331
-0.00185472
0.00423779
-0.00302647
0.0048949
-0.00404028
0.00484538
-0.00483464
0.0044653
-0.00538912
0.00393868
-0.00569751
0.00334459
-0.00575695
0.00270802
-0.00556375
0.00202865
-0.00511206
0.00129645
-0.0043949
0.000499348
-0.00340474
-0.000373302
-0.00213548
-0.00132848
-0.000582783
-0.00236868
0.00125538
-0.00349217
0.00337795
-0.00469262
0.0057797
-0.00595906
0.00845076
-0.00727649
0.0113766
-0.00862687
0.014539
-0.00998993
0.0179167
-0.0113451
0.0214866
-0.0126731
0.0252251
-0.0139569
0.0291094
-0.0151833
0.0331194
-0.0163434
0.0372393
-0.0174328
0.0414593
-0.0184503
0.0457774
-0.0193955
0.0502007
-0.0202649
0.0547447
-0.0210452
0.0594307
-0.0217038
0.064277
-0.0221751
0.0692768
-0.0223418
0.0743562
-0.0220059
-0.020963
0.0793647
-0.000712092
0.00294539
-0.00168752
0.00521312
-0.00246568
0.00567294
-0.00294089
0.00532047
-0.00311045
0.00463477
-0.00298839
0.00381656
-0.00258831
0.00294453
-0.00192045
0.0020402
-0.000990728
0.00109907
0.000197828
0.00010803
0.00164397
-0.00094661
0.00334629
-0.00207548
0.00530168
-0.00328372
0.00750452
-0.0045714
0.0099459
-0.00593342
0.012613
-0.00735955
0.0154888
-0.00883481
0.0185528
-0.0103403
0.0217806
-0.0118545
0.0251456
-0.0133547
0.0286193
-0.0148187
0.0321734
-0.016227
0.0357809
-0.0175642
0.0394177
-0.0188199
0.0430651
-0.0199907
0.0467116
-0.0210793
0.0503559
-0.0220945
0.0540098
-0.0230494
0.0577018
-0.023957
0.0614806
-0.0248241
0.0654151
-0.0256384
0.0695925
-0.0263528
0.0740938
-0.0268433
0.0789543
-0.0268666
-0.026113
0.0841037
-0.000658746
0.0036041
-0.00119731
0.00575165
-0.00121981
0.00569538
-0.000801076
0.00490167
-4.15003e-05
0.00387514
0.00100274
0.00277229
0.00230109
0.00164619
0.00383474
0.000506569
0.00559286
-0.000658965
0.0075695
-0.00186856
0.00975837
-0.0031354
0.0121503
-0.00446733
0.0147332
-0.00586664
0.017492
-0.00733017
0.0204079
-0.00884918
0.0234581
-0.0104097
0.0266164
-0.011993
0.0298535
-0.0135773
0.033138
-0.0151389
0.0364375
-0.0166539
0.0397196
-0.0181007
0.0429541
-0.0194613
0.0461135
-0.0207234
0.0491756
-0.0218819
0.0521253
-0.0229402
0.054957
-0.0239108
0.0576783
-0.0248158
0.0603154
-0.0256866
0.06292
-0.0265617
0.0655785
-0.0274825
0.0684209
-0.028481
0.07163
-0.029562
0.0754284
-0.0306422
0.0801155
-0.0315544
-0.0319058
0.0859081
-0.000436797
0.00404091
8.19673e-06
0.00530665
0.00130233
0.00440122
0.00303993
0.00316403
0.00502076
0.00189428
0.00717746
0.00061559
0.0094864
-0.000662755
0.0119383
-0.00194531
0.014528
-0.00324863
0.0172485
-0.004589
0.02009
-0.00597693
0.0230392
-0.00741652
0.0260787
-0.00890612
0.029187
-0.0104385
0.0323388
-0.012001
0.0355053
-0.0135761
0.0386551
-0.0151426
0.0417547
-0.0166769
0.0447707
-0.0181547
0.0476697
-0.0195528
0.0504207
-0.0208516
0.0529957
-0.0220362
0.0553715
-0.023099
0.0575306
-0.0240409
0.0594633
-0.0248728
0.06117
-0.0256174
0.0626652
-0.026311
0.063984
-0.0270053
0.0651938
-0.0277714
0.0664136
-0.0287023
0.0678465
-0.0299138
0.0698185
-0.0315344
0.072817
-0.0336412
0.0775101
-0.0362479
-0.0385557
0.0841593
0.000615988
0.00342493
0.00335405
0.00256861
0.00669196
0.00106332
0.0100698
-0.000213817
0.0133877
-0.00142361
0.0166551
-0.0026518
0.0198928
-0.00390032
0.0231159
-0.00516837
0.0263339
-0.00646657
0.0295495
-0.00780454
0.032758
-0.0091855
0.0359482
-0.0106067
0.0391023
-0.0120603
0.042198
-0.0135342
0.0452087
-0.0150116
0.0481051
-0.0164724
0.050856
-0.0178936
0.0534303
-0.0192511
0.0557974
-0.0205217
0.0579289
-0.0216842
0.0597996
-0.0227222
0.0613887
-0.0236251
0.06268
-0.0243902
0.0636634
-0.0250242
0.0643356
-0.0255448
0.0647011
-0.0259829
0.0647755
-0.0263853
0.0645899
-0.0268197
0.0642025
-0.0273839
0.0637227
-0.0282224
0.0633673
-0.0295585
0.0635796
-0.0317468
0.065284
-0.035346
0.0698136
-0.0407782
-0.0447616
0.0760194
0.00714887
-0.00372395
0.0132108
-0.00349328
0.0182754
-0.00400121
0.0227815
-0.00471993
0.0268933
-0.00553531
0.0307108
-0.0064693
0.0343123
-0.00750171
0.0377503
-0.00860623
0.041053
-0.00976925
0.0442316
-0.0109831
0.0472855
-0.0122393
0.0502051
-0.0135263
0.0529746
-0.0148298
0.0555728
-0.0161324
0.0579753
-0.0174141
0.0601558
-0.0186529
0.0620877
-0.0198254
0.0637454
-0.0209087
0.0651053
-0.0218815
0.0661472
-0.0227261
0.0668551
-0.02343
0.0672172
-0.0239872
0.0672272
-0.0244001
0.0668835
-0.0246803
0.0661891
-0.0248503
0.0651516
-0.0249453
0.0637822
-0.0250157
0.0620955
-0.0251329
0.0601108
-0.0253991
0.0578572
-0.0259687
0.0553938
-0.0270949
0.052881
-0.0292342
0.0508432
-0.0333086
0.0507858
-0.0407206
-0.048923
0.0549473
0.0319532
-0.00604543
0.0354912
-0.00703124
0.039036
-0.007546
0.0424675
-0.00815139
0.0457745
-0.00884229
0.0489211
-0.00961589
0.0518974
-0.0104778
0.0547077
-0.0114165
0.0573534
-0.0124149
0.0598282
-0.0134578
0.0621202
-0.0145313
0.0642134
-0.0156195
0.0660884
-0.0167047
0.0677233
-0.0177673
0.0690952
-0.018786
0.0701811
-0.0197389
0.0709598
-0.0206041
0.0714124
-0.0213613
0.0715239
-0.021993
0.0712836
-0.0224857
0.0706857
-0.022832
0.0697295
-0.023031
0.0684192
-0.0230897
0.0667628
-0.0230238
0.0647707
-0.0228582
0.0624536
-0.0226281
0.0598187
-0.0223807
0.0568638
-0.0221779
0.0535674
-0.0221026
0.0498687
-0.0222698
0.0456223
-0.0228485
0.0404855
-0.0240973
0.0335713
-0.0263944
0.0224829
-0.0296321
-0.0264401
0.0599822
-0.00672451
0.0610529
-0.00810187
0.0625158
-0.00900889
0.0641687
-0.00980432
0.0659161
-0.0105896
0.0676765
-0.0113763
0.0693817
-0.012183
0.070985
-0.0130197
0.0724527
-0.0138825
0.0737559
-0.014761
0.0748676
-0.0156429
0.0757618
-0.0165137
0.0764138
-0.0173568
0.0768002
-0.0181537
0.0768994
-0.0188851
0.0766924
-0.0195319
0.076164
-0.0200757
0.0753034
-0.0205008
0.0741053
-0.0207948
0.0725696
-0.0209501
0.0707024
-0.0209647
0.0685147
-0.0208433
0.066022
-0.020597
0.0632426
-0.0202442
0.0601947
-0.0198102
0.0568938
-0.0193271
0.0533468
-0.0188335
0.0495447
-0.0183757
0.0454503
-0.018008
0.0409766
-0.0177958
0.035947
-0.0178187
0.0300145
-0.0181647
0.0224704
-0.0188502
0.0119722
-0.0191336
-0.0144678
0.0803664
-0.0070883
0.0806421
-0.00837747
0.0810216
-0.00938838
0.0814739
-0.0102566
0.0819563
-0.011072
0.0824317
-0.0118516
0.0828547
-0.012606
0.0831815
-0.0133464
0.0833743
-0.0140753
0.0834004
-0.0147871
0.0832302
-0.0154726
0.0828367
-0.0161202
0.0821963
-0.0167164
0.081289
-0.0172463
0.0800986
-0.0176947
0.0786137
-0.018047
0.0768286
-0.0182905
0.0747431
-0.0184154
0.0723638
-0.0184155
0.0697033
-0.0182895
0.0667797
-0.0180411
0.0636161
-0.0176796
0.0602386
-0.0172194
0.056674
-0.0166796
0.0529475
-0.0160836
0.0490782
-0.0154577
0.0450752
-0.0148303
0.0409299
-0.0142302
0.0366074
-0.0136852
0.0320316
-0.0132197
0.0270641
-0.0128509
0.0214728
-0.012573
0.0148994
-0.0122763
0.00707763
-0.0113114
-0.0073901
0.0926794
-0.00698358
0.0923919
-0.00808998
0.0920441
-0.00904051
0.0916531
-0.00986563
0.0911986
-0.0106174
0.0906609
-0.0113139
0.0900166
-0.0119615
0.0892373
-0.0125671
0.0882958
-0.0131338
0.0871678
-0.013659
0.0858316
-0.0141364
0.0842688
-0.0145573
0.0824645
-0.0149121
0.0804087
-0.0151905
0.0780964
-0.0153823
0.0755283
-0.0154789
0.0727115
-0.0154737
0.069659
-0.015363
0.0663904
-0.0151468
0.0629302
-0.0148293
0.0593076
-0.0144185
0.0555544
-0.0139263
0.0517031
-0.013368
0.0477848
-0.0127612
0.0438265
-0.0121251
0.0398477
-0.0114787
0.0358571
-0.0108396
0.0318485
-0.0102214
0.0277945
-0.00963104
0.0236406
-0.00906537
0.019297
-0.00850694
0.0146378
-0.00791335
0.00953386
-0.00717197
0.0041296
-0.00590663
-0.00326044
0.0972764
-0.00636702
0.0964531
-0.0072666
0.0954816
-0.00806898
0.0943842
-0.00876824
0.0931543
-0.00938746
0.0917812
-0.00994076
0.0902529
-0.0104331
0.0885546
-0.0108687
0.0866714
-0.0112505
0.0845905
-0.011578
0.0823023
-0.0118481
0.0798009
-0.0120559
0.0770849
-0.012196
0.0741574
-0.0122631
0.0710275
-0.0122524
0.0677094
-0.0121608
0.0642231
-0.0119873
0.0605935
-0.0117334
0.05685
-0.0114033
0.0530248
-0.0110041
0.049152
-0.0105457
0.0452655
-0.0100398
0.0413973
-0.00949969
0.0375753
-0.00893917
0.033822
-0.00837159
0.0301519
-0.00780848
0.0265704
-0.00725786
0.0230711
-0.0067219
0.0196343
-0.00619393
0.0162248
-0.00565544
0.0127927
-0.00507443
0.00928464
-0.00440488
0.00569171
-0.00357853
0.00225356
-0.00246815
-0.00100684
0.0942884
-0.00528562
0.092982
-0.0059602
0.0914772
-0.00656418
0.0897928
-0.00708379
0.0879322
-0.00752679
0.085894
-0.00790249
0.0836767
-0.00821578
0.0812785
-0.00847046
0.078698
-0.00866996
0.0759362
-0.00881616
0.0729972
-0.00890907
0.0698888
-0.00894758
0.0666231
-0.00893031
0.0632162
-0.00885613
0.0596885
-0.00872466
0.0560644
-0.00853671
0.0523717
-0.0082946
0.0486407
-0.00800233
0.0449031
-0.00766563
0.0411907
-0.00729174
0.0375341
-0.00688907
0.0339611
-0.00646677
0.0304957
-0.00603412
0.0271566
-0.00559991
0.0239568
-0.00517165
0.020903
-0.00475454
0.0179954
-0.00435
0.0152272
-0.00395346
0.0125853
-0.00355174
0.0100513
-0.00312105
0.0076056
-0.00262832
0.00524007
-0.00203894
0.00299504
-0.00133319
0.00107045
-0.000543215
6.36368e-05
0.0838927
-0.00384379
0.0822169
-0.00428443
0.0803224
-0.00466972
0.0782272
-0.0049885
0.0759438
-0.00524331
0.0734823
-0.00544091
0.0708534
-0.0055868
0.0680685
-0.00568554
0.06514
-0.00574138
0.0620816
-0.00575772
0.0589092
-0.00573666
0.0556411
-0.00567946
0.0522979
-0.00558709
0.0489025
-0.00546067
0.0454796
-0.00530174
0.0420554
-0.00511252
0.0386568
-0.004896
0.0353106
-0.00465601
0.0320421
-0.00439707
0.0288747
-0.00412428
0.0258287
-0.003843
0.0229206
-0.00355861
0.0201627
-0.00327609
0.0175627
-0.00299981
0.0151242
-0.00273292
0.0128466
-0.00247673
0.0107263
-0.00222951
0.00875782
-0.00198474
0.00693537
-0.00172898
0.00525549
-0.00144083
0.00372139
-0.00109389
0.00235061
-0.000667893
0.00119123
-0.00017352
0.000353688
0.000294434
0.000417329
0.066563
-0.00223
0.0647298
-0.0024512
0.0626938
-0.00263371
0.0604777
-0.00277234
0.0581039
-0.00286951
0.055594
-0.00293089
0.052969
-0.00296171
0.0502498
-0.00296625
0.0474567
-0.00294819
0.0446095
-0.00291051
0.0417281
-0.00285527
0.0388325
-0.00278388
0.035943
-0.00269752
0.0330797
-0.00259736
0.0302628
-0.00248475
0.0275116
-0.00236128
0.0248445
-0.00222883
0.022278
-0.00208952
0.0198267
-0.00194567
0.0175022
-0.00179968
0.0153133
-0.00165394
0.0132654
-0.00151063
0.0113612
-0.00137171
0.0096002
-0.00123866
0.00797984
-0.00111237
0.00649596
-0.00099265
0.00514423
-0.000877573
0.00392189
-0.00076218
0.00283033
-0.000637175
0.00187814
-0.000488379
0.00108386
-0.000299359
0.000476648
-6.04915e-05
9.2054e-05
0.000211131
-4.47474e-05
0.000431251
0.00037258
0.0433333
-0.000770089
0.041711
-0.000828904
0.0399489
-0.000871586
0.0380741
-0.000897458
0.0361132
-0.000908604
0.0340906
-0.000908166
0.0320278
-0.0008988
0.029944
-0.000882444
0.0278565
-0.000860579
0.0257803
-0.000834289
0.0237293
-0.00080427
0.0217164
-0.000770951
0.0197536
-0.000734686
0.0178521
-0.000695847
0.0160223
-0.000654878
0.0142733
-0.000612272
0.0126131
-0.000568587
0.0110481
-0.00052441
0.00958287
-0.00048035
0.00822026
-0.000436987
0.0069613
-0.000394867
0.00580525
-0.000354457
0.00474983
-0.000316144
0.00379152
-0.000280189
0.002926
-0.00024668
0.00214891
-0.000215392
0.00145706
-0.000185552
0.000850274
-0.000155216
0.00033408
-0.00012078
-7.72919e-05
-7.67999e-05
-0.00035957
-1.69051e-05
-0.000482243
6.2282e-05
-0.000423952
0.000152867
-0.000209637
0.000216925
0.000162941
0.0159416
0.0151127
0.0142411
0.0133437
0.0124351
0.011527
0.0106282
0.00974573
0.00888516
0.00805088
0.00724661
0.00647567
0.00574099
0.00504515
0.00439028
0.00377801
0.00320944
0.00268504
0.0022047
0.00176773
0.00137288
0.00101844
0.000702311
0.000422142
0.000175484
-3.98866e-05
-0.000225416
-0.000380609
-0.000501363
-0.000578137
-0.000595022
-0.000532731
-0.000379865
-0.000162941
0.0253301
-0.00167268
0.0265487
-0.00121845
0.0272685
-0.00071969
0.0274982
-0.000229505
0.0272865
0.000211871
0.0267046
0.000582094
0.0258297
0.000875122
0.0247359
0.00109397
0.0234895
0.0012467
0.00134375
0.022146
0.0514989
-0.00528705
0.0545187
-0.00423804
0.0568473
-0.00304806
0.0584531
-0.00183506
0.0593488
-0.000683558
0.0595711
0.000360122
0.0591778
0.00126884
0.058243
0.00202919
0.0568472
0.00264295
0.00312151
0.0550698
0.0664399
-0.00970045
0.0702567
-0.00805476
0.0733831
-0.00617431
0.0758025
-0.00425432
0.077535
-0.00241592
0.0786133
-0.000718071
0.0790757
0.000806707
0.0789627
0.00214231
0.0783198
0.0032861
0.00424826
0.0771932
0.0765657
-0.0142937
0.0805135
-0.0120024
0.0837409
-0.00940167
0.0862792
-0.00679269
0.088181
-0.0043177
0.0895018
-0.00203883
0.0903015
6.94916e-06
0.0906327
0.00181109
0.0905314
0.00338741
0.00475817
0.0900215
0.0839299
-0.0188591
0.0877188
-0.0157913
0.0906857
-0.0123686
0.0929213
-0.00902828
0.0945176
-0.00591411
0.0955741
-0.00309538
0.0961966
-0.000615646
0.0964722
0.00153532
0.0964509
0.00340865
0.00505618
0.0961527
0.0887185
-0.023474
0.0921782
-0.0192512
0.0945271
-0.0147177
0.0959774
-0.0104787
0.0967358
-0.00667267
0.0970271
-0.00338675
0.0970462
-0.00063504
0.0969137
0.00166778
0.0966772
0.00364492
0.00540171
0.0963315
0.0905828
-0.0281491
0.0929704
-0.0216393
0.0936219
-0.0153694
0.0931911
-0.0100483
0.0922326
-0.00571454
0.0911953
-0.00234984
0.0903311
0.0002289
0.0897177
0.00228083
0.0893311
0.00403137
0.00567065
0.0890619
0.0872302
-0.0312204
0.0858442
-0.0202536
0.0825543
-0.01208
0.0789428
-0.00643747
0.0758747
-0.00264707
0.0737179
-0.000193557
0.0724966
0.00144955
0.0720867
0.00269054
0.072288
0.00382966
0.00522168
0.0727368
0.0710973
-0.0262984
0.0618836
-0.0110402
0.0539889
-0.00418563
0.0486402
-0.00108938
0.045666
0.00032654
0.0445027
0.000969159
0.0446212
0.00133062
0.0456646
0.00164677
0.0473928
0.00210119
0.00346975
0.0491444
0.0286489
0.0176087
0.013423
0.0123335
0.0126599
0.013629
0.0149595
0.0166062
0.0187073
0.022177
0.0207504
0.00139577
0.0193388
0.00141182
0.0179392
0.00139971
0.0165723
0.00136706
0.0152511
0.00132126
0.0139829
0.00126832
0.0127709
0.00121213
0.0116161
0.0011549
0.0105184
0.00109781
0.00947713
0.00104142
0.00849142
0.000985792
0.00756074
0.000930741
0.00668478
0.000876001
0.00586343
0.000821368
0.00509667
0.000766746
0.00438445
0.000712184
0.00372654
0.000657864
0.00312237
0.000604098
0.00257101
0.000551279
0.00207107
0.000499849
0.00162074
0.000450252
0.00121776
0.000402906
0.000859528
0.00035816
0.000543206
0.00031627
0.000265844
0.000277321
2.47231e-05
0.000241092
-0.000182146
0.000206845
-0.000354836
0.000172671
-0.000489724
0.000134874
-0.000577538
8.78153e-05
-0.000602241
2.46958e-05
-0.000543929
-5.82779e-05
-0.000390549
-0.000153466
-0.000168587
-0.000222009
-0.000168607
0.0529871
0.0034788
0.0506713
0.00372791
0.0481892
0.00388206
0.0455992
0.00395726
0.042949
0.00397169
0.0402756
0.0039419
0.0376074
0.00388055
0.0349659
0.00379663
0.0323674
0.00369653
0.0298246
0.00358443
0.0273478
0.00346273
0.0249461
0.00333259
0.0226277
0.00319446
0.0204004
0.00304862
0.0182718
0.00289539
0.0162485
0.00273537
0.0143366
0.00256958
0.0125412
0.00239941
0.0108656
0.00222665
0.00931191
0.00205332
0.0078804
0.00188155
0.00656965
0.00171347
0.00537668
0.00155097
0.00429718
0.00139563
0.003326
0.0012484
0.00245776
0.00110924
0.0016882
0.000976332
0.00101599
0.00084482
0.000445543
0.00070528
-9.731e-06
0.000543059
-0.000325827
0.000340868
-0.000472044
8.78445e-05
-0.000426112
-0.000199343
-0.000213212
-0.000435171
-0.000381844
0.0756317
0.00504042
0.0736889
0.00567081
0.071422
0.00614908
0.0688862
0.00649318
0.0661308
0.00672726
0.0631987
0.00687407
0.0601282
0.00695127
0.0569527
0.00697237
0.0537016
0.00694774
0.0504015
0.00688474
0.0470764
0.00678797
0.0437491
0.00665999
0.0404415
0.00650217
0.0371747
0.00631537
0.0339696
0.00610044
0.0308462
0.00585868
0.0278235
0.00559212
0.024919
0.00530374
0.0221481
0.00499738
0.0195235
0.0046777
0.017055
0.00434985
0.014749
0.00401922
0.0126087
0.00369106
0.0106341
0.00337003
0.00882259
0.00305977
0.00716966
0.00276204
0.00567027
0.00247561
0.00432068
0.00219432
0.00312109
0.00190482
0.0020789
0.0015853
0.00121158
0.00120819
0.000547837
0.000751806
0.000122849
0.000225385
-3.71367e-05
-0.000275183
-0.000418991
0.0891235
0.00593837
0.0878642
0.00693014
0.0862762
0.00773714
0.0843893
0.00838013
0.0822271
0.00888957
0.07981
0.00929122
0.0771583
0.00960311
0.074292
0.00983881
0.0712313
0.0100086
0.067997
0.0101192
0.0646112
0.0101738
0.0610978
0.0101735
0.0574822
0.0101179
0.0537916
0.0100059
0.0500552
0.00983688
0.0463031
0.00961069
0.0425664
0.00932869
0.0388761
0.00899389
0.0352621
0.00861122
0.0317522
0.00818739
0.0283711
0.00773068
0.0251396
0.00725046
0.0220739
0.00675662
0.0191849
0.00625884
0.0164787
0.00576572
0.013957
0.00528365
0.0116173
0.00481522
0.00945453
0.00435696
0.0074629
0.00389643
0.00563821
0.00340995
0.00398274
0.00286387
0.00251234
0.00222215
0.00127421
0.00146374
0.000380138
0.000618619
-3.89016e-05
0.0955867
0.00650431
0.0947731
0.00774359
0.0937383
0.00877191
0.0924942
0.00962409
0.0910387
0.0103451
0.0893652
0.0109648
0.0874674
0.0115009
0.0853398
0.0119666
0.0829784
0.0123702
0.0803826
0.0127151
0.077556
0.0130006
0.0745064
0.0132232
0.0712463
0.0133779
0.0677935
0.0134588
0.0641703
0.01346
0.0604041
0.0133768
0.0565265
0.0132062
0.0525725
0.0129478
0.0485793
0.0126042
0.0445851
0.0121814
0.0406274
0.0116882
0.0367413
0.0111364
0.0329578
0.0105399
0.0293029
0.00991359
0.0257959
0.00927255
0.0224491
0.00863024
0.0192674
0.00799683
0.0162476
0.00737659
0.0133793
0.00676467
0.0106454
0.00614389
0.00802656
0.00548273
0.00551381
0.00473506
0.00314546
0.00383172
0.00112308
0.00264072
0.00108412
0.0958578
0.0069778
0.0952793
0.00832189
0.0946299
0.0094211
0.0939081
0.0103457
0.0930903
0.0111628
0.0921505
0.0119046
0.0910625
0.0125889
0.0897995
0.0132296
0.0883362
0.0138337
0.0866504
0.014401
0.0847244
0.0149266
0.0825451
0.0154027
0.0801044
0.0158187
0.0774004
0.0161629
0.0744377
0.0164228
0.0712277
0.0165868
0.067789
0.0166448
0.064147
0.0165897
0.0603331
0.016418
0.0563837
0.0161306
0.0523384
0.0157333
0.0482383
0.0152363
0.0441234
0.0146545
0.0400308
0.0140061
0.0359918
0.0133114
0.0320301
0.0125918
0.0281592
0.0118676
0.0243803
0.0111553
0.0206799
0.010465
0.0170279
0.00979596
0.0133777
0.00913298
0.00967738
0.00843544
0.0059172
0.0075918
0.00233768
0.00621984
0.00342181
0.0888017
0.00723776
0.0885831
0.00854028
0.0884502
0.00955378
0.0883723
0.0104235
0.0883006
0.0112344
0.0881937
0.0120113
0.0880114
0.0127711
0.0877141
0.013527
0.0872651
0.0142827
0.0866317
0.0150345
0.0857837
0.0157747
0.0846944
0.0164921
0.0833405
0.0171728
0.081703
0.0178005
0.0797684
0.0183574
0.0775296
0.0188257
0.0749864
0.019188
0.0721465
0.0194296
0.0690254
0.019539
0.0656462
0.0195097
0.0620388
0.0193406
0.0582381
0.019037
0.0542819
0.0186106
0.0502087
0.0180793
0.0460538
0.0174661
0.0418467
0.0167989
0.0376063
0.016108
0.033336
0.0154256
0.0290182
0.0147827
0.0246068
0.0142074
0.0200196
0.0137205
0.0151358
0.0133192
0.00982937
0.0128981
0.00424587
0.0118034
0.00766761
0.0731735
0.00680074
0.0737678
0.00794574
0.0745722
0.00874911
0.075504
0.00949142
0.0764925
0.0102457
0.0774828
0.0110209
0.0784233
0.0118305
0.0792694
0.0126808
0.0799843
0.0135678
0.0805353
0.0144836
0.0808919
0.0154182
0.0810246
0.0163594
0.0809056
0.0172918
0.0805088
0.0181973
0.0798107
0.0190557
0.0787912
0.0198452
0.0774355
0.0205438
0.0757345
0.0211306
0.0736862
0.0215873
0.0712963
0.0218996
0.0685779
0.0220589
0.0655513
0.0220635
0.0622425
0.0219194
0.0586808
0.0216409
0.0548962
0.0212508
0.0509149
0.0207801
0.0467544
0.0202685
0.0424162
0.0197638
0.0378754
0.0193235
0.0330665
0.0190165
0.0278611
0.0189259
0.0220368
0.0191438
0.0152434
0.0196915
0.00721952
0.019827
0.0148872
0.0504942
0.00545074
0.0522921
0.00614754
0.0544244
0.00661644
0.056695
0.00722058
0.0590056
0.00793489
0.0612841
0.00874219
0.0634782
0.00963633
0.0655546
0.0106042
0.0674896
0.0116328
0.0692612
0.0127119
0.0708474
0.0138321
0.0722249
0.014982
0.0733693
0.0161475
0.0742551
0.0173116
0.0748565
0.0184544
0.0751482
0.0195536
0.075107
0.0205851
0.074713
0.0215247
0.0739508
0.0223496
0.0728108
0.0230396
0.0712899
0.02358
0.0693914
0.0239621
0.0671252
0.0241858
0.0645061
0.0242601
0.0615521
0.024205
0.0582802
0.0240522
0.0547017
0.023847
0.0508141
0.0236515
0.0465881
0.0235497
0.0419459
0.023659
0.0367213
0.0241511
0.0305783
0.0252872
0.0228217
0.0274482
0.012124
0.0305254
0.0270112
0.0249764
0.00265104
0.0286994
0.00242414
0.0324323
0.00288326
0.0360543
0.00359821
0.0395462
0.00444266
0.0428854
0.00540274
0.0460712
0.00645036
0.0491118
0.00756346
0.0520106
0.00873396
0.0547633
0.00995913
0.0573601
0.0112353
0.0597862
0.0125559
0.0620223
0.0139115
0.0640453
0.0152886
0.0658296
0.0166703
0.0673477
0.0180356
0.068572
0.0193609
0.0694759
0.020621
0.0700349
0.0217907
0.0702283
0.0228464
0.0700396
0.0237688
0.0694581
0.0245439
0.0684783
0.0251657
0.0671004
0.0256381
0.0653293
0.0259764
0.0631718
0.0262099
0.0606341
0.026385
0.0577151
0.0265707
0.0543967
0.0268685
0.0506231
0.0274333
0.0462553
0.0285194
0.0409592
0.0305838
0.0338616
0.0345466
0.0225924
0.0417946
0.0496039
0.00557077
-0.00291987
0.010605
-0.00261058
0.0149918
-0.001504
0.0190133
-0.000423706
0.022781
0.000674584
0.0263617
0.00182169
0.0298084
0.00300342
0.0331575
0.00421413
0.0364282
0.0054631
0.0396265
0.00676069
0.0427491
0.00811261
0.045785
0.0095199
0.0487172
0.0109793
0.0515232
0.0124827
0.0541764
0.0140171
0.0566474
0.0155647
0.0589049
0.0171035
0.0609172
0.0186089
0.0626531
0.0200549
0.0640835
0.0214163
0.0651821
0.0226703
0.0659269
0.0237993
0.0663007
0.0247923
0.0662916
0.0256475
0.0658938
0.0263745
0.065107
0.026997
0.0639365
0.0275558
0.0623932
0.0281144
0.0604939
0.0287682
0.058267
0.0296607
0.0557711
0.031016
0.0531652
0.0331903
0.050967
0.036745
0.0506614
0.0421009
0.0458668
0.0543987
0.000554773
-0.00347488
0.002769
-0.00482538
0.00551886
-0.00425439
0.00836993
-0.00327529
0.0112339
-0.00218979
0.0141118
-0.00105659
0.0170186
9.62324e-05
0.0199658
0.00126671
0.0229589
0.00246981
0.0259986
0.00372079
0.0290798
0.00503126
0.0321913
0.00640828
0.0353164
0.00785417
0.038433
0.00936601
0.0415149
0.0109352
0.044532
0.0125477
0.0474512
0.0141844
0.0502379
0.0158224
0.0528566
0.0174364
0.0552724
0.0190006
0.0574524
0.0204906
0.0593664
0.0218856
0.0609886
0.0231704
0.0622986
0.0243378
0.063283
0.0253905
0.0639368
0.0263435
0.0642668
0.0272261
0.0642969
0.0280848
0.0640788
0.0289868
0.0637166
0.0300235
0.0634222
0.031311
0.0636326
0.0329803
0.0652621
0.0351157
0.0696183
0.0377447
0.0400331
0.0754523
-0.000338376
-0.00313673
2.80869e-06
-0.00516719
0.0010267
-0.00527889
0.00243698
-0.00468613
0.00408367
-0.00383698
0.0059154
-0.00288875
0.00791301
-0.00190171
0.0100693
-0.000889891
0.0123835
0.000155464
0.0148528
0.00125134
0.0174711
0.00241286
0.0202289
0.00365036
0.0231128
0.00497019
0.0261052
0.00637362
0.0291841
0.00785636
0.0323233
0.00940848
0.0354931
0.0110148
0.0386602
0.0126554
0.0417897
0.0143071
0.0448454
0.0159451
0.0477916
0.0175447
0.0505943
0.0190832
0.0532228
0.0205423
0.0556511
0.0219098
0.0578606
0.0231814
0.0598423
0.0243622
0.0616017
0.0254672
0.063165
0.0265219
0.0645915
0.0275608
0.0659928
0.0286227
0.0675648
0.0297394
0.0696271
0.0309182
0.0726611
0.0320817
0.077328
0.033078
0.0335202
0.083841
-0.000553522
-0.0025835
-0.00104837
-0.004673
-0.00113981
-0.00518808
-0.000865427
-0.00496108
-0.000292779
-0.00441014
0.000539704
-0.00372164
0.0016109
-0.0029732
0.00290877
-0.00218794
0.0044271
-0.00136295
0.00616387
-0.000485438
0.00811796
0.000458786
0.0102858
0.00148259
0.0126608
0.00259516
0.0152335
0.00380101
0.0179905
0.00509942
0.0209145
0.00648463
0.0239836
0.00794577
0.0271721
0.00946704
0.0304507
0.0110287
0.0337877
0.0126084
0.03715
0.0141827
0.0405045
0.0157291
0.0438197
0.0172274
0.0470681
0.0186619
0.0502276
0.0200223
0.0532854
0.0213048
0.0562411
0.0225117
0.0591129
0.0236505
0.0619442
0.0247298
0.0648134
0.0257538
0.0678434
0.0267096
0.0712098
0.0275519
0.0751305
0.0281609
0.0799061
0.0283025
0.02768
0.0857464
-0.00061651
-0.00196723
-0.001495
-0.00379511
-0.002235
-0.00444862
-0.0027311