/*--------------------------------*- C++ -*----------------------------------*\
| =========                 |                                                 |
| \\      /  F ield         | OpenFOAM: The Open Source CFD Toolbox           |
|  \\    /   O peration     | Version:  2406                                  |
|   \\  /    A nd           | Website:  www.openfoam.com                      |
|    \\/     M anipulation  |                                                 |
\*---------------------------------------------------------------------------*/
FoamFile
{
    version     2.0;
    format      ascii;
    arch        "LSB;label=32;scalar=64";
    class       volVectorField;
    location    "36";
    object      U;
}
// * * * * * * * * * * * * * * * * * * * * * * * * * * * * * * * * * * * * * //

dimensions      [0 1 -1 0 0 0 0];

internalField   nonuniform List<vector> 
1700
(
(0.190142 -0.00239344 0)
(0.196399 -0.00308443 0)
(0.202413 -0.00244243 0)
(0.20772 -0.00212652 0)
(0.213317 -0.00223441 0)
(0.21982 -0.00261679 0)
(0.227723 -0.00334748 0)
(0.237718 -0.00472692 0)
(0.252019 -0.00822308 0)
(0.267329 -0.0269464 0)
(0.506672 -0.00358359 0)
(0.508257 -0.0072698 0)
(0.512104 -0.00844291 0)
(0.516742 -0.00921746 0)
(0.522884 -0.0104676 0)
(0.530923 -0.012394 0)
(0.541024 -0.0153008 0)
(0.553493 -0.0198523 0)
(0.568989 -0.0271263 0)
(0.585141 -0.0411686 0)
(0.747473 -0.00280692 0)
(0.748472 -0.00709004 0)
(0.750587 -0.0101424 0)
(0.752894 -0.012937 0)
(0.756504 -0.0161207 0)
(0.761888 -0.0199978 0)
(0.768941 -0.0249466 0)
(0.777457 -0.0316042 0)
(0.787083 -0.0408303 0)
(0.796422 -0.0541096 0)
(0.907857 -0.00248054 0)
(0.908647 -0.00702347 0)
(0.909925 -0.0110617 0)
(0.910651 -0.0150313 0)
(0.911911 -0.0193952 0)
(0.914217 -0.0244578 0)
(0.917373 -0.0305336 0)
(0.921 -0.0380332 0)
(0.924613 -0.047362 0)
(0.927366 -0.0587896 0)
(0.987965 -0.00225315 0)
(0.988402 -0.00662996 0)
(0.988866 -0.0109062 0)
(0.988185 -0.0153108 0)
(0.987348 -0.0201105 0)
(0.986847 -0.0255315 0)
(0.986434 -0.0317984 0)
(0.985687 -0.0391374 0)
(0.98416 -0.0476952 0)
(0.981292 -0.0574308 0)
(0.987911 -0.00186104 0)
(0.98792 -0.00562305 0)
(0.987498 -0.00959658 0)
(0.985429 -0.0138687 0)
(0.982675 -0.0184969 0)
(0.979687 -0.0236093 0)
(0.97618 -0.0293583 0)
(0.97173 -0.0358548 0)
(0.965955 -0.0431166 0)
(0.958462 -0.0510187 0)
(0.907699 -0.00118693 0)
(0.907229 -0.00390015 0)
(0.905911 -0.00718909 0)
(0.902571 -0.0108875 0)
(0.89821 -0.0148441 0)
(0.893212 -0.0191196 0)
(0.887253 -0.0238197 0)
(0.879929 -0.0289816 0)
(0.870917 -0.0345587 0)
(0.85993 -0.0404137 0)
(0.747223 -1.71386e-05 0)
(0.746235 -0.00129036 0)
(0.744274 -0.00376396 0)
(0.740212 -0.00666823 0)
(0.735029 -0.00964233 0)
(0.728983 -0.0127449 0)
(0.721704 -0.0160595 0)
(0.712816 -0.0195767 0)
(0.702065 -0.0232276 0)
(0.689256 -0.0269024 0)
(0.506385 0.00181612 0)
(0.505584 0.00216318 0)
(0.504522 0.000197975 0)
(0.501562 -0.0021245 0)
(0.497339 -0.00417439 0)
(0.491999 -0.00606264 0)
(0.485251 -0.00789978 0)
(0.476862 -0.00969208 0)
(0.466723 -0.0114111 0)
(0.454784 -0.0130195 0)
(0.189884 0.0017538 0)
(0.19427 0.00162383 0)
(0.196511 0.000431296 0)
(0.196217 -0.000357865 0)
(0.194471 -0.000788492 0)
(0.191694 -0.00111571 0)
(0.187901 -0.00141214 0)
(0.183106 -0.0016622 0)
(0.177375 -0.00185572 0)
(0.170785 -0.00200053 0)
(-0.000104667 9.01246e-05 0)
(-0.00188926 0.000557035 0)
(-0.00517822 0.000849298 0)
(-0.00925658 0.000954773 0)
(-0.0135492 0.000987493 0)
(-0.017835 0.00100253 0)
(-0.0220473 0.00101885 0)
(-0.0261633 0.00103947 0)
(-0.030162 0.00106049 0)
(-0.034008 0.00107501 0)
(-0.0376445 0.0010756 0)
(-0.0409912 0.0010546 0)
(-0.0439431 0.00100466 0)
(-0.0463706 0.000918511 0)
(-0.0481216 0.000789585 0)
(-0.0490254 0.000611499 0)
(-0.0488956 0.000379099 0)
(-0.0475418 8.84444e-05 0)
(-0.0447782 -0.000262739 0)
(-0.0404302 -0.000676025 0)
(-0.0343431 -0.00115046 0)
(-0.0263902 -0.00167912 0)
(-0.0164794 -0.00225259 0)
(-0.00455571 -0.00285706 0)
(0.00940525 -0.00346478 0)
(0.0253973 -0.00405324 0)
(0.0433644 -0.00461426 0)
(0.0631973 -0.00512935 0)
(0.0847323 -0.00557069 0)
(0.107729 -0.00590037 0)
(0.13184 -0.00606764 0)
(0.156576 -0.00600853 0)
(0.181273 -0.00565138 0)
(0.205067 -0.00493003 0)
(0.226918 -0.00381313 0)
(-0.000744471 0.00200609 0)
(-0.00597794 0.00534033 0)
(-0.0139439 0.00731962 0)
(-0.0232392 0.00811742 0)
(-0.0327682 0.00828485 0)
(-0.0420664 0.00818408 0)
(-0.0509377 0.00797962 0)
(-0.0592759 0.00771934 0)
(-0.0669894 0.00739617 0)
(-0.0739685 0.00697982 0)
(-0.0800699 0.00643103 0)
(-0.0851131 0.00570697 0)
(-0.0888813 0.00476392 0)
(-0.0911265 0.00356067 0)
(-0.0915779 0.00206123 0)
(-0.0899519 0.000241275 0)
(-0.0859744 -0.00191128 0)
(-0.0793852 -0.00439054 0)
(-0.0699522 -0.00717573 0)
(-0.0574859 -0.0102313 0)
(-0.0418456 -0.0135081 0)
(-0.0229452 -0.0169525 0)
(-0.000754935 -0.0205094 0)
(0.024706 -0.0241121 0)
(0.0533669 -0.0276835 0)
(0.0851061 -0.0311543 0)
(0.119758 -0.034462 0)
(0.15712 -0.0375261 0)
(0.196937 -0.0402409 0)
(0.238888 -0.0424614 0)
(0.282545 -0.0439897 0)
(0.327328 -0.0445665 0)
(0.372449 -0.0438828 0)
(0.416857 -0.0416116 0)
(0.45922 -0.0375042 0)
(-0.00131828 0.0061521 0)
(-0.00938736 0.0138365 0)
(-0.0205608 0.0178639 0)
(-0.0329084 0.0192866 0)
(-0.045051 0.0193037 0)
(-0.0564327 0.0186653 0)
(-0.0667955 0.017723 0)
(-0.0759804 0.0165891 0)
(-0.0838525 0.0152581 0)
(-0.0902626 0.0136731 0)
(-0.0950326 0.0117592 0)
(-0.0979535 0.00943828 0)
(-0.09879 0.0066373 0)
(-0.0972905 0.00329719 0)
(-0.0931987 -0.00061906 0)
(-0.0862895 -0.00512676 0)
(-0.0763545 -0.0102124 0)
(-0.0632198 -0.0158346 0)
(-0.0467579 -0.0219254 0)
(-0.0268948 -0.0284005 0)
(-0.00360972 -0.0351632 0)
(0.023068 -0.0421047 0)
(0.0530544 -0.0491058 0)
(0.0862194 -0.0560441 0)
(0.122405 -0.0628112 0)
(0.161435 -0.0693129 0)
(0.203119 -0.0754535 0)
(0.247255 -0.0811197 0)
(0.293628 -0.0861617 0)
(0.341988 -0.0903644 0)
(0.392019 -0.0934178 0)
(0.443283 -0.0948908 0)
(0.495154 -0.094238 0)
(0.546706 -0.0908309 0)
(0.596657 -0.0841376 0)
(-0.0017238 0.0119951 0)
(-0.0115736 0.0248811 0)
(-0.0242098 0.0307494 0)
(-0.0372964 0.0322524 0)
(-0.0493553 0.0314727 0)
(-0.0598768 0.0296071 0)
(-0.0686403 0.0272089 0)
(-0.075512 0.0244634 0)
(-0.0803786 0.0213725 0)
(-0.0831157 0.0178618 0)
(-0.0835776 0.0138321 0)
(-0.0816004 0.00918336 0)
(-0.0770089 0.00383221 0)
(-0.0696279 -0.00227467 0)
(-0.059323 -0.00915552 0)
(-0.0459694 -0.0167903 0)
(-0.0294808 -0.0251307 0)
(-0.009809 -0.0340956 0)
(0.0130474 -0.043576 0)
(0.0390317 -0.0534322 0)
(0.0680434 -0.0635102 0)
(0.0999397 -0.0736486 0)
(0.134545 -0.0836893 0)
(0.171667 -0.0934953 0)
(0.21111 -0.102947 0)
(0.252681 -0.111942 0)
(0.296208 -0.120386 0)
(0.341544 -0.128174 0)
(0.388569 -0.135151 0)
(0.437184 -0.14108 0)
(0.48728 -0.145578 0)
(0.538671 -0.148064 0)
(0.591006 -0.147732 0)
(0.64355 -0.143532 0)
(0.69508 -0.134488 0)
(-0.00201626 0.0187937 0)
(-0.0125173 0.0368025 0)
(-0.0245903 0.0436417 0)
(-0.0358317 0.0442325 0)
(-0.0449774 0.0417486 0)
(-0.0517444 0.0378459 0)
(-0.0560649 0.0332601 0)
(-0.0579127 0.0282329 0)
(-0.0572598 0.0227704 0)
(-0.054056 0.0167846 0)
(-0.0482343 0.0101656 0)
(-0.0397156 0.00280839 0)
(-0.0284247 -0.00536674 0)
(-0.0143125 -0.0143977 0)
(0.00266081 -0.0242779 0)
(0.0224929 -0.0349619 0)
(0.0451486 -0.0463611 0)
(0.0705545 -0.0583481 0)
(0.0985901 -0.0707646 0)
(0.129088 -0.0834243 0)
(0.161849 -0.0961341 0)
(0.196647 -0.108707 0)
(0.233245 -0.12097 0)
(0.271411 -0.132783 0)
(0.310924 -0.144036 0)
(0.351603 -0.154657 0)
(0.393316 -0.164592 0)
(0.436001 -0.173787 0)
(0.479679 -0.182144 0)
(0.524465 -0.189462 0)
(0.57055 -0.195359 0)
(0.618142 -0.199164 0)
(0.667379 -0.199817 0)
(0.717877 -0.195679 0)
(0.768707 -0.185074 0)
(-0.00225961 0.0259935 0)
(-0.0122964 0.0479169 0)
(-0.0213995 0.054072 0)
(-0.0278127 0.0524096 0)
(-0.0310278 0.0472539 0)
(-0.0312245 0.040611 0)
(-0.0285817 0.0333138 0)
(-0.0232253 0.0256109 0)
(-0.0152331 0.017488 0)
(-0.00463514 0.00883455 0)
(0.00854656 -0.000475647 0)
(0.0243042 -0.0105564 0)
(0.0426114 -0.0214709 0)
(0.0634286 -0.0332337 0)
(0.0866872 -0.0458132 0)
(0.112278 -0.0591285 0)
(0.140052 -0.0730488 0)
(0.169817 -0.0874015 0)
(0.201348 -0.101986 0)
(0.234388 -0.116585 0)
(0.268656 -0.13098 0)
(0.303867 -0.144973 0)
(0.339739 -0.158397 0)
(0.376014 -0.171129 0)
(0.412473 -0.183103 0)
(0.448961 -0.194304 0)
(0.485408 -0.204763 0)
(0.521858 -0.214529 0)
(0.558505 -0.22363 0)
(0.595725 -0.231998 0)
(0.634102 -0.239351 0)
(0.674408 -0.24504 0)
(0.717606 -0.247788 0)
(0.76407 -0.24534 0)
(0.814447 -0.235231 0)
(-0.00246425 0.0334811 0)
(-0.0104807 0.0563616 0)
(-0.0132501 0.0590696 0)
(-0.0110752 0.0536268 0)
(-0.00501718 0.0450869 0)
(0.00410828 0.0353962 0)
(0.015887 0.0252951 0)
(0.0300881 0.0149567 0)
(0.0465654 0.00429462 0)
(0.0652531 -0.00685082 0)
(0.0861064 -0.0186204 0)
(0.109042 -0.0311071 0)
(0.133957 -0.0443486 0)
(0.160716 -0.0583302 0)
(0.18915 -0.072983 0)
(0.21905 -0.0881855 0)
(0.250172 -0.103768 0)
(0.282233 -0.119523 0)
(0.314929 -0.135221 0)
(0.347935 -0.150626 0)
(0.380926 -0.165514 0)
(0.413583 -0.179693 0)
(0.445616 -0.193021 0)
(0.476772 -0.205419 0)
(0.50686 -0.216881 0)
(0.535772 -0.227483 0)
(0.563509 -0.237376 0)
(0.590229 -0.246776 0)
(0.6163 -0.255928 0)
(0.642386 -0.265038 0)
(0.669528 -0.274119 0)
(0.699274 -0.282775 0)
(0.733705 -0.28957 0)
(0.774889 -0.291796 0)
(0.827697 -0.285708 0)
(-0.00245255 0.0412728 0)
(-0.00434942 0.0590866 0)
(0.00500805 0.0544001 0)
(0.0208345 0.0440774 0)
(0.0397388 0.0322367 0)
(0.0605424 0.0199337 0)
(0.0829157 0.00755348 0)
(0.106744 -0.00488183 0)
(0.131977 -0.0175346 0)
(0.158552 -0.0305847 0)
(0.186393 -0.0441576 0)
(0.21539 -0.0583151 0)
(0.245389 -0.0730627 0)
(0.276195 -0.0883511 0)
(0.307571 -0.104074 0)
(0.339246 -0.120075 0)
(0.370915 -0.136153 0)
(0.402253 -0.152076 0)
(0.43292 -0.167602 0)
(0.46258 -0.182492 0)
(0.490907 -0.196535 0)
(0.517603 -0.209565 0)
(0.54241 -0.221479 0)
(0.56512 -0.232255 0)
(0.585596 -0.241965 0)
(0.603786 -0.250787 0)
(0.619757 -0.259018 0)
(0.633742 -0.267082 0)
(0.646223 -0.275536 0)
(0.658086 -0.285059 0)
(0.67081 -0.296367 0)
(0.686983 -0.310009 0)
(0.710147 -0.325475 0)
(0.746634 -0.340707 0)
(0.804624 -0.348011 0)
(0.00307915 0.0406331 0)
(0.0182135 0.0467484 0)
(0.0487643 0.0334756 0)
(0.0834671 0.0194047 0)
(0.11736 0.00591004 0)
(0.150248 -0.0074683 0)
(0.182724 -0.020774 0)
(0.215033 -0.0340549 0)
(0.247244 -0.047493 0)
(0.279415 -0.0612618 0)
(0.311555 -0.0754551 0)
(0.34359 -0.0900915 0)
(0.37537 -0.10513 0)
(0.40669 -0.120475 0)
(0.437299 -0.135983 0)
(0.466916 -0.151464 0)
(0.495236 -0.166697 0)
(0.521944 -0.18144 0)
(0.546728 -0.195453 0)
(0.569291 -0.208512 0)
(0.589362 -0.220432 0)
(0.606708 -0.231084 0)
(0.621143 -0.240416 0)
(0.632535 -0.248464 0)
(0.640816 -0.255377 0)
(0.64599 -0.261426 0)
(0.648156 -0.267039 0)
(0.647539 -0.272832 0)
(0.644565 -0.279684 0)
(0.640035 -0.288846 0)
(0.635421 -0.302123 0)
(0.633895 -0.322129 0)
(0.64055 -0.352405 0)
(0.670154 -0.396361 0)
(0.721452 -0.441813 0)
(0.0600731 0.00260764 0)
(0.105303 -0.00223862 0)
(0.156104 -0.0133943 0)
(0.205548 -0.0243055 0)
(0.249251 -0.0347917 0)
(0.288619 -0.0457677 0)
(0.325485 -0.0573627 0)
(0.36063 -0.0694444 0)
(0.394326 -0.0819679 0)
(0.426725 -0.0949398 0)
(0.457897 -0.108339 0)
(0.4878 -0.122097 0)
(0.516301 -0.136101 0)
(0.543206 -0.1502 0)
(0.56828 -0.164209 0)
(0.591266 -0.177911 0)
(0.611897 -0.191073 0)
(0.629909 -0.203457 0)
(0.645054 -0.214836 0)
(0.65711 -0.225013 0)
(0.665894 -0.233839 0)
(0.671267 -0.241231 0)
(0.673137 -0.247184 0)
(0.671465 -0.251792 0)
(0.666262 -0.255258 0)
(0.657585 -0.25792 0)
(0.645531 -0.260275 0)
(0.63024 -0.263041 0)
(0.61189 -0.267258 0)
(0.590749 -0.274498 0)
(0.567265 -0.287301 0)
(0.542771 -0.310068 0)
(0.520433 -0.351101 0)
(0.515954 -0.421991 0)
(0.50392 -0.504291 0)
(0.313998 -0.0581531 0)
(0.340394 -0.0633862 0)
(0.37121 -0.0656445 0)
(0.406958 -0.0699579 0)
(0.441657 -0.0761648 0)
(0.473957 -0.0838913 0)
(0.504447 -0.0928694 0)
(0.533386 -0.10282 0)
(0.560713 -0.113508 0)
(0.586347 -0.124762 0)
(0.610212 -0.136434 0)
(0.632185 -0.148368 0)
(0.652085 -0.160391 0)
(0.6697 -0.172306 0)
(0.684797 -0.183901 0)
(0.697145 -0.194948 0)
(0.706521 -0.205214 0)
(0.71272 -0.21448 0)
(0.715574 -0.222545 0)
(0.71495 -0.229251 0)
(0.710766 -0.234493 0)
(0.70299 -0.238237 0)
(0.69164 -0.240527 0)
(0.67678 -0.241501 0)
(0.658508 -0.2414 0)
(0.636938 -0.240582 0)
(0.612171 -0.239544 0)
(0.584253 -0.23897 0)
(0.553103 -0.239811 0)
(0.518387 -0.24346 0)
(0.479236 -0.252112 0)
(0.433785 -0.269533 0)
(0.377468 -0.302735 0)
(0.298131 -0.357875 0)
(0.129524 -0.355731 0)
(0.598406 -0.0627753 0)
(0.606111 -0.0771633 0)
(0.616832 -0.0859031 0)
(0.632544 -0.0933011 0)
(0.650269 -0.100743 0)
(0.668089 -0.108476 0)
(0.685476 -0.116679 0)
(0.702098 -0.125424 0)
(0.717551 -0.134644 0)
(0.731487 -0.144211 0)
(0.743628 -0.153975 0)
(0.753722 -0.163776 0)
(0.76152 -0.173434 0)
(0.766776 -0.182749 0)
(0.76926 -0.191514 0)
(0.768765 -0.199516 0)
(0.765121 -0.20655 0)
(0.758196 -0.212427 0)
(0.747909 -0.216996 0)
(0.734231 -0.220149 0)
(0.717194 -0.221834 0)
(0.696883 -0.222071 0)
(0.673436 -0.220951 0)
(0.647025 -0.218648 0)
(0.61784 -0.215417 0)
(0.586062 -0.211601 0)
(0.551817 -0.207637 0)
(0.515118 -0.204074 0)
(0.475773 -0.201609 0)
(0.433234 -0.20115 0)
(0.386313 -0.203924 0)
(0.332754 -0.211578 0)
(0.267743 -0.225612 0)
(0.182699 -0.23997 0)
(0.0521896 -0.201103 0)
(0.80288 -0.0702705 0)
(0.805797 -0.0836721 0)
(0.808216 -0.0937432 0)
(0.81213 -0.102424 0)
(0.817054 -0.110678 0)
(0.82205 -0.118702 0)
(0.826628 -0.12664 0)
(0.830451 -0.134612 0)
(0.833142 -0.142632 0)
(0.834325 -0.150633 0)
(0.83368 -0.158506 0)
(0.830928 -0.166121 0)
(0.825819 -0.173324 0)
(0.818131 -0.179948 0)
(0.80768 -0.185816 0)
(0.794326 -0.190757 0)
(0.777983 -0.194612 0)
(0.75862 -0.197249 0)
(0.736271 -0.198574 0)
(0.711031 -0.198543 0)
(0.683057 -0.197165 0)
(0.652557 -0.194512 0)
(0.619781 -0.190717 0)
(0.585 -0.185973 0)
(0.548483 -0.180529 0)
(0.510461 -0.174685 0)
(0.47109 -0.168781 0)
(0.43039 -0.163196 0)
(0.388175 -0.158338 0)
(0.343934 -0.154644 0)
(0.296667 -0.152556 0)
(0.244646 -0.152375 0)
(0.184731 -0.153328 0)
(0.114245 -0.147985 0)
(0.026508 -0.104368 0)
(0.927991 -0.0715378 0)
(0.925992 -0.0833997 0)
(0.922461 -0.0934377 0)
(0.918562 -0.102203 0)
(0.914397 -0.110271 0)
(0.90955 -0.117844 0)
(0.903704 -0.125017 0)
(0.896633 -0.131873 0)
(0.888091 -0.138442 0)
(0.877809 -0.144688 0)
(0.865546 -0.150536 0)
(0.851097 -0.155883 0)
(0.834297 -0.160615 0)
(0.815019 -0.164602 0)
(0.793186 -0.167718 0)
(0.768774 -0.169843 0)
(0.741822 -0.170881 0)
(0.712433 -0.170766 0)
(0.68077 -0.169468 0)
(0.647056 -0.167004 0)
(0.611564 -0.16344 0)
(0.574601 -0.158887 0)
(0.536495 -0.153502 0)
(0.49757 -0.147475 0)
(0.458124 -0.141026 0)
(0.418397 -0.134388 0)
(0.37854 -0.127791 0)
(0.338578 -0.121446 0)
(0.298359 -0.115517 0)
(0.257496 -0.11009 0)
(0.215293 -0.105121 0)
(0.17066 -0.10028 0)
(0.121972 -0.0942923 0)
(0.0694112 -0.0820395 0)
(0.0137295 -0.0494741 0)
(0.97642 -0.0678487 0)
(0.96923 -0.0778765 0)
(0.960116 -0.08677 0)
(0.949658 -0.094574 0)
(0.938025 -0.101586 0)
(0.925061 -0.107965 0)
(0.910589 -0.113773 0)
(0.894481 -0.119057 0)
(0.876604 -0.123842 0)
(0.856817 -0.128115 0)
(0.834998 -0.131828 0)
(0.811064 -0.134914 0)
(0.784978 -0.137298 0)
(0.756747 -0.1389 0)
(0.726431 -0.139648 0)
(0.694147 -0.139483 0)
(0.660066 -0.138371 0)
(0.624417 -0.136305 0)
(0.587471 -0.133313 0)
(0.549542 -0.129458 0)
(0.510965 -0.124837 0)
(0.472084 -0.119577 0)
(0.433233 -0.113827 0)
(0.394715 -0.107751 0)
(0.356789 -0.101515 0)
(0.319644 -0.0952736 0)
(0.283383 -0.089151 0)
(0.248007 -0.0832187 0)
(0.213392 -0.0774643 0)
(0.179269 -0.0717561 0)
(0.145213 -0.0658092 0)
(0.11064 -0.0591257 0)
(0.0749412 -0.0507539 0)
(0.0393562 -0.0383913 0)
(0.00661081 -0.0186974 0)
(0.948859 -0.0592096 0)
(0.936937 -0.0670961 0)
(0.922828 -0.0741877 0)
(0.90682 -0.0803775 0)
(0.889074 -0.0857781 0)
(0.869587 -0.0904873 0)
(0.848314 -0.0945506 0)
(0.825234 -0.0980034 0)
(0.800339 -0.100874 0)
(0.773625 -0.10317 0)
(0.745111 -0.104878 0)
(0.714853 -0.10597 0)
(0.682949 -0.106416 0)
(0.64954 -0.106186 0)
(0.61481 -0.105258 0)
(0.578984 -0.103627 0)
(0.542325 -0.101305 0)
(0.505127 -0.0983255 0)
(0.467702 -0.0947476 0)
(0.430372 -0.0906499 0)
(0.393452 -0.0861304 0)
(0.357238 -0.0812991 0)
(0.321991 -0.0762727 0)
(0.287926 -0.0711655 0)
(0.255206 -0.0660809 0)
(0.223928 -0.0610984 0)
(0.194127 -0.0562579 0)
(0.165771 -0.0515361 0)
(0.138759 -0.0468179 0)
(0.112931 -0.0418695 0)
(0.0880866 -0.0363384 0)
(0.0640233 -0.0297993 0)
(0.040723 -0.0218436 0)
(0.0194878 -0.012269 0)
(0.00264809 -0.00292981 0)
(0.846715 -0.0462995 0)
(0.831137 -0.0518683 0)
(0.813256 -0.0568127 0)
(0.79326 -0.0610113 0)
(0.771327 -0.0644946 0)
(0.747573 -0.0673266 0)
(0.722092 -0.0695548 0)
(0.694991 -0.0712213 0)
(0.666391 -0.0723661 0)
(0.636422 -0.0730191 0)
(0.605229 -0.0731963 0)
(0.57298 -0.0729042 0)
(0.539869 -0.0721463 0)
(0.506116 -0.070928 0)
(0.471959 -0.0692611 0)
(0.437655 -0.0671664 0)
(0.403473 -0.0646766 0)
(0.369682 -0.0618367 0)
(0.336545 -0.058703 0)
(0.30431 -0.0553412 0)
(0.273195 -0.0518228 0)
(0.243388 -0.0482208 0)
(0.215032 -0.0446056 0)
(0.188228 -0.0410399 0)
(0.163031 -0.0375721 0)
(0.139455 -0.0342285 0)
(0.117477 -0.030999 0)
(0.0970468 -0.0278171 0)
(0.0781036 -0.0245355 0)
(0.0605959 -0.0209122 0)
(0.044514 -0.0166364 0)
(0.0299301 -0.0114394 0)
(0.0171056 -0.00534432 0)
(0.00691761 0.000780248 0)
(0.000518105 0.00353252 0)
(0.674249 -0.0304485 0)
(0.657004 -0.0336753 0)
(0.637618 -0.0364142 0)
(0.616299 -0.0385902 0)
(0.59329 -0.0402234 0)
(0.568815 -0.0413708 0)
(0.543087 -0.0420876 0)
(0.516314 -0.0424238 0)
(0.488703 -0.0424254 0)
(0.460454 -0.0421303 0)
(0.431763 -0.0415649 0)
(0.402828 -0.0407472 0)
(0.373852 -0.0396918 0)
(0.345036 -0.0384135 0)
(0.316585 -0.0369298 0)
(0.288695 -0.0352628 0)
(0.261559 -0.0334392 0)
(0.235351 -0.0314907 0)
(0.210229 -0.0294522 0)
(0.186323 -0.0273607 0)
(0.163736 -0.0252529 0)
(0.142541 -0.023164 0)
(0.122777 -0.0211246 0)
(0.104454 -0.0191596 0)
(0.0875559 -0.0172844 0)
(0.0720454 -0.0154993 0)
(0.0578767 -0.0137799 0)
(0.0450087 -0.0120618 0)
(0.0334281 -0.0102231 0)
(0.0231795 -0.00807857 0)
(0.0143979 -0.00541241 0)
(0.0073264 -0.00209317 0)
(0.00229701 0.00167797 0)
(-0.000342072 0.00487193 0)
(-0.000543446 0.00455677 0)
(0.441052 -0.0144628 0)
(0.425606 -0.0156714 0)
(0.408629 -0.0165853 0)
(0.390379 -0.0171901 0)
(0.371135 -0.0175186 0)
(0.35116 -0.0176218 0)
(0.330682 -0.0175445 0)
(0.309904 -0.0173218 0)
(0.289009 -0.0169813 0)
(0.268155 -0.0165434 0)
(0.247486 -0.0160212 0)
(0.227136 -0.0154236 0)
(0.207228 -0.0147581 0)
(0.187879 -0.0140326 0)
(0.169197 -0.0132565 0)
(0.15128 -0.01244 0)
(0.134215 -0.0115947 0)
(0.118074 -0.0107326 0)
(0.102912 -0.00986648 0)
(0.0887664 -0.00900848 0)
(0.0756567 -0.00817032 0)
(0.063584 -0.00736206 0)
(0.0525326 -0.00659223 0)
(0.0424726 -0.0058665 0)
(0.0333636 -0.00518702 0)
(0.0251597 -0.00454917 0)
(0.0178196 -0.00393707 0)
(0.0113212 -0.00331475 0)
(0.00568467 -0.00261687 0)
(0.00100422 -0.00174505 0)
(-0.00252277 -0.00058806 0)
(-0.00459647 0.000907892 0)
(-0.00491505 0.00259114 0)
(-0.00349066 0.00380391 0)
(-0.000926132 0.00292382 0)
(0.163423 -0.00210498 0)
(0.1554 -0.00216677 0)
(0.146865 -0.00217941 0)
(0.137986 -0.00214426 0)
(0.128926 -0.002073 0)
(0.119819 -0.00197969 0)
(0.110765 -0.00187518 0)
(0.101844 -0.00176653 0)
(0.0931168 -0.0016579 0)
(0.084632 -0.00155058 0)
(0.0764299 -0.00144381 0)
(0.0685453 -0.00133627 0)
(0.0610093 -0.00122735 0)
(0.0538496 -0.00111737 0)
(0.04709 -0.00100745 0)
(0.0407494 -0.000899114 0)
(0.0348415 -0.000793951 0)
(0.0293743 -0.000693398 0)
(0.0243498 -0.000598578 0)
(0.0197638 -0.000510262 0)
(0.0156065 -0.00042889 0)
(0.0118632 -0.000354668 0)
(0.0085144 -0.000287628 0)
(0.00553762 -0.000227677 0)
(0.00290818 -0.00017444 0)
(0.000601612 -0.000126927 0)
(-0.00140217 -8.273e-05 0)
(-0.00311042 -3.66052e-05 0)
(-0.00450359 2.16171e-05 0)
(-0.00551597 0.000108231 0)
(-0.00601649 0.000243541 0)
(-0.00580852 0.000443783 0)
(-0.00470977 0.000699043 0)
(-0.00282447 0.000896591 0)
(-0.000708406 0.000718997 0)
(0.245692 -0.0023351 0)
(0.26033 -0.00063346 0)
(0.270112 0.0010613 0)
(0.274858 0.00253079 0)
(0.274847 0.00365056 0)
(0.270722 0.00438858 0)
(0.263282 0.00477819 0)
(0.253294 0.00489117 0)
(0.241462 0.00480615 0)
(0.228401 0.00459401 0)
(0.497972 -0.0314957 0)
(0.531488 -0.0238869 0)
(0.55846 -0.0154 0)
(0.578204 -0.00687964 0)
(0.590692 0.0010385 0)
(0.596209 0.00796629 0)
(0.595199 0.0137006 0)
(0.588374 0.018199 0)
(0.576528 0.0215386 0)
(0.560472 0.02386 0)
(0.643341 -0.0738798 0)
(0.684895 -0.0604807 0)
(0.719859 -0.045216 0)
(0.747645 -0.0295424 0)
(0.768343 -0.0144784 0)
(0.782324 -0.00058836 0)
(0.789963 0.0117898 0)
(0.791609 0.0224598 0)
(0.787711 0.031385 0)
(0.778742 0.0386413 0)
(0.743677 -0.119863 0)
(0.786908 -0.100334 0)
(0.823032 -0.0781936 0)
(0.851801 -0.055691 0)
(0.873835 -0.0341131 0)
(0.8898 -0.0141048 0)
(0.900288 0.00397752 0)
(0.905844 0.0199799 0)
(0.906902 0.0339213 0)
(0.90378 0.0459138 0)
(0.817432 -0.165899 0)
(0.860117 -0.139308 0)
(0.894184 -0.109639 0)
(0.919897 -0.0802444 0)
(0.93868 -0.0525116 0)
(0.951701 -0.027074 0)
(0.959886 -0.00430605 0)
(0.9642 0.0157696 0)
(0.965347 0.0333973 0)
(0.963699 0.0488783 0)
(0.86511 -0.211644 0)
(0.907524 -0.176515 0)
(0.936807 -0.137924 0)
(0.954795 -0.100656 0)
(0.964969 -0.0662471 0)
(0.969757 -0.0355187 0)
(0.970979 -0.00883887 0)
(0.97016 0.014107 0)
(0.968189 0.0340363 0)
(0.965298 0.0516349 0)
(0.884603 -0.255805 0)
(0.923986 -0.208316 0)
(0.938203 -0.157816 0)
(0.936333 -0.110708 0)
(0.927673 -0.0691232 0)
(0.917064 -0.0341929 0)
(0.907237 -0.00572766 0)
(0.899639 0.0176505 0)
(0.894661 0.0375656 0)
(0.891667 0.0554277 0)
(0.865078 -0.297974 0)
(0.876984 -0.222704 0)
(0.847099 -0.152243 0)
(0.806744 -0.094108 0)
(0.771914 -0.0492162 0)
(0.745973 -0.0163238 0)
(0.729097 0.00764388 0)
(0.721034 0.0259221 0)
(0.720382 0.0414028 0)
(0.724432 0.056896 0)
(0.759321 -0.331504 0)
(0.679377 -0.192306 0)
(0.575138 -0.0958886 0)
(0.504784 -0.0375744 0)
(0.466264 -0.00489362 0)
(0.447559 0.0121396 0)
(0.443136 0.0213162 0)
(0.449374 0.027756 0)
(0.463578 0.0345336 0)
(0.481552 0.0460096 0)
(0.441325 -0.256208 0)
(0.243527 -0.0589773 0)
(0.135971 0.00276812 0)
(0.119328 0.0113997 0)
(0.123252 0.010642 0)
(0.130734 0.00898469 0)
(0.142044 0.00786092 0)
(0.15681 0.00779294 0)
(0.175446 0.010036 0)
(0.195127 0.0248402 0)
(0.214614 0.00430979 0)
(0.200505 0.00398987 0)
(0.186391 0.00365847 0)
(0.172516 0.00333512 0)
(0.159047 0.00303486 0)
(0.146083 0.00276453 0)
(0.133672 0.00252315 0)
(0.121833 0.00230648 0)
(0.110568 0.00211018 0)
(0.099871 0.00193043 0)
(0.0897347 0.00176368 0)
(0.0801513 0.00160695 0)
(0.0711164 0.00145811 0)
(0.0626278 0.00131583 0)
(0.0546853 0.00117953 0)
(0.0472886 0.00104913 0)
(0.0404367 0.000924956 0)
(0.0341259 0.000807516 0)
(0.0283489 0.00069735 0)
(0.0230942 0.000594926 0)
(0.0183458 0.000500555 0)
(0.0140833 0.000414427 0)
(0.0102822 0.000336581 0)
(0.00691512 0.000266943 0)
(0.00395244 0.00020514 0)
(0.0013647 0.000150186 0)
(-0.000873457 9.96468e-05 0)
(-0.00277485 4.83289e-05 0)
(-0.00432534 -1.40922e-05 0)
(-0.00546333 -0.000104573 0)
(-0.00605856 -0.000244675 0)
(-0.00591016 -0.000451957 0)
(-0.00482849 -0.000718085 0)
(-0.002915 -0.000927418 0)
(-0.000737242 -0.000749294 0)
(0.540991 0.0253187 0)
(0.518829 0.0260564 0)
(0.494683 0.0262062 0)
(0.469187 0.0259077 0)
(0.442877 0.0253003 0)
(0.416175 0.0245016 0)
(0.389403 0.0235935 0)
(0.362805 0.0226282 0)
(0.336567 0.0216369 0)
(0.31083 0.020636 0)
(0.285707 0.0196312 0)
(0.261292 0.0186217 0)
(0.237671 0.0176041 0)
(0.214923 0.016576 0)
(0.193124 0.0155365 0)
(0.172347 0.0144873 0)
(0.152657 0.0134329 0)
(0.134108 0.0123804 0)
(0.116744 0.0113386 0)
(0.100593 0.0103174 0)
(0.0856667 0.00932683 0)
(0.0719592 0.00837639 0)
(0.059448 0.00747405 0)
(0.0480962 0.00662563 0)
(0.0378549 0.00583326 0)
(0.0286693 0.0050928 0)
(0.0204875 0.00438857 0)
(0.0132759 0.00368478 0)
(0.00704326 0.00291475 0)
(0.00187353 0.00197654 0)
(-0.00204199 0.000752111 0)
(-0.00440256 -0.000820601 0)
(-0.00490003 -0.00259237 0)
(-0.00354399 -0.00389162 0)
(-0.000952601 -0.00301697 0)
(0.765178 0.0443443 0)
(0.747523 0.0486083 0)
(0.726333 0.0515664 0)
(0.702182 0.053405 0)
(0.675604 0.0543471 0)
(0.647062 0.0546017 0)
(0.616959 0.0543352 0)
(0.585648 0.053674 0)
(0.553444 0.0527122 0)
(0.520624 0.0515149 0)
(0.487439 0.0501224 0)
(0.454121 0.0485572 0)
(0.420892 0.0468312 0)
(0.387968 0.0449522 0)
(0.355557 0.0429277 0)
(0.323864 0.0407686 0)
(0.293087 0.0384912 0)
(0.263409 0.0361176 0)
(0.234995 0.0336757 0)
(0.207988 0.0311976 0)
(0.1825 0.0287175 0)
(0.158614 0.0262693 0)
(0.136378 0.0238847 0)
(0.115806 0.0215899 0)
(0.0968839 0.0194022 0)
(0.0795735 0.0173245 0)
(0.0638231 0.0153346 0)
(0.0495831 0.0133696 0)
(0.036829 0.0113067 0)
(0.0255925 0.00895486 0)
(0.0159978 0.00608719 0)
(0.00828057 0.00255797 0)
(0.00276776 -0.00143959 0)
(-0.000189433 -0.00485887 0)
(-0.00054027 -0.00464274 0)
(0.896691 0.0560557 0)
(0.885844 0.0643918 0)
(0.871527 0.0709949 0)
(0.854071 0.076052 0)
(0.833761 0.0798205 0)
(0.810814 0.0825374 0)
(0.785421 0.0843879 0)
(0.757779 0.0855172 0)
(0.728091 0.0860383 0)
(0.696561 0.0860309 0)
(0.663404 0.0855444 0)
(0.628847 0.084606 0)
(0.593136 0.0832297 0)
(0.556534 0.0814233 0)
(0.519325 0.079195 0)
(0.481804 0.0765587 0)
(0.444282 0.0735384 0)
(0.407069 0.0701706 0)
(0.370473 0.0665046 0)
(0.334786 0.0626015 0)
(0.300273 0.0585312 0)
(0.267162 0.0543683 0)
(0.235641 0.0501873 0)
(0.205844 0.0460568 0)
(0.177858 0.0420328 0)
(0.15172 0.0381492 0)
(0.127421 0.0344033 0)
(0.104922 0.0307349 0)
(0.0841621 0.027 0)
(0.0650864 0.0229533 0)
(0.0476765 0.0182736 0)
(0.0319919 0.0126754 0)
(0.0182781 0.00616702 0)
(0.00740938 -0.000383683 0)
(0.000576621 -0.0034591 0)
(0.959369 0.0623782 0)
(0.952444 0.0738733 0)
(0.943142 0.0833964 0)
(0.931702 0.0912067 0)
(0.918204 0.0976452 0)
(0.902583 0.102975 0)
(0.884745 0.107375 0)
(0.864627 0.110975 0)
(0.842185 0.11387 0)
(0.817397 0.116113 0)
(0.790273 0.117722 0)
(0.760868 0.118688 0)
(0.729283 0.118991 0)
(0.695669 0.1186 0)
(0.660227 0.117491 0)
(0.623205 0.115647 0)
(0.584902 0.11307 0)
(0.545651 0.109782 0)
(0.505819 0.105831 0)
(0.465785 0.10129 0)
(0.425933 0.0962539 0)
(0.386628 0.0908359 0)
(0.348207 0.0851601 0)
(0.310956 0.0793527 0)
(0.275104 0.0735315 0)
(0.240812 0.0677927 0)
(0.208165 0.0621929 0)
(0.177173 0.0567247 0)
(0.147765 0.0512849 0)
(0.119803 0.0456463 0)
(0.0930942 0.0394539 0)
(0.0674338 0.0322728 0)
(0.0427841 0.0236787 0)
(0.0204352 0.0134338 0)
(0.00279035 0.00339278 0)
(0.961281 0.0671895 0)
(0.956017 0.0804939 0)
(0.949787 0.0915506 0)
(0.942887 0.100831 0)
(0.935245 0.108857 0)
(0.926547 0.115949 0)
(0.91648 0.122293 0)
(0.904784 0.128021 0)
(0.891208 0.133207 0)
(0.875515 0.137868 0)
(0.8575 0.141979 0)
(0.837003 0.14548 0)
(0.813918 0.148292 0)
(0.788194 0.150326 0)
(0.759841 0.151491 0)
(0.72894 0.151705 0)
(0.695641 0.150908 0)
(0.660165 0.149068 0)
(0.622799 0.146189 0)
(0.583885 0.142313 0)
(0.543808 0.137524 0)
(0.502976 0.131945 0)
(0.4618 0.125728 0)
(0.420673 0.119047 0)
(0.379942 0.112087 0)
(0.339888 0.105026 0)
(0.300702 0.0980126 0)
(0.262463 0.091147 0)
(0.225118 0.0844413 0)
(0.188454 0.0777841 0)
(0.152089 0.0709041 0)
(0.115465 0.0633108 0)
(0.07797 0.0540504 0)
(0.0408278 0.0407604 0)
(0.00686745 0.0198489 0)
(0.889364 0.0715788 0)
(0.887014 0.085138 0)
(0.885068 0.0961366 0)
(0.88396 0.105475 0)
(0.883352 0.113871 0)
(0.882617 0.121664 0)
(0.881273 0.129052 0)
(0.878956 0.136173 0)
(0.875309 0.143085 0)
(0.869981 0.149775 0)
(0.86265 0.15618 0)
(0.853031 0.162203 0)
(0.840872 0.167718 0)
(0.825959 0.172579 0)
(0.808127 0.17663 0)
(0.78727 0.179717 0)
(0.763351 0.181701 0)
(0.736406 0.182468 0)
(0.706551 0.181946 0)
(0.673982 0.18011 0)
(0.638966 0.176988 0)
(0.601831 0.172667 0)
(0.562946 0.167288 0)
(0.522701 0.161041 0)
(0.481473 0.154154 0)
(0.439597 0.14688 0)
(0.397323 0.139478 0)
(0.354778 0.132192 0)
(0.311908 0.125222 0)
(0.268419 0.118685 0)
(0.223694 0.11257 0)
(0.17671 0.106574 0)
(0.125883 0.0994516 0)
(0.0713888 0.0860255 0)
(0.0141237 0.0516466 0)
(0.729736 0.0725495 0)
(0.734812 0.0848681 0)
(0.741294 0.0942232 0)
(0.749948 0.102426 0)
(0.759845 0.11031 0)
(0.769955 0.118097 0)
(0.779713 0.125943 0)
(0.788731 0.133965 0)
(0.796626 0.142179 0)
(0.80304 0.150531 0)
(0.807656 0.158929 0)
(0.810178 0.167252 0)
(0.81032 0.175349 0)
(0.807809 0.183043 0)
(0.802393 0.190137 0)
(0.793851 0.196424 0)
(0.782006 0.201701 0)
(0.766737 0.205781 0)
(0.747986 0.208511 0)
(0.725771 0.209782 0)
(0.700186 0.209546 0)
(0.6714 0.207821 0)
(0.639649 0.2047 0)
(0.605217 0.20035 0)
(0.568407 0.195007 0)
(0.529514 0.188974 0)
(0.488772 0.182611 0)
(0.446295 0.176322 0)
(0.401997 0.170553 0)
(0.355473 0.165776 0)
(0.305826 0.162476 0)
(0.251429 0.160994 0)
(0.18923 0.160612 0)
(0.116593 0.153887 0)
(0.0270367 0.107844 0)
(0.499392 0.0625659 0)
(0.51429 0.0734786 0)
(0.532637 0.0806076 0)
(0.554962 0.0872883 0)
(0.578473 0.0944466 0)
(0.601631 0.102155 0)
(0.624042 0.110474 0)
(0.64546 0.119416 0)
(0.66559 0.128911 0)
(0.684183 0.138854 0)
(0.701027 0.149133 0)
(0.715908 0.159617 0)
(0.728588 0.170152 0)
(0.73881 0.180556 0)
(0.746315 0.19062 0)
(0.750844 0.200119 0)
(0.752153 0.208814 0)
(0.750023 0.216473 0)
(0.744275 0.222882 0)
(0.734781 0.227863 0)
(0.721476 0.231294 0)
(0.70436 0.23312 0)
(0.683502 0.233368 0)
(0.65903 0.232156 0)
(0.631114 0.229701 0)
(0.599941 0.226323 0)
(0.565669 0.222456 0)
(0.528367 0.218659 0)
(0.487915 0.215651 0)
(0.443851 0.214371 0)
(0.395087 0.21608 0)
(0.339471 0.222461 0)
(0.272309 0.23506 0)
(0.18512 0.247844 0)
(0.0527748 0.205976 0)
(0.240203 0.0471021 0)
(0.270324 0.0499822 0)
(0.304489 0.0525198 0)
(0.342102 0.057566 0)
(0.378413 0.0645319 0)
(0.412559 0.0729102 0)
(0.44509 0.0823824 0)
(0.476232 0.0927044 0)
(0.505961 0.103712 0)
(0.534238 0.115301 0)