/*--------------------------------*- C++ -*----------------------------------*\
| =========                 |                                                 |
| \\      /  F ield         | OpenFOAM: The Open Source CFD Toolbox           |
|  \\    /   O peration     | Version:  2406                                  |
|   \\  /    A nd           | Website:  www.openfoam.com                      |
|    \\/     M anipulation  |                                                 |
\*---------------------------------------------------------------------------*/
FoamFile
{
    version     2.0;
    format      ascii;
    arch        "LSB;label=32;scalar=64";
    class       volScalarField;
    location    "78";
    object      p;
}
// * * * * * * * * * * * * * * * * * * * * * * * * * * * * * * * * * * * * * //

dimensions      [0 2 -2 0 0 0 0];

internalField   nonuniform List<scalar> 
2000
(
0.206513
0.205804
0.204513
0.202926
0.201184
0.199333
0.197412
0.195447
0.193453
0.191439
0.207867
0.206249
0.204552
0.202904
0.201156
0.199298
0.197375
0.195415
0.193427
0.191417
0.208664
0.206497
0.204505
0.202843
0.201119
0.199259
0.197332
0.195377
0.193396
0.191391
0.20916
0.206761
0.204548
0.202821
0.201095
0.199225
0.197288
0.195333
0.193358
0.191358
0.209543
0.20704
0.204658
0.20284
0.201089
0.199203
0.19725
0.195289
0.193315
0.191319
0.209841
0.207282
0.204786
0.202886
0.201102
0.199196
0.197226
0.195254
0.193277
0.191282
0.210066
0.207476
0.204906
0.202945
0.201128
0.199202
0.197214
0.195229
0.193247
0.191251
0.210229
0.207621
0.205005
0.203
0.201157
0.199212
0.197209
0.195214
0.193226
0.191227
0.210336
0.207718
0.205074
0.203042
0.20118
0.199223
0.197209
0.195206
0.193213
0.191211
0.210388
0.207766
0.20511
0.203065
0.201193
0.199229
0.197209
0.195202
0.193207
0.191204
0.210388
0.207766
0.20511
0.203065
0.201193
0.199229
0.197209
0.195202
0.193207
0.191204
0.210336
0.207718
0.205074
0.203042
0.20118
0.199223
0.197209
0.195206
0.193213
0.191211
0.210229
0.207621
0.205005
0.203
0.201157
0.199212
0.197209
0.195214
0.193226
0.191227
0.210066
0.207476
0.204906
0.202945
0.201128
0.199202
0.197214
0.195229
0.193247
0.191251
0.209841
0.207282
0.204786
0.202886
0.201102
0.199196
0.197226
0.195254
0.193277
0.191282
0.209542
0.20704
0.204658
0.20284
0.201089
0.199203
0.19725
0.195289
0.193315
0.191319
0.20916
0.206761
0.204548
0.202821
0.201095
0.199225
0.197288
0.195333
0.193358
0.191359
0.208664
0.206497
0.204505
0.202842
0.201119
0.199259
0.197332
0.195377
0.193396
0.191391
0.207866
0.206249
0.204552
0.202904
0.201156
0.199298
0.197375
0.195415
0.193427
0.191417
0.206513
0.205804
0.204513
0.202926
0.201184
0.199333
0.197412
0.195447
0.193453
0.191439
0.189408
0.187366
0.185314
0.183255
0.181189
0.179118
0.177042
0.174962
0.172878
0.170791
0.168702
0.16661
0.164515
0.162419
0.160321
0.15822
0.156119
0.154015
0.151911
0.149805
0.147697
0.145589
0.143479
0.141369
0.139257
0.137145
0.135031
0.132917
0.130802
0.128686
0.12657
0.124453
0.122335
0.120216
0.118097
0.18939
0.187351
0.185301
0.183243
0.181179
0.179109
0.177034
0.174954
0.172872
0.170785
0.168696
0.166605
0.164511
0.162415
0.160317
0.158217
0.156115
0.154012
0.151908
0.149802
0.147695
0.145586
0.143477
0.141366
0.139255
0.137143
0.135029
0.132915
0.1308
0.128685
0.126568
0.124451
0.122333
0.120215
0.118096
0.189368
0.187332
0.185285
0.18323
0.181167
0.179098
0.177025
0.174946
0.172864
0.170779
0.168691
0.1666
0.164506
0.162411
0.160313
0.158213
0.156112
0.154009
0.151905
0.149799
0.147692
0.145584
0.143475
0.141364
0.139253
0.137141
0.135028
0.132913
0.130799
0.128683
0.126567
0.12445
0.122332
0.120214
0.118095
0.18934
0.187307
0.185264
0.183212
0.181152
0.179085
0.177013
0.174936
0.172856
0.170772
0.168684
0.166594
0.164501
0.162406
0.160309
0.158209
0.156108
0.154006
0.151902
0.149796
0.14769
0.145582
0.143473
0.141362
0.139251
0.137139
0.135026
0.132912
0.130797
0.128682
0.126565
0.124448
0.122331
0.120213
0.118094
0.189304
0.187276
0.185237
0.183188
0.181131
0.179067
0.176997
0.174922
0.172844
0.170761
0.168675
0.166586
0.164494
0.162399
0.160303
0.158204
0.156104
0.154002
0.151898
0.149793
0.147687
0.145579
0.14347
0.14136
0.139249
0.137137
0.135024
0.13291
0.130795
0.12868
0.126564
0.124447
0.12233
0.120211
0.118093
0.189268
0.187242
0.185207
0.183162
0.181108
0.179046
0.176978
0.174906
0.17283
0.170749
0.168665
0.166577
0.164486
0.162392
0.160296
0.158198
0.156098
0.153997
0.151894
0.149789
0.147683
0.145576
0.143467
0.141357
0.139246
0.137134
0.135021
0.132908
0.130793
0.128678
0.126562
0.124445
0.122328
0.12021
0.118091
0.189237
0.187212
0.18518
0.183138
0.181086
0.179026
0.17696
0.17489
0.172815
0.170737
0.168654
0.166568
0.164477
0.162384
0.160289
0.158191
0.156092
0.153991
0.151889
0.149785
0.147679
0.145572
0.143464
0.141354
0.139243
0.137131
0.135019
0.132905
0.130791
0.128676
0.12656
0.124444
0.122326
0.120208
0.11809
0.189212
0.187188
0.185157
0.183118
0.181068
0.17901
0.176945
0.174876
0.172803
0.170726
0.168645
0.166559
0.16447
0.162377
0.160282
0.158185
0.156087
0.153987
0.151885
0.149781
0.147676
0.145569
0.143461
0.141351
0.13924
0.137129
0.135016
0.132903
0.130789
0.128674
0.126558
0.124442
0.122325
0.120207
0.118088
0.189196
0.187171
0.185141
0.183103
0.181055
0.178998
0.176934
0.174865
0.172794
0.170718
0.168638
0.166553
0.164465
0.162372
0.160278
0.158181
0.156083
0.153983
0.151882
0.149778
0.147673
0.145567
0.143459
0.141349
0.139238
0.137127
0.135014
0.132901
0.130787
0.128673
0.126557
0.124441
0.122323
0.120206
0.118087
0.189187
0.187163
0.185133
0.183096
0.181048
0.178991
0.176928
0.17486
0.172789
0.170714
0.168635
0.16655
0.164462
0.16237
0.160275
0.158179
0.156081
0.153981
0.15188
0.149777
0.147672
0.145566
0.143457
0.141348
0.139237
0.137126
0.135013
0.1329
0.130786
0.128672
0.126556
0.12444
0.122323
0.120205
0.118087
0.189187
0.187163
0.185133
0.183096
0.181048
0.178991
0.176928
0.17486
0.172789
0.170714
0.168634
0.16655
0.164462
0.16237
0.160275
0.158179
0.156081
0.153981
0.15188
0.149777
0.147672
0.145565
0.143457
0.141348
0.139237
0.137126
0.135013
0.1329
0.130786
0.128672
0.126556
0.12444
0.122323
0.120205
0.118087
0.189196
0.187171
0.185141
0.183103
0.181055
0.178997
0.176934
0.174865
0.172794
0.170718
0.168638
0.166553
0.164465
0.162372
0.160278
0.158181
0.156083
0.153983
0.151882
0.149778
0.147673
0.145567
0.143459
0.141349
0.139238
0.137127
0.135014
0.132901
0.130787
0.128672
0.126557
0.124441
0.122323
0.120206
0.118087
0.189212
0.187188
0.185157
0.183117
0.181068
0.17901
0.176945
0.174876
0.172803
0.170726
0.168645
0.166559
0.16447
0.162377
0.160282
0.158185
0.156087
0.153987
0.151885
0.149781
0.147676
0.145569
0.143461
0.141351
0.13924
0.137129
0.135016
0.132903
0.130789
0.128674
0.126558
0.124442
0.122325
0.120207
0.118088
0.189237
0.187212
0.18518
0.183138
0.181086
0.179026
0.17696
0.17489
0.172815
0.170737
0.168654
0.166567
0.164477
0.162384
0.160289
0.158191
0.156092
0.153991
0.151889
0.149785
0.147679
0.145572
0.143464
0.141354
0.139243
0.137131
0.135019
0.132905
0.130791
0.128676
0.12656
0.124443
0.122326
0.120208
0.11809
0.189268
0.187242
0.185207
0.183162
0.181108
0.179046
0.176979
0.174906
0.17283
0.170749
0.168665
0.166577
0.164486
0.162392
0.160296
0.158198
0.156098
0.153997
0.151894
0.149789
0.147683
0.145576
0.143467
0.141357
0.139246
0.137134
0.135021
0.132908
0.130793
0.128678
0.126562
0.124445
0.122328
0.12021
0.118091
0.189304
0.187276
0.185237
0.183188
0.181131
0.179067
0.176997
0.174922
0.172844
0.170761
0.168675
0.166586
0.164494
0.162399
0.160303
0.158204
0.156104
0.154002
0.151898
0.149793
0.147687
0.145579
0.14347
0.14136
0.139249
0.137137
0.135024
0.13291
0.130795
0.12868
0.126564
0.124447
0.122329
0.120211
0.118092
0.18934
0.187307
0.185264
0.183212
0.181152
0.179085
0.177013
0.174936
0.172856
0.170772
0.168684
0.166594
0.164501
0.162406
0.160309
0.158209
0.156108
0.154006
0.151902
0.149796
0.14769
0.145582
0.143473
0.141362
0.139251
0.137139
0.135026
0.132912
0.130797
0.128682
0.126565
0.124448
0.122331
0.120213
0.118094
0.189368
0.187332
0.185285
0.18323
0.181167
0.179098
0.177025
0.174946
0.172864
0.170779
0.168691
0.1666
0.164506
0.162411
0.160313
0.158213
0.156112
0.154009
0.151905
0.149799
0.147692
0.145584
0.143475
0.141364
0.139253
0.137141
0.135027
0.132913
0.130799
0.128683
0.126567
0.12445
0.122332
0.120214
0.118095
0.18939
0.187351
0.185301
0.183243
0.181179
0.179109
0.177034
0.174954
0.172871
0.170785
0.168696
0.166605
0.164511
0.162415
0.160317
0.158217
0.156115
0.154012
0.151908
0.149802
0.147695
0.145586
0.143477
0.141366
0.139255
0.137143
0.135029
0.132915
0.1308
0.128684
0.126568
0.124451
0.122333
0.120215
0.118096
0.189408
0.187366
0.185314
0.183255
0.181189
0.179118
0.177042
0.174962
0.172878
0.170791
0.168702
0.16661
0.164515
0.162419
0.160321
0.15822
0.156119
0.154015
0.151911
0.149804
0.147697
0.145589
0.143479
0.141369
0.139257
0.137144
0.135031
0.132917
0.130802
0.128686
0.12657
0.124452
0.122335
0.120216
0.118097
0.115978
0.113858
0.111737
0.109616
0.107494
0.105372
0.10325
0.101127
0.0990036
0.0968799
0.115977
0.113857
0.111736
0.109615
0.107493
0.105371
0.103249
0.101126
0.0990027
0.096879
0.115975
0.113855
0.111735
0.109614
0.107492
0.10537
0.103248
0.101125
0.0990018
0.0968782
0.115974
0.113854
0.111734
0.109613
0.107491
0.10537
0.103247
0.101124
0.0990011
0.0968775
0.115973
0.113853
0.111733
0.109612
0.10749
0.105369
0.103246
0.101123
0.0990003
0.0968767
0.115972
0.113852
0.111732
0.109611
0.107489
0.105367
0.103245
0.101122
0.0989993
0.0968758
0.11597
0.113851
0.11173
0.109609
0.107488
0.105366
0.103244
0.101121
0.0989983
0.0968748
0.115969
0.113849
0.111729
0.109608
0.107487
0.105365
0.103243
0.10112
0.0989974
0.0968739
0.115968
0.113848
0.111728
0.109607
0.107486
0.105364
0.103242
0.10112
0.0989966
0.0968732
0.115967
0.113848
0.111727
0.109607
0.107485
0.105364
0.103242
0.101119
0.0989962
0.0968728
0.115967
0.113848
0.111727
0.109607
0.107485
0.105364
0.103242
0.101119
0.0989962
0.0968728
0.115968
0.113848
0.111728
0.109607
0.107486
0.105364
0.103242
0.10112
0.0989965
0.0968731
0.115969
0.113849
0.111729
0.109608
0.107487
0.105365
0.103243
0.10112
0.0989973
0.0968738
0.11597
0.113851
0.11173
0.109609
0.107488
0.105366
0.103244
0.101121
0.0989982
0.0968747
0.115972
0.113852
0.111732
0.109611
0.107489
0.105367
0.103245
0.101122
0.0989992
0.0968756
0.115973
0.113853
0.111733
0.109612
0.10749
0.105368
0.103246
0.101123
0.0990001
0.0968765
0.115974
0.113854
0.111734
0.109613
0.107491
0.105369
0.103247
0.101124
0.0990009
0.0968773
0.115975
0.113855
0.111735
0.109614
0.107492
0.10537
0.103248
0.101125
0.0990016
0.096878
0.115976
0.113856
0.111736
0.109615
0.107493
0.105371
0.103249
0.101126
0.0990025
0.0968788
0.115978
0.113858
0.111737
0.109616
0.107494
0.105372
0.10325
0.101127
0.0990034
0.0968797
0.0947558
0.0926314
0.0905066
0.0883815
0.086256
0.0841303
0.0820042
0.0798779
0.0777513
0.0756244
0.0734973
0.0713699
0.0692422
0.0671143
0.0649862
0.0628579
0.0607294
0.0586007
0.0564717
0.0543426
0.0522133
0.0500838
0.0479542
0.0458243
0.0436944
0.0415642
0.0394339
0.0373035
0.0351729
0.0330421
0.0309113
0.0287803
0.0266491
0.0245179
0.0223865
0.0947549
0.0926305
0.0905058
0.0883807
0.0862553
0.0841296
0.0820035
0.0798772
0.0777506
0.0756238
0.0734966
0.0713693
0.0692416
0.0671138
0.0649857
0.0628574
0.0607289
0.0586002
0.0564713
0.0543422
0.0522129
0.0500834
0.0479538
0.045824
0.043694
0.0415638
0.0394335
0.0373031
0.0351725
0.0330418
0.0309109
0.02878
0.0266488
0.0245176
0.0223862
0.0947542
0.0926298
0.0905051
0.08838
0.0862546
0.0841289
0.0820029
0.0798766
0.07775
0.0756232
0.0734961
0.0713687
0.0692411
0.0671133
0.0649852
0.0628569
0.0607285
0.0585998
0.0564709
0.0543418
0.0522125
0.050083
0.0479534
0.0458236
0.0436936
0.0415635
0.0394332
0.0373028
0.0351722
0.0330415
0.0309107
0.0287797
0.0266486
0.0245173
0.022386
0.0947535
0.0926292
0.0905045
0.0883794
0.0862541
0.0841284
0.0820024
0.0798761
0.0777496
0.0756227
0.0734956
0.0713683
0.0692407
0.0671129
0.0649848
0.0628566
0.0607281
0.0585994
0.0564705
0.0543414
0.0522122
0.0500827
0.0479531
0.0458233
0.0436934
0.0415632
0.039433
0.0373025
0.035172
0.0330413
0.0309104
0.0287795
0.0266484
0.0245171
0.0223858
0.0947528
0.0926284
0.0905038
0.0883788
0.0862534
0.0841278
0.0820018
0.0798756
0.077749
0.0756222
0.0734951
0.0713678
0.0692402
0.0671124
0.0649844
0.0628561
0.0607277
0.058599
0.0564701
0.0543411
0.0522118
0.0500824
0.0479528
0.045823
0.043693
0.0415629
0.0394327
0.0373023
0.0351717
0.033041
0.0309102
0.0287792
0.0266481
0.0245169
0.0223856
0.0947519
0.0926276
0.090503
0.088378
0.0862527
0.0841271
0.0820011
0.0798749
0.0777484
0.0756216
0.0734945
0.0713672
0.0692397
0.0671119
0.0649839
0.0628557
0.0607272
0.0585985
0.0564697
0.0543406
0.0522114
0.050082
0.0479524
0.0458226
0.0436927
0.0415626
0.0394323
0.0373019
0.0351714
0.0330407
0.0309099
0.0287789
0.0266478
0.0245166
0.0223853
0.094751
0.0926267
0.0905021
0.0883772
0.0862519
0.0841263
0.0820004
0.0798742
0.0777477
0.0756209
0.0734939
0.0713666
0.0692391
0.0671113
0.0649833
0.0628551
0.0607267
0.058598
0.0564692
0.0543402
0.0522109
0.0500815
0.0479519
0.0458222
0.0436923
0.0415622
0.0394319
0.0373015
0.035171
0.0330403
0.0309095
0.0287786
0.0266475
0.0245163
0.022385
0.0947501
0.0926259
0.0905013
0.0883764
0.0862512
0.0841256
0.0819997
0.0798735
0.077747
0.0756203
0.0734933
0.071366
0.0692385
0.0671108
0.0649828
0.0628546
0.0607262
0.0585975
0.0564687
0.0543397
0.0522105
0.0500811
0.0479515
0.0458218
0.0436918
0.0415618
0.0394315
0.0373012
0.0351706
0.03304
0.0309092
0.0287782
0.0266472
0.024516
0.0223847
0.0947494
0.0926252
0.0905007
0.0883758
0.0862506
0.084125
0.0819991
0.0798729
0.0777465
0.0756198
0.0734928
0.0713655
0.069238
0.0671103
0.0649823
0.0628542
0.0607258
0.0585971
0.0564683
0.0543393
0.0522101
0.0500807
0.0479511
0.0458214
0.0436915
0.0415614
0.0394312
0.0373008
0.0351703
0.0330397
0.0309089
0.0287779
0.0266469
0.0245157
0.0223844
0.094749
0.0926249
0.0905003
0.0883754
0.0862502
0.0841246
0.0819988
0.0798726
0.0777462
0.0756194
0.0734925
0.0713652
0.0692377
0.06711
0.0649821
0.0628539
0.0607255
0.0585969
0.0564681
0.0543391
0.0522099
0.0500805
0.0479509
0.0458212
0.0436913
0.0415612
0.039431
0.0373006
0.0351701
0.0330395
0.0309087
0.0287777
0.0266467
0.0245155
0.0223842
0.094749
0.0926248
0.0905003
0.0883754
0.0862502
0.0841246
0.0819987
0.0798726
0.0777461
0.0756194
0.0734924
0.0713652
0.0692377
0.06711
0.064982
0.0628538
0.0607254
0.0585968
0.056468
0.054339
0.0522098
0.0500804
0.0479508
0.0458211
0.0436912
0.0415611
0.0394309
0.0373006
0.03517
0.0330394
0.0309086
0.0287777
0.0266466
0.0245154
0.0223841
0.0947493
0.0926252
0.0905006
0.0883757
0.0862505
0.0841249
0.081999
0.0798728
0.0777464
0.0756196
0.0734926
0.0713654
0.0692379
0.0671102
0.0649822
0.062854
0.0607256
0.058597
0.0564682
0.0543391
0.0522099
0.0500805
0.047951
0.0458212
0.0436913
0.0415612
0.039431
0.0373006
0.0351701
0.0330394
0.0309086
0.0287777
0.0266467
0.0245155
0.0223842
0.09475
0.0926258
0.0905012
0.0883763
0.086251
0.0841254
0.0819995
0.0798733
0.0777468
0.0756201
0.0734931
0.0713658
0.0692383
0.0671106
0.0649826
0.0628544
0.0607259
0.0585973
0.0564685
0.0543394
0.0522102
0.0500808
0.0479512
0.0458215
0.0436915
0.0415615
0.0394312
0.0373008
0.0351703
0.0330396
0.0309088
0.0287779
0.0266468
0.0245156
0.0223843
0.0947508
0.0926266
0.090502
0.088377
0.0862517
0.0841261
0.0820002
0.079874
0.0777475
0.0756207
0.0734937
0.0713664
0.0692388
0.067111
0.064983
0.0628548
0.0607264
0.0585977
0.0564689
0.0543398
0.0522106
0.0500812
0.0479516
0.0458218
0.0436918
0.0415618
0.0394315
0.0373011
0.0351706
0.0330399
0.0309091
0.0287781
0.026647
0.0245158
0.0223845
0.0947517
0.0926274
0.0905028
0.0883778
0.0862525
0.0841268
0.0820009
0.0798746
0.0777481
0.0756213
0.0734943
0.0713669
0.0692394
0.0671116
0.0649836
0.0628553
0.0607268
0.0585982
0.0564693
0.0543402
0.052211
0.0500815
0.0479519
0.0458221
0.0436922
0.0415621
0.0394318
0.0373014
0.0351709
0.0330402
0.0309093
0.0287784
0.0266473
0.0245161
0.0223848
0.0947526
0.0926282
0.0905035
0.0883785
0.0862532
0.0841275
0.0820015
0.0798753
0.0777487
0.0756219
0.0734948
0.0713675
0.0692399
0.0671121
0.064984
0.0628558
0.0607273
0.0585986
0.0564697
0.0543406
0.0522113
0.0500819
0.0479523
0.0458225
0.0436925
0.0415624
0.0394321
0.0373017
0.0351711
0.0330404
0.0309096
0.0287786
0.0266475
0.0245163
0.022385
0.0947533
0.0926289
0.0905042
0.0883792
0.0862538
0.0841281
0.0820021
0.0798758
0.0777492
0.0756224
0.0734953
0.0713679
0.0692403
0.0671125
0.0649844
0.0628562
0.0607277
0.058599
0.0564701
0.054341
0.0522117
0.0500822
0.0479526
0.0458228
0.0436928
0.0415627
0.0394324
0.037302
0.0351714
0.0330407
0.0309098
0.0287789
0.0266478
0.0245165
0.0223852
0.0947539
0.0926295
0.0905048
0.0883797
0.0862543
0.0841286
0.0820026
0.0798763
0.0777497
0.0756229
0.0734958
0.0713684
0.0692408
0.0671129
0.0649848
0.0628565
0.060728
0.0585993
0.0564704
0.0543413
0.052212
0.0500825
0.0479529
0.0458231
0.0436931
0.041563
0.0394327
0.0373022
0.0351716
0.0330409
0.0309101
0.0287791
0.026648
0.0245167
0.0223854
0.0947547
0.0926303
0.0905055
0.0883804
0.086255
0.0841293
0.0820033
0.0798769
0.0777503
0.0756234
0.0734963
0.0713689
0.0692413
0.0671134
0.0649853
0.062857
0.0607285
0.0585998
0.0564708
0.0543417
0.0522124
0.0500829
0.0479533
0.0458234
0.0436934
0.0415633
0.039433
0.0373026
0.035172
0.0330412
0.0309104
0.0287794
0.0266483
0.024517
0.0223857
0.0947556
0.0926311
0.0905064
0.0883812
0.0862558
0.08413
0.082004
0.0798776
0.077751
0.0756241
0.0734969
0.0713695
0.0692419
0.067114
0.0649859
0.0628575
0.060729
0.0586003
0.0564713
0.0543422
0.0522129
0.0500834
0.0479537
0.0458238
0.0436938
0.0415637
0.0394334
0.0373029
0.0351723
0.0330416
0.0309107
0.0287797
0.0266486
0.0245173
0.022386
0.020255
0.0181234
0.0159917
0.0138598
0.0117279
0.00959585
0.0074637
0.00533146
0.00319907
0.00106658
0.0202547
0.0181231
0.0159914
0.0138596
0.0117277
0.00959563
0.00746348
0.00533133
0.00319885
0.00106648
0.0202545
0.0181229
0.0159912
0.0138594
0.0117275
0.00959545
0.00746329
0.0053312
0.00319862
0.00106652
0.0202543
0.0181227
0.015991
0.0138592
0.0117273
0.00959532
0.00746319
0.00533109
0.00319847
0.0010665
0.0202541
0.0181225
0.0159908
0.0138591
0.0117272
0.00959518
0.00746306
0.00533097
0.00319835
0.00106634
0.0202538
0.0181223
0.0159906
0.0138588
0.011727
0.009595
0.00746291
0.00533084
0.00319825
0.00106604
0.0202536
0.018122
0.0159904
0.0138586
0.0117268
0.0095948
0.00746274
0.00533067
0.0031982
0.00106562
0.0202533
0.0181217
0.0159901
0.0138584
0.0117265
0.00959459
0.00746257
0.00533052
0.00319816
0.00106517
0.020253
0.0181215
0.0159898
0.0138581
0.0117263
0.00959441
0.00746242
0.00533039
0.00319814
0.0010648
0.0202528
0.0181213
0.0159897
0.013858
0.0117262
0.00959428
0.00746231
0.0053303
0.00319813
0.00106461
0.0202527
0.0181212
0.0159896
0.0138579
0.0117261
0.00959422
0.00746227
0.00533028
0.00319809
0.00106466
0.0202528
0.0181213
0.0159896
0.0138579
0.0117261
0.00959425
0.00746229
0.0053303
0.00319807
0.00106493
0.0202529
0.0181214
0.0159898
0.013858
0.0117262
0.00959434
0.00746236
0.00533039
0.00319804
0.00106537
0.0202531
0.0181216
0.0159899
0.0138582
0.0117264
0.00959448
0.00746248
0.0053305
0.00319806
0.00106586
0.0202533
0.0181218
0.0159901
0.0138584
0.0117265
0.00959464
0.00746261
0.00533062
0.00319811
0.00106629
0.0202535
0.018122
0.0159903
0.0138586
0.0117267
0.00959478
0.00746274
0.00533075
0.0031982
0.00106657
0.0202537
0.0181222
0.0159905
0.0138587
0.0117269
0.00959493
0.00746288
0.00533086
0.00319834
0.00106668
0.0202539
0.0181224
0.0159907
0.0138589
0.011727
0.00959509
0.00746298
0.00533099
0.0031985
0.00106663
0.0202542
0.0181226
0.0159909
0.0138592
0.0117273
0.00959529
0.00746321
0.00533114
0.00319875
0.00106654
0.0202545
0.0181229
0.0159912
0.0138594
0.0117275
0.00959554
0.00746346
0.00533129
0.00319899
0.0010666
)
;

boundaryField
{
    inlet
    {
        type            zeroGradient;
    }
    outlet
    {
        type            fixedValue;
        value           uniform 0;
    }
    upperWall
    {
        type            zeroGradient;
    }
    lowerWall
    {
        type            zeroGradient;
    }
    frontAndBack
    {
        type            empty;
    }
}


// ************************************************************************* //
