/*--------------------------------*- C++ -*----------------------------------*\
| =========                 |                                                 |
| \\      /  F ield         | OpenFOAM: The Open Source CFD Toolbox           |
|  \\    /   O peration     | Version:  2406                                  |
|   \\  /    A nd           | Website:  www.openfoam.com                      |
|    \\/     M anipulation  |                                                 |
\*---------------------------------------------------------------------------*/
FoamFile
{
    version     2.0;
    format      ascii;
    arch        "LSB;label=32;scalar=64";
    class       surfaceScalarField;
    location    "78";
    object      phi;
}
// * * * * * * * * * * * * * * * * * * * * * * * * * * * * * * * * * * * * * //

dimensions      [0 3 -1 0 0 0 0];

oriented        oriented;

internalField   nonuniform List<scalar> 
3880
(
0.00992595
-0.000175945
0.0101083
-0.000182306
0.010234
-0.000125777
0.0103204
-8.63978e-05
0.0103829
-6.24588e-05
0.0104287
-4.58198e-05
0.0104626
-3.39068e-05
0.0104884
-2.57662e-05
0.0105087
-2.02604e-05
-1.63798e-05
0.010525
0.0276769
-0.00010286
0.0276791
-0.000184472
0.0277272
-0.000173861
0.0277872
-0.000146383
0.027847
-0.000122315
0.0279021
-0.000100893
0.0279504
-8.21982e-05
0.0279918
-6.71595e-05
0.0280271
-5.55802e-05
-4.66112e-05
0.0280574
0.0437031
-5.59496e-05
0.043649
-0.000130386
0.0436239
-0.000148753
0.0436213
-0.000143724
0.0436327
-0.000133806
0.0436532
-0.000121342
0.0436782
-0.000107221
0.0437046
-9.35103e-05
0.0437304
-8.14289e-05
-7.1089e-05
0.0437549
0.0577274
-3.33576e-05
0.0576839
-8.68561e-05
0.0576467
-0.000111598
0.0576208
-0.000117766
0.0576042
-0.000117223
0.0575958
-0.000112982
0.0575942
-0.000105619
0.0575975
-9.67176e-05
0.0576038
-8.77598e-05
-7.93549e-05
0.057612
0.0697379
-2.129e-05
0.0697098
-5.86834e-05
0.0696794
-8.11961e-05
0.0696524
-9.08362e-05
0.0696294
-9.42107e-05
0.0696105
-9.40962e-05
0.069596
-9.10269e-05
0.0695852
-8.59841e-05
0.0695776
-8.01672e-05
-7.42588e-05
0.0695725
0.0797428
-1.41085e-05
0.0797242
-4.01135e-05
0.0797011
-5.80623e-05
0.0796779
-6.76197e-05
0.0796558
-7.21507e-05
0.0796355
-7.36954e-05
0.0796172
-7.27913e-05
0.0796013
-7.00717e-05
0.0795876
-6.64106e-05
-6.24107e-05
0.0795757
0.0877452
-9.31569e-06
0.087732
-2.68954e-05
0.0877139
-3.99999e-05
0.0876942
-4.78813e-05
0.0876742
-5.21503e-05
0.0876546
-5.40912e-05
0.087636
-5.41532e-05
0.0876187
-5.27621e-05
0.0876028
-5.05148e-05
-4.78771e-05
0.0875882
0.0937464
-5.72137e-06
0.0937362
-1.66426e-05
0.0937213
-2.51462e-05
0.0937041
-3.06347e-05
0.0936858
-3.38389e-05
0.0936671
-3.54678e-05
0.0936488
-3.58225e-05
0.0936312
-3.51733e-05
0.0936146
-3.38921e-05
-3.22896e-05
0.093599
0.097747
-2.73203e-06
0.0977383
-7.97425e-06
0.0977254
-1.21488e-05
0.0977097
-1.49454e-05
0.0976925
-1.66441e-05
0.0976746
-1.75525e-05
0.0976566
-1.78181e-05
0.097639
-1.75733e-05
0.0976221
-1.69961e-05
-1.62397e-05
0.097606
0.0997473
2.75644e-10
0.0997393
6.29798e-10
0.0997271
5.85993e-10
0.0997122
1.0828e-09
0.0996956
1.82649e-09
0.099678
1.58552e-09
0.0996602
7.11622e-10
0.0996426
6.57801e-10
0.0996256
1.70291e-09
2.45526e-09
0.0996094
0.0997473
2.73211e-06
0.0997393
7.97457e-06
0.0997271
1.21509e-05
0.0997122
1.49486e-05
0.0996956
1.66465e-05
0.099678
1.75544e-05
0.0996602
1.78203e-05
0.0996426
1.75762e-05
0.0996256
1.69995e-05
1.62431e-05
0.0996094
0.097747
5.72199e-06
0.0977383
1.66438e-05
0.0977254
2.51475e-05
0.0977097
3.06369e-05
0.0976925
3.3842e-05
0.0976746
3.54706e-05
0.0976566
3.58242e-05
0.097639
3.5175e-05
0.0976221
3.38953e-05
3.22936e-05
0.097606
0.0937464
9.31597e-06
0.0937362
2.68961e-05
0.0937213
4.00019e-05
0.0937041
4.78836e-05
0.0936858
5.21525e-05
0.0936671
5.40936e-05
0.0936488
5.4156e-05
0.0936312
5.27649e-05
0.0936146
5.05173e-05
4.78793e-05
0.093599
0.0877452
1.41091e-05
0.087732
4.01144e-05
0.0877139
5.80636e-05
0.0876942
6.76216e-05
0.0876742
7.21532e-05
0.0876546
7.36983e-05
0.087636
7.27942e-05
0.0876187
7.00742e-05
0.0876028
6.64127e-05
6.24126e-05
0.0875882
0.0797428
2.12905e-05
0.0797243
5.86845e-05
0.0797011
8.11974e-05
0.0796779
9.08377e-05
0.0796558
9.42132e-05
0.0796355
9.40995e-05
0.0796172
9.10301e-05
0.0796013
8.59865e-05
0.0795876
8.01686e-05
7.42599e-05
0.0795757
0.0697379
3.33579e-05
0.0697098
8.68567e-05
0.0696794
0.0001116
0.0696524
0.000117767
0.0696294
0.000117225
0.0696105
0.000112985
0.069596
0.000105622
0.0695852
9.67204e-05
0.0695776
8.77612e-05
7.93555e-05
0.0695725
0.0577274
5.59503e-05
0.0576839
0.000130387
0.0576467
0.000148754
0.0576208
0.000143726
0.0576042
0.000133809
0.0575958
0.000121345
0.0575942
0.000107224
0.0575974
9.35123e-05
0.0576038
8.14299e-05
7.10903e-05
0.057612
0.0437031
0.000102861
0.043649
0.000184473
0.0436239
0.000173863
0.0436212
0.000146385
0.0436327
0.000122317
0.0436532
0.000100896
0.0436782
8.2202e-05
0.0437046
6.71626e-05
0.0437304
5.55812e-05
4.66116e-05
0.0437549
0.0276769
0.000175945
0.0276791
0.000182307
0.0277272
0.000125778
0.0277872
8.63985e-05
0.027847
6.24606e-05
0.0279021
4.58226e-05
0.0279504
3.39091e-05
0.0279918
2.57671e-05
0.0280271
2.02609e-05
1.63811e-05
0.0280573
0.00992595
0.0101083
0.010234
0.0103204
0.0103829
0.0104287
0.0104626
0.0104884
0.0105087
0.010525
0.0105385
-1.35102e-05
0.0105499
-1.13285e-05
0.0105595
-9.6439e-06
0.0105678
-8.32234e-06
0.0105751
-7.26429e-06
0.0105815
-6.3991e-06
0.0105872
-5.68021e-06
0.0105923
-5.07801e-06
0.0105968
-4.57208e-06
0.010601
-4.14572e-06
0.0106048
-3.78378e-06
0.0106082
-3.47267e-06
0.0106114
-3.20143e-06
0.0106144
-2.96192e-06
0.0106171
-2.74862e-06
0.0106197
-2.55788e-06
0.0106221
-2.38716e-06
0.0106243
-2.23438e-06
0.0106264
-2.09759e-06
0.0106284
-1.97478e-06
0.0106303
-1.86394e-06
0.010632
-1.76315e-06
0.0106337
-1.6707e-06
0.0106353
-1.5852e-06
0.0106368
-1.50563e-06
0.0106382
-1.43129e-06
0.0106396
-1.36176e-06
0.0106409
-1.29674e-06
0.0106421
-1.23609e-06
0.0106433
-1.17959e-06
0.0106444
-1.12703e-06
0.0106455
-1.0781e-06
0.0106465
-1.03249e-06
0.0106475
-9.89788e-07
-9.49655e-07
0.0106485
0.0280834
-3.95169e-05
0.0281059
-3.38359e-05
0.0281255
-2.92647e-05
0.0281427
-2.55639e-05
0.028158
-2.25316e-05
0.0281716
-2.00082e-05
0.0281838
-1.78806e-05
0.0281948
-1.6074e-05
0.0282048
-1.45371e-05
0.0282138
-1.3228e-05
0.0282222
-1.21074e-05
0.0282298
-1.1139e-05
0.0282369
-1.02916e-05
0.0282435
-9.54146e-06
0.0282496
-8.8717e-06
0.0282553
-8.27094e-06
0.0282607
-7.73133e-06
0.0282657
-7.24652e-06
0.0282704
-6.81073e-06
0.0282749
-6.4181e-06
0.0282791
-6.06277e-06
0.028283
-5.73918e-06
0.0282868
-5.44228e-06
0.0282904
-5.16793e-06
0.0282938
-4.91289e-06
0.028297
-4.67482e-06
0.0283001
-4.45216e-06
0.0283031
-4.24383e-06
0.0283059
-4.04906e-06
0.0283086
-3.86713e-06
0.0283111
-3.69732e-06
0.0283136
-3.53876e-06
0.028316
-3.3905e-06
0.0283182
-3.25151e-06
-3.12075e-06
0.0283204
0.0437776
-6.22482e-05
0.0437985
-5.47086e-05
0.0438176
-4.83255e-05
0.043835
-4.29452e-05
0.0438508
-3.83951e-05
0.0438653
-3.45105e-05
0.0438786
-3.1162e-05
0.0438908
-2.82619e-05
0.043902
-2.57511e-05
0.0439124
-2.35807e-05
0.0439219
-2.17015e-05
0.0439309
-2.00627e-05
0.0439392
-1.8618e-05
0.043947
-1.73298e-05
0.0439543
-1.61715e-05
0.0439611
-1.51254e-05
0.0439676
-1.41797e-05
0.0439737
-1.33254e-05
0.0439794
-1.25537e-05
0.0439849
-1.18553e-05
0.04399
-1.12209e-05
0.0439949
-1.06411e-05
0.0439996
-1.01075e-05
0.044004
-9.61325e-06
0.0440083
-9.15285e-06
0.0440123
-8.72239e-06
0.0440162
-8.31912e-06
0.0440199
-7.94113e-06
0.0440234
-7.58693e-06
0.0440268
-7.25523e-06
0.04403
-6.94468e-06
0.0440332
-6.65381e-06
0.0440362
-6.38102e-06
0.044039
-6.1246e-06
-5.88289e-06
0.0440418
0.0576214
-7.1621e-05
0.0576313
-6.46029e-05
0.0576413
-5.83502e-05
0.0576513
-5.2861e-05
0.0576609
-4.80621e-05
0.0576703
-4.38452e-05
0.0576792
-4.01123e-05
0.0576877
-3.67994e-05
0.0576959
-3.38691e-05
0.0577036
-3.12911e-05
0.0577109
-2.90272e-05
0.0577179
-2.703e-05
0.0577245
-2.52504e-05
0.0577308
-2.36465e-05
0.0577368
-2.2188e-05
0.0577426
-2.08564e-05
0.057748
-1.96407e-05
0.0577532
-1.85331e-05
0.0577582
-1.75256e-05
0.057763
-1.66087e-05
0.0577675
-1.57713e-05
0.0577719
-1.5002e-05
0.0577761
-1.42903e-05
0.0577801
-1.36274e-05
0.0577839
-1.30068e-05
0.0577876
-1.24238e-05
0.0577912
-1.18753e-05
0.0577946
-1.13594e-05
0.0577979
-1.08743e-05
0.0578011
-1.04186e-05
0.0578041
-9.99045e-06
0.057807
-9.58805e-06
0.0578099
-9.20925e-06
0.0578126
-8.85188e-06
-8.51379e-06
0.0578152
0.0695694
-6.85005e-05
0.0695678
-6.30208e-05
0.0695674
-5.79444e-05
0.0695679
-5.33491e-05
0.0695691
-4.92316e-05
0.0695708
-4.55326e-05
0.0695728
-4.21861e-05
0.0695752
-3.91517e-05
0.0695777
-3.64148e-05
0.0695804
-3.39676e-05
0.0695832
-3.17909e-05
0.069586
-2.98506e-05
0.0695889
-2.8104e-05
0.0695917
-2.6512e-05
0.0695946
-2.50461e-05
0.0695974
-2.36901e-05
0.0696002
-2.24368e-05
0.069603
-2.12829e-05
0.0696057
-2.02243e-05
0.0696083
-1.92543e-05
0.0696109
-1.83631e-05
0.0696134
-1.75393e-05
0.0696159
-1.6772e-05
0.0696183
-1.6052e-05
0.0696207
-1.53727e-05
0.069623
-1.47297e-05
0.0696253
-1.41208e-05
0.0696275
-1.35445e-05
0.0696296
-1.3e-05
0.0696316
-1.24863e-05
0.0696337
-1.20018e-05
0.0696356
-1.15445e-05
0.0696375
-1.11122e-05
0.0696394
-1.07024e-05
-1.03129e-05
0.0696412
0.0795655
-5.83342e-05
0.0795568
-5.4322e-05
0.0795494
-5.0509e-05
0.0795431
-4.69967e-05
0.0795376
-4.38127e-05
0.079533
-4.09232e-05
0.0795291
-3.82781e-05
0.0795258
-3.58476e-05
0.079523
-3.36276e-05
0.0795207
-3.16229e-05
0.0795187
-2.98282e-05
0.0795171
-2.82207e-05
0.0795158
-2.67663e-05
0.0795147
-2.54303e-05
0.0795138
-2.41872e-05
0.0795131
-2.30234e-05
0.0795126
-2.19351e-05
0.0795123
-2.09227e-05
0.079512
-1.99864e-05
0.0795119
-1.91229e-05
0.0795119
-1.83253e-05
0.0795119
-1.75838e-05
0.079512
-1.68886e-05
0.0795122
-1.6231e-05
0.0795125
-1.56049e-05
0.0795127
-1.50069e-05
0.079513
-1.44356e-05
0.0795134
-1.38907e-05
0.0795138
-1.33727e-05
0.0795142
-1.28812e-05
0.0795146
-1.24156e-05
0.079515
-1.19742e-05
0.0795154
-1.1555e-05
0.0795159
-1.11556e-05
-1.07738e-05
0.0795164
0.087575
-4.50832e-05
0.0875629
-4.22631e-05
0.0875519
-3.95357e-05
0.087542
-3.69973e-05
0.0875328
-3.46854e-05
0.0875245
-3.25826e-05
0.0875168
-3.06516e-05
0.0875099
-2.88686e-05
0.0875035
-2.72318e-05
0.0874976
-2.57491e-05
0.0874922
-2.44213e-05
0.0874872
-2.32343e-05
0.0874826
-2.21615e-05
0.0874784
-2.11746e-05
0.0874744
-2.02516e-05
0.0874708
-1.93807e-05
0.0874674
-1.85593e-05
0.0874643
-1.77895e-05
0.0874613
-1.70732e-05
0.0874586
-1.64099e-05
0.0874561
-1.57951e-05
0.0874537
-1.52215e-05
0.0874515
-1.46811e-05
0.0874495
-1.41665e-05
0.0874475
-1.36724e-05
0.0874457
-1.31961e-05
0.087444
-1.27369e-05
0.0874424
-1.22953e-05
0.0874409
-1.18726e-05
0.0874395
-1.14692e-05
0.0874382
-1.10852e-05
0.0874369
-1.07197e-05
0.0874358
-1.03709e-05
0.0874346
-1.0037e-05
-9.71603e-06
0.0874336
0.0935845
-3.05361e-05
0.0935709
-2.87294e-05
0.0935583
-2.69578e-05
0.0935467
-2.52957e-05
0.0935357
-2.37782e-05
0.0935256
-2.23986e-05
0.093516
-2.11323e-05
0.0935071
-1.99618e-05
0.0934988
-1.88857e-05
0.0934909
-1.79109e-05
0.0934836
-1.70403e-05
0.0934766
-1.62659e-05
0.09347
-1.557e-05
0.0934638
-1.49319e-05
0.0934579
-1.43351e-05
0.0934522
-1.37702e-05
0.0934469
-1.3235e-05
0.0934418
-1.27314e-05
0.093437
-1.22615e-05
0.0934325
-1.18256e-05
0.0934281
-1.14213e-05
0.0934239
-1.10438e-05
0.0934199
-1.06872e-05
0.0934161
-1.03462e-05
0.0934124
-1.00167e-05
0.0934089
-9.69677e-06
0.0934056
-9.38587e-06
0.0934024
-9.08479e-06
0.0933993
-8.79466e-06
0.0933963
-8.51645e-06
0.0933935
-8.25048e-06
0.0933908
-7.99633e-06
0.0933882
-7.75298e-06
0.0933857
-7.519e-06
-7.29295e-06
0.0933832
0.0975909
-1.53932e-05
0.0975766
-1.45094e-05
0.0975633
-1.36349e-05
0.0975508
-1.28097e-05
0.0975391
-1.20543e-05
0.0975281
-1.13676e-05
0.0975177
-1.07378e-05
0.0975079
-1.01561e-05
0.0974986
-9.62132e-06
0.0974898
-9.13699e-06
0.0974815
-8.70519e-06
0.0974736
-8.32248e-06
0.097466
-7.98012e-06
0.0974587
-7.66758e-06
0.0974518
-7.37595e-06
0.0974451
-7.10006e-06
0.0974387
-6.83848e-06
0.0974325
-6.59194e-06
0.0974266
-6.36169e-06
0.097421
-6.14804e-06
0.0974155
-5.94985e-06
0.0974102
-5.76477e-06
0.0974051
-5.58979e-06
0.0974002
-5.4221e-06
0.0973955
-5.25957e-06
0.0973909
-5.10104e-06
0.0973864
-4.94628e-06
0.0973821
-4.79568e-06
0.097378
-4.64994e-06
0.097374
-4.50962e-06
0.0973701
-4.37503e-06
0.0973663
-4.24601e-06
0.0973627
-4.12208e-06
0.0973592
-4.0025e-06
-3.8865e-06
0.0973558
0.099594
1.63442e-09
0.0995795
-2.57807e-10
0.0995658
-1.33181e-09
0.099553
-4.08435e-10
0.099541
1.73322e-09
0.0995296
3.35575e-09
0.0995189
3.37122e-09
0.0995087
2.0737e-09
0.0994991
6.62276e-10
0.0994899
1.51626e-10
0.0994812
8.41614e-10
0.0994729
2.30007e-09
0.0994649
3.80819e-09
0.0994573
4.8861e-09
0.0994499
5.34455e-09
0.0994428
5.32209e-09
0.0994359
5.12211e-09
0.0994293
5.0009e-09
0.099423
5.17062e-09
0.0994168
5.68583e-09
0.0994109
6.51237e-09
0.0994051
7.55819e-09
0.0993995
8.68662e-09
0.0993941
9.79881e-09
0.0993888
1.08104e-08
0.0993837
1.17002e-08
0.0993787
1.24965e-08
0.0993739
1.32526e-08
0.0993692
1.40542e-08
0.0993647
1.49625e-08
0.0993603
1.60351e-08
0.0993561
1.72955e-08
0.0993519
1.8745e-08
0.0993479
2.03681e-08
2.21295e-08
0.099344
0.099594
1.53954e-05
0.0995795
1.45094e-05
0.0995658
1.36338e-05
0.099553
1.28099e-05
0.099541
1.20574e-05
0.0995296
1.1373e-05
0.0995189
1.07434e-05
0.0995087
1.01599e-05
0.0994991
9.62312e-06
0.0994899
9.13821e-06
0.0994812
8.70761e-06
0.0994729
8.32724e-06
0.0994649
7.98739e-06
0.0994573
7.67666e-06
0.0994499
7.38593e-06
0.0994428
7.11023e-06
0.0994359
6.84853e-06
0.0994293
6.60203e-06
0.099423
6.37225e-06
0.0994168
6.15962e-06
0.0994109
5.96295e-06
0.0994051
5.77973e-06
0.0993995
5.60679e-06
0.0993941
5.44114e-06
0.0993888
5.28053e-06
0.0993837
5.12377e-06
0.0993787
4.97065e-06
0.0993739
4.82166e-06
0.0993692
4.67759e-06
0.0993647
4.53915e-06
0.0993603
4.4067e-06
0.0993561
4.28015e-06
0.0993519
4.15901e-06
0.0993479
4.04254e-06
3.92991e-06
0.099344
0.0975909
3.05388e-05
0.0975766
2.87295e-05
0.0975633
2.69566e-05
0.0975508
2.5296e-05
0.0975391
2.37814e-05
0.0975281
2.24036e-05
0.0975177
2.11369e-05
0.0975079
1.99648e-05
0.0974986
1.88875e-05
0.0974898
1.79127e-05
0.0974815
1.70436e-05
0.0974736
1.62712e-05
0.097466
1.5577e-05
0.0974587
1.49401e-05
0.0974518
1.43437e-05
0.0974451
1.37791e-05
0.0974387
1.32443e-05
0.0974325
1.27412e-05
0.0974266
1.22722e-05
0.097421
1.18375e-05
0.0974155
1.14345e-05
0.0974102
1.10584e-05
0.0974051
1.07033e-05
0.0974002
1.03638e-05
0.0973955
1.0036e-05
0.0973909
9.71764e-06
0.0973864
9.40843e-06
0.0973821
9.10911e-06
0.097378
8.82085e-06
0.097374
8.54464e-06
0.0973701
8.28083e-06
0.0973664
8.02903e-06
0.0973627
7.78823e-06
0.0973592
7.55702e-06
7.33392e-06
0.0973558
0.0935845
4.50849e-05
0.0935709
4.22642e-05
0.0935584
3.95368e-05
0.0935467
3.6999e-05
0.0935357
3.46879e-05
0.0935256
3.25853e-05
0.093516
3.0654e-05
0.0935071
2.88708e-05
0.0934988
2.72345e-05
0.0934909
2.57527e-05
0.0934836
2.4426e-05
0.0934766
2.32398e-05
0.09347
2.21675e-05
0.0934638
2.11808e-05
0.0934579
2.02583e-05
0.0934522
1.93881e-05
0.0934469
1.85678e-05
0.0934419
1.77991e-05
0.093437
1.70841e-05
0.0934325
1.64219e-05
0.0934281
1.58079e-05
0.0934239
1.52352e-05
0.0934199
1.46956e-05
0.0934161
1.41819e-05
0.0934125
1.36891e-05
0.093409
1.32143e-05
0.0934056
1.27568e-05
0.0934024
1.23172e-05
0.0933993
1.18964e-05
0.0933964
1.14951e-05
0.0933935
1.11132e-05
0.0933908
1.07498e-05
0.0933882
1.04032e-05
0.0933857
1.00716e-05
9.75298e-06
0.0933833
0.087575
5.83357e-05
0.0875629
5.43236e-05
0.0875519
5.05112e-05
0.0875419
4.69992e-05
0.0875328
4.38146e-05
0.0875245
4.09241e-05
0.0875168
3.82786e-05
0.0875099
3.58492e-05
0.0875035
3.3631e-05
0.0874976
3.16279e-05
0.0874922
2.98338e-05
0.0874872
2.8226e-05
0.0874826
2.67708e-05
0.0874784
2.54345e-05
0.0874744
2.41918e-05
0.0874708
2.30293e-05
0.0874674
2.19427e-05
0.0874643
2.0932e-05
0.0874614
1.9997e-05
0.0874586
1.91344e-05
0.0874561
1.83371e-05
0.0874538
1.75959e-05
0.0874516
1.69009e-05
0.0874495
1.62438e-05
0.0874476
1.56187e-05
0.0874458
1.50221e-05
0.0874441
1.44524e-05
0.0874425
1.39095e-05
0.087441
1.33934e-05
0.0874396
1.29039e-05
0.0874382
1.24401e-05
0.087437
1.20005e-05
0.0874358
1.1583e-05
0.0874347
1.11853e-05
1.08052e-05
0.0874336
0.0795655
6.85024e-05
0.0795568
6.30239e-05
0.0795494
5.7948e-05
0.0795431
5.33515e-05
0.0795376
4.92319e-05
0.079533
4.55316e-05
0.0795291
4.21858e-05
0.0795258
3.91537e-05
0.079523
3.64193e-05
0.0795207
3.39732e-05
0.0795187
3.17962e-05
0.0795171
2.98545e-05
0.0795158
2.81068e-05
0.0795147
2.65145e-05
0.0795138
2.50493e-05
0.0795132
2.36949e-05
0.0795127
2.24435e-05
0.0795123
2.12912e-05
0.0795121
2.02338e-05
0.0795119
1.92642e-05
0.0795119
1.8373e-05
0.0795119
1.75491e-05
0.0795121
1.67818e-05
0.0795122
1.60622e-05
0.0795125
1.53836e-05
0.0795128
1.47418e-05
0.0795131
1.41343e-05
0.0795134
1.35597e-05
0.0795138
1.30169e-05
0.0795142
1.25048e-05
0.0795146
1.20217e-05
0.0795151
1.15658e-05
0.0795155
1.11347e-05
0.079516
1.07261e-05
1.03378e-05
0.0795164
0.0695694
7.16228e-05
0.0695678
6.4607e-05
0.0695674
5.83551e-05
0.0695679
5.28634e-05
0.0695691
4.80611e-05
0.0695708
4.38427e-05
0.0695728
4.01114e-05
0.0695752
3.68018e-05
0.0695778
3.3874e-05
0.0695804
3.12964e-05
0.0695832
2.90312e-05
0.069586
2.70322e-05
0.0695889
2.52515e-05
0.0695917
2.36477e-05
0.0695946
2.21904e-05
0.0695974
2.08605e-05
0.0696002
1.96464e-05
0.069603
1.85398e-05
0.0696057
1.75329e-05
0.0696083
1.66161e-05
0.0696109
1.57786e-05
0.0696135
1.50092e-05
0.0696159
1.42975e-05
0.0696184
1.3635e-05
0.0696207
1.3015e-05
0.0696231
1.24328e-05
0.0696253
1.18854e-05
0.0696275
1.13706e-05
0.0696296
1.08867e-05
0.0696317
1.04321e-05
0.0696337
1.0005e-05
0.0696357
9.60356e-06
0.0696376
9.22562e-06
0.0696394
8.86904e-06
8.53177e-06
0.0696412
0.0576214
6.22513e-05
0.0576313
5.47132e-05
0.0576413
4.83293e-05
0.0576513
4.2946e-05
0.0576609
3.83932e-05
0.0576703
3.45082e-05
0.0576792
3.11618e-05
0.0576877
2.82643e-05
0.0576959
2.57549e-05
0.0577036
2.35841e-05
0.0577109
2.17034e-05
0.0577179
2.00634e-05
0.0577245
1.86183e-05
0.0577308
1.73306e-05
0.0577368
1.61734e-05
0.0577426
1.51284e-05
0.057748
1.41836e-05
0.0577532
1.33297e-05
0.0577582
1.25582e-05
0.057763
1.18599e-05
0.0577675
1.12256e-05
0.0577719
1.06459e-05
0.0577761
1.01125e-05
0.0577801
9.61846e-06
0.057784
9.15835e-06
0.0577877
8.72833e-06
0.0577912
8.32556e-06
0.0577946
7.9482e-06
0.0577979
7.59465e-06
0.0578011
7.26367e-06
0.0578042
6.95376e-06
0.0578071
6.66355e-06
0.0578099
6.39129e-06
0.0578127
6.13543e-06
5.89419e-06
0.0578153
0.0437776
3.95192e-05
0.0437985
3.38401e-05
0.0438176
2.9268e-05
0.043835
2.55639e-05
0.0438508
2.25291e-05
0.0438653
2.0006e-05
0.0438786
1.78804e-05
0.0438908
1.60757e-05
0.043902
1.45394e-05
0.0439124
1.32296e-05
0.043922
1.2108e-05
0.0439309
1.11389e-05
0.0439392
1.02917e-05
0.043947
9.54199e-06
0.0439543
8.87276e-06
0.0439611
8.27245e-06
0.0439676
7.7331e-06
0.0439737
7.24852e-06
0.0439794
6.81293e-06
0.0439849
6.42054e-06
0.04399
6.06543e-06
0.0439949
5.74199e-06
0.0439996
5.44516e-06
0.044004
5.1708e-06
0.0440083
4.91571e-06
0.0440123
4.67768e-06
0.0440162
4.45514e-06
0.0440199
4.24707e-06
0.0440235
4.05264e-06
0.0440268
3.87114e-06
0.0440301
3.70175e-06
0.0440332
3.5436e-06
0.0440362
3.39566e-06
0.0440391
3.25694e-06
3.12638e-06
0.0440419
0.0280834
1.35125e-05
0.0281059
1.13303e-05
0.0281255
9.64441e-06
0.0281427
8.32157e-06
0.028158
7.26314e-06
0.0281716
6.39847e-06
0.0281838
5.68036e-06
0.0281948
5.07858e-06
0.0282048
4.57262e-06
0.0282139
4.14601e-06
0.0282222
3.78384e-06
0.0282298
3.47269e-06
0.0282369
3.20151e-06
0.0282435
2.96206e-06
0.0282496
2.74882e-06
0.0282553
2.55812e-06
0.0282607
2.38752e-06
0.0282657
2.23493e-06
0.0282704
2.09837e-06
0.0282749
1.97576e-06
0.0282791
1.86505e-06
0.028283
1.76425e-06
0.0282868
1.6717e-06
0.0282904
1.58603e-06
0.0282938
1.50631e-06
0.0282971
1.43188e-06
0.0283002
1.36236e-06
0.0283031
1.29745e-06
0.0283059
1.23698e-06
0.0283086
1.18068e-06
0.0283112
1.12832e-06
0.0283136
1.07955e-06
0.028316
1.03404e-06
0.0283183
9.91376e-07
9.51251e-07
0.0283204
0.0105385
0.0105499
0.0105595
0.0105678
0.0105751
0.0105815
0.0105872
0.0105923
0.0105968
0.010601
0.0106048
0.0106082
0.0106114
0.0106144
0.0106172
0.0106197
0.0106221
0.0106243
0.0106264
0.0106284
0.0106303
0.010632
0.0106337
0.0106353
0.0106368
0.0106382
0.0106396
0.0106409
0.0106421
0.0106433
0.0106444
0.0106455
0.0106465
0.0106475
0.0106485
0.0106494
-9.11735e-07
0.0106503
-8.75761e-07
0.0106511
-8.41495e-07
0.0106519
-8.08803e-07
0.0106527
-7.77568e-07
0.0106534
-7.47758e-07
0.0106542
-7.19322e-07
0.0106548
-6.9226e-07
0.0106555
-6.66524e-07
-6.42095e-07
0.0106562
0.0283225
-2.99726e-06
0.0283245
-2.88019e-06
0.0283264
-2.76884e-06
0.0283283
-2.66269e-06
0.02833
-2.56136e-06
0.0283318
-2.46459e-06
0.0283334
-2.37222e-06
0.028335
-2.28414e-06
0.0283365
-2.20021e-06
-2.12033e-06
0.028338
0.0440444
-5.65428e-06
0.044047
-5.43736e-06
0.0440495
-5.23092e-06
0.0440518
-5.03404e-06
0.0440541
-4.846e-06
0.0440563
-4.66632e-06
0.0440584
-4.49462e-06
0.0440605
-4.33065e-06
0.0440625
-4.17415e-06
-4.02488e-06
0.0440644
0.0578178
-8.19298e-06
0.0578202
-7.88772e-06
0.0578226
-7.59656e-06
0.0578249
-7.31835e-06
0.0578271
-7.05223e-06
0.0578292
-6.79756e-06
0.0578313
-6.55386e-06
0.0578332
-6.32075e-06
0.0578352
-6.09785e-06
-5.88479e-06
0.057837
0.0696429
-9.94146e-06
0.0696446
-9.58644e-06
0.0696463
-9.24643e-06
0.0696479
-8.92042e-06
0.0696494
-8.60766e-06
0.0696509
-8.30762e-06
0.0696524
-8.01987e-06
0.0696538
-7.74404e-06
0.0696552
-7.47972e-06
-7.22643e-06
0.0696565
0.0795168
-1.04076e-05
0.0795173
-1.00555e-05
0.0795178
-9.7164e-06
0.0795182
-9.38965e-06
0.0795187
-9.07487e-06
0.0795192
-8.77183e-06
0.0795196
-8.48034e-06
0.0795201
-8.20016e-06
0.0795205
-7.93097e-06
-7.67232e-06
0.079521
0.0874326
-9.40625e-06
0.0874316
-9.10645e-06
0.0874307
-8.81591e-06
0.0874299
-8.53433e-06
0.0874291
-8.2617e-06
0.0874283
-7.99812e-06
0.0874275
-7.74368e-06
0.0874268
-7.49839e-06
0.0874262
-7.26204e-06
-7.03429e-06
0.0874255
0.0933809
-7.07355e-06
0.0933787
-6.85995e-06
0.0933765
-6.6517e-06
0.0933744
-6.44875e-06
0.0933724
-6.25127e-06
0.0933705
-6.05955e-06
0.0933686
-5.87385e-06
0.0933668
-5.69427e-06
0.093365
-5.52077e-06
-5.35312e-06
0.0933634
0.0973525
-3.77343e-06
0.0973493
-3.66284e-06
0.0973462
-3.55453e-06
0.0973432
-3.44854e-06
0.0973403
-3.34501e-06
0.0973375
-3.24416e-06
0.0973347
-3.14619e-06
0.0973321
-3.0512e-06
0.0973295
-2.95917e-06
-2.87001e-06
0.0973271
0.0993402
2.39955e-08
0.0993365
2.59278e-08
0.0993329
2.78987e-08
0.0993294
2.98919e-08
0.0993261
3.19017e-08
0.0993228
3.39404e-08
0.0993196
3.60252e-08
0.0993165
3.8186e-08
0.0993135
4.04499e-08
4.28455e-08
0.0993106
0.0993402
3.82042e-06
0.0993365
3.71356e-06
0.0993329
3.60908e-06
0.0993295
3.50697e-06
0.0993261
3.40739e-06
0.0993228
3.31056e-06
0.0993196
3.21671e-06
0.0993165
3.126e-06
0.0993135
3.03845e-06
2.95401e-06
0.0993106
0.0973525
7.11768e-06
0.0973493
6.9074e-06
0.0973462
6.70262e-06
0.0973432
6.50325e-06
0.0973403
6.30948e-06
0.0973375
6.1216e-06
0.0973348
5.93987e-06
0.0973322
5.76442e-06
0.0973296
5.59524e-06
5.43212e-06
0.0973271
0.0933809
9.44576e-06
0.0933787
9.14871e-06
0.0933765
8.86112e-06
0.0933745
8.58268e-06
0.0933725
8.31339e-06
0.0933705
8.05333e-06
0.0933687
7.80261e-06
0.0933669
7.56116e-06
0.0933651
7.32883e-06
7.10523e-06
0.0933635
0.0874326
1.0441e-05
0.0874317
1.0091e-05
0.0874308
9.75429e-06
0.08743
9.43017e-06
0.0874292
9.11827e-06
0.0874284
8.81832e-06
0.0874277
8.53011e-06
0.087427
8.25334e-06
0.0874263
7.98766e-06
7.73258e-06
0.0874257
0.0795169
9.96775e-06
0.0795174
9.61429e-06
0.0795179
9.27606e-06
0.0795183
8.95212e-06
0.0795188
8.64165e-06
0.0795193
8.34415e-06
0.0795198
8.05907e-06
0.0795202
7.78603e-06
0.0795207
7.52452e-06
7.27408e-06
0.0795211
0.069643
8.21186e-06
0.0696447
7.90767e-06
0.0696464
7.61774e-06
0.069648
7.341e-06
0.0696495
7.07651e-06
0.0696511
6.82367e-06
0.0696525
6.58189e-06
0.069654
6.3508e-06
0.0696554
6.12992e-06
5.9189e-06
0.0696567
0.0578178
5.66615e-06
0.0578203
5.44979e-06
0.0578227
5.2441e-06
0.057825
5.04803e-06
0.0578272
4.86101e-06
0.0578293
4.68238e-06
0.0578314
4.5119e-06
0.0578334
4.34914e-06
0.0578353
4.19395e-06
4.04592e-06
0.0578372
0.0440445
3.00309e-06
0.0440471
2.88622e-06
0.0440496
2.77514e-06
0.0440519
2.66933e-06
0.0440542
2.56843e-06
0.0440564
2.47218e-06
0.0440586
2.38041e-06
0.0440606
2.29294e-06
0.0440626
2.20968e-06
2.13044e-06
0.0440645
0.0283225
9.13312e-07
0.0283245
8.77336e-07
0.0283265
8.43089e-07
0.0283283
8.10467e-07
0.0283301
7.79343e-07
0.0283318
7.49693e-07
0.0283335
7.21443e-07
0.0283351
6.94593e-07
0.0283366
6.69071e-07
6.44858e-07
0.0283381
0.0106494
0.0106503
0.0106511
0.0106519
0.0106527
0.0106535
0.0106542
0.0106549
0.0106556
0.0106562
0.0106568
-6.18892e-07
0.0106574
-5.96859e-07
0.0106579
-5.75882e-07
0.0106585
-5.55888e-07
0.010659
-5.36758e-07
0.0106596
-5.18427e-07
0.0106601
-5.00796e-07
0.0106605
-4.83829e-07
0.010661
-4.67459e-07
0.0106615
-4.5168e-07
0.0106619
-4.3645e-07
0.0106623
-4.21782e-07
0.0106627
-4.07643e-07
0.0106631
-3.94051e-07
0.0106635
-3.80969e-07
0.0106639
-3.68408e-07
0.0106642
-3.56322e-07
0.0106646
-3.44714e-07
0.0106649
-3.33533e-07
0.0106652
-3.22775e-07
0.0106655
-3.1239e-07
0.0106658
-3.02377e-07
0.0106661
-2.92689e-07
0.0106664
-2.83335e-07
0.0106667
-2.74272e-07
0.010667
-2.65518e-07
0.0106672
-2.57037e-07
0.0106675
-2.4885e-07
0.0106677
-2.40922e-07
0.0106679
-2.33278e-07
0.0106682
-2.25882e-07
0.0106684
-2.18758e-07
0.0106686
-2.11871e-07
0.0106688
-2.0525e-07
-1.98866e-07
0.010669
0.0283394
-2.04429e-06
0.0283408
-1.9719e-06
0.0283421
-1.90292e-06
0.0283434
-1.83707e-06
0.0283447
-1.77408e-06
0.0283459
-1.71371e-06
0.028347
-1.6557e-06
0.0283481
-1.59988e-06
0.0283492
-1.54609e-06
0.0283503
-1.49422e-06
0.0283513
-1.44419e-06
0.0283522
-1.39594e-06
0.0283532
-1.34944e-06
0.0283541
-1.30464e-06
0.028355
-1.2615e-06
0.0283558
-1.21999e-06
0.0283566
-1.18003e-06
0.0283574
-1.14157e-06
0.0283582
-1.10452e-06
0.028359
-1.06882e-06
0.0283597
-1.03436e-06
0.0283604
-1.00109e-06
0.0283611
-9.68933e-07
0.0283617
-9.37832e-07
0.0283623
-9.07727e-07
0.028363
-8.78593e-07
0.0283636
-8.50381e-07
0.0283641
-8.23083e-07
0.0283647
-7.96662e-07
0.0283652
-7.71117e-07
0.0283657
-7.46417e-07
0.0283662
-7.22566e-07
0.0283667
-6.99539e-07
0.0283672
-6.77349e-07
-6.55991e-07
0.0283677
0.0440662
-3.88253e-06
0.044068
-3.74673e-06
0.0440697
-3.61707e-06
0.0440713
-3.49311e-06
0.0440729
-3.37439e-06
0.0440745
-3.26049e-06
0.044076
-3.15101e-06
0.0440774
-3.04562e-06
0.0440788
-2.94404e-06
0.0440802
-2.84607e-06
0.0440815
-2.75155e-06
0.0440828
-2.66037e-06
0.044084
-2.57243e-06
0.0440852
-2.48765e-06
0.0440863
-2.40595e-06
0.0440874
-2.32722e-06
0.0440885
-2.25136e-06
0.0440895
-2.17825e-06
0.0440905
-2.10774e-06
0.0440915
-2.03971e-06
0.0440924
-1.97401e-06
0.0440933
-1.91052e-06
0.0440942
-1.84911e-06
0.0440951
-1.78968e-06
0.0440959
-1.73214e-06
0.0440967
-1.67641e-06
0.0440975
-1.62243e-06
0.0440982
-1.57016e-06
0.0440989
-1.51955e-06
0.0440996
-1.47057e-06
0.0441003
-1.42319e-06
0.044101
-1.37739e-06
0.0441016
-1.33314e-06
0.0441022
-1.29044e-06
-1.2493e-06
0.0441028
0.0578388
-5.68112e-06
0.0578406
-5.48634e-06
0.0578422
-5.29992e-06
0.0578439
-5.12126e-06
0.0578454
-4.94982e-06
0.057847
-4.78503e-06
0.0578484
-4.62643e-06
0.0578499
-4.47359e-06
0.0578513
-4.32616e-06
0.0578526
-4.18388e-06
0.0578539
-4.04653e-06
0.0578551
-3.91395e-06
0.0578564
-3.78598e-06
0.0578575
-3.6625e-06
0.0578587
-3.54336e-06
0.0578598
-3.42841e-06
0.0578608
-3.3175e-06
0.0578619
-3.21046e-06
0.0578629
-3.10708e-06
0.0578638
-3.0072e-06
0.0578648
-2.91063e-06
0.0578657
-2.81719e-06
0.0578666
-2.72674e-06
0.0578674
-2.63913e-06
0.0578682
-2.55425e-06
0.057869
-2.47199e-06
0.0578698
-2.39226e-06
0.0578705
-2.31501e-06
0.0578713
-2.24015e-06
0.057872
-2.16765e-06
0.0578726
-2.09746e-06
0.0578733
-2.02953e-06
0.0578739
-1.96383e-06
0.0578745
-1.90037e-06
-1.83913e-06
0.0578751
0.0696578
-6.98365e-06
0.0696591
-6.75079e-06
0.0696603
-6.52724e-06
0.0696615
-6.31236e-06
0.0696627
-6.10556e-06
0.0696638
-5.90628e-06
0.0696649
-5.71406e-06
0.0696659
-5.52848e-06
0.069667
-5.34922e-06
0.069668
-5.176e-06
0.0696689
-5.00861e-06
0.0696699
-4.84685e-06
0.0696708
-4.69055e-06
0.0696716
-4.53955e-06
0.0696725
-4.39367e-06
0.0696733
-4.25271e-06
0.0696741
-4.11649e-06
0.0696749
-3.98478e-06
0.0696756
-3.85738e-06
0.0696764
-3.73409e-06
0.0696771
-3.61469e-06
0.0696778
-3.49902e-06
0.0696784
-3.38689e-06
0.0696791
-3.27818e-06
0.0696797
-3.17274e-06
0.0696803
-3.07046e-06
0.0696808
-2.97125e-06
0.0696814
-2.87503e-06
0.0696819
-2.78173e-06
0.0696825
-2.69127e-06
0.069683
-2.60359e-06
0.0696835
-2.51866e-06
0.0696839
-2.43643e-06
0.0696844
-2.35687e-06
-2.28001e-06
0.0696848
0.0795214
-7.42365e-06
0.0795218
-7.18437e-06
0.0795223
-6.95384e-06
0.0795227
-6.73148e-06
0.0795231
-6.51673e-06
0.0795235
-6.30912e-06
0.0795239
-6.10828e-06
0.0795243
-5.9139e-06
0.0795247
-5.72573e-06
0.079525
-5.54358e-06
0.0795254
-5.36728e-06
0.0795257
-5.19667e-06
0.0795261
-5.0316e-06
0.0795264
-4.87189e-06
0.0795267
-4.71734e-06
0.0795271
-4.56775e-06
0.0795274
-4.42292e-06
0.0795277
-4.28263e-06
0.0795279
-4.14666e-06
0.0795282
-4.01481e-06
0.0795285
-3.88691e-06
0.0795288
-3.76278e-06
0.079529
-3.64227e-06
0.0795293
-3.52526e-06
0.0795295
-3.41163e-06
0.0795297
-3.30127e-06
0.07953
-3.19411e-06
0.0795302
-3.09006e-06
0.0795304
-2.98905e-06
0.0795306
-2.89101e-06
0.0795308
-2.79588e-06
0.079531
-2.70361e-06
0.0795311
-2.61416e-06
0.0795313
-2.5275e-06
-2.44365e-06
0.0795315
0.0874249
-6.81467e-06
0.0874243
-6.60262e-06
0.0874238
-6.39759e-06
0.0874233
-6.19907e-06
0.0874227
-6.00661e-06
0.0874223
-5.81989e-06
0.0874218
-5.63864e-06
0.0874213
-5.46271e-06
0.0874209
-5.29197e-06
0.0874205
-5.12633e-06
0.0874201
-4.9657e-06
0.0874197
-4.81e-06
0.0874193
-4.6591e-06
0.087419
-4.51284e-06
0.0874186
-4.37107e-06
0.0874183
-4.23359e-06
0.087418
-4.1002e-06
0.0874177
-3.97072e-06
0.0874174
-3.84495e-06
0.0874171
-3.72274e-06
0.0874168