/*--------------------------------*- C++ -*----------------------------------*\
| =========                 |                                                 |
| \\      /  F ield         | OpenFOAM: The Open Source CFD Toolbox           |
|  \\    /   O peration     | Version:  2406                                  |
|   \\  /    A nd           | Website:  www.openfoam.com                      |
|    \\/     M anipulation  |                                                 |
\*---------------------------------------------------------------------------*/
FoamFile
{
    version     2.0;
    format      ascii;
    arch        "LSB;label=32;scalar=64";
    class       surfaceScalarField;
    location    "88";
    object      phi;
}
// * * * * * * * * * * * * * * * * * * * * * * * * * * * * * * * * * * * * * //

dimensions      [0 3 -1 0 0 0 0];

oriented        oriented;

internalField   nonuniform List<scalar> 
3680
(
0.0385626
-0.000562648
0.0393607
-0.000798088
0.0401504
-0.000789733
0.040937
-0.000786595
0.0417673
-0.000830318
0.0426826
-0.000915391
0.0437401
-0.00105757
0.0450442
-0.0013041
0.0467692
-0.00172505
-0.0034016
0.0501707
0.101806
-0.000368527
0.10186
-0.000851908
0.102184
-0.00111427
0.10272
-0.00132255
0.103447
-0.00155729
0.104372
-0.00184061
0.105517
-0.00220246
0.10692
-0.00270756
0.108636
-0.0034406
-0.00464346
0.109878
0.149932
-0.000300243
0.149892
-0.000811974
0.149985
-0.00120788
0.150226
-0.00156312
0.150613
-0.00194398
0.15115
-0.0023785
0.151839
-0.00289129
0.152653
-0.00352191
0.15352
-0.00430682
-0.00528986
0.154166
0.181967
-0.000267123
0.181906
-0.000750788
0.18189
-0.00119214
0.181949
-0.00162199
0.182083
-0.00207857
0.182289
-0.00258421
0.182554
-0.00315609
0.182846
-0.00381406
0.18311
-0.00457079
-0.00542419
0.183244
0.19796
-0.000226799
0.197857
-0.000648367
0.19774
-0.00107486
0.197636
-0.00151834
0.197548
-0.00198988
0.197464
-0.00250103
0.197372
-0.00306335
0.197243
-0.00368547
0.19704
-0.0043675
-0.0050954
0.196711
0.197937
-0.000163558
0.19777
-0.000481463
0.197545
-0.00085003
0.197287
-0.00126074
0.196995
-0.0016975
0.196656
-0.00216225
0.196256
-0.00266326
0.195773
-0.00320267
0.19518
-0.0037743
-0.00436309
0.194448
0.181899
-6.20954e-05
0.181647
-0.000230407
0.181314
-0.000516909
0.180918
-0.000864085
0.180448
-0.00122771
0.179892
-0.00160652
0.179237
-0.00200763
0.178463
-0.00242885
0.17755
-0.00286157
-0.00329352
0.17648
0.14982
0.000117433
0.149477
0.000112832
0.149062
-0.000101289
0.14857
-0.000372309
0.147983
-0.000640622
0.147287
-0.000911132
0.146469
-0.00118961
0.145511
-0.00147053
0.144396
-0.0017461
-0.0020091
0.143111
0.101669
0.000448608
0.101339
0.000442981
0.101016
0.000220952
0.100628
1.57518e-05
0.100135
-0.000147754
0.0995179
-0.000293505
0.0987582
-0.000429913
0.0978419
-0.00055419
0.0967602
-0.000664394
-0.000760326
0.0955115
0.0384486
0.0388916
0.0391125
0.0391283
0.0389805
0.038687
0.0382571
0.0377029
0.0370386
0.0362782
-6.52104e-05
6.51902e-05
-0.000324371
0.000259109
-0.000704781
0.00038036
-0.00113089
0.000426063
-0.00156515
0.00043421
-0.00199376
0.000428573
-0.0024133
0.000419503
-0.00282368
0.000410339
-0.00322536
0.000401644
-0.00361864
0.000393246
-0.00400362
0.000384951
-0.00438034
0.00037668
-0.0047488
0.000368436
-0.00510909
0.000360256
-0.00546129
0.000352172
-0.00580551
0.0003442
-0.00614187
0.000336333
-0.00647043
0.000328537
-0.0067912
0.000320753
-0.00710411
0.000312886
-0.00740894
0.000304816
-0.00770534
0.000296392
-0.00799279
0.000287435
-0.00827052
0.000277729
-0.00853756
0.000267037
-0.00879264
0.000255085
-0.00903421
0.000241592
-0.00926045
0.000226252
-0.00946917
0.000208752
-0.00965793
0.000188782
-0.00982394
0.000166053
-0.00996415
0.000140257
-0.0100752
0.000111133
-0.0101537
7.85175e-05
4.22132e-05
-0.0101958
-0.000327928
0.000393068
-0.00106571
0.000996759
-0.00202404
0.00133856
-0.0030637
0.00146561
-0.00411072
0.00148112
-0.0051339
0.00145166
-0.00612291
0.00140841
-0.00707561
0.00136296
-0.00799251
0.00131845
-0.00887463
0.00127528
-0.00972302
0.00123327
-0.0105387
0.00119224
-0.0113224
0.0011521
-0.012075
0.00111281
-0.0127972
0.00107428
-0.0134894
0.00103638
-0.014152
0.000998907
-0.0147852
0.000961615
-0.0153886
0.000924173
-0.015962
0.000886172
-0.0165043
0.000847137
-0.0170145
0.000806521
-0.0174908
0.00076371
-0.0179311
0.000718029
-0.0183328
0.000668745
-0.0186927
0.000615078
-0.0190073
0.000556251
-0.0192725
0.000491483
-0.0194837
0.000420003
-0.0196359
0.000341094
-0.0197239
0.00025418
-0.0197423
0.000158722
-0.0196852
5.42386e-05
-0.0195471
-5.93767e-05
-0.000181989
-0.0193227
-0.000600778
0.00099379
-0.001782
0.00217786
-0.00320775
0.0027642
-0.00469419
0.00295194
-0.00615391
0.00294075
-0.00755134
0.002849
-0.00887527
0.00273225
-0.0101245
0.00261209
-0.0113013
0.00249524
-0.0124091
0.00238299
-0.0134511
0.00227515
-0.0144301
0.0021712
-0.0153487
0.00207061
-0.0162088
0.00197289
-0.0170121
0.00187751
-0.0177596
0.00178387
-0.0184521
0.00169131
-0.0190896
0.00159911
-0.0196719
0.00150646
-0.0201982
0.00141244
-0.0206672
0.00131605
-0.0210769
0.00121622
-0.021425
0.0011118
-0.0217085
0.00100161
-0.0219242
0.000884393
-0.022068
0.000758893
-0.0221356
0.0006239
-0.0221224
0.000478341
-0.0220235
0.000321184
-0.0218337
0.000151449
-0.0215479
-3.14959e-05
-0.0211613
-0.000227817
-0.0206694
-0.000437499
-0.0200682
-0.000660414
-0.000896073
-0.0193539
-0.000840767
0.00183451
-0.0023713
0.00370827
-0.00411005
0.00450284
-0.00583961
0.0046814
-0.00747492
0.00457596
-0.00898877
0.00436276
-0.0103776
0.00412094
-0.0116464
0.00388084
-0.0128029
0.00365165
-0.0138546
0.00343471
-0.0148085
0.00322895
-0.0156701
0.00303274
-0.016444
0.00284446
-0.0171338
0.00266263
-0.0177422
0.00248583
-0.018271
0.00231261
-0.0187213
0.00214156
-0.0190935
0.00197129
-0.0193874
0.00180034
-0.0196022
0.00162717
-0.0197364
0.00145021
-0.019788
0.00126785
-0.0197547
0.00107848
-0.0196336
0.000880499
-0.0194215
0.000672329
-0.019115
0.000452395
-0.0187103
0.000219245
-0.0182036
-2.82717e-05
-0.0175916
-0.000290823
-0.0168712
-0.000568875
-0.0160397
-0.000862862
-0.0150945
-0.00117294
-0.0140331
-0.00149872
-0.0128541
-0.00183933
-0.00219332
-0.0115567
-0.00103962
0.00287408
-0.00277639
0.00544492
-0.00460623
0.00633258
-0.00631043
0.00638551
-0.00782966
0.00609511
-0.00915923
0.00569224
-0.0103116
0.0052732
-0.0113031
0.00487229
-0.0121494
0.00449792
-0.0128639
0.00414915
-0.0134574
0.00382235
-0.0139383
0.00351361
-0.0143132
0.00321932
-0.0145871
0.00293642
-0.0147635
0.00266218
-0.0148449
0.00239402
-0.014833
0.00212952
-0.0147282
0.0018665
-0.0145307
0.00160281
-0.0142399
0.0013363
-0.0138546
0.00106485
-0.0133732
0.000786437
-0.0127938
0.000499081
-0.0121142
0.000200929
-0.0113322
-0.000109651
-0.0104458
-0.000434063
-0.00945308
-0.000773432
-0.0083527
-0.00112862
-0.00714317
-0.00150032
-0.00582317
-0.00188883
-0.00439196
-0.00229402
-0.00284945
-0.00271538
-0.00119636
-0.00315174
0.000565763
-0.00360138
-0.00406218
0.00243471
-0.00119769
0.00407173
-0.00294244
0.00718955
-0.00455009
0.00794013
-0.00587306
0.00770839
-0.00691836
0.00714032
-0.00771975
0.00649355
-0.00831131
0.00586468
-0.00872241
0.00528331
-0.00897648
0.00475192
-0.00909143
0.00426402
-0.00908068
0.00381154
-0.00895422
0.00338708
-0.00871932
0.00298435
-0.00838128
0.00259831
-0.00794395
0.00222479
-0.00740992
0.00185993
-0.00678067
0.00150022
-0.00605688
0.00114266
-0.00523864
0.000784525
-0.00432552
0.00042314
-0.00331676
5.60513e-05
-0.00221129
-0.000319073
-0.00100797
-0.000704272
0.000294116
-0.00110119
0.00169571
-0.00151127
0.00319742
-0.0019358
0.00479965
-0.00237569
0.00650246
-0.00283144
0.00830539
-0.00330327
0.0102075
-0.00379095
0.0122072
-0.00429372
0.0143021
-0.00481032
0.0164892
-0.00533883
0.0187646
-0.0058767
-0.00642085
0.0211232
-0.0012992
0.00537088
-0.00273668
0.00862694
-0.00364689
0.00885024
-0.00410149
0.0081629
-0.0042316
0.00727036
-0.00411735
0.00637921
-0.00380936
0.00555661
-0.00334369
0.00481756
-0.00274567
0.00415382
-0.00203247
0.00355075
-0.00121586
0.00299485
-0.000303898
0.00247504
0.000697801
0.00198258
0.00178541
0.00151062
0.00295649
0.00105365
0.00420965
0.000606695
0.00554412
0.000165688
0.00695981
-0.000273092
0.00845745
-0.000713168
0.0100379
-0.00115734
0.0117018
-0.00160788
0.0134494
-0.0020668
0.015281
-0.00253591
0.0171965
-0.00301671
0.0191956
-0.00351039
0.0212776
-0.00401786
0.0234415
-0.00453962
0.0256857
-0.0050757
0.0280081
-0.00562568
0.0304057
-0.00618863
0.032875
-0.00676305
0.0354115
-0.00734685
0.0380099
-0.00793726
0.0406641
-0.00853089
-0.00912374
0.043367
-0.00124033
0.00661117
-0.00165255
0.00903904
-0.00105252
0.00825013
3.92588e-05
0.00707103
0.00134921
0.00596032
0.00278768
0.00494066
0.00431829
0.00402592
0.00591838
0.00321739
0.00757536
0.00249677
0.00928343
0.00184261
0.0110401
0.00123814
0.0128442
0.000670797
0.0146954
0.000131349
0.0165941
-0.000388116
0.0185422
-0.000894508
0.0205416
-0.00139278
0.022594
-0.00188678
0.0247006
-0.00237977
0.0268621
-0.00287467
0.0290787
-0.00337402
0.0313508
-0.00388003
0.0336785
-0.00439453
0.0360616
-0.00491901
0.0384994
-0.00545457
0.0409909
-0.00600196
0.0435345
-0.00656151
0.046128
-0.00713309
0.0487683
-0.00771608
0.0514519
-0.00830932
0.0541743
-0.00891107
0.0569303
-0.00951904
0.0597136
-0.0101303
0.0625175
-0.0107412
0.0653342
-0.0113476
-0.0119447
0.0681551
-0.000153236
0.00676435
0.00241534
0.00647037
0.00579306
0.00487232
0.00914815
0.00371586
0.0123403
0.00276807
0.0153857
0.00189519
0.0183141
0.00109746
0.0211513
0.000380162
0.0239195
-0.000271457
0.026638
-0.000876029
0.0293227
-0.00144656
0.031985
-0.00199154
0.0346341
-0.00251782
0.0372769
-0.00303102
0.0399183
-0.0035359
0.042562
-0.00403653
0.0452114
-0.00453627
0.0478695
-0.00503792
0.0505386
-0.00554384
0.0532205
-0.00605595
0.0559163
-0.00657587
0.0586265
-0.00710481
0.0613511
-0.00764364
0.0640893
-0.0081928
0.0668396
-0.00875234
0.0695999
-0.00932183
0.0723672
-0.00990036
0.0751376
-0.0104865
0.0779065
-0.0110783
0.0806687
-0.0116732
0.0834178
-0.0122682
0.0861468
-0.0128593
0.0888482
-0.0134425
0.0915135
-0.0140129
-0.0145651
0.0941339
0.00942429
-0.00265999
0.017204
-0.00130941
0.023438
-0.00136175
0.028823
-0.00166916
0.033595
-0.00200401
0.0379032
-0.00241307
0.0418728
-0.00287214
0.0455943
-0.00334144
0.0491281
-0.00380532
0.0525145
-0.00426241
0.0557821
-0.00471422
0.0589527
-0.00516217
0.0620428
-0.005608
0.0650655
-0.00605373
0.0680309
-0.00650139
0.0709472
-0.00695284
0.0738207
-0.00740975
0.0766562
-0.00787355
0.0794578
-0.00834542
0.0822281
-0.00882626
0.0849688
-0.00931669
0.087681
-0.00981702
0.0903646
-0.0103272
0.0930186
-0.0108469
0.0956414
-0.0113751
0.0982303
-0.0119108
0.100782
-0.012452
0.103292
-0.0129966
0.105755
-0.0135418
0.108166
-0.0140844
0.110519
-0.0146205
0.112805
-0.0151459
0.115019
-0.0156559
0.117151
-0.0161452
-0.0166084
0.119194
0.0530587
-0.005548
0.057629
-0.00587971
0.0621045
-0.00583732
0.0663575
-0.00592217
0.070413
-0.00605957
0.0742406
-0.00624068
0.0778455
-0.00647707
0.0812594
-0.00675543
0.084513
-0.00705895
0.0876297
-0.00737907
0.0906276
-0.0077122
0.0935217
-0.00805629
0.0963237
-0.00841006
0.0990431
-0.00877308
0.101687
-0.00914543
0.104262
-0.0095274
0.106771
-0.00991933
0.109219
-0.0103215
0.111608
-0.010734
0.113938
-0.0111569
0.116212
-0.0115899
0.118427
-0.0120325
0.120583
-0.0124837
0.122679
-0.0129424
0.124711
-0.013407
0.126676
-0.0138756
0.128569
-0.0143456
0.130387
-0.0148143
0.132123
-0.0152782
0.133773
-0.0157337
0.135329
-0.0161766
0.136785
-0.0166024
0.138136
-0.0170061
0.139373
-0.0173826
-0.0177266
0.140491
0.110392
-0.00606209
0.11145
-0.00693841
0.112969
-0.00735589
0.11473
-0.00768361
0.116662
-0.00799115
0.118691
-0.0082701
0.120753
-0.00853834
0.122808
-0.00881076
0.124838
-0.00908923
0.126832
-0.0093726
0.128781
-0.00966117
0.13068
-0.00995578
0.132527
-0.010257
0.134319
-0.0105655
0.136056
-0.0108817
0.137734
-0.0112061
0.139354
-0.011539
0.140913
-0.0118806
0.14241
-0.0122308
0.143842
-0.0125892
0.145208
-0.0129552
0.146503
-0.0133279
0.147725
-0.0137059
0.14887
-0.0140876
0.149935
-0.0144711
0.150913
-0.0148539
0.1518
-0.0152332
0.152592
-0.0156059
0.153282
-0.0159685
0.153866
-0.0163171
0.154337
-0.0166476
0.15469
-0.0169555
0.15492
-0.0172363
0.155023
-0.0174852
-0.0176976
0.154994
0.154483
-0.00637915
0.154811
-0.00726673
0.155308
-0.00785292
0.15592
-0.0082955
0.156614
-0.00868489
0.157374
-0.00903025
0.158176
-0.00934021
0.158996
-0.00963032
0.159816
-0.00990966
0.160625
-0.0101817
0.161413
-0.010449
0.162171
-0.0107141
0.162893
-0.0109791
0.163574
-0.0112457
0.164207
-0.0115151
0.164789
-0.0117881
0.165315
-0.0120653
0.165782
-0.0123471
0.166184
-0.0126334
0.166519
-0.0129237
0.166781
-0.0132173
0.166966
-0.0135131
0.16707
-0.0138097
0.167088
-0.0141054
0.167015
-0.0143979
0.166846
-0.0146849
0.166576
-0.0149636
0.166201
-0.0152309
0.165716
-0.0154834
0.165117
-0.0157176
0.164399
-0.0159297
0.16356
-0.0161159
0.162596
-0.0162722
0.161505
-0.0163947
-0.0164798
0.160287
0.183182
-0.00631665
0.183023
-0.00710815
0.182888
-0.00771813
0.182788
-0.00819531
0.182704
-0.00860111
0.182629
-0.00895513
0.182554
-0.00926482
0.182466
-0.00954206
0.182354
-0.0097976
0.18221
-0.0100378
0.182027
-0.0102666
0.181801
-0.0104875
0.181525
-0.0107034
0.181196
-0.0109164
0.180809
-0.0111279
0.18036
-0.0113392
0.179845
-0.0115508
0.179261
-0.0117631
0.178604
-0.0119759
0.177869
-0.0121889
0.177053
-0.0124012
0.176152
-0.0126118
0.175162
-0.0128192
0.174078
-0.0130218
0.172898
-0.0132174
0.171617
-0.0134039
0.170232
-0.0135788
0.168741
-0.0137392
0.16714
-0.0138825
0.165428
-0.0140055
0.163603
-0.0141053
0.161666
-0.0141788
0.159617
-0.014223
0.157458
-0.0142352
-0.0142128
0.155191
0.196224
-0.00582941
0.195615
-0.00649991
0.194953
-0.0070554
0.19426
-0.00750291
0.193534
-0.00787514
0.192771
-0.0081918
0.191968
-0.00846184
0.191121
-0.00869467
0.190223
-0.00890013
0.189271
-0.00908556
0.18826
-0.00925588
0.187188
-0.0094149
0.18605
-0.0095657
0.184845
-0.00971067
0.183568
-0.0098515
0.182218
-0.00998936
0.180793
-0.010125
0.179288
-0.0102586
0.177703
-0.0103902
0.176033
-0.0105195
0.174278
-0.0106456
0.172434
-0.0107677
0.170499
-0.0108845
0.168472
-0.0109945
0.16635
-0.0110959
0.164134
-0.0111871
0.161821
-0.0112659
0.159412
-0.0113302
0.156908
-0.0113779
0.154309
-0.0114067
0.151618
-0.0114145
0.148839
-0.0113992
0.145975
-0.0113589
0.143032
-0.0112919
-0.0111967
0.140016
0.19356
-0.00494205
0.192533
-0.0054727
0.191401
-0.00592314
0.190187
-0.00628893
0.188898
-0.00658591
0.187536
-0.00682953
0.186103
-0.00702908
0.184601
-0.00719249
0.183029
-0.00732799
0.181386
-0.00744258
0.179671
-0.00754137
0.177885
-0.00762821
0.176025
-0.00770614
0.174092
-0.00777755
0.172085
-0.00784414
0.170003
-0.00790709
0.167845
-0.00796711
0.165611
-0.00802454
0.1633
-0.00807939
0.160912
-0.00813138
0.158446
-0.00817995
0.155903
-0.00822435
0.153282
-0.0082636
0.150585
-0.00829659
0.147811
-0.00832205
0.144963
-0.00833863
0.142042
-0.0083449
0.139051
-0.00833939
0.135994
-0.00832064
0.132875
-0.00828727
0.129698
-0.00823792
0.126471
-0.00817143
0.123199
-0.00808676
0.11989
-0.00798312
-0.00785993
0.116553
0.175246
-0.00370729
0.173854
-0.00408071
0.172326
-0.00439492
0.170681
-0.00464484
0.168934
-0.0048385
0.167092
-0.00498703
0.165161
-0.00509889
0.16315
-0.00518092
0.161062
-0.00523983
0.158901
-0.00528161
0.156671
-0.0053109
0.154374
-0.00533113
0.152012
-0.00534497
0.149589
-0.0053544
0.147106
-0.00536087
0.144564
-0.0053653
0.141966
-0.00536827
0.139311
-0.00536998
0.136602
-0.00537044
0.13384
-0.00536936
0.131027
-0.00536633
0.128164
-0.00536075
0.125252
-0.00535194
0.122295
-0.00533908
0.119294
-0.00532134
0.116253
-0.00529781
0.113176
-0.00526762
0.110067
-0.00522987
0.10693
-0.00518375
0.103772
-0.00512849
0.100597
-0.00506343
0.097414
-0.00498803
0.0942293
-0.00490191
0.0910511
-0.00480483
-0.00469674
0.0878881
0.141654
-0.00225051
0.140033
-0.00245927
0.138264
-0.00262621
0.136369
-0.00274932
0.134365
-0.00283401
0.132266
-0.00288841
0.130087
-0.00291941
0.127838
-0.00293243
0.125531
-0.00293231
0.123172
-0.00292327
0.12077
-0.00290853
0.11833
-0.00289037
0.115855
-0.00287036
0.11335
-0.00284964
0.110819
-0.00282891
0.108262
-0.00280855
0.105682
-0.00278871
0.103082
-0.00276935
0.100462
-0.00275027
0.097824
-0.00273121
0.0951696
-0.00271177
0.0925005
-0.00269154
0.0898188
-0.00267003
0.0871267
-0.00264679
0.0844268
-0.0026213
0.0817223
-0.00259311
0.0790167
-0.00256176
0.0763138
-0.00252684
0.0736183
-0.00248799
0.0709349
-0.00244491
0.068269
-0.00239736
0.0656263
-0.00234521
0.063013
-0.00228837
0.0604352
-0.00222688
-0.00216085
0.0578995
0.0941017
-0.000840759
0.0925457
-0.000903146
0.0908652
-0.000945641
0.0890851
-0.000969223
0.0872289
-0.000977722
0.0853163
-0.000975744
0.0833638
-0.000966871
0.081385
-0.000953547
0.0793905
-0.000937668
0.077388
-0.000920742
0.0753834
-0.000903782
0.0733805
-0.000887349
0.0713819
-0.000871726
0.0693895
-0.00085704
0.067404
-0.00084331
0.065426
-0.000830469
0.0634559
-0.0008184
0.0614936
-0.000806951
0.0595395
-0.000795954
0.0575936
-0.000785227
0.0556566
-0.000774589
0.0537291
-0.000763854
0.0518121
-0.000752849
0.0499069
-0.000741406
0.0480152
-0.000729375
0.0461389
-0.000716617
0.0442803
-0.000703014
0.0424421
-0.000688465
0.0406272
-0.000672892
0.0388387
-0.000656242
0.03708
-0.000638487
0.0353546
-0.000619623
0.033666
-0.000599674
0.032018
-0.00057869
-0.000556742
0.030414
0.0354375
0.0345344
0.0335887
0.0326195
0.0316418
0.0306661
0.0296992
0.0287457
0.0278081
0.0268874
0.0259836
0.0250963
0.0242246
0.0233676
0.0225243
0.0216938
0.0208755
0.0200686
0.0192726
0.0184874
0.0177129
0.0169491
0.0161963
0.0154549
0.0147256
0.014009
0.013306
0.0126176
0.0119447
0.0112885
0.01065
0.0100305
0.00943081
0.00885214
0.00829543
-0.0101978
2.07634e-06
-0.0101559
-4.17712e-05
-0.0100667
-8.90791e-05
-0.00992701
-0.000139625
-0.00973388
-0.000193008
-0.00948507
-0.000248695
-0.00917895
-0.000305973
-0.00881474
-0.000364058
-0.0083925
-0.00042207
-0.000479105
-0.00791324
-0.0190071
-0.000313372
-0.0185955
-0.0004531
-0.018084
-0.00060037
-0.0174693
-0.000754034
-0.0167494
-0.000912659
-0.0159233
-0.00107449
-0.0149914
-0.00123751
-0.0139556
-0.00139945
-0.0128193
-0.00155804
-0.00171093
-0.0115871
-0.0185235
-0.00114359
-0.0175748
-0.00140166
-0.0165064
-0.00166848
-0.0153185
-0.00194176
-0.0140121
-0.00221883
-0.0125896
-0.00249666
-0.011055
-0.00277183
-0.00941369
-0.00304052
-0.0076724
-0.00329904
-0.00354387
-0.00583918
-0.0101412
-0.00255894
-0.00860872
-0.00293395
-0.00696163
-0.0033154
-0.00520336
-0.00369985
-0.00333862
-0.00408339
-0.00137347
-0.00446163
0.000684793
-0.00482991
0.00282807
-0.00518363
0.00504742
-0.00551823
-0.00582919
0.00733289
0.0044073
-0.00453145
0.00647921
-0.00500579
0.0086451
-0.0054812
0.0108985
-0.00595321
0.0132321
-0.00641688
0.0156375
-0.00686691
0.0181054
-0.00729782
0.020626
-0.0077041
0.0231882
-0.0080804
-0.00842156
0.0257806
0.0235594
-0.00696757
0.0260661
-0.00751252
0.0286357
-0.00805077
0.0312595
-0.00857696
0.033928
-0.00908532
0.0366309
-0.00956987
0.0393576
-0.0100245
0.0420968
-0.0104432
0.0448367
-0.0108203
-0.0111504
0.0475656
0.0461106
-0.00971122
0.0488862
-0.0102881
0.0516843
-0.0108489
0.0544947
-0.0113873
0.0573066
-0.0118973
0.060109
-0.0123723
0.0628906
-0.0128061
0.0656399
-0.0131925
0.0683455
-0.013526
-0.0138014
0.0709965
0.070971
-0.0125272
0.0737723
-0.0130894
0.0765485
-0.0136251
0.0792893
-0.0141281
0.0819837
-0.0145917
0.0846213
-0.0150098
0.0871913
-0.0153761
0.0896837
-0.015685
0.092089
-0.0159312
-0.0161106
0.0943982
0.0967003
-0.0150936
0.0992031
-0.0155921
0.101633
-0.0160547
0.103979
-0.0164749
0.106234
-0.0168467
0.108389
-0.017164
0.110434
-0.0174215
0.112363
-0.0176142
0.11417
-0.017738
-0.0177896
0.115849
0.121141
-0.0170397
0.122982
-0.0174333
0.12471
-0.0177831
0.126319
-0.0180836
0.127801
-0.0183292
0.129152
-0.0185148
0.130367
-0.018636
0.131441
-0.018689
0.132375
-0.0186712
-0.0185804
0.133165
0.141484
-0.0180327
0.142347
-0.0182956
0.143074
-0.0185101
0.143661
-0.0186713
0.144107
-0.0187749
0.144409
-0.0188169
0.144568
-0.0187943
0.144583
-0.0187047
0.144459
-0.0185468
-0.0183202
0.144199
0.15483
-0.0178689
0.154529
-0.0179945
0.15409
-0.0180706
0.153512
-0.0180933
0.152797
-0.0180596
0.151947
-0.0179672
0.150967
-0.0178143
0.149863
-0.0176003
0.148641
-0.017325
-0.0169896
0.14731
0.158942
-0.0165238
0.157472
-0.0165237
0.155878
-0.0164766
0.154165
-0.0163804
0.152339
-0.0162334
0.150406
-0.0160346
0.148376
-0.0157839
0.146257
-0.0154817
0.144062
-0.0151293
-0.0147289
0.141801
0.152821
-0.0141535
0.150353
-0.0140554
0.147793
-0.0139171
0.145151
-0.0137378
0.142434
-0.013517
0.139655
-0.013255
0.136824
-0.0129528
0.133954
-0.0126118
0.131059
-0.0122341
-0.0118223
0.128152
0.136934
-0.0110722
0.133797
-0.0109177
0.130613
-0.0107329
0.127393
-0.0105177
0.124149
-0.0102729
0.120893
-0.00999944
0.117639
-0.00969874
0.1144
-0.00937269
0.11119
-0.00902355
-0.00865389
0.108021
0.113198
-0.00771692
0.109835
-0.00755407
0.106474
-0.0073717
0.103126
-0.00717044
0.0998049
-0.00695121
0.0965208
-0.00671523
0.0932861
-0.00646397
0.0901126
-0.00619912
0.0870117
-0.00592257
-0.00563633
0.0839942
0.0847491
-0.00457775
0.0816433
-0.0044482
0.0785803
-0.00430857
0.0755695
-0.00415954
0.0726203
-0.00400193
0.0697419
-0.00383669
0.066943
-0.00366493
0.0642317
-0.00348776
0.0616156
-0.00330644
-0.00312216
0.0591015
0.0554123
-0.00209048
0.0529803
-0.00201605
0.0506098
-0.00193792
0.0483069
-0.00185653
0.0460774
-0.00177234
0.0439267
-0.00168588
0.0418595
-0.00159768
0.0398802
-0.00150832
0.0379921
-0.00141834
-0.00132829
0.0361983
0.0288576
-0.000533922
0.027352
-0.000510341
0.0259004
-0.000486125
0.0245053
-0.00046141
0.0231694
-0.000436341
0.0218947
-0.000411064
0.0206828
-0.000385729
0.0195351
-0.000360474
0.0184522
-0.00033544
-0.000310745
0.0174348
0.00776153
0.00725121
0.0067651
0.00630371
0.00586738
0.00545633
0.00507062
0.00471015
0.00437472
0.00406399
-0.00737888
-0.000534179
-0.00679239
-0.000586325
-0.00615764
-0.000634583
-0.0054794
-0.00067807
-0.00476324
-0.000715994
-0.00401537
-0.000747705
-0.00324251
-0.000772687
-0.00245167
-0.000790667
-0.00164992
-0.000801561
-0.000844475
-0.000805269
-4.23e-05
-0.000801992
0.000750006
-0.000792121
0.00152622
-0.000776033
0.00228068
-0.000754271
0.00300839
-0.000727523
0.00370505
-0.00069648
0.00436712
-0.000661888
0.0049918
-0.000624501
0.00557704
-0.000585066
0.00612151
-0.000544297
0.00662454
-0.000502871
0.00708609
-0.000461401
0.00750668
-0.000420442
0.00788729
-0.000380474
0.00822932
-0.000341907
0.00853452
-0.000305074
0.00880487
-0.000270241
0.00904257
-0.000237605
0.00924997
-0.000207301
0.00942946
-0.000179412
0.00958351
-0.000153969
0.00971455
-0.000130964
0.00982497
-0.000110354
0.0099171
-9.20711e-05
-7.60249e-05
0.00999317
-0.0102651
-0.0018558
-0.0088607
-0.00199032
-0.00738255
-0.00211235
-0.00584031
-0.00221992
-0.00424467
-0.00231126
-0.00260695
-0.00238504
-0.000938589
-0.00244066
0.000748704
-0.00247756
0.00244286
-0.00249531
0.00413226
-0.00249427
0.00580585
-0.00247517
0.00745294
-0.00243881
0.0090636
-0.00238629
0.0106288
-0.00231903
0.0121403
-0.00223869
0.0135913
-0.00214702
0.0149756
-0.00204587
0.0162886
-0.00193712
0.0175266
-0.00182264
0.0186869
-0.00170423
0.019768
-0.00158363
0.0207693
-0.00146243
0.0216913
-0.00134209
0.022535
-0.00122391
0.0233024
-0.00110902
0.023996
-0.000998401
0.0246188
-0.000892833
0.0251743
-0.000792954
0.0256665
-0.00069924
0.0260993
-0.000612026
0.026477
-0.000531518
0.026804
-0.000457807
0.0270847
-0.000390885
0.0273234
-0.000330664
-0.000276983
0.0275244
-0.00392316
-0.00377152
-0.00193453
-0.00397866
0.000115674
-0.00416225
0.00221551
-0.00431946
0.00435276
-0.00444821
0.00651522
-0.00454721
0.00869016
-0.00461532
0.0108649
-0.00465204
0.0130273
-0.00465742
0.0151655
-0.00463212
0.017268
-0.00457738
0.0193243
-0.00449487
0.021325
-0.00438661
0.0232612
-0.00425502
0.0251256
-0.00410277
0.0269116
-0.00393272
0.0286139
-0.00374782
0.0302281
-0.00355106
0.0317512
-0.0033454
0.0331809
-0.00313369
0.0345162
-0.00291864
0.0357568
-0.00270279
0.0369034
-0.00248845
0.0379575
-0.0022777
0.038921
-0.00207237
0.0397969
-0.00187405
0.0405883
-0.00168404
0.0412989
-0.00150344
0.0419329
-0.00133306
0.0424946
-0.00117355
0.0429885
-0.00102532
0.0434195
-0.000888604
0.0437922
-0.000763487
0.0441115
-0.000649909
-0.000547696
0.0443823
0.00967359
-0.00611208
0.012058
-0.00636288
0.0144739
-0.00657807
0.0169093
-0.00675467
0.0193517
-0.00689042
0.0217885
-0.00698383
0.0242075
-0.00703413
0.026597
-0.00704129
0.0289457
-0.00700598
0.0312434
-0.0069296
0.0334805
-0.00681422
0.0356483
-0.00666245
0.0377392
-0.00647736
0.0397469
-0.00626242
0.0416657
-0.00602138
0.0434914
-0.00575816
0.0452206
-0.00547678
0.046851
-0.00518124
0.0483812
-0.00487545
0.0498109
-0.00456317
0.0511404
-0.00424794
0.0523709
-0.00393305
0.0535041
-0.00362148
0.0545425
-0.0033159
0.0554889
-0.00301867
0.0563468
-0.00273178
0.0571199
-0.00245693
0.0578121
-0.00219549
0.0584277
-0.00194854
0.0589711
-0.00171687
0.0594469
-0.00150104
0.0598598
-0.00130134
0.0602143
-0.00111791
0.0605151
-0.00095067
-0.000799423
0.0607669
0.0283914
-0.00872277
0.0310083
-0.00897979
0.0336194
-0.009189
0.0362124
-0.00934758
0.0387756
-0.00945353
0.0412976
-0.00950576
0.0437677
-0.00950412
0.0461759
-0.0094493
0.0485129
-0.00934287
0.0507706
-0.0091872
0.0529419
-0.00898538
0.0550207
-0.00874109
0.057002
-0.00845852
0.058882
-0.00814225
0.0606579
-0.00779707
0.0623278
-0.00742797
0.0638911
-0.0070399
0.0653478
-0.00663779
0.0666989
-0.00622637
0.067946
-0.00581012
0.0690914
-0.00539323
0.070138
-0.00497956
0.0710892
-0.00457254
0.0719487
-0.00417526
0.0727205
-0.00379034
0.0734088
-0.00342006
0.0740183
-0.00306627
0.0745533
-0.00273045
0.0750186
-0.00241375
0.0754188
-0.00211698
0.0757585
-0.00184068
0.0760423
-0.0015851
0.0762748
-0.0013503
0.0764603
-0.00113611
-0.000942207
0.0766031
0.0502716
-0.0114287
0.0529431
-0.0116512
0.0555686
-0.0118145
0.0581374
-0.0119163
0.0606392
-0.0119553
0.0630648
-0.0119313
0.0654057
-0.0118449
0.0676542
-0.0116978
0.0698042
-0.0114927
0.0718502
-0.0112332
0.0737882
-0.0109233
0.0756151
-0.0105679
0.0773289
-0.0101723
0.0789289
-0.00974211
0.080415
-0.00928311
0.0817883
-0.00880116
0.0830505
-0.00830205
0.0842042
-0.00779138
0.0852524
-0.00727452
0.0861988
-0.00675646
0.0870475
-0.00624183
0.0878028
-0.00573481
0.0884694
-0.00523909
0.0890522
-0.00475792
0.0895559
-0.00429407
0.0899858
-0.00384983
0.0903466
-0.00342706
0.0906434
-0.0030272
0.090881
-0.00265132
0.0910641
-0.0023001
0.0911975
-0.00197396
0.0912854
-0.001673
0.0913322
-0.00139709
0.091342
-0.0011459
-0.000918935
0.0913188
0.0735821
-0.0140143
0.0760924
-0.0141614
0.078518
-0.0142401
0.0808506
-0.0142489
0.0830828
-0.0141875
0.0852083
-0.0140568
0.0872219
-0.0138585
0.0891197
-0.0135956
0.0908989
-0.0132719
0.0925579
-0.012892
0.0940959
-0.0124613
0.0955137
-0.0119856
0.0968126
-0.0114711
0.0979948
-0.0109244
0.0990636
-0.0103518
0.100022
-0.00976003
0.100876
-0.00915528
0.101628
-0.00854362
0.102284
-0.00793071
0.102849
-0.0073218
0.103329
-0.00672164
0.103729
-0.00613446
0.104054
-0.00556398
0.104309
-0.00501339
0.104501
-0.00448534
0.104633
-0.00398201
0.104711
-0.00350509
0.104739
-0.00305583
0.104723
-0.00263509
0.104666
-0.00224337
0.104573
-0.00188085
0.104448
-0.00154742
0.104293
-0.00124274
0.104114
-0.000966274
-0.000717302
0.103912
0.0966034
-0.0162195
0.0986976
-0.0162556
0.100675
-0.0162174
0.102531
-0.0161047
0.104261
-0.0159184
0.105865
-0.0156605
0.107341
-0.0153342
0.108689
-0.0149436
0.10991
-0.0144935
0.111008
-0.0139898
0.111985
-0.0134386
0.112846
-0.0128466
0.113596
-0.0122206
0.114239
-0.0115678
0.114782
-0.0108949
0.115231
-0.0102089
0.115592
-0.00951611
0.115871
-0.00882267
0.116074
-0.0081342
0.116208
-0.00745581
0.116279
-0.00679207
0.116291
-0.006147
0.116251
-0.00552403
0.116164
-0.00492606
0.116034
-0.00435544
0.115866
-0.00381403
0.115664
-0.00330323
0.115432
-0.00282399
0.115174
-0.00237687
0.114892
-0.00196212
0.114591
-0.00157965
0.114273
-0.00122911
0.11394
-0.000909952
0.113595
-0.000621413
-0.000362599
0.11324
0.117396
-0.0177668
0.118809
-0.0176684
0.120086
-0.0174944
0.121227
-0.0172458
0.122234
-0.016925
0.123109
-0.0165352
0.123855
-0.0160806
0.124478
-0.0155666
0.124983
-0.0149988
0.125377
-0.0143838
0.125667
-0.0137284
0.12586
-0.0130396
0.125964
-0.0123247
0.125987
-0.0115908
0.125936
-0.0108446
0.12582
-0.010093
0.125646
-0.00934196
0.12542
-0.00859734
0.12515
-0.00786429
0.124842
-0.00714747
0.124501
-0.00645095
0.124132
-0.00577822
0.12374
-0.00513221
0.123329
-0.00451533
0.122903
-0.00392944
0.122465
-0.00337598
0.122017
-0.00285592
0.121563
-0.00236986
0.121104
-0.00191803
0.120643
-0.00150036
0.120179
-0.00111654
0.119716
-0.000765979
0.119254
-0.00044793
0.118794
-0.000161473
9.44222e-05
0.118337
0.133814
-0.018416
0.134324
-0.0181781
0.134698
-0.0178681
0.13494
-0.0174885
0.135058
-0.0170427
0.135058
-0.0165351
0.134948
-0.015971
0.134738
-0.0153561
0.134436
-0.0146969
0.134052
-0.0140002
0.133596
-0.0132729
0.133079
-0.0125222
0.132509
-0.0117549
0.131896
-0.0109778
0.131248
-0.0101973
0.130575
-0.00941945
0.129882
-0.00864969
0.129178
-0.00789306
0.128467
-0.007154
0.127756
-0.00643637
0.127049
-0.00574351
0.126348
-0.00507818
0.125659
-0.00444264
0.124982
-0.00383865
0.12432
-0.00326754
0.123674
-0.0027302
0.123045
-0.00222719
0.122434
-0.00175871
0.121841
-0.00132468
0.121265
-0.000924775
0.120707
-0.000558442
0.120166
-0.000224909
0.119641
7.67662e-05
0.119132
0.000347565
0.000588539
0.118638
0.143808
-0.0180254
0.143294
-0.0176641
0.142665
-0.0172389
0.14193
-0.0167534
0.141099
-0.0162119
0.140183
-0.0156196
0.139194
-0.0149823
0.138144
-0.0143059
0.137044
-0.0135971
0.135907
-0.0128625
0.134742
-0.0121087
0.133562
-0.0113421
0.132376
-0.010569
0.131193
-0.00979538
0.130023
-0.00902668
0.128871
-0.00826794
0.127745
-0.00752366
0.126649
-0.00679784
0.125589
-0.00609391
0.124567
-0.00541481
0.123587
-0.00476295
0.122649
-0.0041403
0.121754
-0.00354836
0.120904
-0.00298823
0.120097
-0.00246067
0.119333
-0.0019661
0.11861
-0.00150465
0.117927
-0.00107621
0.117283
-0.000680445