/*--------------------------------*- C++ -*----------------------------------*\
| =========                 |                                                 |
| \\      /  F ield         | OpenFOAM: The Open Source CFD Toolbox           |
|  \\    /   O peration     | Version:  2406                                  |
|   \\  /    A nd           | Website:  www.openfoam.com                      |
|    \\/     M anipulation  |                                                 |
\*---------------------------------------------------------------------------*/
FoamFile
{
    version     2.0;
    format      ascii;
    arch        "LSB;label=32;scalar=64";
    class       volVectorField;
    location    "88";
    object      U;
}
// * * * * * * * * * * * * * * * * * * * * * * * * * * * * * * * * * * * * * //

dimensions      [0 1 -1 0 0 0 0];

internalField   nonuniform List<vector> 
1900
(
(0.380006 -0.00354403 0)
(0.388613 -0.00534853 0)
(0.397663 -0.00459407 0)
(0.405528 -0.00383226 0)
(0.413369 -0.00359926 0)
(0.421969 -0.00374322 0)
(0.431744 -0.00427303 0)
(0.443092 -0.00542464 0)
(0.458022 -0.00784615 0)
(0.469946 -0.0285733 0)
(1.01595 -0.00422984 0)
(1.01654 -0.00921418 0)
(1.01997 -0.0111671 0)
(1.02433 -0.0122084 0)
(1.03035 -0.013453 0)
(1.03852 -0.0151742 0)
(1.04885 -0.0176192 0)
(1.0614 -0.0214063 0)
(1.07661 -0.0272608 0)
(1.09203 -0.0387099 0)
(1.4971 -0.00318678 0)
(1.49764 -0.00813286 0)
(1.49943 -0.01161 0)
(1.50109 -0.0146158 0)
(1.50381 -0.0178674 0)
(1.50831 -0.0216413 0)
(1.51449 -0.0262077 0)
(1.52204 -0.0320842 0)
(1.53054 -0.039916 0)
(1.53867 -0.0509427 0)
(1.81758 -0.00271256 0)
(1.81807 -0.00767649 0)
(1.81916 -0.0120311 0)
(1.81942 -0.0161682 0)
(1.81998 -0.0205335 0)
(1.82156 -0.025397 0)
(1.824 -0.030991 0)
(1.82689 -0.0376157 0)
(1.82978 -0.0455218 0)
(1.83202 -0.0547873 0)
(1.97773 -0.00237131 0)
(1.97792 -0.00697392 0)
(1.97827 -0.0114352 0)
(1.97726 -0.0159345 0)
(1.97591 -0.0206986 0)
(1.97493 -0.0259063 0)
(1.97415 -0.0317103 0)
(1.97315 -0.038247 0)
(1.97158 -0.0455616 0)
(1.96905 -0.0535213 0)
(1.97768 -0.00188423 0)
(1.97746 -0.00570567 0)
(1.97698 -0.00976318 0)
(1.97466 -0.0141113 0)
(1.97153 -0.0187545 0)
(1.96826 -0.0237507 0)
(1.96467 -0.0291849 0)
(1.96036 -0.0351035 0)
(1.95505 -0.0414674 0)
(1.94848 -0.0481163 0)
(1.81743 -0.00111288 0)
(1.81671 -0.00373606 0)
(1.81534 -0.00704126 0)
(1.81175 -0.0108299 0)
(1.80703 -0.014879 0)
(1.80181 -0.0191743 0)
(1.79586 -0.0237697 0)
(1.78881 -0.0286579 0)
(1.78042 -0.0337582 0)
(1.77054 -0.0389242 0)
(1.49684 0.000183569 0)
(1.49545 -0.000821735 0)
(1.49328 -0.00329283 0)
(1.48876 -0.0063631 0)
(1.48299 -0.0095219 0)
(1.47652 -0.012764 0)
(1.46907 -0.0161638 0)
(1.46027 -0.0196905 0)
(1.44993 -0.0232533 0)
(1.43795 -0.0267427 0)
(1.01564 0.00227742 0)
(1.01379 0.00349104 0)
(1.01218 0.00183378 0)
(1.00872 -0.000668089 0)
(1.00406 -0.00307741 0)
(0.9985 -0.00536384 0)
(0.991713 -0.00760455 0)
(0.983392 -0.00976036 0)
(0.973415 -0.0117657 0)
(0.961758 -0.0135752 0)
(0.3797 0.00267235 0)
(0.386069 0.00328777 0)
(0.390602 0.00173256 0)
(0.391756 0.000340195 0)
(0.390853 -0.000522875 0)
(0.388585 -0.00113659 0)
(0.384983 -0.00163906 0)
(0.380056 -0.0020323 0)
(0.373936 -0.00231651 0)
(0.366782 -0.00250915 0)
(-4.12545e-06 -2.14093e-05 0)
(-0.0016708 0.000461802 0)
(-0.00496777 0.000779338 0)
(-0.00911612 0.000884165 0)
(-0.0134801 0.00090235 0)
(-0.0178163 0.000895859 0)
(-0.0220621 0.000887188 0)
(-0.0262116 0.000881584 0)
(-0.0302709 0.000878224 0)
(-0.0342448 0.000875398 0)
(-0.0381355 0.000872079 0)
(-0.0419435 0.000867939 0)
(-0.045669 0.000863081 0)
(-0.0493123 0.000857785 0)
(-0.0528743 0.00085234 0)
(-0.0563561 0.000847006 0)
(-0.0597588 0.000841997 0)
(-0.0630833 0.000837428 0)
(-0.0663302 0.000833369 0)
(-0.069499 0.000829782 0)
(-0.0725885 0.000826571 0)
(-0.0755959 0.000823528 0)
(-0.0785167 0.000820376 0)
(-0.0813448 0.000816693 0)
(-0.0840713 0.000811987 0)
(-0.0866852 0.000805592 0)
(-0.0891724 0.000796832 0)
(-0.0915161 0.000784881 0)
(-0.093696 0.000768861 0)
(-0.0956892 0.000747771 0)
(-0.0974693 0.000720625 0)
(-0.0990071 0.000686114 0)
(-0.100271 0.000642981 0)
(-0.101226 0.000590086 0)
(-0.101836 0.000526194 0)
(-0.00072149 0.00181078 0)
(-0.00634932 0.00533548 0)
(-0.0150825 0.00751894 0)
(-0.0253428 0.00838078 0)
(-0.0359095 0.00854211 0)
(-0.0463072 0.00842782 0)
(-0.0563798 0.00823482 0)
(-0.0660883 0.00803204 0)
(-0.0754331 0.00783503 0)
(-0.0844246 0.00764354 0)
(-0.093074 0.00745529 0)
(-0.101391 0.00726922 0)
(-0.109386 0.00708539 0)
(-0.117066 0.00690427 0)
(-0.124438 0.00672622 0)
(-0.131509 0.00655123 0)
(-0.138283 0.00637886 0)
(-0.144762 0.00620822 0)
(-0.150945 0.00603789 0)
(-0.156831 0.00586587 0)
(-0.162412 0.00568965 0)
(-0.167678 0.00550619 0)
(-0.172615 0.0053119 0)
(-0.177204 0.00510266 0)
(-0.181421 0.00487384 0)
(-0.185238 0.00462038 0)
(-0.18862 0.004337 0)
(-0.19153 0.00401818 0)
(-0.193923 0.00365817 0)
(-0.195752 0.00325137 0)
(-0.196966 0.00279253 0)
(-0.197511 0.00227636 0)
(-0.19733 0.0016987 0)
(-0.196367 0.00105746 0)
(-0.194565 0.00035105 0)
(-0.00151307 0.00644659 0)
(-0.0111473 0.0149869 0)
(-0.02456 0.019589 0)
(-0.0394854 0.0212517 0)
(-0.0543769 0.0213869 0)
(-0.068713 0.0208928 0)
(-0.0823286 0.0201981 0)
(-0.095189 0.0194677 0)
(-0.10731 0.0187511 0)
(-0.118724 0.0180573 0)
(-0.129464 0.0173853 0)
(-0.139562 0.0167328 0)
(-0.149044 0.0160979 0)
(-0.157933 0.0154788 0)
(-0.166246 0.0148733 0)
(-0.173998 0.0142785 0)
(-0.181197 0.0136908 0)
(-0.187847 0.0131059 0)
(-0.193948 0.0125184 0)
(-0.199494 0.0119221 0)
(-0.204474 0.0113098 0)
(-0.208873 0.0106736 0)
(-0.212669 0.0100045 0)
(-0.215835 0.00929312 0)
(-0.218341 0.00852926 0)
(-0.220148 0.00770234 0)
(-0.221216 0.0068019 0)
(-0.2215 0.0058177 0)
(-0.220951 0.00473964 0)
(-0.219521 0.00355874 0)
(-0.217156 0.00226864 0)
(-0.213803 0.000865099 0)
(-0.20942 -0.000655659 0)
(-0.203962 -0.00229441 0)
(-0.197392 -0.00404835 0)
(-0.00224643 0.0137398 0)
(-0.0153106 0.0288192 0)
(-0.0321522 0.0358417 0)
(-0.049902 0.0378673 0)
(-0.0668717 0.0374624 0)
(-0.0826451 0.0360868 0)
(-0.0971485 0.0344189 0)
(-0.110416 0.0327237 0)
(-0.122521 0.031085 0)
(-0.133543 0.0295193 0)
(-0.143555 0.028023 0)
(-0.152619 0.0265874 0)
(-0.160787 0.0252035 0)
(-0.168097 0.0238627 0)
(-0.174583 0.0225561 0)
(-0.180265 0.0212745 0)
(-0.185159 0.020008 0)
(-0.189271 0.0187464 0)
(-0.192604 0.0174784 0)
(-0.19515 0.0161919 0)
(-0.196899 0.0148738 0)
(-0.197834 0.0135105 0)
(-0.197933 0.0120878 0)
(-0.197169 0.0105911 0)
(-0.195511 0.00900574 0)
(-0.192927 0.00731667 0)
(-0.189381 0.00550989 0)
(-0.184834 0.00357395 0)
(-0.179246 0.00149992 0)
(-0.172591 -0.000720659 0)
(-0.164836 -0.00309375 0)
(-0.155959 -0.00562109 0)
(-0.14593 -0.00830029 0)
(-0.134729 -0.0111259 0)
(-0.122346 -0.0140875 0)
(-0.00294795 0.0232372 0)
(-0.018571 0.0455245 0)
(-0.0369606 0.0542607 0)
(-0.055003 0.0557149 0)
(-0.0711989 0.0539503 0)
(-0.0854199 0.0510224 0)
(-0.0977854 0.0478294 0)
(-0.108461 0.0447081 0)
(-0.117612 0.0417553 0)
(-0.125385 0.0389789 0)
(-0.1319 0.0363594 0)
(-0.137253 0.0338716 0)
(-0.141518 0.0314913 0)
(-0.144751 0.0291971 0)
(-0.146995 0.0269689 0)
(-0.14828 0.0247872 0)
(-0.148625 0.0226332 0)
(-0.14804 0.020489 0)
(-0.14653 0.0183367 0)
(-0.144091 0.0161575 0)
(-0.140715 0.0139325 0)
(-0.136386 0.0116438 0)
(-0.131088 0.00927246 0)
(-0.124799 0.00680144 0)
(-0.117497 0.00421591 0)
(-0.10916 0.00150037 0)
(-0.0997683 -0.00136045 0)
(-0.0893052 -0.00437701 0)
(-0.0777599 -0.00755597 0)
(-0.0651143 -0.010901 0)
(-0.0513587 -0.0144139 0)
(-0.036489 -0.0180933 0)
(-0.0205054 -0.0219319 0)
(-0.00341676 -0.0259167 0)
(0.0147532 -0.0300295 0)
(-0.00367296 0.0345417 0)
(-0.0207851 0.0634437 0)
(-0.0380016 0.0722447 0)
(-0.0528457 0.0717302 0)
(-0.0646342 0.0676281 0)
(-0.0737714 0.0624742 0)
(-0.0806503 0.0572808 0)
(-0.0855947 0.052389 0)
(-0.0888678 0.0478647 0)
(-0.0906734 0.0436777 0)
(-0.0911654 0.0397734 0)
(-0.090458 0.0360971 0)
(-0.0886354 0.0326023 0)
(-0.0857594 0.0292499 0)
(-0.0818751 0.0260043 0)
(-0.0770138 0.022832 0)
(-0.0711948 0.0197036 0)
(-0.0644295 0.0165934 0)
(-0.0567209 0.0134769 0)
(-0.0480664 0.0103292 0)
(-0.0384594 0.00712698 0)
(-0.0278922 0.00384859 0)
(-0.0163512 0.000472684 0)
(-0.00382285 -0.00301881 0)
(0.00969977 -0.00664151 0)
(0.0242174 -0.0104089 0)
(0.0397371 -0.0143309 0)
(0.0562634 -0.0184147 0)
(0.0737943 -0.0226653 0)
(0.0923235 -0.0270835 0)
(0.111838 -0.0316651 0)
(0.132319 -0.0364013 0)
(0.153739 -0.0412771 0)
(0.176064 -0.0462722 0)
(0.199249 -0.0513622 0)
(-0.00446401 0.0477356 0)
(-0.0213852 0.0803643 0)
(-0.0331125 0.0860806 0)
(-0.039715 0.0818409 0)
(-0.0423964 0.0745805 0)
(-0.0423094 0.0668325 0)
(-0.0400839 0.059497 0)
(-0.0361361 0.0528139 0)
(-0.0307638 0.0467581 0)
(-0.0241716 0.0412281 0)
(-0.0164979 0.0361172 0)
(-0.00783713 0.0313322 0)
(0.00174617 0.0267973 0)
(0.0122022 0.0224535 0)
(0.0235008 0.0182516 0)
(0.0356249 0.0141466 0)
(0.0485667 0.0100999 0)
(0.0623162 0.00607664 0)
(0.0768803 0.00204412 0)
(0.092269 -0.00202602 0)
(0.108489 -0.00615786 0)
(0.125547 -0.0103737 0)
(0.143444 -0.0146925 0)
(0.162179 -0.0191304 0)
(0.181753 -0.0237028 0)
(0.202161 -0.0284212 0)
(0.223394 -0.0332915 0)
(0.24544 -0.0383164 0)
(0.26828 -0.0434953 0)
(0.291888 -0.0488226 0)
(0.316234 -0.0542874 0)
(0.341276 -0.059873 0)
(0.366966 -0.0655561 0)
(0.393246 -0.0713072 0)
(0.420051 -0.0770904 0)
(-0.00528411 0.063498 0)
(-0.0171839 0.0924565 0)
(-0.0153016 0.0899318 0)
(-0.0059611 0.0805426 0)
(0.0064583 0.0701721 0)
(0.0203637 0.060219 0)
(0.0353004 0.0512079 0)
(0.0510095 0.0432118 0)
(0.0673237 0.0360729 0)
(0.084162 0.0296019 0)
(0.101492 0.0236423 0)
(0.119299 0.0180703 0)
(0.137582 0.0127888 0)
(0.156326 0.00771753 0)
(0.175554 0.00279175 0)
(0.195288 -0.00203895 0)
(0.215543 -0.00681509 0)
(0.236337 -0.0115725 0)
(0.257677 -0.0163434 0)
(0.279566 -0.0211554 0)
(0.302009 -0.0260315 0)
(0.325008 -0.0309921 0)
(0.348563 -0.0360537 0)
(0.372669 -0.0412296 0)
(0.39732 -0.04653 0)
(0.4225 -0.0519614 0)
(0.448192 -0.057526 0)
(0.47437 -0.0632215 0)
(0.501 -0.0690403 0)
(0.528043 -0.0749695 0)
(0.555449 -0.08099 0)
(0.583163 -0.0870767 0)
(0.611118 -0.0931978 0)
(0.639242 -0.0993152 0)
(0.667453 -0.105385 0)
(0.000599882 0.0716504 0)
(0.00883228 0.0876253 0)
(0.0391564 0.0739941 0)
(0.074435 0.0606526 0)
(0.107744 0.0491957 0)
(0.138899 0.0387927 0)
(0.168694 0.0294987 0)
(0.197494 0.0213345 0)
(0.225489 0.0140696 0)
(0.252882 0.00744689 0)
(0.279867 0.00129327 0)
(0.30658 -0.00450848 0)
(0.333115 -0.0100477 0)
(0.359563 -0.0153982 0)
(0.385975 -0.020623 0)
(0.412391 -0.0257721 0)
(0.438849 -0.0308852 0)
(0.46538 -0.0359956 0)
(0.492011 -0.0411308 0)
(0.518762 -0.0463142 0)
(0.545648 -0.0515657 0)
(0.572678 -0.0569018 0)
(0.599853 -0.0623352 0)
(0.62717 -0.0678745 0)
(0.654617 -0.0735243 0)
(0.682177 -0.0792846 0)
(0.709823 -0.0851509 0)
(0.737522 -0.0911131 0)
(0.765232 -0.0971559 0)
(0.792903 -0.103258 0)
(0.820476 -0.109392 0)
(0.847886 -0.115525 0)
(0.875058 -0.121617 0)
(0.901914 -0.127622 0)
(0.928366 -0.13349 0)
(0.0850045 0.0277211 0)
(0.138424 0.0339922 0)
(0.200899 0.0239277 0)
(0.261748 0.0143953 0)
(0.31352 0.00684675 0)
(0.358484 -0.000173063 0)
(0.399496 -0.00695626 0)
(0.437812 -0.0133138 0)
(0.474013 -0.0192188 0)
(0.50854 -0.0247761 0)
(0.541747 -0.0300892 0)
(0.573891 -0.0352256 0)
(0.605159 -0.0402366 0)
(0.635696 -0.0451673 0)
(0.665614 -0.0500554 0)
(0.695005 -0.0549325 0)
(0.723939 -0.0598257 0)
(0.752474 -0.0647579 0)
(0.780651 -0.0697484 0)
(0.808504 -0.0748125 0)
(0.836057 -0.0799622 0)
(0.86332 -0.085206 0)
(0.8903 -0.0905485 0)
(0.916991 -0.0959904 0)
(0.943381 -0.101528 0)
(0.969447 -0.107153 0)
(0.99516 -0.112852 0)
(1.02048 -0.118607 0)
(1.04536 -0.124394 0)
(1.06975 -0.130183 0)
(1.09358 -0.135941 0)
(1.1168 -0.141625 0)
(1.13932 -0.147191 0)
(1.16107 -0.152588 0)
(1.18197 -0.157761 0)
(0.523628 -0.0558022 0)
(0.557268 -0.0539604 0)
(0.596539 -0.0493385 0)
(0.641523 -0.0472755 0)
(0.684549 -0.0471023 0)
(0.723982 -0.0483213 0)
(0.760882 -0.0506195 0)
(0.795897 -0.0535983 0)
(0.829219 -0.0569483 0)
(0.861033 -0.0605128 0)
(0.891561 -0.0642215 0)
(0.920987 -0.0680368 0)
(0.949443 -0.0719391 0)
(0.97703 -0.0759216 0)
(1.00383 -0.0799855 0)
(1.02991 -0.0841355 0)
(1.05532 -0.0883776 0)
(1.0801 -0.0927174 0)
(1.10428 -0.0971593 0)
(1.12787 -0.101706 0)
(1.15089 -0.106359 0)
(1.17334 -0.111114 0)
(1.1952 -0.115968 0)
(1.21647 -0.120911 0)
(1.23711 -0.125931 0)
(1.25711 -0.131011 0)
(1.27641 -0.136128 0)
(1.29498 -0.141258 0)
(1.31276 -0.146368 0)
(1.32971 -0.151423 0)
(1.34575 -0.156383 0)
(1.36083 -0.161203 0)
(1.37488 -0.165832 0)
(1.38784 -0.17022 0)
(1.39963 -0.174311 0)
(1.10379 -0.0553228 0)
(1.11027 -0.0647763 0)
(1.12065 -0.0689252 0)
(1.13719 -0.0717452 0)
(1.15659 -0.0742837 0)
(1.17673 -0.0766456 0)
(1.19718 -0.0790278 0)
(1.2178 -0.0815643 0)
(1.23829 -0.0842598 0)
(1.25845 -0.0870856 0)
(1.27818 -0.0900282 0)
(1.29743 -0.093083 0)
(1.31617 -0.0962458 0)
(1.33437 -0.0995139 0)
(1.35202 -0.102887 0)
(1.3691 -0.106367 0)
(1.38559 -0.109954 0)
(1.40149 -0.113648 0)
(1.41677 -0.117448 0)
(1.43142 -0.12135 0)
(1.44542 -0.125348 0)
(1.45873 -0.129435 0)
(1.47133 -0.133597 0)
(1.48318 -0.137821 0)
(1.49423 -0.142086 0)
(1.50446 -0.146371 0)
(1.5138 -0.150648 0)
(1.52221 -0.154887 0)
(1.52963 -0.159052 0)
(1.53602 -0.163104 0)
(1.5413 -0.167 0)
(1.54544 -0.170696 0)
(1.54837 -0.174142 0)
(1.55004 -0.177288 0)
(1.55042 -0.180083 0)
(1.54425 -0.0634705 0)
(1.54714 -0.0724889 0)
(1.55031 -0.0779193 0)
(1.55558 -0.0819453 0)
(1.56239 -0.0855354 0)
(1.56986 -0.0887819 0)
(1.57769 -0.0917716 0)
(1.58581 -0.0946464 0)
(1.59406 -0.0974806 0)
(1.60225 -0.100295 0)
(1.61025 -0.103104 0)
(1.618 -0.105925 0)
(1.62542 -0.108776 0)
(1.63245 -0.111667 0)
(1.63903 -0.114609 0)
(1.64511 -0.11761 0)
(1.65067 -0.120675 0)
(1.65564 -0.123807 0)
(1.66 -0.127005 0)
(1.66369 -0.130266 0)
(1.66669 -0.133582 0)
(1.66893 -0.136944 0)
(1.67039 -0.140337 0)
(1.67101 -0.143744 0)
(1.67075 -0.147144 0)
(1.66955 -0.150512 0)
(1.66737 -0.153819 0)
(1.66416 -0.157034 0)
(1.65987 -0.160122 0)
(1.65446 -0.163045 0)
(1.64788 -0.165761 0)
(1.64011 -0.168229 0)
(1.63109 -0.170406 0)
(1.62083 -0.172247 0)
(1.60929 -0.17371 0)
(1.83266 -0.0644643 0)
(1.8315 -0.0726661 0)
(1.82965 -0.0788267 0)
(1.82823 -0.0836917 0)
(1.82735 -0.0878754 0)
(1.82667 -0.0915473 0)
(1.82595 -0.0947939 0)
(1.82513 -0.0977453 0)
(1.82415 -0.100508 0)
(1.8229 -0.103143 0)
(1.82129 -0.105686 0)
(1.81926 -0.108171 0)
(1.81676 -0.110622 0)
(1.81374 -0.113062 0)
(1.81017 -0.115505 0)
(1.806 -0.117962 0)
(1.80119 -0.120439 0)
(1.79571 -0.122939 0)
(1.78951 -0.125462 0)
(1.78256 -0.128004 0)
(1.77482 -0.130556 0)
(1.76625 -0.133108 0)
(1.7568 -0.135645 0)
(1.74644 -0.138149 0)
(1.73513 -0.1406 0)
(1.72283 -0.142972 0)
(1.70951 -0.14524 0)
(1.69514 -0.147373 0)
(1.67968 -0.149339 0)
(1.66312 -0.151106 0)
(1.64544 -0.152639 0)
(1.62663 -0.153902 0)
(1.6067 -0.15486 0)
(1.58565 -0.155481 0)
(1.56351 -0.155732 0)
(1.96509 -0.0616117 0)
(1.95959 -0.0689276 0)
(1.95306 -0.0749152 0)
(1.94613 -0.0797417 0)
(1.93902 -0.0837825 0)
(1.93162 -0.0872457 0)
(1.92381 -0.090237 0)
(1.91556 -0.0928652 0)
(1.90685 -0.0952335 0)
(1.89761 -0.0974144 0)
(1.88781 -0.0994558 0)
(1.8774 -0.101395 0)
(1.86636 -0.103262 0)
(1.85465 -0.105081 0)
(1.84224 -0.106868 0)
(1.82912 -0.108635 0)
(1.81525 -0.110389 0)
(1.8006 -0.112131 0)
(1.78516 -0.113863 0)
(1.76889 -0.115578 0)
(1.75177 -0.11727 0)
(1.73378 -0.118929 0)
(1.71489 -0.120539 0)
(1.69509 -0.122086 0)
(1.67435 -0.12355 0)
(1.65266 -0.124909 0)
(1.63002 -0.126142 0)
(1.60641 -0.127224 0)
(1.58184 -0.128128 0)
(1.55632 -0.128829 0)
(1.52987 -0.129301 0)
(1.50251 -0.129518 0)
(1.47428 -0.129455 0)
(1.44523 -0.12909 0)
(1.41541 -0.128404 0)
(1.94044 -0.0547109 0)
(1.93085 -0.0607471 0)
(1.91997 -0.0658526 0)
(1.90815 -0.0700265 0)
(1.8956 -0.0734727 0)
(1.88234 -0.0763584 0)
(1.86837 -0.078781 0)
(1.8537 -0.0808267 0)
(1.83832 -0.0825826 0)
(1.82225 -0.0841202 0)
(1.80547 -0.0854919 0)
(1.78796 -0.0867376 0)
(1.76973 -0.0878893 0)
(1.75077 -0.0889715 0)
(1.73107 -0.090002 0)
(1.71063 -0.0909927 0)
(1.68943 -0.0919511 0)
(1.66747 -0.0928808 0)
(1.64475 -0.0937819 0)
(1.62126 -0.0946511 0)
(1.59699 -0.0954824 0)
(1.57194 -0.0962669 0)
(1.54612 -0.0969936 0)
(1.51953 -0.0976495 0)
(1.49217 -0.0982195 0)
(1.46405 -0.0986877 0)
(1.4352 -0.0990368 0)
(1.40564 -0.099249 0)
(1.37539 -0.0993061 0)
(1.3445 -0.0991903 0)
(1.313 -0.0988844 0)
(1.28097 -0.0983724 0)
(1.24845 -0.0976402 0)
(1.21553 -0.0966757 0)
(1.18228 -0.0954696 0)
(1.75904 -0.0439287 0)
(1.7459 -0.0484814 0)
(1.73124 -0.052353 0)
(1.71532 -0.0554991 0)
(1.69832 -0.0580185 0)
(1.68036 -0.0600297 0)
(1.66148 -0.06162 0)
(1.64176 -0.0628643 0)
(1.62125 -0.0638371 0)
(1.59999 -0.0646043 0)
(1.57803 -0.0652172 0)
(1.55539 -0.0657147 0)
(1.53209 -0.0661268 0)
(1.50816 -0.0664768 0)
(1.48363 -0.0667813 0)
(1.4585 -0.0670517 0)
(1.43279 -0.0672954 0)
(1.40652 -0.067516 0)
(1.3797 -0.067714 0)
(1.35235 -0.0678871 0)
(1.32447 -0.0680308 0)
(1.29608 -0.0681385 0)
(1.2672 -0.068202 0)
(1.23785 -0.0682118 0)
(1.20805 -0.0681575 0)
(1.17784 -0.0680281 0)
(1.14724 -0.0678121 0)
(1.11629 -0.067498 0)
(1.08505 -0.0670748 0)
(1.05356 -0.066532 0)
(1.02188 -0.0658601 0)
(0.990073 -0.0650511 0)
(0.958214 -0.0640985 0)
(0.926379 -0.062998 0)
(0.894651 -0.0617473 0)
(1.42425 -0.0300208 0)
(1.40884 -0.0329249 0)
(1.39185 -0.0353239 0)
(1.37347 -0.0371829 0)
(1.35393 -0.0385596 0)
(1.33338 -0.0395418 0)
(1.31196 -0.040206 0)
(1.28979 -0.0406166 0)
(1.26699 -0.0408339 0)
(1.24364 -0.0409113 0)
(1.21982 -0.040891 0)
(1.19559 -0.0408042 0)
(1.17101 -0.0406742 0)
(1.1461 -0.0405181 0)
(1.12091 -0.0403478 0)
(1.09546 -0.040171 0)
(1.06978 -0.0399917 0)
(1.04388 -0.0398114 0)
(1.01777 -0.039629 0)
(0.991475 -0.0394418 0)
(0.965009 -0.0392455 0)
(0.938388 -0.0390348 0)
(0.911628 -0.0388038 0)
(0.884753 -0.0385458 0)
(0.857786 -0.0382543 0)
(0.830757 -0.0379225 0)
(0.803697 -0.0375437 0)
(0.776644 -0.0371118 0)
(0.74964 -0.036621 0)
(0.722733 -0.0360665 0)
(0.695973 -0.0354443 0)
(0.669415 -0.0347515 0)
(0.64312 -0.0339866 0)
(0.617148 -0.0331492 0)
(0.591564 -0.0322403 0)
(0.948447 -0.0151422 0)
(0.933581 -0.0164092 0)
(0.917343 -0.0173344 0)
(0.899979 -0.0179246 0)
(0.881743 -0.0182348 0)
(0.862853 -0.018336 0)
(0.843491 -0.018288 0)
(0.823805 -0.0181367 0)
(0.803914 -0.0179195 0)
(0.783912 -0.0176668 0)
(0.763864 -0.0174001 0)
(0.743817 -0.017133 0)
(0.723804 -0.0168737 0)
(0.703845 -0.0166266 0)
(0.683953 -0.016394 0)
(0.664135 -0.0161757 0)
(0.644394 -0.0159704 0)
(0.624731 -0.0157758 0)
(0.605149 -0.0155891 0)
(0.585648 -0.0154069 0)
(0.566232 -0.0152259 0)
(0.546908 -0.0150426 0)
(0.527682 -0.0148536 0)
(0.508568 -0.0146556 0)
(0.489579 -0.0144456 0)
(0.470733 -0.0142205 0)
(0.452053 -0.013978 0)
(0.433563 -0.0137158 0)
(0.41529 -0.0134322 0)
(0.397265 -0.013126 0)
(0.37952 -0.0127963 0)
(0.362091 -0.0124429 0)
(0.345012 -0.0120661 0)
(0.32832 -0.0116668 0)
(0.312051 -0.0112461 0)
(0.358744 -0.00262076 0)
(0.349987 -0.00265234 0)
(0.340703 -0.00260955 0)
(0.331092 -0.00251202 0)
(0.321329 -0.00238723 0)
(0.311541 -0.00225735 0)
(0.301814 -0.00213347 0)
(0.292204 -0.00201985 0)
(0.282742 -0.00191872 0)
(0.273448 -0.00183109 0)
(0.264325 -0.00175613 0)
(0.25537 -0.00169185 0)
(0.246576 -0.00163623 0)
(0.237934 -0.00158763 0)
(0.229434 -0.00154465 0)
(0.221067 -0.00150603 0)
(0.212824 -0.00147061 0)
(0.204699 -0.00143735 0)
(0.196685 -0.00140535 0)
(0.18878 -0.00137389 0)
(0.180981 -0.00134235 0)
(0.173289 -0.00131031 0)
(0.165705 -0.00127738 0)
(0.158233 -0.00124329 0)
(0.150878 -0.00120775 0)
(0.143646 -0.00117058 0)
(0.136547 -0.0011316 0)
(0.129587 -0.00109076 0)
(0.122778 -0.00104801 0)
(0.11613 -0.00100344 0)
(0.109654 -0.00095719 0)
(0.103361 -0.000909451 0)
(0.0972624 -0.000860469 0)
(0.0913682 -0.000810523 0)
(0.0856888 -0.000759912 0)
(-0.102064 0.000450474 0)
(-0.101871 0.000363076 0)
(-0.101222 0.000263818 0)
(-0.100083 0.000152508 0)
(-0.0984224 2.95326e-05 0)
(-0.0962152 -0.000104293 0)
(-0.0934413 -0.000247404 0)
(-0.0900887 -0.000397937 0)
(-0.0861535 -0.000553488 0)
(-0.0816411 -0.000711436 0)
(-0.191875 -0.000421513 0)
(-0.188248 -0.0012586 0)
(-0.183639 -0.00215583 0)
(-0.178012 -0.00310738 0)
(-0.171341 -0.00410505 0)
(-0.163608 -0.00513809 0)
(-0.154813 -0.00619327 0)
(-0.144966 -0.00725554 0)
(-0.134093 -0.00830917 0)
(-0.122235 -0.00933779 0)
(-0.189674 -0.00591236 0)
(-0.18078 -0.00787833 0)
(-0.170694 -0.00993344 0)
(-0.159408 -0.0120608 0)
(-0.146929 -0.0142395 0)
(-0.133274 -0.0164454 0)
(-0.118474 -0.0186508 0)
(-0.102576 -0.0208253 0)
(-0.0856412 -0.0229385 0)
(-0.0677442 -0.0249599 0)
(-0.108777 -0.0171723 0)
(-0.0940306 -0.0203636 0)
(-0.0781226 -0.0236374 0)
(-0.0610822 -0.0269652 0)
(-0.0429502 -0.0303135 0)
(-0.0237789 -0.0336452 0)
(-0.00363609 -0.0369188 0)
(0.0173944 -0.0400908 0)
(0.0392293 -0.0431201 0)
(0.0617781 -0.0459668 0)
(0.0339738 -0.0342483 0)
(0.05421 -0.0385453 0)
(0.0754149 -0.0428858 0)
(0.0975299 -0.0472302 0)
(0.120486 -0.051534 0)
(0.144203 -0.0557485 0)
(0.168593 -0.0598229 0)
(0.193562 -0.0637064 0)
(0.219003 -0.0673489 0)
(0.244804 -0.0707004 0)
(0.22324 -0.0565152 0)
(0.247974 -0.061691 0)
(0.273377 -0.0668444 0)
(0.299368 -0.0719257 0)
(0.325854 -0.076881 0)
(0.352738 -0.081653 0)
(0.379915 -0.0861832 0)
(0.407273 -0.090413 0)
(0.434697 -0.094286 0)
(0.462071 -0.0977483 0)
(0.447306 -0.0828639 0)
(0.474926 -0.0885795 0)
(0.50282 -0.0941841 0)
(0.530889 -0.09962 0)
(0.559029 -0.104826 0)
(0.587129 -0.10974 0)
(0.615078 -0.114299 0)
(0.642761 -0.11844 0)
(0.670063 -0.122107 0)
(0.696873 -0.125245 0)
(0.695662 -0.111356 0)
(0.723774 -0.117174 0)
(0.751689 -0.12278 0)
(0.779301 -0.128109 0)
(0.806504 -0.133099 0)
(0.833191 -0.137684 0)
(0.859255 -0.1418 0)
(0.884592 -0.145388 0)
(0.909104 -0.148392 0)
(0.932697 -0.150765 0)
(0.954324 -0.139164 0)
(0.979695 -0.144586 0)
(1.00438 -0.149693 0)
(1.02829 -0.15442 0)
(1.05132 -0.158703 0)
(1.07339 -0.162481 0)
(1.0944 -0.165693 0)
(1.11429 -0.168287 0)
(1.13299 -0.170214 0)
(1.15043 -0.171435 0)
(1.20193 -0.162653 0)
(1.22089 -0.167201 0)
(1.23876 -0.171346 0)
(1.25546 -0.175026 0)
(1.27093 -0.178181 0)
(1.28511 -0.180756 0)
(1.29795 -0.1827 0)
(1.3094 -0.18397 0)
(1.31944 -0.18453 0)
(1.32806 -0.184353 0)
(1.4102 -0.178047 0)
(1.41949 -0.181373 0)
(1.42745 -0.184231 0)
(1.43403 -0.186568 0)
(1.43921 -0.188333 0)
(1.44295 -0.189481 0)
(1.44525 -0.189973 0)
(1.44611 -0.189779 0)
(1.44556 -0.188877 0)
(1.44363 -0.187256 0)
(1.54947 -0.182476 0)
(1.54715 -0.184417 0)
(1.54345 -0.18586 0)
(1.53836 -0.18676 0)
(1.53189 -0.18708 0)
(1.52405 -0.186788 0)
(1.51489 -0.185861 0)
(1.50446 -0.184281 0)
(1.4928 -0.182044 0)
(1.48002 -0.179151 0)
(1.59647 -0.174754 0)
(1.58239 -0.175339 0)
(1.56705 -0.175431 0)
(1.55051 -0.175001 0)
(1.5328 -0.174025 0)
(1.51399 -0.172486 0)
(1.49415 -0.170375 0)
(1.47338 -0.167692 0)
(1.45178 -0.164443 0)
(1.42946 -0.160646 0)
(1.54032 -0.155583 0)
(1.51611 -0.155011 0)
(1.49095 -0.153993 0)
(1.46492 -0.152515 0)
(1.4381 -0.150568 0)
(1.41059 -0.148148 0)
(1.38251 -0.145261 0)
(1.35397 -0.141917 0)
(1.32511 -0.138134 0)
(1.29607 -0.133938 0)
(1.38491 -0.12738 0)
(1.35379 -0.126005 0)
(1.32216 -0.124271 0)
(1.29011 -0.122176 0)
(1.25776 -0.119722 0)
(1.22523 -0.116916 0)
(1.19265 -0.113771 0)
(1.16015 -0.110307 0)
(1.12786 -0.106545 0)
(1.09594 -0.102514 0)
(1.1488 -0.0940159 0)
(1.11518 -0.0923118 0)
(1.08152 -0.0903584 0)
(1.04795 -0.0881605 0)
(1.01458 -0.0857268 0)
(0.981522 -0.0830697 0)
(0.948898 -0.0802054 0)
(0.916828 -0.0771529 0)
(0.885427 -0.0739339 0)
(0.854809 -0.0705725 0)
(0.863118 -0.0603466 0)
(0.83187 -0.0587984 0)
(0.801003 -0.0571078 0)
(0.77061 -0.0552824 0)
(0.740787 -0.0533317 0)
(0.711626 -0.0512676 0)
(0.683217 -0.0491037 0)
(0.655646 -0.0468546 0)
(0.628991 -0.0445365 0)
(0.603324 -0.0421655 0)
(0.566433 -0.0312622 0)
(0.541821 -0.0302185 0)
(0.517793 -0.0291142 0)
(0.494411 -0.0279551 0)
(0.471735 -0.026748 0)
(0.449821 -0.0255007 0)
(0.42872 -0.0242211 0)
(0.408477 -0.0229178 0)
(0.389132 -0.0215993 0)
(0.370716 -0.0202739 0)
(0.296241 -0.0108059 0)
(0.280923 -0.0103483 0)
(0.266129 -0.0098758 0)
(0.251888 -0.00939111 0)
(0.238228 -0.0088972 0)
(0.22517 -0.00839711 0)
(0.212733 -0.00789389 0)
(0.200931 -0.00739056 0)
(0.189776 -0.00688998 0)
(0.179274 -0.00639485 0)
(0.0802334 -0.000708946 0)
(0.0750102 -0.000657951 0)
(0.0700263 -0.000607244 0)
(0.0652872 -0.000557151 0)
(0.0607974 -0.000507973 0)
(0.0565597 -0.000460005 0)
(0.0525753 -0.000413492 0)
(0.0488443 -0.000368663 0)
(0.0453649 -0.000325681 0)
(0.0421346 -0.000284688 0)
(-0.0765662 -0.000868666 0)
(-0.0709533 -0.00102196 0)
(-0.0648367 -0.00116785 0)
(-0.0582599 -0.00130305 0)
(-0.0512748 -0.00142439 0)
(-0.0439407 -0.00152918 0)
(-0.0363227 -0.0016155 0)
(-0.0284899 -0.00168289 0)
(-0.0205124 -0.00173095 0)
(-0.0124624 -0.00175835 0)
(-0.00441357 -0.00176455 0)
(0.00356658 -0.00174763 0)
(0.0114184 -0.00170927 0)
(0.0190824 -0.00165455 0)
(0.0265028 -0.00158613 0)
(0.0336329 -0.0015062 0)
(0.0404334 -0.00141715 0)
(0.0468726 -0.0013214 0)
(0.0529263 -0.00122126 0)
(0.0585775 -0.00111889 0)
(0.0638163 -0.00101628 0)
(0.0686395 -0.000915143 0)
(0.0730493 -0.000816973 0)
(0.0770534 -0.000722986 0)
(0.0806639 -0.000634147 0)
(0.0838966 -0.000551171 0)
(0.0867703 -0.000474552 0)
(0.0893062 -0.000404576 0)
(0.0915269 -0.000341356 0)
(0.0934565 -0.000284857 0)
(0.0951192 -0.000234924 0)
(0.0965396 -0.000191309 0)
(0.0977419 -0.000153697 0)
(0.0987498 -0.000121731 0)
(0.0995861 -9.50208e-05 0)
(-0.109445 -0.0103244 0)
(-0.0957922 -0.011252 0)
(-0.0813561 -0.0121046 0)
(-0.0662285 -0.0128689 0)
(-0.0505114 -0.0135315 0)
(-0.0343167 -0.0140799 0)
(-0.0177611 -0.0145084 0)
(-0.000965003 -0.0148116 0)
(0.0159579 -0.0149861 0)
(0.0328971 -0.0150336 0)
(0.049736 -0.014959 0)
(0.0663619 -0.0147646 0)
(0.0826719 -0.0144573 0)
(0.0985706 -0.0140498 0)
(0.113972 -0.0135541 0)
(0.1288 -0.0129823 0)
(0.142989 -0.0123473 0)
(0.156487 -0.0116622 0)
(0.169249 -0.01094 0)
(0.181246 -0.0101931 0)
(0.192457 -0.00943338 0)
(0.20287 -0.00867174 0)
(0.212486 -0.00791801 0)
(0.221311 -0.00718087 0)
(0.229363 -0.00646777 0)
(0.236662 -0.00578488 0)
(0.243237 -0.00513719 0)
(0.24912 -0.0045285 0)
(0.25435 -0.00396153 0)
(0.258965 -0.00343803 0)
(0.263008 -0.00295885 0)
(0.266521 -0.00252411 0)
(0.26955 -0.00213327 0)
(0.272136 -0.00178528 0)
(0.274325 -0.0014787 0)
(-0.048971 -0.0268602 0)
(-0.029419 -0.0286104 0)
(-0.00919726 -0.0301842 0)
(0.0115727 -0.0315551 0)
(0.0327791 -0.0327035 0)
(0.0543052 -0.0336175 0)
(0.0760198 -0.0342876 0)
(0.0977954 -0.0347078 0)
(0.119508 -0.0348758 0)
(0.141036 -0.0347959 0)
(0.162264 -0.0344777 0)
(0.183081 -0.033933 0)
(0.203386 -0.033177 0)
(0.22309 -0.0322287 0)
(0.24211 -0.0311091 0)
(0.260376 -0.0298412 0)
(0.277829 -0.028449 0)
(0.29442 -0.0269567 0)
(0.310114 -0.0253885 0)
(0.324882 -0.0237681 0)
(0.338709 -0.0221178 0)
(0.351589 -0.0204584 0)
(0.363523 -0.0188092 0)
(0.374523 -0.0171873 0)
(0.384606 -0.0156079 0)
(0.393796 -0.0140838 0)
(0.402125 -0.0126259 0)
(0.409626 -0.0112428 0)
(0.41634 -0.00994145 0)
(0.422307 -0.00872657 0)
(0.427575 -0.00760141 0)
(0.432188 -0.00656763 0)
(0.436195 -0.00562561 0)
(0.439643 -0.00477454 0)
(0.442583 -0.00401272 0)
(0.0849348 -0.0485906 0)
(0.108587 -0.0509542 0)
(0.132616 -0.0530239 0)
(0.156901 -0.0547701 0)
(0.181318 -0.0561702 0)
(0.205741 -0.0572095 0)
(0.230047 -0.0578776 0)
(0.254115 -0.058171 0)
(0.27783 -0.0580922 0)
(0.301084 -0.0576509 0)
(0.323778 -0.0568631 0)
(0.345821 -0.0557495 0)
(0.367131 -0.0543356 0)
(0.387637 -0.0526502 0)
(0.407281 -0.0507254 0)
(0.426012 -0.048595 0)
(0.443793 -0.0462939 0)
(0.460596 -0.0438573 0)
(0.476401 -0.0413196 0)
(0.491201 -0.0387144 0)
(0.504996 -0.0360732 0)
(0.517792 -0.0334255 0)
(0.529606 -0.0307984 0)
(0.540458 -0.0282161 0)
(0.550375 -0.0256998 0)
(0.559389 -0.0232681 0)
(0.567534 -0.0209364 0)
(0.574851 -0.0187175 0)
(0.58138 -0.0166213 0)
(0.587164 -0.0146554 0)
(0.59225 -0.0128248 0)
(0.596682 -0.0111327 0)
(0.600508 -0.00958021 0)
(0.603773 -0.00816702 0)
(0.606525 -0.00689134 0)
(0.270849 -0.0737139 0)
(0.297016 -0.0763469 0)
(0.323185 -0.0785629 0)
(0.349232 -0.0803315 0)
(0.37504 -0.0816305 0)
(0.400492 -0.0824461 0)
(0.425476 -0.0827727 0)
(0.449889 -0.0826129 0)
(0.473634 -0.0819773 0)
(0.496625 -0.0808843 0)
(0.518785 -0.0793593 0)
(0.540047 -0.0774333 0)
(0.560357 -0.0751427 0)
(0.579671 -0.0725274 0)
(0.597955 -0.0696304 0)
(0.615187 -0.0664964 0)
(0.631353 -0.0631704 0)
(0.646452 -0.0596974 0)
(0.660487 -0.056121 0)
(0.673473 -0.0524828 0)
(0.685429 -0.0488219 0)
(0.696382 -0.0451745 0)
(0.706363 -0.0415733 0)
(0.715407 -0.0380473 0)
(0.723553 -0.034622 0)
(0.730844 -0.0313193 0)
(0.737322 -0.0281573 0)
(0.743034 -0.0251508 0)
(0.748024 -0.0223112 0)
(0.752341 -0.019647 0)
(0.756029 -0.0171638 0)
(0.759136 -0.014865 0)
(0.761706 -0.0127516 0)
(0.763786 -0.0108226 0)
(0.765417 -0.00907582 0)
(0.489274 -0.100751 0)
(0.516188 -0.103252 0)
(0.542699 -0.105214 0)
(0.568695 -0.106612 0)
(0.594071 -0.107429 0)
(0.618729 -0.107655 0)
(0.642579 -0.107293 0)
(0.665542 -0.106355 0)
(0.687547 -0.104861 0)
(0.708537 -0.102841 0)
(0.728465 -0.10033 0)
(0.747294 -0.0973705 0)
(0.765 -0.0940109 0)
(0.781569 -0.0903019 0)
(0.796997 -0.0862968 0)
(0.81129 -0.0820503 0)
(0.824462 -0.0776167 0)
(0.836534 -0.0730491 0)
(0.847535 -0.0683986 0)
(0.857499 -0.0637133 0)
(0.866464 -0.0590379 0)
(0.874473 -0.0544131 0)
(0.881571 -0.0498753 0)
(0.887806 -0.0454565 0)
(0.893227 -0.0411844 0)
(0.897883 -0.0370823 0)
(0.901824 -0.0331691 0)
(0.9051 -0.0294598 0)
(0.907761 -0.0259658 0)
(0.909853 -0.0226951 0)
(0.911425 -0.0196524 0)
(0.91252 -0.0168398 0)
(0.913184 -0.0142573 0)
(0.913457 -0.0119024 0)
(0.913381 -0.00977116 0)
(0.723081 -0.127807 0)
(0.748584 -0.129756 0)
(0.773284 -0.13106 0)
(0.797093 -0.131701 0)
(0.819933 -0.131669 0)
(0.841734 -0.130965 0)
(0.86244 -0.129603 0)
(0.882004 -0.127604 0)
(0.900394 -0.125002 0)
(0.917586 -0.121836 0)
(0.933569 -0.118154 0)
(0.948345 -0.114011 0)