/*--------------------------------*- C++ -*----------------------------------*\
| =========                 |                                                 |
| \\      /  F ield         | OpenFOAM: The Open Source CFD Toolbox           |
|  \\    /   O peration     | Version:  2406                                  |
|   \\  /    A nd           | Website:  www.openfoam.com                      |
|    \\/     M anipulation  |                                                 |
\*---------------------------------------------------------------------------*/
FoamFile
{
    version     2.0;
    format      ascii;
    arch        "LSB;label=32;scalar=64";
    class       volScalarField;
    location    "162";
    object      p;
}
// * * * * * * * * * * * * * * * * * * * * * * * * * * * * * * * * * * * * * //

dimensions      [0 2 -2 0 0 0 0];

internalField   nonuniform List<scalar> 
190000
(
0.520545
0.520177
0.518823
0.516934
0.51481
0.51257
0.510264
0.507921
0.505554
0.50317
0.500774
0.498366
0.495949
0.493523
0.491088
0.488644
0.486192
0.483731
0.481262
0.478784
0.476298
0.473802
0.471298
0.468784
0.466262
0.463729
0.461188
0.458637
0.456076
0.453505
0.450924
0.448333
0.445732
0.443121
0.440498
0.437865
0.43522
0.432565
0.429898
0.427219
0.424528
0.421824
0.419108
0.416379
0.413636
0.41088
0.408109
0.405323
0.402523
0.399706
0.396873
0.394023
0.391155
0.388269
0.385364
0.382439
0.379493
0.376525
0.373534
0.37052
0.367481
0.364415
0.361323
0.358202
0.355051
0.351869
0.348654
0.345404
0.342119
0.338797
0.335435
0.332033
0.328588
0.325098
0.321563
0.31798
0.314347
0.310664
0.306929
0.303142
0.299301
0.295409
0.291465
0.287473
0.283438
0.279366
0.275269
0.271163
0.267068
0.263018
0.259052
0.255226
0.251604
0.248252
0.24518
0.242094
0.238185
0.233954
0.232299
0.187995
0.522776
0.520885
0.518955
0.51691
0.514739
0.512483
0.510176
0.507835
0.50547
0.503087
0.50069
0.498281
0.495862
0.493433
0.490994
0.488547
0.486091
0.483627
0.481153
0.478671
0.47618
0.47368
0.47117
0.468652
0.466124
0.463587
0.46104
0.458483
0.455917
0.45334
0.450753
0.448156
0.445549
0.44293
0.440301
0.43766
0.435008
0.432345
0.429669
0.426982
0.424282
0.421569
0.418843
0.416104
0.413351
0.410583
0.407801
0.405003
0.40219
0.39936
0.396514
0.393649
0.390766
0.387865
0.384943
0.382
0.379036
0.376049
0.373039
0.370004
0.366943
0.363855
0.360738
0.357592
0.354414
0.351204
0.34796
0.344679
0.341361
0.338004
0.334605
0.331163
0.327675
0.32414
0.320556
0.31692
0.31323
0.309484
0.305681
0.301817
0.297892
0.293905
0.289853
0.285738
0.281558
0.277316
0.273014
0.268655
0.264244
0.259787
0.255285
0.250733
0.246108
0.241341
0.236252
0.230397
0.222965
0.213027
0.196584
0.150946
0.52391
0.521372
0.519101
0.516929
0.514704
0.512423
0.510106
0.50776
0.505392
0.503007
0.500608
0.498196
0.495774
0.493341
0.490899
0.488448
0.485988
0.483519
0.48104
0.478553
0.476057
0.473552
0.471038
0.468514
0.465981
0.463438
0.460885
0.458322
0.45575
0.453167
0.450573
0.447969
0.445355
0.442729
0.440092
0.437443
0.434783
0.432111
0.429427
0.42673
0.42402
0.421297
0.418561
0.415811
0.413046
0.410266
0.407471
0.404661
0.401834
0.39899
0.396128
0.393248
0.390349
0.38743
0.384491
0.38153
0.378547
0.375539
0.372508
0.369451
0.366366
0.363254
0.360112
0.356939
0.353733
0.350493
0.347217
0.343904
0.340551
0.337156
0.333718
0.330233
0.326701
0.323117
0.319481
0.315788
0.312037
0.308224
0.304347
0.300402
0.296385
0.292294
0.288125
0.283874
0.279536
0.275106
0.270579
0.265944
0.26119
0.256296
0.25123
0.245935
0.240316
0.234206
0.227312
0.219118
0.20881
0.19522
0.175716
0.143541
0.524414
0.521686
0.519264
0.517002
0.514722
0.512408
0.510071
0.507713
0.505338
0.502947
0.500543
0.498128
0.495701
0.493265
0.490819
0.488363
0.485899
0.483426
0.480943
0.478452
0.475951
0.473441
0.470922
0.468393
0.465855
0.463307
0.460749
0.458181
0.455602
0.453014
0.450414
0.447804
0.445183
0.44255
0.439907
0.437251
0.434583
0.431904
0.429211
0.426506
0.423788
0.421056
0.41831
0.41555
0.412775
0.409985
0.407179
0.404356
0.401517
0.398661
0.395786
0.392892
0.389979
0.387045
0.38409
0.381113
0.378112
0.375087
0.372037
0.36896
0.365855
0.362722
0.359557
0.35636
0.35313
0.349864
0.34656
0.343218
0.339834
0.336406
0.332933
0.329411
0.325839
0.322212
0.318529
0.314787
0.31098
0.307107
0.303163
0.299144
0.295045
0.29086
0.286584
0.28221
0.277728
0.273129
0.268399
0.26352
0.258467
0.253204
0.247679
0.241812
0.235483
0.228508
0.220607
0.211359
0.200179
0.186348
0.16883
0.145973
0.524706
0.521905
0.519407
0.517085
0.51476
0.512415
0.510057
0.507685
0.5053
0.502902
0.500492
0.498071
0.49564
0.493199
0.490749
0.48829
0.485821
0.483343
0.480857
0.478361
0.475856
0.473341
0.470817
0.468284
0.465741
0.463188
0.460625
0.458051
0.455468
0.452873
0.450268
0.447652
0.445025
0.442386
0.439736
0.437073
0.434399
0.431712
0.429012
0.426299
0.423572
0.420832
0.418077
0.415307
0.412523
0.409723
0.406906
0.404073
0.401223
0.398354
0.395467
0.392561
0.389634
0.386687
0.383717
0.380725
0.377708
0.374667
0.3716
0.368505
0.365382
0.362228
0.359043
0.355825
0.352571
0.349281
0.345953
0.342584
0.339171
0.335714
0.332209
0.328653
0.325044
0.321379
0.317654
0.313865
0.310009
0.306081
0.302076
0.297989
0.293815
0.289545
0.285172
0.280686
0.276076
0.271327
0.266421
0.261334
0.256033
0.250477
0.244604
0.238332
0.231545
0.224083
0.21573
0.206201
0.19516
0.182286
0.167314
0.150157
0.524892
0.522059
0.519521
0.517161
0.514802
0.512432
0.510056
0.50767
0.505274
0.502868
0.500452
0.498025
0.495589
0.493144
0.490689
0.488226
0.485753
0.483271
0.48078
0.47828
0.47577
0.473252
0.470723
0.468185
0.465638
0.46308
0.460512
0.457933
0.455345
0.452745
0.450134
0.447513
0.44488
0.442235
0.439578
0.436909
0.434228
0.431534
0.428827
0.426106
0.423372
0.420623
0.41786
0.415082
0.412288
0.409478
0.406652
0.403809
0.400948
0.398069
0.39517
0.392252
0.389313
0.386352
0.383369
0.380363
0.377332
0.374276
0.371192
0.368081
0.364941
0.361769
0.358565
0.355327
0.352053
0.348741
0.34539
0.341997
0.338559
0.335074
0.33154
0.327954
0.324312
0.320612
0.316848
0.313018
0.309117
0.30514
0.301081
0.296935
0.292693
0.288349
0.283892
0.27931
0.274591
0.269717
0.264668
0.259416
0.253927
0.248158
0.24205
0.235529
0.228499
0.220838
0.212401
0.203023
0.192555
0.180919
0.168192
0.154754
0.525012
0.522168
0.519609
0.517226
0.514845
0.512456
0.510063
0.507665
0.50526
0.502846
0.500422
0.49799
0.495549
0.493099
0.49064
0.488172
0.485695
0.483209
0.480714
0.47821
0.475696
0.473173
0.470641
0.468098
0.465546
0.462984
0.460411
0.457828
0.455234
0.452629
0.450014
0.447387
0.444748
0.442097
0.439435
0.43676
0.434072
0.431371
0.428657
0.42593
0.423188
0.420432
0.417661
0.414875
0.412073
0.409254
0.406419
0.403566
0.400695
0.397806
0.394897
0.391968
0.389017
0.386045
0.38305
0.380031
0.376987
0.373917
0.370819
0.367693
0.364537
0.361349
0.358128
0.354873
0.35158
0.348249
0.344878
0.341463
0.338003
0.334494
0.330935
0.327322
0.323651
0.31992
0.316124
0.312258
0.308318
0.304299
0.300195
0.295998
0.2917
0.287294
0.282768
0.27811
0.273306
0.268337
0.263181
0.257813
0.2522
0.246301
0.240066
0.233436
0.226338
0.218693
0.210416
0.201435
0.191718
0.181321
0.17045
0.159557
0.525094
0.522248
0.51968
0.517283
0.514887
0.512483
0.510078
0.50767
0.505255
0.502833
0.500404
0.497966
0.49552
0.493065
0.490602
0.488129
0.485648
0.483158
0.480659
0.478151
0.475634
0.473106
0.47057
0.468023
0.465467
0.4629
0.460323
0.457735
0.455137
0.452528
0.449907
0.447275
0.444631
0.441975
0.439307
0.436626
0.433933
0.431226
0.428506
0.425771
0.423023
0.42026
0.417482
0.414688
0.411878
0.409052
0.406208
0.403347
0.400467
0.397569
0.39465
0.391711
0.38875
0.385767
0.382761
0.379731
0.376675
0.373593
0.370483
0.367344
0.364174
0.360972
0.357736
0.354465
0.351157
0.347809
0.34442
0.340987
0.337508
0.333979
0.330398
0.326763
0.323068
0.319311
0.315488
0.311593
0.307622
0.303569
0.299428
0.295191
0.290851
0.286398
0.281821
0.277108
0.272244
0.267211
0.26199
0.256555
0.250879
0.244926
0.238659
0.232034
0.225003
0.217522
0.209555
0.201091
0.192167
0.1829
0.173523
0.164429
0.525155
0.522312
0.519739
0.517334
0.514928
0.512514
0.510099
0.507682
0.50526
0.502831
0.500396
0.497952
0.495501
0.493042
0.490574
0.488098
0.485613
0.483119
0.480617
0.478105
0.475583
0.473052
0.470512
0.467961
0.465401
0.46283
0.460249
0.457657
0.455054
0.452441
0.449815
0.447179
0.44453
0.441869
0.439196
0.43651
0.433811
0.431099
0.428372
0.425632
0.422878
0.420108
0.417324
0.414523
0.411706
0.408873
0.406022
0.403153
0.400265
0.397358
0.394431
0.391483
0.388514
0.385522
0.382506
0.379466
0.3764
0.373307
0.370186
0.367036
0.363854
0.36064
0.357392
0.354108
0.350787
0.347425
0.344022
0.340574
0.337078
0.333534
0.329936
0.326282
0.322569
0.318792
0.314948
0.311031
0.307036
0.302958
0.298791
0.294526
0.290156
0.285672
0.281063
0.276317
0.27142
0.266356
0.261108
0.255653
0.249969
0.24403
0.237808
0.231275
0.224406
0.217184
0.209608
0.201704
0.193543
0.185262
0.177077
0.169302
0.525207
0.522367
0.519793
0.517384
0.514971
0.512549
0.510127
0.507703
0.505274
0.502839
0.500398
0.49795
0.495494
0.493031
0.490559
0.488079
0.48559
0.483093
0.480586
0.478071
0.475546
0.473011
0.470467
0.467913
0.465349
0.462775
0.46019
0.457594
0.454987
0.452369
0.44974
0.447099
0.444446
0.44178
0.439102
0.436412
0.433708
0.43099
0.428259
0.425514
0.422754
0.419979
0.417188
0.414381
0.411558
0.408719
0.405861
0.402985
0.400091
0.397177
0.394242
0.391287
0.38831
0.38531
0.382286
0.379237
0.376163
0.373061
0.369931
0.366772
0.363581
0.360357
0.357099
0.353805
0.350473
0.347101
0.343686
0.340226
0.336719
0.333162
0.329552
0.325885
0.322158
0.318368
0.314509
0.310578
0.306568
0.302475
0.298292
0.294011
0.289626
0.285127
0.280505
0.275748
0.270845
0.26578
0.260539
0.255106
0.249463
0.243592
0.237475
0.231099
0.224456
0.217548
0.210397
0.203051
0.195593
0.188157
0.180931
0.174157
0.525257
0.52242
0.519845
0.517435
0.515018
0.51259
0.510162
0.507732
0.505297
0.502858
0.500412
0.497959
0.495499
0.493032
0.490556
0.488072
0.48558
0.483079
0.48057
0.478051
0.475522
0.472985
0.470437
0.46788
0.465312
0.462734
0.460146
0.457546
0.454936
0.452314
0.449681
0.447036
0.444379
0.44171
0.439028
0.436333
0.433625
0.430903
0.428167
0.425417
0.422652
0.419872
0.417076
0.414265
0.411436
0.408591
0.405728
0.402846
0.399946
0.397026
0.394086
0.391124
0.388141
0.385134
0.382104
0.379048
0.375967
0.372859
0.369722
0.366555
0.363357
0.360126
0.35686
0.353559
0.350219
0.346839
0.343416
0.339949
0.336434
0.332869
0.329251
0.325576
0.321842
0.318044
0.314178
0.310239
0.306223
0.302124
0.297937
0.293653
0.289267
0.28477
0.280153
0.275406
0.27052
0.265483
0.260282
0.254906
0.249344
0.243583
0.237617
0.231442
0.225063
0.218497
0.211778
0.204963
0.198138
0.191425
0.18498
0.178989
0.52531
0.522475
0.5199
0.517489
0.51507
0.512638
0.510205
0.50777
0.505331
0.502887
0.500437
0.49798
0.495516
0.493045
0.490566
0.488079
0.485584
0.48308
0.480567
0.478045
0.475513
0.472972
0.470422
0.467861
0.465291
0.46271
0.460118
0.457515
0.454902
0.452277
0.44964
0.446992
0.444332
0.441659
0.438973
0.436274
0.433562
0.430837
0.428097
0.425343
0.422574
0.41979
0.41699
0.414174
0.411341
0.408491
0.405624
0.402738
0.399833
0.396908
0.393963
0.390996
0.388008
0.384996
0.381961
0.378901
0.375814
0.372701
0.369559
0.366387
0.363184
0.359948
0.356678
0.353372
0.350027
0.346643
0.343216
0.339744
0.336226
0.332658
0.329037
0.32536
0.321623
0.317824
0.313958
0.31002
0.306007
0.301912
0.29773
0.293456
0.289082
0.284602
0.280008
0.275292
0.270445
0.26546
0.260327
0.255038
0.249587
0.24397
0.238185
0.23224
0.226146
0.21993
0.213632
0.207312
0.201051
0.194957
0.189157
0.183796
0.525369
0.522536
0.519961
0.51755
0.515129
0.512694
0.510258
0.507819
0.505376
0.502928
0.500474
0.498014
0.495547
0.493072
0.49059
0.4881
0.485601
0.483094
0.480578
0.478054
0.475519
0.472976
0.470423
0.467859
0.465286
0.462702
0.460108
0.457502
0.454886
0.452258
0.449619
0.446967
0.444304
0.441628
0.438939
0.436238
0.433523
0.430794
0.428051
0.425293
0.422521
0.419734
0.41693
0.414111
0.411275
0.408422
0.40555
0.402661
0.399752
0.396824
0.393876
0.390906
0.387914
0.384899
0.38186
0.378797
0.375707
0.372591
0.369446
0.366271
0.363066
0.359827
0.356555
0.353247
0.349901
0.346515
0.343088
0.339617
0.336099
0.332531
0.328912
0.325238
0.321506
0.317712
0.313853
0.309924
0.305921
0.30184
0.297676
0.293422
0.289074
0.284625
0.28007
0.275402
0.270615
0.265702
0.260658
0.25548
0.250165
0.244715
0.239133
0.233433
0.227632
0.221762
0.215866
0.21
0.204241
0.19868
0.193421
0.188577
0.525436
0.522605
0.52003
0.51762
0.515197
0.512761
0.510321
0.507879
0.505433
0.502982
0.500524
0.498061
0.495591
0.493113
0.490628
0.488135
0.485634
0.483124
0.480606
0.478078
0.475542
0.472996
0.47044
0.467874
0.465298
0.462712
0.460115
0.457508
0.454889
0.452259
0.449617
0.446963
0.444297
0.441619
0.438928
0.436224
0.433506
0.430775
0.428029
0.425269
0.422495
0.419705
0.416899
0.414077
0.411239
0.408383
0.405509
0.402618
0.399707
0.396776
0.393826
0.390854
0.38786
0.384843
0.381803
0.378738
0.375647
0.37253
0.369384
0.366209
0.363003
0.359765
0.356494
0.353187
0.349843
0.346459
0.343035
0.339567
0.336054
0.332493
0.328881
0.325215
0.321493
0.317711
0.313865
0.309953
0.305969
0.301911
0.297773
0.293551
0.289241
0.284837
0.280335
0.275731
0.271019
0.266196
0.261261
0.256212
0.25105
0.245782
0.240415
0.234967
0.229459
0.223924
0.218404
0.212954
0.20764
0.202541
0.197742
0.193332
0.525515
0.522684
0.52011
0.5177
0.515276
0.512838
0.510396
0.507952
0.505503
0.503048
0.500588
0.498122
0.495649
0.493169
0.490681
0.488185
0.485682
0.48317
0.480649
0.478119
0.47558
0.473032
0.470474
0.467907
0.465329
0.462741
0.460142
0.457532
0.454911
0.452279
0.449636
0.44698
0.444312
0.441632
0.438939
0.436233
0.433514
0.430781
0.428034
0.425272
0.422496
0.419704
0.416897
0.414074
0.411234
0.408377
0.405502
0.402609
0.399697
0.396766
0.393814
0.390842
0.387848
0.384831
0.381791
0.378726
0.375636
0.37252
0.369376
0.366203
0.362999
0.359764
0.356496
0.353193
0.349854
0.346477
0.343059
0.339599
0.336095
0.332544
0.328943
0.325291
0.321585
0.31782
0.313996
0.310107
0.306151
0.302124
0.298022
0.293842
0.289581
0.285233
0.280797
0.276269
0.271647
0.266929
0.262115
0.257208
0.252212
0.247135
0.24199
0.236794
0.231571
0.226355
0.221186
0.216114
0.211197
0.206502
0.202099
0.198059
0.525606
0.522776
0.520201
0.517791
0.515368
0.512928
0.510484
0.508038
0.505586
0.503129
0.500667
0.498198
0.495722
0.49324
0.49075
0.488252
0.485746
0.483232
0.480709
0.478178
0.475637
0.473087
0.470527
0.467958
0.465378
0.462788
0.460188
0.457577
0.454955
0.452321
0.449676
0.447019
0.44435
0.441669
0.438974
0.436267
0.433547
0.430813
0.428065
0.425302
0.422525
0.419733
0.416925
0.414101
0.411261
0.408404
0.405529
0.402636
0.399725
0.396794
0.393843
0.390872
0.387879
0.384864
0.381826
0.378763
0.375676
0.372563
0.369422
0.366253
0.363055
0.359826
0.356564
0.353268
0.349937
0.346569
0.343161
0.339713
0.336222
0.332685
0.329102
0.325469
0.321783
0.318043
0.314245
0.310386
0.306465
0.302477
0.29842
0.294292
0.290088
0.285808
0.281448
0.277007
0.272485
0.267883
0.263201
0.258446
0.253622
0.248742
0.243818
0.23887
0.233923
0.229009
0.224165
0.219436
0.214874
0.210534
0.206475
0.202754
0.525711
0.522881
0.520305
0.517896
0.515472
0.513031
0.510586
0.508137
0.505684
0.503225
0.50076
0.498289
0.495811
0.493327
0.490835
0.488335
0.485827
0.483311
0.480787
0.478253
0.475711
0.47316
0.470599
0.468028
0.465447
0.462856
0.460254
0.457642
0.455019
0.452385
0.449739
0.447081
0.444411
0.441729
0.439035
0.436327
0.433606
0.430872
0.428124
0.425361
0.422584
0.419792
0.416985
0.414162
0.411322
0.408466
0.405592
0.402701
0.399791
0.396862
0.393914
0.390945
0.387955
0.384943
0.381908
0.37885
0.375768
0.37266
0.369525
0.366363
0.363172
0.35995
0.356698
0.353412
0.350092
0.346736
0.343343
0.33991
0.336436
0.332919
0.329356
0.325747
0.322087
0.318377
0.314612
0.31079
0.30691
0.302969
0.298964
0.294895
0.290758
0.286553
0.282278
0.277934
0.273521
0.269042
0.2645
0.259901
0.255254
0.25057
0.245865
0.241159
0.236475
0.231843
0.227299
0.222883
0.218638
0.214613
0.210857
0.207415
0.525831
0.523
0.520424
0.518016
0.515591
0.513149
0.510702
0.508252
0.505797
0.503336
0.500869
0.498397
0.495917
0.49343
0.490937
0.488435
0.485926
0.483408
0.480882
0.478348
0.475804
0.473252
0.47069
0.468118
0.465536
0.462944
0.460342
0.457729
0.455105
0.452471
0.449824
0.447166
0.444497
0.441815
0.43912
0.436413
0.433693
0.430959
0.428211
0.42545
0.422674
0.419883
0.417077
0.414255
0.411418
0.408564
0.405692
0.402804
0.399897
0.396971
0.394026
0.391061
0.388076
0.385069
0.38204
0.378988
0.375912
0.372812
0.369685
0.366532
0.36335
0.36014
0.356899
0.353626
0.350321
0.346981
0.343604
0.340191
0.336738
0.333243
0.329707
0.326125
0.322497
0.318821
0.315095
0.311316
0.307483
0.303595
0.29965
0.295646
0.291583
0.28746
0.283277
0.279036
0.274739
0.270389
0.265991
0.261552
0.257082
0.252594
0.248102
0.243627
0.239193
0.234826
0.230558
0.226426
0.222467
0.218723
0.215234
0.212039
0.525967
0.523136
0.520558
0.51815
0.515725
0.513282
0.510834
0.508383
0.505926
0.503464
0.500995
0.498521
0.496039
0.493551
0.491056
0.488553
0.486042
0.483524
0.480997
0.478461
0.475917
0.473363
0.4708
0.468228
0.465646
0.463054
0.460451
0.457838
0.455215
0.45258
0.449934
0.447276
0.444607
0.441926
0.439232
0.436526
0.433807
0.431074
0.428328
0.425568
0.422794
0.420006
0.417202
0.414383
0.411549
0.408698
0.40583
0.402945
0.400043
0.397122
0.394182
0.391223
0.388244
0.385243
0.382222
0.379178
0.37611
0.373019
0.369903
0.366761
0.363591
0.360394
0.357168
0.353911
0.350623
0.347301
0.343946
0.340555
0.337126
0.333659
0.330152
0.326603
0.323011
0.319374
0.315691
0.31196
0.308181
0.304351
0.30047
0.296538
0.292555
0.28852
0.284435
0.280303
0.276125
0.271907
0.267655
0.263377
0.259083
0.254785
0.2505
0.246247
0.242047
0.237927
0.233914
0.230041
0.226341
0.222849
0.219599
0.216623
0.526119
0.523288
0.520709
0.5183
0.515875
0.513431
0.510982
0.508529
0.506071
0.503608
0.501138
0.498662
0.496179
0.49369
0.491193
0.488689
0.486178
0.483658
0.48113
0.478594
0.476049
0.473495
0.470932
0.468359
0.465777
0.463185
0.460582
0.45797
0.455347
0.452713
0.450067
0.447411
0.444743
0.442063
0.439371
0.436666
0.433949
0.431219
0.428475
0.425718
0.422947
0.420161
0.417361
0.414546
0.411715
0.408869
0.406006
0.403126
0.400229
0.397315
0.394381
0.391429
0.388458
0.385466
0.382453
0.379419
0.376362
0.373283
0.370179
0.36705
0.363895
0.360714
0.357505
0.354266
0.350998
0.347699
0.344367
0.341001
0.337601
0.334165
0.330691
0.327179
0.323627
0.320033
0.316398
0.31272
0.308998
0.305232
0.301421
0.297565
0.293666
0.289723
0.28574
0.281719
0.277664
0.273581
0.269475
0.265356
0.261234
0.257122
0.253036
0.248993
0.245014
0.241123
0.237346
0.23371
0.230244
0.226978
0.223942
0.221162
0.526289
0.523456
0.520876
0.518467
0.516041
0.513596
0.511147
0.508693
0.506234
0.503769
0.501298
0.498821
0.496337
0.493846
0.491349
0.488844
0.486332
0.483811
0.481283
0.478746
0.476201
0.473647
0.471084
0.468511
0.465929
0.463338
0.460736
0.458124
0.455502
0.452869
0.450226
0.447571
0.444904
0.442226
0.439537
0.436834
0.43412
0.431393
0.428652
0.425899
0.423131
0.42035
0.417554
0.414744
0.411918
0.409077
0.40622
0.403347
0.400457
0.39755
0.394625
0.391682
0.388719
0.385738
0.382736
0.379713
0.376669
0.373602
0.370513
0.3674
0.364262
0.361098
0.357909
0.354692
0.351446
0.348171
0.344866
0.34153
0.338161
0.334758
0.331321
0.327849
0.324341
0.320795
0.317212
0.31359
0.30993
0.306231
0.302493
0.298718
0.294906
0.29106
0.287181
0.283274
0.279343
0.275394
0.271433
0.267471
0.263517
0.259584
0.255688
0.251844
0.248073
0.244395
0.240834
0.237414
0.234162
0.231101
0.228258
0.225655
0.526477
0.523642
0.52106
0.518652
0.516225
0.513779
0.511329
0.508874
0.506414
0.503948
0.501476
0.498998
0.496513
0.494022
0.491523
0.489018
0.486505
0.483984
0.481455
0.478919
0.476373
0.47382
0.471257
0.468685
0.466104
0.463513
0.460913
0.458302
0.455682
0.453051
0.450409
0.447756
0.445092
0.442417
0.43973
0.437031
0.43432
0.431596
0.42886
0.426111
0.423348
0.420572
0.417781
0.414977
0.412158
0.409323
0.406474
0.403608
0.400727
0.397828
0.394913
0.391979
0.389028
0.386058
0.383068
0.380059
0.377029
0.373978
0.370905
0.367809
0.364691
0.361548
0.35838
0.355186
0.351966
0.348718
0.345443
0.342138
0.338803
0.335438
0.332041
0.328612
0.325151
0.321656
0.318128
0.314566
0.310971
0.307342
0.303681
0.299989
0.296268
0.292519
0.288747
0.284954
0.281147
0.277331
0.273514
0.269704
0.265913
0.262152
0.258436
0.254781
0.251204
0.247724
0.244363
0.241142
0.238083
0.235209
0.23254
0.230097
0.526683
0.523847
0.521263
0.518854
0.516426
0.51398
0.511528
0.509073
0.506612
0.504145
0.501672
0.499193
0.496708
0.494216
0.491717
0.489211
0.486698
0.484177
0.481648
0.479112
0.476567
0.474014
0.471452
0.468881
0.466301
0.463712
0.461113
0.458504
0.455885
0.453257
0.450617
0.447967
0.445306
0.442634
0.439951
0.437256
0.434549
0.43183
0.429099
0.426354
0.423597
0.420827
0.418043
0.415246
0.412434
0.409607
0.406766
0.40391
0.401037
0.398149
0.395244
0.392323
0.389384
0.386427
0.383451
0.380457
0.377443
0.374409
0.371355
0.368279
0.365181
0.36206
0.358916
0.355748
0.352556
0.349338
0.346094
0.342824
0.339526
0.336201
0.332847
0.329464
0.326052
0.322612
0.319141
0.315642
0.312115
0.308559
0.304977
0.301371
0.297741
0.294092
0.290426
0.286748
0.283064
0.279379
0.275702
0.27204
0.268406
0.26481
0.261265
0.257787
0.254391
0.251096
0.247919
0.24488
0.241999
0.239294
0.236784
0.234486
0.526906
0.524069
0.521483
0.519073
0.516646
0.514198
0.511746
0.50929
0.506828
0.50436
0.501886
0.499407
0.496921
0.494428
0.491929
0.489423
0.48691
0.484389
0.481861
0.479325
0.476781
0.474229
0.471668
0.469098
0.46652
0.463932
0.461336
0.458729
0.456113
0.453487
0.450851
0.448204
0.445547
0.442879
0.4402
0.437509
0.434807
0.432094
0.429368
0.42663
0.423879
0.421116
0.41834
0.41555
0.412746
0.409929
0.407097
0.404251
0.401389
0.398513
0.39562
0.392711
0.389786
0.386844
0.383884
0.380906
0.37791
0.374895
0.37186
0.368806
0.365731
0.362635
0.359517
0.356377
0.353215
0.350029
0.346819
0.343585
0.340327
0.337044
0.333735
0.330401
0.327042
0.323657
0.320247
0.316813
0.313355
0.309875
0.306374
0.302853
0.299317
0.295767
0.292208
0.288644
0.28508
0.281524
0.277983
0.274465
0.270981
0.267541
0.264159
0.260847
0.257621
0.254497
0.251491
0.24862
0.2459
0.24335
0.240985
0.238819
0.527149
0.524309
0.521721
0.519311
0.516883
0.514435
0.511982
0.509524
0.507062
0.504593
0.502119
0.499639
0.497153
0.49466
0.492161
0.489655
0.487142
0.484622
0.482094
0.479559
0.477016
0.474465
0.471906
0.469338
0.466761
0.464176
0.461582
0.458978
0.456365
0.453742
0.45111
0.448467
0.445814
0.443151
0.440476
0.437791
0.435095
0.432387
0.429668
0.426937
0.424194
0.421438
0.41867
0.415889
0.413095
0.410288
0.407467
0.404632
0.401782
0.398918
0.396039
0.393145
0.390234
0.387308
0.384366
0.381406
0.378429
0.375434
0.372422
0.36939
0.36634
0.36327
0.360181
0.357071
0.35394
0.350788
0.347615
0.34442
0.341203
0.337964
0.334703
0.331419
0.328114
0.324788
0.32144
0.318073
0.314686
0.311282
0.307862
0.304429
0.300986
0.297535
0.294082
0.29063
0.287185
0.283754
0.280345
0.276965
0.273624
0.270334
0.267105
0.26395
0.260882
0.257917
0.255068
0.252351
0.249781
0.247372
0.245138
0.243093
0.52741
0.524568
0.521978
0.519567
0.517138
0.514689
0.512235
0.509777
0.507314
0.504845
0.502371
0.49989
0.497404
0.494911
0.492412
0.489907
0.487394
0.484875
0.482348
0.479814
0.477272
0.474723
0.472165
0.469599
0.467025
0.464443
0.461851
0.459251
0.456641
0.454022
0.451394
0.448756
0.446108
0.443449
0.440781
0.438102
0.435412
0.432711
0.429999
0.427275
0.42454
0.421794
0.419035
0.416264
0.41348
0.410684
0.407874
0.405051
0.402215
0.399365
0.3965
0.393622
0.390728
0.387819
0.384895
0.381955
0.378999
0.376026
0.373037
0.37003
0.367006
0.363965
0.360905
0.357826
0.354729
0.351613
0.348478
0.345324
0.34215
0.338957
0.335745
0.332514
0.329265
0.325998
0.322714
0.319415
0.316101
0.312774
0.309436
0.30609
0.30274
0.299387
0.296038
0.292696
0.289367
0.286057
0.282775
0.279527
0.276324
0.273175
0.27009
0.267082
0.264162
0.261345
0.258641
0.256067
0.253633
0.251354
0.249241
0.247305
0.527689
0.524846
0.522253
0.519842
0.517412
0.514962
0.512507
0.510049
0.507585
0.505116
0.502641
0.50016
0.497674
0.495181
0.492683
0.490178
0.487666
0.485147
0.482622
0.480089
0.477549
0.475001
0.472446
0.469883
0.467311
0.464732
0.462144
0.459547
0.456941
0.454327
0.451703
0.44907
0.446427
0.443775
0.441112
0.43844
0.435757
0.433064
0.43036
0.427645
0.424919
0.422182
0.419433
0.416672
0.4139
0.411116
0.408319
0.40551
0.402687
0.399852
0.397004
0.394141
0.391265
0.388375
0.385471
0.382552
0.379618
0.376669
0.373704
0.370724
0.367728
0.364716
0.361687
0.358642
0.35558
0.352501
0.349406
0.346294
0.343165
0.34002
0.336858
0.333681
0.33049
0.327283
0.324064
0.320833
0.317592
0.314342
0.311087
0.307828
0.304569
0.301314
0.298066
0.294831
0.291615
0.288423
0.285263
0.282142
0.279069
0.276053
0.273105
0.270234
0.267453
0.264772
0.262204
0.25976
0.257452
0.255292
0.253289
0.251454
0.527987
0.525141
0.522546
0.520134
0.517704
0.515253
0.512797
0.510338
0.507874
0.505404
0.502929
0.500449
0.497963
0.49547
0.492972
0.490468
0.487957
0.48544
0.482916
0.480385
0.477846
0.475301
0.472748
0.470188
0.46762
0.465043
0.462459
0.459866
0.457265
0.454655
0.452037
0.449409
0.446772
0.444126
0.441471
0.438805
0.43613
0.433445
0.43075
0.428044
0.425328
0.422601
0.419863
0.417115
0.414355
0.411583
0.4088
0.406005
0.403198
0.400379
0.397547
0.394703
0.391846
0.388976
0.386092
0.383195
0.380285
0.37736
0.374422
0.37147
0.368503
0.365521
0.362525
0.359515
0.356489
0.35345
0.350395
0.347327
0.344244
0.341148
0.338038
0.334916
0.331782
0.328638
0.325484
0.322322
0.319153
0.315981
0.312807
0.309634
0.306466
0.303305
0.300158
0.297027
0.29392
0.290841
0.287798
0.284798
0.281849
0.278959
0.276139
0.273397
0.270745
0.268191
0.265748
0.263425
0.261233
0.259181
0.25728
0.255538
0.528302
0.525455
0.522858
0.520445
0.518013
0.515561
0.513105
0.510646
0.508181
0.505711
0.503236
0.500756
0.49827
0.495778
0.493281
0.490777
0.488268
0.485752
0.483229
0.4807
0.478164
0.475621
0.473071
0.470514
0.467949
0.465377
0.462797
0.460208
0.457612
0.455008
0.452395
0.449773
0.447143
0.444504
0.441855
0.439198
0.436531
0.433855
0.431169
0.428473
0.425768
0.423052
0.420326
0.41759
0.414843
0.412085
0.409316
0.406537
0.403746
0.400944
0.39813
0.395305
0.392467
0.389618
0.386757
0.383883
0.380997
0.378099
0.375188
0.372264
0.369328
0.366378
0.363416
0.360442
0.357454
0.354454
0.351442
0.348418
0.345383
0.342336
0.339279
0.336213
0.333138
0.330055
0.326967
0.323874
0.320778
0.317683
0.314589
0.311501
0.308422
0.305354
0.302304
0.299274
0.296272
0.293302
0.290371
0.287486
0.284654
0.281884
0.279184
0.276563
0.27403
0.271595
0.269267
0.267056
0.26497
0.263019
0.261211
0.259553
0.528636
0.525786
0.523187
0.520773
0.51834
0.515888
0.513431
0.510971
0.508506
0.506036
0.503561
0.501081
0.498595
0.496104
0.493608
0.491105
0.488597
0.486083
0.483562
0.481035
0.478502
0.475962
0.473415
0.470861
0.4683
0.465732
0.463156
0.460573
0.457982
0.455383
0.452776
0.450161
0.447538
0.444906
0.442266
0.439617
0.436959
0.434292
0.431616
0.428931
0.426237
0.423533
0.420819
0.418096
0.415363
0.41262
0.409867
0.407103
0.404329
0.401545
0.39875
0.395945
0.393129
0.390301
0.387463
0.384614
0.381754
0.378882
0.376
0.373106
0.370201
0.367285
0.364358
0.36142
0.358471
0.355512
0.352543
0.349565
0.346577
0.343581
0.340577
0.337567
0.334551
0.331531
0.328508
0.325484
0.32246
0.319441
0.316427
0.313422
0.310429
0.307452
0.304496
0.301564
0.298663
0.295797
0.292973
0.290197
0.287476
0.284819
0.282232
0.279724
0.277303
0.274977
0.272757
0.270648
0.268661
0.266802
0.265079
0.263499
0.528987
0.526135
0.523533
0.521118
0.518685
0.516232
0.513774
0.511314
0.508848
0.506378
0.503903
0.501424
0.498939
0.496448
0.493953
0.491452
0.488945
0.486433
0.483914
0.48139
0.478859
0.476322
0.473779
0.471229
0.468672
0.466108
0.463537
0.460959
0.458374
0.455781
0.453181
0.450573
0.447957
0.445333
0.442701
0.440061
0.437413
0.434756
0.432091
0.429417
0.426734
0.424043
0.421343
0.418633
0.415915
0.413187
0.41045
0.407703
0.404948
0.402182
0.399407
0.396622
0.393828
0.391023
0.388209
0.385385
0.382552
0.379708
0.376855
0.373992
0.371119
0.368237
0.365346
0.362446
0.359537
0.35662
0.353694
0.350762
0.347823
0.344878
0.341928
0.338973
0.336017
0.333058
0.3301
0.327145
0.324193
0.321248
0.318312
0.315388
0.31248
0.309592
0.306726
0.303889
0.301084
0.298318
0.295596
0.292924
0.290308
0.287756
0.285275
0.282873
0.280556
0.278333
0.276211
0.274198
0.272301
0.270527
0.268882
0.267373
0.529355
0.5265
0.523896
0.521481
0.519046
0.516592
0.514134
0.511673
0.509208
0.506738
0.504263
0.501784
0.499299
0.49681
0.494316
0.491816
0.489311
0.486801
0.484285
0.481763
0.479236
0.476702
0.474162
0.471616
0.469064
0.466505
0.463939
0.461367
0.458787
0.456201
0.453608
0.451007
0.448399
0.445784
0.443161
0.44053
0.437892
0.435246
0.432592
0.42993
0.427259
0.424581
0.421894
0.4192
0.416496
0.413785
0.411064
0.408336
0.405598
0.402852
0.400098
0.397335
0.394563
0.391782
0.388993
0.386195
0.383389
0.380574
0.377751
0.374919
0.37208
0.369233
0.366378
0.363516
0.360648
0.357773
0.354892
0.352006
0.349115
0.346221
0.343325
0.340427
0.337529
0.334633
0.331739
0.328851
0.325969
0.323098
0.320238
0.317394
0.314568
0.311765
0.308987
0.30624
0.303529
0.300857
0.298232
0.295658
0.293142
0.29069
0.288308
0.286004
0.283785
0.281656
0.279626
0.277701
0.275887
0.274191
0.272619
0.271174
0.529739
0.526883
0.524276
0.521859
0.519424
0.516969
0.514511
0.512049
0.509584
0.507114
0.504639
0.50216
0.499677
0.497189
0.494696
0.492198
0.489695
0.487187
0.484673
0.482155
0.47963
0.4771
0.474564
0.472023
0.469475
0.466921
0.464361
0.461794
0.459222
0.456642
0.454056
0.451463
0.448864
0.446257
0.443643
0.441023
0.438395
0.43576
0.433117
0.430468
0.42781
0.425146
0.422474
0.419794
0.417106
0.414411
0.411709
0.408998
0.40628
0.403555
0.400821
0.39808
0.395331
0.392575
0.389812
0.387041
0.384262
0.381477
0.378685
0.375885
0.37308
0.370268
0.367451
0.364628
0.3618
0.358967
0.356131
0.353292
0.35045
0.347608
0.344765
0.341923
0.339084