/*--------------------------------*- C++ -*----------------------------------*\
| =========                 |                                                 |
| \\      /  F ield         | OpenFOAM: The Open Source CFD Toolbox           |
|  \\    /   O peration     | Version:  2406                                  |
|   \\  /    A nd           | Website:  www.openfoam.com                      |
|    \\/     M anipulation  |                                                 |
\*---------------------------------------------------------------------------*/
FoamFile
{
    version     2.0;
    format      ascii;
    arch        "LSB;label=32;scalar=64";
    class       volScalarField;
    location    "124";
    object      p;
}
// * * * * * * * * * * * * * * * * * * * * * * * * * * * * * * * * * * * * * //

dimensions      [0 2 -2 0 0 0 0];

internalField   nonuniform List<scalar> 
1900
(
-0.0536376
-0.0528167
-0.0522736
-0.0521901
-0.0523657
-0.0527025
-0.0532092
-0.0538981
-0.0547568
-0.0557179
-0.0521307
-0.0521372
-0.0520642
-0.0520842
-0.052277
-0.0526372
-0.053155
-0.0538285
-0.0546467
-0.0556133
-0.0504009
-0.0512117
-0.0517042
-0.0518632
-0.0520517
-0.0524056
-0.0528905
-0.0534581
-0.0540551
-0.0545602
-0.0488638
-0.050071
-0.0509296
-0.051222
-0.051419
-0.0517577
-0.052198
-0.0526611
-0.0530964
-0.053443
-0.0476332
-0.0489918
-0.0500325
-0.0504152
-0.0506188
-0.0509294
-0.0513177
-0.0517002
-0.0520436
-0.0523255
-0.0468538
-0.0482181
-0.0492481
-0.0496038
-0.0497693
-0.0500313
-0.0503613
-0.0506813
-0.0509702
-0.0512246
-0.0466589
-0.0478799
-0.0487092
-0.0489282
-0.0490179
-0.049216
-0.0494826
-0.0497522
-0.0500125
-0.0502646
-0.0471351
-0.0479582
-0.0484096
-0.0484675
-0.0485011
-0.0486418
-0.0488488
-0.0490809
-0.0493289
-0.0495883
-0.0482935
-0.0483059
-0.0481907
-0.0481038
-0.048122
-0.0482307
-0.0484063
-0.048633
-0.0488956
-0.0491792
-0.0496526
-0.0488497
-0.0482795
-0.0480999
-0.0481048
-0.0481873
-0.0483403
-0.0485595
-0.0488227
-0.0491079
-0.0537484
-0.053765
-0.0537827
-0.0537966
-0.0538075
-0.0538158
-0.0538216
-0.0538244
-0.0538237
-0.053819
-0.0538099
-0.0537962
-0.0537775
-0.0537537
-0.0537244
-0.0536895
-0.0536486
-0.0536015
-0.0535477
-0.0534869
-0.0534186
-0.0533425
-0.0532585
-0.0531664
-0.0530666
-0.0529593
-0.0528452
-0.052725
-0.0525994
-0.0524688
-0.0523337
-0.0521939
-0.0520488
-0.0518973
-0.0517379
-0.0537292
-0.0537472
-0.0537636
-0.0537758
-0.0537859
-0.0537943
-0.0538005
-0.0538038
-0.0538037
-0.0537996
-0.053791
-0.0537777
-0.0537593
-0.0537357
-0.0537066
-0.0536719
-0.0536312
-0.0535843
-0.0535309
-0.0534706
-0.053403
-0.0533278
-0.0532447
-0.0531536
-0.0530545
-0.0529478
-0.0528337
-0.0527128
-0.0525859
-0.0524534
-0.0523161
-0.0521741
-0.0520272
-0.0518747
-0.0517149
-0.0537122
-0.0537346
-0.0537516
-0.053763
-0.053773
-0.0537821
-0.0537893
-0.0537936
-0.0537945
-0.0537911
-0.0537832
-0.0537704
-0.0537524
-0.053729
-0.0537002
-0.0536657
-0.0536255
-0.0535793
-0.0535269
-0.0534677
-0.0534015
-0.0533276
-0.0532457
-0.0531554
-0.0530565
-0.0529489
-0.052833
-0.0527093
-0.0525788
-0.0524425
-0.0523018
-0.0521575
-0.0520102
-0.0518592
-0.0517033
-0.0537166
-0.053744
-0.0537623
-0.0537738
-0.0537847
-0.0537948
-0.053803
-0.0538082
-0.0538096
-0.0538067
-0.0537988
-0.0537859
-0.0537676
-0.0537439
-0.0537147
-0.0536802
-0.0536402
-0.0535947
-0.0535436
-0.0534862
-0.053422
-0.0533503
-0.05327
-0.0531805
-0.0530809
-0.0529708
-0.0528505
-0.0527207
-0.052583
-0.0524395
-0.0522928
-0.0521451
-0.0519979
-0.0518515
-0.0517044
-0.053765
-0.053794
-0.0538112
-0.0538215
-0.0538319
-0.0538417
-0.0538493
-0.0538536
-0.053854
-0.0538497
-0.0538404
-0.0538258
-0.0538058
-0.0537803
-0.0537497
-0.0537141
-0.0536738
-0.0536288
-0.0535791
-0.053524
-0.0534625
-0.0533933
-0.0533148
-0.0532254
-0.0531237
-0.0530089
-0.0528812
-0.0527422
-0.0525945
-0.0524417
-0.0522882
-0.0521379
-0.0519935
-0.0518555
-0.0517222
-0.0538857
-0.0539068
-0.0539137
-0.0539164
-0.0539211
-0.0539257
-0.0539285
-0.0539284
-0.0539244
-0.0539161
-0.0539028
-0.0538843
-0.0538606
-0.0538319
-0.0537984
-0.0537608
-0.0537194
-0.0536747
-0.0536262
-0.0535732
-0.0535142
-0.0534471
-0.0533695
-0.053279
-0.0531737
-0.0530529
-0.0529173
-0.0527691
-0.0526125
-0.0524528
-0.0522954
-0.0521455
-0.0520059
-0.0518769
-0.0517557
-0.0541159
-0.0541039
-0.0540761
-0.0540546
-0.0540426
-0.0540341
-0.0540259
-0.0540163
-0.0540044
-0.0539891
-0.0539697
-0.0539456
-0.0539169
-0.0538837
-0.0538467
-0.0538064
-0.0537634
-0.0537179
-0.0536697
-0.0536173
-0.053559
-0.0534921
-0.0534138
-0.0533213
-0.0532128
-0.0530877
-0.0529472
-0.0527944
-0.0526341
-0.0524719
-0.0523139
-0.0521651
-0.0520279
-0.0519019
-0.0517839
-0.0545367
-0.0544021
-0.0542752
-0.0541991
-0.0541563
-0.0541269
-0.0541029
-0.0540814
-0.0540603
-0.0540377
-0.0540125
-0.0539837
-0.0539511
-0.0539147
-0.0538751
-0.0538327
-0.0537882
-0.0537417
-0.0536927
-0.0536399
-0.0535812
-0.053514
-0.0534352
-0.0533423
-0.0532333
-0.0531076
-0.0529666
-0.0528134
-0.0526527
-0.05249
-0.052331
-0.0521805
-0.0520411
-0.0519126
-0.0517918
-0.055447
-0.0547856
-0.0544047
-0.0542621
-0.0541948
-0.0541479
-0.054115
-0.05409
-0.0540667
-0.0540422
-0.0540153
-0.053985
-0.0539511
-0.0539136
-0.0538729
-0.0538295
-0.0537841
-0.0537365
-0.0536864
-0.0536323
-0.0535723
-0.0535039
-0.0534244
-0.0533312
-0.0532224
-0.0530975
-0.0529577
-0.0528058
-0.0526464
-0.0524844
-0.0523252
-0.0521729
-0.0520295
-0.0518947
-0.0517653
-0.0571314
-0.0550213
-0.054216
-0.0541424
-0.0541109
-0.0540506
-0.0540153
-0.0540008
-0.0539877
-0.0539702
-0.0539488
-0.0539238
-0.0538945
-0.0538609
-0.0538233
-0.0537824
-0.0537386
-0.0536919
-0.0536419
-0.0535873
-0.0535262
-0.0534562
-0.0533746
-0.0532792
-0.0531685
-0.0530421
-0.0529012
-0.0527484
-0.0525875
-0.052423
-0.0522592
-0.0520993
-0.0519449
-0.0517951
-0.0516469
-0.0559321
-0.0544031
-0.053841
-0.0539559
-0.0540197
-0.0539724
-0.0539358
-0.0539287
-0.0539234
-0.053909
-0.0538882
-0.0538632
-0.0538339
-0.0537997
-0.053761
-0.0537182
-0.0536717
-0.0536214
-0.0535665
-0.0535057
-0.053437
-0.0533583
-0.0532674
-0.0531623
-0.0530418
-0.0529055
-0.0527544
-0.0525907
-0.0524174
-0.052238
-0.0520559
-0.0518733
-0.0516907
-0.051507
-0.0513186
-0.0557882
-0.0548799
-0.0541994
-0.0540295
-0.0539724
-0.0538812
-0.0538117
-0.0537844
-0.0537723
-0.0537568
-0.0537362
-0.0537118
-0.0536831
-0.053649
-0.0536087
-0.0535626
-0.0535106
-0.0534525
-0.0533874
-0.0533139
-0.0532301
-0.0531342
-0.0530243
-0.0528987
-0.0527563
-0.0525968
-0.0524208
-0.0522297
-0.0520258
-0.0518115
-0.0515888
-0.051359
-0.0511218
-0.0508754
-0.0506162
-0.0546278
-0.0541967
-0.0537464
-0.053583
-0.0535692
-0.0535524
-0.0535262
-0.0535153
-0.0535134
-0.0535066
-0.0534907
-0.0534671
-0.0534363
-0.0533971
-0.0533489
-0.0532917
-0.0532255
-0.0531498
-0.0530638
-0.0529659
-0.0528544
-0.0527278
-0.0525844
-0.0524228
-0.0522421
-0.0520417
-0.0518216
-0.0515827
-0.0513262
-0.0510532
-0.0507649
-0.0504614
-0.0501418
-0.0498039
-0.0494442
-0.0535909
-0.053488
-0.0532885
-0.0531839
-0.0531711
-0.0531676
-0.0531514
-0.0531387
-0.0531331
-0.0531255
-0.0531098
-0.0530847
-0.0530499
-0.0530039
-0.0529457
-0.052875
-0.0527912
-0.0526936
-0.0525811
-0.0524522
-0.0523055
-0.0521396
-0.0519531
-0.051745
-0.051514
-0.0512595
-0.0509811
-0.0506788
-0.0503531
-0.0500042
-0.0496324
-0.0492369
-0.0488165
-0.048369
-0.0478912
-0.0525004
-0.052536
-0.0524892
-0.0524613
-0.0524822
-0.0525188
-0.0525487
-0.0525738
-0.0525966
-0.052612
-0.0526144
-0.0526013
-0.0525719
-0.0525255
-0.0524614
-0.0523792
-0.0522782
-0.0521577
-0.0520167
-0.0518542
-0.051669
-0.0514601
-0.0512265
-0.0509669
-0.0506803
-0.0503658
-0.0500227
-0.0496508
-0.0492497
-0.0488191
-0.0483584
-0.0478668
-0.0473427
-0.046784
-0.0461883
-0.0514257
-0.0515582
-0.0516412
-0.0517173
-0.0518072
-0.0518996
-0.0519796
-0.0520443
-0.052095
-0.05213
-0.0521458
-0.0521404
-0.0521131
-0.0520638
-0.0519919
-0.0518968
-0.0517779
-0.0516345
-0.0514658
-0.0512712
-0.0510497
-0.0508005
-0.0505226
-0.0502149
-0.0498764
-0.0495062
-0.0491034
-0.0486674
-0.0481976
-0.0476932
-0.0471534
-0.0465771
-0.0459628
-0.045309
-0.0446137
-0.0504984
-0.0507021
-0.0508772
-0.0510366
-0.0511889
-0.0513307
-0.0514544
-0.0515569
-0.0516376
-0.0516957
-0.051729
-0.0517361
-0.0517164
-0.0516697
-0.0515955
-0.0514934
-0.0513627
-0.0512032
-0.0510144
-0.0507959
-0.0505471
-0.0502672
-0.0499554
-0.0496108
-0.0492326
-0.0488198
-0.0483717
-0.0478874
-0.0473663
-0.0468073
-0.0462097
-0.0455723
-0.044894
-0.0441737
-0.0434103
-0.0498483
-0.0500976
-0.0503311
-0.0505485
-0.0507502
-0.0509334
-0.0510935
-0.0512275
-0.051334
-0.051412
-0.0514604
-0.0514784
-0.0514656
-0.0514218
-0.0513469
-0.0512406
-0.0511028
-0.0509335
-0.0507325
-0.0504993
-0.0502336
-0.0499348
-0.0496023
-0.0492353
-0.0488332
-0.0483952
-0.0479206
-0.0474084
-0.0468579
-0.0462682
-0.0456385
-0.0449679
-0.0442556
-0.0435008
-0.0427029
-0.0494704
-0.0497583
-0.0500346
-0.0502934
-0.0505307
-0.0507431
-0.0509275
-0.0510817
-0.0512044
-0.0512948
-0.0513525
-0.0513771
-0.0513687
-0.0513272
-0.0512527
-0.0511454
-0.0510053
-0.0508325
-0.0506268
-0.050388
-0.0501158
-0.0498098
-0.0494696
-0.0490944
-0.0486838
-0.048237
-0.0477532
-0.0472316
-0.0466716
-0.0460722
-0.0454328
-0.0447526
-0.0440309
-0.0432672
-0.0424611
-0.0494026
-0.0496982
-0.0499851
-0.0502553
-0.050503
-0.0507245
-0.0509169
-0.0510783
-0.0512072
-0.0513029
-0.051365
-0.0513933
-0.0513879
-0.0513488
-0.0512763
-0.0511705
-0.0510315
-0.0508594
-0.0506542
-0.0504156
-0.0501435
-0.0498376
-0.0494974
-0.0491224
-0.0487119
-0.0482654
-0.047782
-0.047261
-0.0467018
-0.0461034
-0.0454652
-0.0447866
-0.0440668
-0.0433054
-0.0425021
-0.0515684
-0.051387
-0.0511916
-0.0509808
-0.0507541
-0.0505118
-0.0502554
-0.049987
-0.0497092
-0.0494248
-0.051546
-0.0513659
-0.0511724
-0.0509641
-0.0507402
-0.0505008
-0.0502465
-0.0499787
-0.0496992
-0.0494101
-0.0515401
-0.0513672
-0.0511816
-0.0509807
-0.0507626
-0.0505257
-0.0502695
-0.0499944
-0.049702
-0.0493957
-0.051554
-0.0513961
-0.0512259
-0.0510385
-0.0508288
-0.0505928
-0.0503283
-0.0500354
-0.0497175
-0.0493812
-0.0515894
-0.0514507
-0.0512984
-0.0511239
-0.0509194
-0.0506791
-0.0504005
-0.0500855
-0.0497407
-0.0493776
-0.0516365
-0.0515107
-0.0513682
-0.0511987
-0.0509932
-0.0507464
-0.0504569
-0.0501287
-0.0497713
-0.0493992
-0.0516677
-0.0515443
-0.0514034
-0.0512346
-0.0510296
-0.0507833
-0.0504947
-0.0501681
-0.0498132
-0.0494445
-0.0516726
-0.0515464
-0.0514034
-0.0512334
-0.0510284
-0.0507834
-0.0504974
-0.0501747
-0.0498244
-0.0494594
-0.0516357
-0.0514978
-0.0513424
-0.0511605
-0.0509447
-0.0506905
-0.0503971
-0.0500681
-0.0497111
-0.0493373
-0.0514945
-0.0513308
-0.0511473
-0.0509359
-0.0506902
-0.0504059
-0.0500821
-0.0497218
-0.0493309
-0.0489179
-0.0511203
-0.0509053
-0.0506662
-0.0503959
-0.0500882
-0.0497396
-0.0493489
-0.048918
-0.0484509
-0.0479534
-0.0503394
-0.0500388
-0.049708
-0.0493407
-0.0489319
-0.0484783
-0.0479785
-0.0474331
-0.0468447
-0.0462167
-0.0490584
-0.0486413
-0.0481875
-0.0476919
-0.0471505
-0.0465602
-0.0459198
-0.0452291
-0.0444895
-0.0437029
-0.0473794
-0.0468297
-0.0462377
-0.0455998
-0.0449127
-0.0441743
-0.0433835
-0.04254
-0.0416449
-0.0406995
-0.0455527
-0.0448744
-0.0441503
-0.0433781
-0.0425556
-0.0416814
-0.0407553
-0.0397774
-0.0387488
-0.0376712
-0.0438752
-0.0430917
-0.0422613
-0.0413827
-0.0404551
-0.039478
-0.0384519
-0.0373777
-0.0362571
-0.0350922
-0.0426026
-0.0417498
-0.040851
-0.039906
-0.0389147
-0.0378777
-0.0367961
-0.0356714
-0.0345061
-0.0333028
-0.0418613
-0.0409757
-0.0400461
-0.0390727
-0.0380561
-0.0369973
-0.0358981
-0.0347603
-0.0335867
-0.0323803
-0.0416124
-0.0407209
-0.0397869
-0.0388109
-0.0377937
-0.0367366
-0.0356413
-0.0345099
-0.0333451
-0.0321501
-0.0416565
-0.0407688
-0.039839
-0.0388678
-0.037856
-0.0368048
-0.0357158
-0.0345911
-0.0334333
-0.0322453
-0.0491359
-0.0488436
-0.0485474
-0.048245
-0.0479321
-0.0476025
-0.0472491
-0.0468639
-0.0464389
-0.045967
-0.0454421
-0.0448584
-0.0442097
-0.0434868
-0.0426762
-0.041759
-0.04071
-0.0394989
-0.0380917
-0.0364513
-0.0345394
-0.0323195
-0.0297643
-0.0268607
-0.0235995
-0.0199728
-0.0160052
-0.0117587
-0.00731211
-0.00275974
0.00178915
0.00620967
0.0103687
0.0141325
0.0173728
-0.0491136
-0.0488117
-0.0485052
-0.0481934
-0.0478732
-0.0475392
-0.047184
-0.0467996
-0.0463782
-0.0459125
-0.0453955
-0.0448198
-0.0441777
-0.0434594
-0.042653
-0.0417438
-0.0407141
-0.0395416
-0.0381987
-0.0366498
-0.0348503
-0.0327485
-0.0302918
-0.0274428
-0.0241946
-0.0205655
-0.0165947
-0.0123447
-0.00789636
-0.00334493
0.00119778
0.0056096
0.0097689
0.0135412
0.0167988
-0.0490799
-0.0487603
-0.0484416
-0.0481264
-0.0478136
-0.0474975
-0.0471694
-0.0468181
-0.0464307
-0.0459935
-0.0454926
-0.0449175
-0.0442646
-0.0435362
-0.0427353
-0.0418603
-0.0409001
-0.0398284
-0.0386018
-0.0371616
-0.0354429
-0.0333863
-0.0309582
-0.0281367
-0.0249081
-0.021285
-0.0173241
-0.0130993
-0.00868497
-0.00417143
0.000329857
0.00469169
0.00878248
0.0124746
0.0156482
-0.0490361
-0.048694
-0.0483658
-0.0480582
-0.0477706
-0.0474946
-0.047216
-0.0469158
-0.046572
-0.0461619
-0.0456666
-0.0450791
-0.0444093
-0.0436759
-0.0428922
-0.0420576
-0.0411532
-0.0401387
-0.038956
-0.0375443
-0.035856
-0.0338381
-0.0314422
-0.0286516
-0.0254626
-0.0218934
-0.0179926
-0.0138315
-0.00949253
-0.00507202
-0.000683696
0.00354656
0.0074908
0.0110263
0.0140392
-0.0490114
-0.0486591
-0.0483357
-0.0480485
-0.0477928
-0.047554
-0.0473114
-0.0470395
-0.0467113
-0.0463031
-0.0458006
-0.0452053
-0.0445377
-0.0438204
-0.0430593
-0.0422454
-0.0413569
-0.0403531
-0.0391778
-0.0377709
-0.0360793
-0.0340555
-0.0316638
-0.0288893
-0.0257339
-0.0222206
-0.0183998
-0.0143443
-0.0101412
-0.00588957
-0.00170198
0.00230063
0.00599697
0.00927272
0.0120254
-0.0490298
-0.0486811
-0.0483674
-0.048093
-0.0478487
-0.0476178
-0.0473794
-0.0471088
-0.0467805
-0.0463739
-0.0458785
-0.0452971
-0.0446443
-0.0439341
-0.0431678
-0.042335
-0.0414137
-0.0403659
-0.03914
-0.037682
-0.0359433
-0.0338842
-0.0314762
-0.0287086
-0.0255904
-0.0221522
-0.0184479
-0.0145518
-0.010553
-0.00655176
-0.00265687
0.00101892
0.00436627
0.00728601
0.00969404
-0.0490783
-0.0487312
-0.0484153
-0.0481342
-0.0478807
-0.047639
-0.0473884
-0.0471052
-0.0467656
-0.0463502
-0.0458481
-0.0452593
-0.0445917
-0.0438533
-0.0430433
-0.0421499
-0.0411511
-0.0400129
-0.0386906
-0.0371375
-0.0353127
-0.0331853
-0.0307369
-0.0279667
-0.0248929
-0.0215544
-0.0180097
-0.0143352
-0.0106195
-0.00695885
-0.00345333
-0.000201313
0.00270647
0.00519253
0.00719659
-0.0490945
-0.0487436
-0.0484166
-0.048116
-0.0478346
-0.0475578
-0.0472662
-0.0469381
-0.0465516
-0.0460889
-0.045539
-0.0448988
-0.0441707
-0.0433572
-0.0424545
-0.0414498
-0.0403221
-0.039042
-0.037574
-0.0358826
-0.0339384
-0.0317228
-0.0292307
-0.026473
-0.0234779
-0.0202914
-0.0169754
-0.0136049
-0.0102629
-0.00703537
-0.004007
-0.00125596
0.00115069
0.00316108
0.00474101
-0.0489585
-0.0485856
-0.0482257
-0.0478793
-0.0475394
-0.0471925
-0.0468208
-0.0464043
-0.0459236
-0.0453622
-0.0447089
-0.0439581
-0.0431082
-0.0421578
-0.0411014
-0.0399274
-0.0386186
-0.0371537
-0.035509
-0.0336626
-0.0315992
-0.0293141
-0.0268151
-0.0241241
-0.0212772
-0.0183243
-0.0153259
-0.0123503
-0.00946867
-0.00675074
-0.00426027
-0.0020514
-0.000165351
0.00137175
0.0025498
-0.0484918
-0.0480599
-0.0476262
-0.0471895
-0.0467428
-0.0462736
-0.045766
-0.0452025
-0.0445659
-0.043842
-0.0430203
-0.0420948
-0.0410625
-0.039921
-0.0386661
-0.0372903
-0.0357834
-0.0341336
-0.0323298
-0.0303639
-0.0282344
-0.025949
-0.0235262
-0.0209951
-0.0183951
-0.015774
-0.0131851
-0.0106844
-0.00832574
-0.00615828
-0.00422257
-0.0025484
-0.00115321
-4.1459e-05
0.000794739
-0.0474314
-0.0468892
-0.0463285
-0.0457471
-0.0451381
-0.0444909
-0.0437918
-0.0430268
-0.0421824
-0.0412476
-0.0402148
-0.0390795
-0.0378402
-0.0364962
-0.0350467
-0.0334901
-0.0318238
-0.0300462
-0.0281574
-0.026161
-0.0240665
-0.0218902
-0.0196559
-0.0173945
-0.0151421
-0.0129389
-0.0108257
-0.00884174
-0.00702173
-0.00539329
-0.00397534
-0.00277708
-0.00179787
-0.00102789
-0.000449539
-0.0455526
-0.0448546
-0.0441231
-0.0433555
-0.0425461
-0.0416869
-0.040768
-0.0397797
-0.0387133
-0.0375621
-0.0363225
-0.0349934
-0.033576
-0.0320732
-0.0304888
-0.028827
-0.0270925
-0.0252914
-0.0234322
-0.0215259
-0.0195879
-0.0176374
-0.015698
-0.013796
-0.0119597
-0.0102172
-0.00859427
-0.00711286
-0.00578925
-0.00463296
-0.00364635
-0.00282479
-0.0021575
-0.00162871
-0.00121933
-0.0428715
-0.0419967
-0.0410782
-0.0401145
-0.0391021
-0.0380363
-0.0369116
-0.0357233
-0.0344675
-0.0331425
-0.0317489
-0.0302895
-0.0287692
-0.0271945
-0.0255731
-0.0239134
-0.0222251
-0.0205188
-0.0188064
-0.0171017
-0.0154204
-0.0137797
-0.0121978
-0.0106931
-0.00928274
-0.00798176
-0.00680159
-0.00574945
-0.00482767
-0.00403379
-0.00336082
-0.00279818
-0.00233262
-0.00194944
-0.00163351
-0.0397056
-0.0386644
-0.0375767
-0.0364423
-0.0352605
-0.0340303
-0.0327507
-0.0314215
-0.0300436
-0.0286196
-0.027154
-0.025653
-0.0241242
-0.0225766
-0.02102
-0.0194647
-0.0179218
-0.0164025
-0.0149184
-0.0134816
-0.0121038
-0.0107964
-0.00957015
-0.00843371
-0.00739386
-0.00645455
-0.00561671
-0.00487805
-0.00423348
-0.00367546
-0.00319472
-0.00278094
-0.00242358
-0.00211243
-0.00183801
-0.0365465
-0.0353767
-0.034164
-0.0329103
-0.0316175
-0.030288
-0.0289245
-0.0275305
-0.0261106
-0.0246706
-0.0232173
-0.0217589
-0.0203043
-0.0188628
-0.0174441
-0.016058
-0.0147136
-0.01342
-0.0121855
-0.0110174
-0.00992177
-0.00890367
-0.00796616
-0.0071106
-0.00633633
-0.0056409
-0.00502007
-0.00446814
-0.00397835
-0.00354342
-0.00315591
-0.0028087
-0.00249528
-0.00220983
-0.00194721
-0.0338859
-0.0326411
-0.0313612
-0.0300502
-0.0287121
-0.0273516
-0.0259738
-0.0245846
-0.0231907
-0.0217991
-0.0204178
-0.0190549
-0.0177186
-0.016417
-0.0151579
-0.0139482
-0.0127942
-0.011701
-0.0106728
-0.00971231
-0.00882092
-0.00799876
-0.00724458
-0.00655589
-0.00592912
-0.00535994
-0.00484342
-0.00437433
-0.00394737
-0.00355747
-0.00319992
-0.00287062
-0.00256597
-0.00228285
-0.0020184
-0.032065
-0.0307964
-0.0295017
-0.0281855
-0.0268532
-0.0255106
-0.0241642
-0.0228203
-0.0214861
-0.0201687
-0.0188755
-0.0176132
-0.0163887
-0.0152077
-0.0140757
-0.0129967
-0.0119744
-0.0110106
-0.010107
-0.00926335
-0.00847898
-0.00775196
-0.00707993
-0.00645965
-0.00588777
-0.00536055
-0.00487443
-0.00442564
-0.00401078
-0.00362654
-0.00326991
-0.00293836
-0.0026297
-0.00234169
-0.00207214
-0.0311449
-0.0298847
-0.0286044
-0.0273092
-0.0260047
-0.0246969
-0.023392
-0.0220966
-0.020817
-0.0195597
-0.0183307
-0.0171359
-0.0159803
-0.0148683
-0.0138034
-0.0127884
-0.0118252
-0.010915
-0.0100581
-0.00925416
-0.0085018
-0.00779952
-0.00714518
-0.00653646
-0.00597061
-0.00544524
-0.00495785
-0.00450577
-0.00408631
-0.00369695
-0.00333493
-0.0029979
-0.00268377
-0.00239042
-0.00211574
-0.0309285
-0.0296844
-0.0284225
-0.0271477
-0.0258655
-0.0245815
-0.0233017
-0.022032
-0.0207784
-0.0195467
-0.0183424
-0.0171705
-0.0160357
-0.0149418
-0.013892
-0.0128887
-0.0119336
-0.0110279
-0.0101726
-0.00936762
-0.00861232
-0.00790555
-0.00724579
-0.00663117
-0.00605922
-0.0055275
-0.00503367
-0.00457513
-0.00414929
-0.00375367
-0.00338574
-0.00304318
-0.00272385
-0.00242563
-0.00214644
-0.0310308
-0.0297937
-0.0285384
-0.0272699
-0.0259933
-0.0247141
-0.0234382
-0.0221713
-0.0209193
-0.0196879
-0.0184828
-0.0173088
-0.0161708
-0.0150727
-0.0140179
-0.0130091
-0.0120484
-0.0111369
-0.0102755
-0.00946409
-0.00870213
-0.00798853
-0.00732181
-0.00670012
-0.00612119
-0.00558272
-0.00508249
-0.00461801
-0.00418677
-0.00378626
-0.00341402
-0.0030677
-0.00274502
-0.00244375
-0.00216175
0.0200126
0.0219677
0.0231126
0.0233731
0.0226921
0.0210265
0.0182876
0.0145603
0.00927121
0.00458907
0.0194342
0.0213514
0.0224635
0.0226988
0.0219954
0.0203195
0.0175572
0.0138842
0.00838677
0.00466815
0.018197
0.020031
0.02107
0.0212468
0.0205048
0.0188244
0.0160909
0.0125558
0.0071727
0.00444748
0.0164294
0.0181138
0.0190238
0.0191088
0.0183296
0.016685
0.0140912
0.0108181
0.00594286
0.0038221
0.0141688
0.0156353
0.0163761
0.0163622
0.01558
0.0140454
0.0117347
0.00885757
0.00485847
0.00284143
0.0115247
0.0127324
0.0132927
0.0132004
0.0124705
0.011134
0.00923518
0.00686663
0.0039884
0.00164803
0.00867791
0.00961606
0.0100111
0.00988031
0.00926318
0.00819779
0.00678906
0.00498983
0.00327432
0.000459312
0.00587503
0.00656577
0.00683358
0.00671127
0.00625257
0.00549526
0.00457741
0.00333987
0.00261487
-0.000485324
0.00337433
0.0038648
0.00405332
0.00397899
0.00369685
0.00323796
0.00273999
0.00199231
0.00193785
-0.00102289
0.00137429
0.00172461
0.00188016
0.00187692
0.00176076
0.00155171
0.00136149
0.000988232
0.00125789
-0.00113276
-3.93361e-05
0.000229761
0.000386698
0.000458543
0.000475955
0.000449212
0.000449661
0.000327299
0.000659144
-0.000939024
-0.000908429
-0.000675119
-0.000499515
-0.000365171
-0.000255535
-0.000168189
-6.69437e-05
-4.32867e-05
0.000226388
-0.000633977
-0.00137024
-0.0011464
-0.000950665
-0.000774669
-0.000611591
-0.000462294
-0.000314851
-0.000214669
-2.12054e-05
-0.000371663
-0.00159187
-0.00136675
-0.00115673
-0.00095773
-0.000767383
-0.00058781
-0.000418663
-0.00028104
-0.00013442
-0.000211425
-0.00170289
-0.00147284
-0.00125357
-0.00104259
-0.000839019
-0.000645145
-0.000465114
-0.000311125
-0.000185862
-0.000141475
-0.00176982
-0.00153428
-0.00130914
-0.00109243
-0.00088366
-0.00068477
-0.000499969
-0.000339121
-0.000217932
-0.000127433
-0.00181871
-0.00157889
-0.00135033
-0.0011315
-0.000922103
-0.000723079
-0.000536738
-0.000372266
-0.000247694
-0.000133672
-0.00185762
-0.00161388
-0.00138276
-0.00116335
-0.000955587
-0.000759347
-0.000575071
-0.000409503
-0.000274188
-0.000134109
-0.00188427
-0.00163734
-0.00140436
-0.00118486
-0.000978831
-0.000785699
-0.000604816
-0.000439471
-0.000293293
-0.000131536
-0.00189704
-0.00164802
-0.00141369
-0.00119381
-0.000988552
-0.000797612
-0.000620073
-0.000456622
-0.000305157
-0.000129921
)
;

boundaryField
{
    inlet
    {
        type            zeroGradient;
    }
    outlet
    {
        type            fixedValue;
        value           uniform 0;
    }
    upperWall
    {
        type            zeroGradient;
    }
    lowerWall
    {
        type            zeroGradient;
    }
    frontAndBack
    {
        type            empty;
    }
}


// ************************************************************************* //
