/*--------------------------------*- C++ -*----------------------------------*\
| =========                 |                                                 |
| \\      /  F ield         | OpenFOAM: The Open Source CFD Toolbox           |
|  \\    /   O peration     | Version:  2406                                  |
|   \\  /    A nd           | Website:  www.openfoam.com                      |
|    \\/     M anipulation  |                                                 |
\*---------------------------------------------------------------------------*/
FoamFile
{
    version     2.0;
    format      ascii;
    arch        "LSB;label=32;scalar=64";
    class       surfaceScalarField;
    location    "124";
    object      phi;
}
// * * * * * * * * * * * * * * * * * * * * * * * * * * * * * * * * * * * * * //

dimensions      [0 3 -1 0 0 0 0];

oriented        oriented;

internalField   nonuniform List<scalar> 
3680
(
0.019286
-0.000286031
0.019701
-0.000414936
0.0201371
-0.00043614
0.0205729
-0.000435827
0.0210047
-0.000431712
0.0214307
-0.000426068
0.0218534
-0.000422677
0.0222842
-0.000430811
0.0227133
-0.000429104
-0.000628951
0.0233423
0.0508706
-0.000156665
0.0507925
-0.000336846
0.0507793
-0.000422908
0.0508185
-0.000474997
0.050906
-0.000519233
0.0510401
-0.000560164
0.0512198
-0.000602413
0.0514451
-0.000656048
0.0517475
-0.00073156
-0.000867161
0.0519858
0.0749427
-9.93193e-05
0.0748627
-0.0002569
0.0747999
-0.000360114
0.0747604
-0.000435471
0.0747455
-0.00050437
0.0747583
-0.00057295
0.0748004
-0.000644502
0.0748697
-0.000725375
0.074959
-0.000820828
-0.00093732
0.0750292
0.0909683
-6.76486e-05
0.0908975
-0.000186068
0.0908194
-0.000282005
0.0907482
-0.000364226
0.0906877
-0.00044394
0.0906405
-0.000525682
0.0906074
-0.000611475
0.0905863
-0.000704216
0.0905715
-0.000806089
-0.00091774
0.090552
0.0989728
-4.04966e-05
0.0989019
-0.000115148
0.0988101
-0.000190216
0.0987131
-0.000267128
0.0986161
-0.000347004
0.0985214
-0.000430928
0.0984299
-0.000520006
0.0983408
-0.000615088
0.0982508
-0.000716127
-0.000821649
0.0981547
0.0989692
-9.66457e-06
0.0988877
-3.37231e-05
0.0987786
-8.10806e-05
0.098657
-0.000145493
0.0985279
-0.000217954
0.0983933
-0.000296253
0.0982541
-0.000380846
0.0981101
-0.00047104
0.097959
-0.000565079
-0.000660731
0.0977981
0.0909572
3.3088e-05
0.0908553
6.82218e-05
0.0907258
4.84759e-05
0.0905816
-1.28224e-06
0.0904254
-6.17935e-05
0.0902587
-0.000129556
0.0900823
-0.000204451
0.0898955
-0.00028418
0.0896963
-0.00036586
-0.000447214
0.0894827
0.074924
0.000109115
0.0747936
0.000198653
0.0746471
0.000194973
0.0744885
0.000157258
0.0743172
0.000109561
0.0741338
5.37954e-05
0.073938
-8.63956e-06
0.0737278
-7.3938e-05
0.073501
-0.000139076
-0.000202339
0.0732562
0.0508454
0.000263721
0.0507004
0.000343622
0.0505758
0.000319632
0.0504569
0.000276157
0.0503374
0.000229111
0.0502124
0.000178769
0.0500766
0.00012718
0.0499254
7.72865e-05
0.0497557
3.06143e-05
-1.26624e-05
0.049566
0.0192637
0.0196074
0.019927
0.0202032
0.0204323
0.020611
0.0207382
0.0208155
0.0208461
0.0208335
-1.70726e-05
1.70801e-05
-7.41628e-05
5.71079e-05
-0.000156086
8.19394e-05
-0.000247817
9.17456e-05
-0.000342398
9.45921e-05
-0.000437443
9.50532e-05
-0.000532301
9.48618e-05
-0.000626777
9.44764e-05
-0.000720742
9.39606e-05
-0.000814079
9.33292e-05
-0.000906719
9.26321e-05
-0.000998675
9.195e-05
-0.00109004
9.13694e-05
-0.001181
9.09634e-05
-0.00127174
9.07707e-05
-0.00136248
9.0782e-05
-0.00145335
9.09283e-05
-0.00154435
9.10815e-05
-0.00163533
9.1071e-05
-0.00172594
9.07072e-05
-0.00181567
8.98257e-05
-0.00190391
8.83219e-05
-0.00199005
8.61914e-05
-0.00207359
8.35518e-05
-0.00215428
8.06457e-05
-0.0022322
7.78372e-05
-0.0023079
7.55607e-05
-0.00238235
7.42884e-05
-0.00245696
7.44434e-05
-0.00253347
7.63447e-05
-0.00261371
8.01087e-05
-0.00269936
8.55859e-05
-0.00279169
9.23393e-05
-0.00289126
9.96447e-05
0.000106596
-0.00299769
-8.14155e-05
9.85138e-05
-0.000242383
0.000218116
-0.000444653
0.000284246
-0.000662311
0.000309434
-0.000883069
0.000315373
-0.00110225
0.000314253
-0.00131833
0.000310945
-0.00153082
0.00030696
-0.00173956
0.000302697
-0.00194458
0.000298333
-0.00214602
0.000294061
-0.00234417
0.00029009
-0.0025394
0.000286615
-0.00273216
0.000283759
-0.00292287
0.000281549
-0.00311186
0.000279876
-0.0032993
0.000278494
-0.00348509
0.000277039
-0.00366892
0.000275069
-0.00385019
0.000272159
-0.00402819
0.000267974
-0.00420215
0.000262395
-0.00437147
0.000255562
-0.00453588
0.000247938
-0.00469563
0.00024028
-0.00485156
0.000233568
-0.00500515
0.000228901
-0.00515845
0.000227298
-0.00531385
0.000229577
-0.00547386
0.000236118
-0.00564067
0.000246785
-0.0058159
0.000260776
-0.00600016
0.000276694
-0.00619295
0.000292656
0.00030656
-0.00639261
-0.000162059
0.00026059
-0.000440333
0.000496429
-0.000762777
0.000606724
-0.00109495
0.000641632
-0.00142322
0.00064367
-0.00174296
0.000634012
-0.00205293
0.000620918
-0.00235305
0.000607086
-0.00264372
0.000593359
-0.00292552
0.000580123
-0.00319917
0.000567699
-0.00346547
0.000556384
-0.00372525
0.000546405
-0.00397932
0.00053786
-0.00422839
0.000530665
-0.00447297
0.000524529
-0.00471332
0.000518951
-0.00494943
0.000513263
-0.00518096
0.000506738
-0.00540738
0.000498703
-0.005628
0.000488718
-0.00584222
0.000476697
-0.00604965
0.00046303
-0.00625032
0.000448597
-0.00644485
0.000434728
-0.00663445
0.000423058
-0.00682101
0.000415279
-0.00700678
0.000412902
-0.00719429
0.000416914
-0.00738589
0.000427592
-0.00758345
0.000444262
-0.00778797
0.0004653
-0.00799941
0.000488193
-0.00821651
0.000509887
0.000527234
-0.00843701
-0.000251528
0.000512136
-0.000647628
0.000892566
-0.00107779
0.00103692
-0.00150105
0.00106492
-0.00190557
0.00104822
-0.00228921
0.00101767
-0.00265269
0.000984407
-0.00299753
0.000951939
-0.00332545
0.000921269
-0.00363808
0.000892754
-0.00393702
0.000866631
-0.00422374
0.0008431
-0.0044996
0.000822279
-0.00476585
0.000804132
-0.00502355
0.000788401
-0.00527353
0.000774567
-0.00551636
0.000761851
-0.00575228
0.000749282
-0.00598127
0.000735822
-0.00620301
0.000720543
-0.00641704
0.00070284
-0.00662289
0.000682609
-0.00682021
0.000660384
-0.00700898
0.000637357
-0.0071896
0.000615311
-0.00736302
0.000596399
-0.00753066
0.000582829
-0.00769435
0.000576482
-0.00785604
0.00057851
-0.00801757
0.000589057
-0.00818038
0.000607026
-0.00834516
0.000630085
-0.00851173
0.000654789
-0.00867889
0.000677093
0.00069298
-0.00884458
-0.000347331
0.000859483
-0.000847648
0.00139292
-0.00135303
0.00154233
-0.00182316
0.00153508
-0.00225306
0.00147815
-0.00264598
0.0014106
-0.00300646
0.00134491
-0.00333882
0.00128431
-0.00364676
0.00122922
-0.00393335
0.00117935
-0.00420113
0.00113442
-0.00445226
0.00109423
-0.00468859
0.00105861
-0.00491173
0.00102728
-0.0051231
0.000999784
-0.00532389
0.000975382
-0.00551506
0.000953053
-0.00569729
0.00093155
-0.00587094
0.000909513
-0.00603605
0.000885714
-0.00619242
0.000859255
-0.0063396
0.000829853
-0.0064771
0.000797947
-0.00660449
0.000764793
-0.0067215
0.000732371
-0.00682822
0.000703143
-0.00692509
0.000679722
-0.00701294
0.000664323
-0.00709284
0.000658401
-0.00716597
0.000662139
-0.00723336
0.000674377
-0.00729573
0.000692388
-0.00735314
0.000712118
-0.00740484
0.000728714
0.000737465
-0.00744944
-0.000449062
0.00130856
-0.00102142
0.00196531
-0.00153969
0.00206064
-0.00198241
0.00197783
-0.00236072
0.00185648
-0.00268661
0.00173652
-0.00296983
0.00162816
-0.00321814
0.00153265
-0.00343744
0.00144853
-0.00363208
0.00137401
-0.00380533
0.00130767
-0.00395969
0.00124859
-0.0040972
0.00119611
-0.00421955
0.00114963
-0.00432824
0.00110845
-0.00442458
0.0010717
-0.00450975
0.0010382
-0.00458473
0.00100652
-0.00465028
0.000975074
-0.00470688
0.000942332
-0.00475466
0.000907099
-0.00479347
0.000868758
-0.00482287
0.000827463
-0.00484214
0.000784213
-0.00485043
0.000740816
-0.00484683
0.000699718
-0.00483058
0.000663583
-0.00480102
0.000634868
-0.00475781
0.000615202
-0.00470077
0.000605071
-0.00463001
0.000603488
-0.00454579
0.000607977
-0.00444811
0.00061419
-0.00433625
0.000616562
0.000610191
-0.00420924
-0.000556478
0.00186505
-0.00113207
0.00254094
-0.001546
0.0024746
-0.00183824
0.00227009
-0.00205092
0.0020692
-0.00220595
0.00189159
-0.00231695
0.0017392
-0.00239414
0.00160987
-0.00244468
0.0014991
-0.00247328
0.00140263
-0.00248302
0.00131742
-0.00247608
0.00124166
-0.0024541
0.00117412
-0.00241826
0.00111376
-0.0023695
0.00105966
-0.00230864
0.00101081
-0.00223646
0.000965992
-0.00215371
0.000923752
-0.00206114
0.000882502
-0.00195946
0.000840678
-0.0018493
0.000797007
-0.0017312
0.000750773
-0.00160554
0.000701948
-0.00147234
0.000651192
-0.00133119
0.00059986
-0.00118114
0.000549844
-0.00102065
0.000503239
-0.000847592
0.000461903
-0.000659356
0.000426996
-0.00045296
0.00039862
-0.000225259
0.00037565
2.70475e-05
0.000355461
0.000306413
0.000334559
0.000612988
0.000309711
0.000277586
0.000945325
-0.000655359
0.00252043
-0.00103991
0.00292552
-0.00110808
0.0025428
-0.00104115
0.00220319
-0.000920582
0.00194867
-0.000765493
0.00173654
-0.000584879
0.00155863
-0.00038706
0.00141209
-0.000177287
0.00128936
4.19448e-05
0.00118342
0.000269294
0.00109009
0.000504145
0.00100681
0.000746458
0.000931788
0.000996443
0.000863752
0.00125445
0.000801628
0.00152081
0.00074442
0.00179571
0.000691072
0.00207903
0.000640415
0.00237037
0.00059118
0.002669
0.000542086
0.00297403
0.000492037
0.00328452
0.000440359
0.0035998
0.000386775
0.00391972
0.000331371
0.00424497
0.000274709
0.00457714
0.00021775
0.0049188
0.00016165
0.00527326
0.000107474
0.00564434
5.59252e-05
0.0060358
7.1484e-06
0.00645104
-3.9621e-05
0.00689263
-8.61836e-05
0.00736198
-0.000134856
0.00785975
-0.000188125
-0.000248597
0.00838587
-0.000480634
0.00300107
-4.69977e-06
0.00244961
0.00075217
0.00178596
0.00146706
0.00148834
0.00212605
0.00128971
0.00274906
0.00111355
0.00334399
0.000963729
0.00391536
0.000840749
0.00446779
0.000736946
0.00500545
0.000645775
0.00553172
0.000563821
0.00604932
0.000489197
0.00656057
0.000420523
0.00706758
0.000356733
0.00757222
0.00029697
0.00807615
0.000240473
0.00858075
0.00018647
0.00908705
0.000134127
0.00959571
8.25526e-05
0.0101069
3.08862e-05
0.0106207
-2.16737e-05
0.0111371
-7.59244e-05
0.0116563
-0.000132442
0.0121792
-0.000191405
0.0127066
-0.000252668
0.0132402
-0.000315841
0.0137822
-0.000380408
0.0143356
-0.000445895
0.0149035
-0.000512062
0.0154897
-0.000579078
0.0160977
-0.000647616
0.0167304
-0.000718895
0.0173901
-0.000794596
0.0180787
-0.000876679
-0.000967244
0.0187973
0.00333189
-0.000330803
0.00565521
0.000126309
0.00731849
0.0001227
0.00872082
8.60239e-05
0.0099486
6.19551e-05
0.0110394
2.27218e-05
0.0120313
-2.8165e-05
0.0129528
-8.06977e-05
0.0138217
-0.000131955
0.0146498
-0.000182319
0.0154456
-0.000231947
0.0162154
-0.000280647
0.0169643
-0.000328357
0.0176962
-0.000375191
0.0184145
-0.000421361
0.0191222
-0.000467148
0.0198216
-0.000512932
0.0205149
-0.000559196
0.021204
-0.000606513
0.0218905
-0.000655518
0.0225757
-0.00070683
0.0232608
-0.000760974
0.0239467
-0.000818356
0.0246346
-0.00087923
0.0253256
-0.00094367
0.0260213
-0.00101161
0.0267238
-0.00108291
0.0274353
-0.0011575
0.0281587
-0.00123547
0.0288968
-0.00131718
0.0296525
-0.00140338
0.0304288
-0.00149518
0.0312282
-0.00159401
0.0320531
-0.00170156
-0.0018196
0.0329055
0.0238856
-0.000874166
0.024884
-0.000872021
0.0258606
-0.000853953
0.0268113
-0.000864601
0.0277473
-0.000874039
0.0286545
-0.000884454
0.0295285
-0.000902173
0.0303734
-0.000925577
0.0311932
-0.000951814
0.0319908
-0.000979868
0.0327684
-0.00100954
0.0335284
-0.00104064
0.034273
-0.00107298
0.0350043
-0.00110652
0.0357243
-0.00114135
0.0364348
-0.00117767
0.0371377
-0.00121578
0.0378346
-0.00125606
0.038527
-0.00129895
0.0392165
-0.00134497
0.0399043
-0.00139461
0.0405917
-0.00144832
0.0412798
-0.00150648
0.04197
-0.00156934
0.0426634
-0.00163708
0.0433615
-0.00170978
0.0440661
-0.00178753
0.044779
-0.00187046
0.0455024
-0.00195886
0.0462384
-0.00205325
0.0469894
-0.00215442
0.0477577
-0.00226343
0.0485453
-0.00238157
0.0493541
-0.00251034
-0.00265127
0.0501858
0.0521318
-0.00102017
0.0523648
-0.00110504
0.0526505
-0.00113971
0.0529635
-0.00117758
0.0533086
-0.00121909
0.0536817
-0.00125759
0.0540744
-0.00129486
0.0544815
-0.00133267
0.0549003
-0.0013706
0.0553286
-0.00140819
0.0557646
-0.00144556
0.056207
-0.001483
0.0566547
-0.00152075
0.0571073
-0.00155907
0.0575642
-0.00159829
0.0580254
-0.00163881
0.0584907
-0.00168108
0.0589602
-0.00172561
0.0594342
-0.00177293
0.0599129
-0.0018236
0.0603965
-0.00187815
0.0608853
-0.00193709
0.0613796
-0.00200082
0.06188
-0.00206971
0.0623869
-0.00214402
0.0629011
-0.00222399
0.0634234
-0.00230987
0.0639549
-0.00240197
0.0644968
-0.00250072
0.0650502
-0.00260673
0.0656166
-0.00272079
0.0661971
-0.00284393
0.0667928
-0.00297732
0.0674048
-0.00312224
-0.00328002
0.0680336
0.0750736
-0.00106462
0.0751366
-0.00116798
0.0752344
-0.00123751
0.0753532
-0.00129642
0.075488
-0.0013539
0.0756379
-0.00140746
0.0757999
-0.00145687
0.0759713
-0.00150405
0.0761506
-0.00154992
0.0763371
-0.00159462
0.0765299
-0.00163838
0.0767285
-0.00168159
0.0769324
-0.00172465
0.0771413
-0.00176797
0.077355
-0.00181197
0.0775733
-0.00185713
0.0777962
-0.00190396
0.0780236
-0.00195301
0.0782556
-0.00200484
0.078492
-0.00206003
0.078733
-0.0021191
0.0789785
-0.00218257
0.0792286
-0.00225089
0.0794833
-0.00232443
0.0797429
-0.00240356
0.0800074
-0.00248858
0.0802774
-0.00257984
0.0805531
-0.00267772
0.0808351
-0.00278272
0.0811238
-0.00289544
0.0814197
-0.00301667
0.0817231
-0.0031473
0.0820341
-0.00328834
0.0823528
-0.00344088
-0.00360598
0.0826788
0.0905208
-0.00103349
0.0904904
-0.00113753
0.090474
-0.00122109
0.0904691
-0.00129155
0.0904717
-0.00135647
0.0904811
-0.00141684
0.0904967
-0.00147246
0.0905171
-0.00152445
0.0905411
-0.00157396
0.090568
-0.00162154
0.0905972
-0.00166757
0.0906282
-0.00171253
0.0906605
-0.00175692
0.0906937
-0.00180125
0.0907278
-0.00184603
0.0907625
-0.00189177
0.0907976
-0.00193904
0.0908329
-0.00198837
0.0908685
-0.00204035
0.090904
-0.00209552
0.0909393
-0.00215439
0.0909742
-0.00221746
0.0910085
-0.00228517
0.091042
-0.00235791
0.0910745
-0.00243605
0.0911058
-0.00251993
0.0911359
-0.00260992
0.0911646
-0.0027064
0.0911917
-0.00280986
0.0912171
-0.00292085
0.0912405
-0.00304004
0.0912615
-0.00316819
0.0912793
-0.0033061
0.091293
-0.00345462
-0.00361453
0.0913016
0.0980487
-0.000927444
0.0979371
-0.00102588
0.0978274
-0.00111138
0.0977212
-0.0011854
0.0976169
-0.00125216
0.0975136
-0.00131351
0.0974109
-0.00136976
0.097308
-0.00142159
0.0972041
-0.00147005
0.0970985
-0.00151592
0.0969907
-0.00155977
0.0968804
-0.00160215
0.0967671
-0.00164363
0.0966506
-0.00168476
0.0965306
-0.00172608
0.096407
-0.00176812
0.0962794
-0.00181142
0.0961476
-0.00185652
0.0960112
-0.00190394
0.0958699
-0.00195418
0.0957232
-0.00200771
0.0955708
-0.00206498
0.095412
-0.00212639
0.0952464
-0.0021923
0.0950734
-0.00226305
0.0948925
-0.00233895
0.0947029
-0.00242034
0.0945041
-0.00250756
0.0942952
-0.00260101
0.0940756
-0.00270117
0.0938441
-0.00280853
0.0935996
-0.00292367
0.0933408
-0.00304718
0.0930658
-0.00317963
-0.00332155
0.0927729
0.0976256
-0.000754916
0.0974431
-0.000843416
0.0972545
-0.000922703
0.0970615
-0.000992428
0.096864
-0.00105458
0.0966613
-0.00111082
0.0964533
-0.00116182
0.09624
-0.00120824
0.0960209
-0.00125093
0.0957957
-0.00129073
0.0955642
-0.00132828
0.0953262
-0.00136415
0.0950815
-0.00139889
0.0948298
-0.00143305
0.0945709
-0.00146715
0.0943045
-0.00150167
0.0940302
-0.00153712
0.0937476
-0.00157395
0.0934563
-0.00161262
0.0931558
-0.00165357
0.0928453
-0.00169718
0.0925241
-0.00174384
0.0921916
-0.00179386
0.0918469
-0.00184754
0.091489
-0.00190515
0.091117
-0.00196696
0.0907299
-0.0020332
0.0903265
-0.00210414
0.0899056
-0.00218009
0.0894658
-0.00226134
0.0890056
-0.00234826
0.0885232
-0.00244121
0.0880166
-0.00254053
0.0874836
-0.00264657
-0.00275957
0.0869217
0.0892539
-0.000526053
0.0890103
-0.000599811
0.0887539
-0.000666268
0.0884863
-0.000724801
0.0882081
-0.000776367
0.0879195
-0.000822209
0.0876208
-0.000863135
0.0873123
-0.000899765
0.0869942
-0.000932816
0.0866665
-0.000963019
0.0863292
-0.000991002
0.0859824
-0.0010173
0.0856259
-0.00104241
0.0852597
-0.00106681
0.0848836
-0.00109095
0.0844971
-0.00111524
0.0841002
-0.00114009
0.0836921
-0.00116587
0.0832725
-0.00119295
0.0828406
-0.00122163
0.0823956
-0.00125224
0.0819369
-0.00128502
0.0814632
-0.00132021
0.0809737
-0.00135803
0.0804672
-0.00139864
0.0799425
-0.00144221
0.0793983
-0.0014889
0.078833
-0.00153887
0.0782452
-0.00159228
0.0776332
-0.0016493
0.0769951
-0.00171011
0.0763289
-0.00177487
0.0756322
-0.00184375
0.0749025
-0.00191686
-0.00199424
0.0741373
0.0729926
-0.000262415
0.0727106
-0.000317845
0.0724117
-0.000367335
0.0720974
-0.000410476
0.0717688
-0.000447812
0.0714269
-0.000480231
0.0710722
-0.000508455
0.0707055
-0.000533051
0.0703273
-0.000554597
0.069938
-0.000573687
0.0695378
-0.000590849
0.0691271
-0.000606532
0.0687059
-0.000621136
0.0682741
-0.000635029
0.0678317
-0.000648553
0.0673786
-0.000662021
0.0669142
-0.000675716
0.0664383
-0.000689902
0.0659502
-0.000704813
0.0654493
-0.000720661
0.0649347
-0.000737628
0.0644056
-0.000755873
0.0638609
-0.000775525
0.0632996
-0.000796695
0.0627205
-0.000819468
0.0621222
-0.000843918
0.0615035
-0.000870104
0.0608627
-0.000898084
0.0601984
-0.000927907
0.0595088
-0.000959625
0.0587921
-0.000993279
0.0580462
-0.0010289
0.057269
-0.0010665
0.0564583
-0.00110604
-0.00114745
0.0556116
0.0493558
-5.21327e-05
0.0491249
-8.69253e-05
0.0488741
-0.000116564
0.0486048
-0.000141159
0.0483183
-0.000161289
0.0480158
-0.00017771
0.0476985
-0.000191078
0.0473674
-0.000201922
0.0470235
-0.000210718
0.0466677
-0.000217918
0.0463008
-0.00022391
0.0459233
-0.000229013
0.0455357
-0.000233489
0.0451383
-0.000237571
0.0447313
-0.000241455
0.0443146
-0.000245314
0.0438882
-0.000249291
0.0434519
-0.00025351
0.0430052
-0.00025807
0.0425476
-0.000263057
0.0420786
-0.000268533
0.0415973
-0.000274548
0.0411029
-0.000281134
0.0405946
-0.000288311
0.0400713
-0.000296088
0.0395319
-0.000304464
0.0389752
-0.000313433
0.0384002
-0.000322985
0.0378055
-0.000333105
0.0371897
-0.000343779
0.0365516
-0.000354983
0.0358895
-0.000366689
0.0352019
-0.000378852
0.0344874
-0.000391408
-0.000404269
0.0337444
0.0207814
0.0206945
0.0205779
0.0204367
0.0202755
0.0200978
0.0199067
0.0197048
0.0194941
0.0192762
0.0190523
0.0188233
0.0185898
0.0183523
0.0181108
0.0178655
0.0176163
0.0173628
0.0171047
0.0168417
0.0165732
0.0162987
0.0160175
0.0157293
0.0154332
0.0151288
0.0148154
0.0144924
0.0141593
0.0138156
0.0134607
0.013094
0.0127153
0.0123239
0.0119197
-0.00310969
0.000112213
-0.00322508
0.000115653
-0.00334118
0.000116351
-0.00345516
0.000114197
-0.00356462
0.000109604
-0.00366808
0.00010349
-0.00376538
9.72093e-05
-0.00385797
9.23692e-05
-0.00394895
9.06654e-05
9.36273e-05
-0.00404296
-0.00659644
0.000316438
-0.0068012
0.000320806
-0.00700355
0.000319055
-0.00720076
0.000311663
-0.00739136
0.000300296
-0.00757562
0.000287664
-0.0077559
0.000277195
-0.00793658
0.000272608
-0.00812383
0.000277361
0.00029411
-0.00832489
-0.0086579
0.000537513
-0.00887589
0.000538971
-0.00908795
0.000531256
-0.0092919
0.000515695
-0.00948689
0.000495296
-0.00967372
0.00047443
-0.00985494
0.000458282
-0.0100347
0.00045216
-0.0102181
0.000460626
0.000486708
-0.0104108
-0.00900612
0.000699102
-0.00916054
0.000693415
-0.0093049
0.000675625
-0.00943674
0.000647541
-0.00955441
0.00061297
-0.00965731
0.000577334
-0.0097459
0.000546921
-0.0098217
0.000528018
-0.00988684
0.000525878
0.000543583
-0.00994361
-0.00748495
0.000734514
-0.00750897
0.000717327
-0.00751876
0.000685372
-0.00751155
0.000640302
-0.00748462
0.000586087
-0.00743558
0.000528386
-0.00736228
0.000473762
-0.00726286
0.000428773
-0.00713572
0.000398913
0.000387411
-0.0069794
-0.0040662
0.000591204
-0.00390607
0.000557032
-0.00372776
0.000506966
-0.00352993
0.000442498
-0.00331104
0.000367304
-0.0030692
0.000286734
-0.00280175
0.00020652
-0.00250492
0.000132138
-0.00217373
6.78745e-05
1.57133e-05
-0.00180194
0.00130134
0.000234982
0.00167855
0.000179672
0.00207474
0.000110723
0.0024884
2.88409e-05
0.00291987
-6.41036e-05
0.00337217
-0.000165504
0.00385089
-0.000272155
0.0043639
-0.000380885
0.00492111
-0.000489374
-0.000596896
0.00553364
0.00893959
-0.000318779
0.00951993
-0.000400702
0.0101263
-0.000495628
0.010759
-0.000603896
0.0114198
-0.000724938
0.0121118
-0.000857587
0.0128399
-0.00100036
0.0136107
-0.00115182
0.0144322
-0.00131103
-0.00147812
0.0153133
0.0195469
-0.00106836
0.0203281
-0.00118182
0.0211414
-0.00130898
0.0219882
-0.00145064
0.0228702
-0.00160701
0.0237905
-0.00177788
0.0247528
-0.00196282
0.0257623
-0.00216142
0.0268247
-0.0023736
-0.00259998
0.0279465
0.0337871
-0.00194989
0.0346994
-0.00209404
0.0356437
-0.00225333
0.0366218
-0.00242866
0.0376353
-0.00262054
0.0386866
-0.0028292
0.0397784
-0.00305466
0.0409138
-0.00329699
0.0420966
-0.00355647
-0.00383383
0.0433304
0.0510418
-0.00280588
0.0519234
-0.00297553
0.0528315
-0.00316135
0.053767
-0.00336418
0.054731
-0.00358456
0.0557246
-0.00382278
0.0567489
-0.00407899
0.0578052
-0.00435335
0.0588948
-0.00464614
-0.00495793
0.0600189
0.0686797
-0.00345192
0.0693433
-0.00363907
0.0700244
-0.00384238
0.0707227
-0.00406251
0.0714381
-0.00429988
0.07217
-0.0045547
0.072918
-0.00482704
0.0736816
-0.00511691
0.0744598
-0.00542442
-0.0057498
0.0752517
0.0830116
-0.00378464
0.0833503
-0.00397771
0.0836938
-0.00418585
0.0840409
-0.00440951
0.0843899
-0.00464889
0.0847392
-0.00490402
0.085087
-0.00517476
0.085431
-0.00546091
0.0857688
-0.00576225
-0.00607861
0.0860976
0.0913036
-0.00378655
0.0912972
-0.00397125
0.0912805
-0.00416902
0.0912511
-0.00438003
0.0912065
-0.00460426
0.091144
-0.00484149
0.0910606
-0.00509133
0.090953
-0.0053533
0.0908176
-0.00562684
-0.00591135
0.0906504
0.0924598
-0.00347335
0.0921239
-0.00363533
0.0917626
-0.0038076
0.0913727
-0.00399007
0.0909509
-0.00418248
0.0904939
-0.00438437
0.0899977
-0.00459511
0.0894584
-0.00481396
0.0888717
-0.00504006
-0.00527245
0.0882328
0.0863281
-0.00287971
0.0856999
-0.003007
0.0850337
-0.00314133
0.084326
-0.00328239
0.0835733
-0.00342973
0.0827717
-0.0035827
0.0819172
-0.00374053
0.0810056
-0.00390229
0.0800326
-0.00406697
-0.00423341
0.0789936
0.0733335
-0.00207584
0.0724881
-0.00216152
0.0715979
-0.00225099
0.0706594
-0.00234384
0.0696693
-0.00243952
0.068624
-0.00253735
0.0675201
-0.00263651
0.0663539
-0.00273612
0.0651222
-0.00283518
-0.00293262
0.0638215
0.0547265
-0.00119058
0.0538003
-0.00123521
0.0528304
-0.00128103
0.0518143
-0.00132766
0.0507495
-0.00137462
0.0496337
-0.00142138
0.0484645
-0.0014673
0.0472402
-0.00151174
0.0459591
-0.00155399
-0.00159334
0.0446199
0.0329713
-0.000417321
0.0321666
-0.000430415
0.0313291
-0.000443375
0.0304575
-0.000455995
0.0295511
-0.000468045
0.0286091
-0.00047928
0.0276314
-0.000489446
0.026618
-0.000498292
0.0255697
-0.000505571
-0.00051106
0.0244876
0.0115024
0.0110721
0.0106288
0.0101728
0.00970482
0.00922559
0.00873619
0.00823795
0.00773243
0.00722143
-0.00414575
0.000102407
-0.00426362
0.00011752
-0.00440248
0.000138606
-0.004567
0.000164371
-0.00475978
0.000192771
-0.00498107
0.000221426
-0.005229
0.00024816
-0.00550028
0.000271565
-0.00579151
0.000291501
-0.00610066
0.000309382
-0.00642858
0.000328042
-0.00677964
0.000351095
-0.00716137
0.000381681
-0.00758268
0.000421199
-0.00805133
0.000468495
-0.00857096
0.00051947
-0.00913837
0.000567282
-0.00974161
0.000603128
-0.0103592
0.000617511
-0.0109608
0.000601622
-0.0115094
0.0005486
-0.0119632
0.000454018
-0.0122784
0.000315388
-0.0124134
0.00013537
-0.0123404
-7.25787e-05
-0.0120501
-0.000289826
-0.0115421
-0.00050739
-0.0108171
-0.000724378
-0.00987816
-0.000938227
-0.00873112
-0.00114629
-0.00738455
-0.00134568
-0.00585233
-0.00153123
-0.0041541
-0.00169722
-0.0023089
-0.00184426
-0.00197448
-0.000333469
-0.00854722
0.000324218
-0.0087974
0.000367299
-0.00908007
0.000421052
-0.00939708
0.000481331
-0.00974709
0.00054293
-0.010126
0.000600607
-0.0105277
0.000650295
-0.0109458
0.000690041
-0.0113745
0.000720589
-0.0118102
0.000745301
-0.0122513
0.000769141
-0.012697
0.000796798
-0.0131458
0.000830357
-0.0135927
0.000867868
-0.0140271
0.000902699
-0.0144314
0.000923585
-0.0147803
0.000916032
-0.0150421
0.000864839
-0.0151816
0.000756992
-0.0151634
0.000583499
-0.0149551
0.000340498
-0.014533
3.21409e-05
-0.0138926
-0.000324529
-0.0130443
-0.000712347
-0.0119937
-0.00112244
-0.0107342
-0.00154836
-0.00926162
-0.0019789
-0.00758313
-0.00240171
-0.00570728
-0.00281284
-0.00364456
-0.00320762
-0.0014092
-0.00357947
0.000984589
-0.00392335
0.00352462
-0.00423575
0.00619523
-0.00451353
-0.00475657
0.00897848
-0.0106178
0.000531082
-0.0108423
0.000591703
-0.0110848
0.000663569
-0.0113428
0.000739322
-0.0116103
0.000810383
-0.0118784
0.000868744
-0.0121367
0.000908617
-0.0123741
0.000927461
-0.01258
0.000926501
-0.0127449
0.000910217
-0.0128607
0.00088493
-0.0129197
0.000855733
-0.012913
0.000823642
-0.0128296
0.000784418
-0.0126554
0.000728491
-0.0123728
0.000640973
-0.0119611
0.000504293
-0.0113987
0.000302544
-0.0106677
2.60181e-05
-0.00976144
-0.000322618
-0.00868536
-0.00073533
-0.00744783
-0.001205
-0.0060478
-0.00172407
-0.00447873
-0.00228082
-0.00273936
-0.00286104
-0.000836203
-0.00345059
0.00122428
-0.00403838
0.00344128
-0.00461778
0.00581042
-0.00518118
0.00832312
-0.00571961
0.0109681
-0.00622378
0.0137312
-0.00668588
0.0165958
-0.00709981
0.0195439
-0.00746101
-0.00776822
0.0225561
-0.00999357
0.000581165
-0.0100368
0.000634966
-0.010071
0.000697717
-0.0100911
0.000759216
-0.0100888
0.000807864
-0.0100536
0.000833165
-0.00997333
0.000828043
-0.0098357
0.000789544
-0.00962831
0.000718866
-0.00933952
0.000621322
-0.00895945
0.000504827
-0.00847994
0.000376309
-0.00789346
0.000237314
-0.00719363
8.47328e-05
-0.00637474
-9.02679e-05
-0.0054292
-0.000304463
-0.00434867
-0.000576115
-0.00312818
-0.000917817
-0.00176838
-0.00133354
-0.000269557
-0.00182112
0.00137126
-0.00237572
0.00315327
-0.00298662
0.00507155
-0.00364198
0.0071235
-0.00433247
0.00930906
-0.0050463
0.0116287
-0.00576986
0.0140804
-0.00648981
0.0166574
-0.00719443
0.0193486
-0.00787201
0.0221398
-0.00851053
0.0250149
-0.00909865
0.027956
-0.00962669
0.0309439
-0.0100874
0.0339594
-0.0104762
-0.0107919
0.0369834
-0.00679231
0.00039417
-0.00657227
0.000414925
-0.00631608
0.000441419
-0.00601883
0.000461726
-0.00567211
0.000460829
-0.00526495
0.000425648
-0.00478713
0.000349857
-0.00423003
0.000232093
-0.00358643
7.49517e-05
-0.00285078
-0.000114587
-0.00201888
-0.000327237
-0.00108687
-0.00055575
-5.09184e-05
-0.000798629
0.00109739
-0.00106352
0.00237271
-0.0013655
0.00378634
-0.00171798
0.00534085
-0.00213048
0.00703316
-0.00260994
0.00885869
-0.00315884
0.0108131
-0.00377527
0.0128917
-0.00445402
0.0150921
-0.00518675
0.0174129
-0.00596265
0.01985
-0.00676939
0.022397
-0.00759319
0.025046
-0.00841867
0.0277863
-0.00922999
0.0306039
-0.0100118
0.0334812
-0.0107492
0.0363989
-0.0114281
0.0393364
-0.012036
0.0422726
-0.0125628
0.0451868
-0.0130013
0.0480591
-0.0133483
-0.0136042
0.0508716
-0.00138204
-2.57162e-05
-0.000905402
-6.17661e-05
-0.000361965
-0.000102133
0.00025893
-0.000159307
0.00096299
-0.000243337
0.00174851
-0.000359983
0.00261192
-0.000513654
0.00355098
-0.000707141
0.00456574
-0.000940045
0.00566021
-0.00120932
0.00684392
-0.00151121
0.00813093
-0.00184297
0.0095368
-0.00220464
0.0110741
-0.00260085
0.0127487
-0.00304016
0.014562
-0.00353125
0.0165125
-0.00408082
0.0185957
-0.00469303
0.0208058
-0.00536868
0.0231355
-0.00610483
0.0255769
-0.00689513
0.0281204
-0.00773011
0.0307554
-0.00859747
0.033469
-0.00948278
0.0362459
-0.01037
0.039069
-0.0112417
0.0419192
-0.0120801
0.0447755
-0.012868
0.0476155
-0.0135891
0.0504165
-0.0142291
0.0531564
-0.0147759
0.0558143
-0.0152206
0.0583713
-0.0155582
0.0608108
-0.0157878
-0.0159124
0.063119
0.00621275
-0.000704907
0.00696824
-0.000817321
0.00780662
-0.000940528
0.00872995
-0.0010826
0.00973795
-0.00125126
0.0108306
-0.00145253
0.0120081
-0.00169101
0.0132707
-0.00196978
0.0146207
-0.00229004
0.0160625
-0.00265128
0.0176035
-0.0030523
0.0192525
-0.00349219
0.0210192
-0.00397145
0.022911
-0.0044927
0.0249311
-0.00506026
0.0270782
-0.00567841
0.0293475
-0.00635003
0.0317305
-0.00707589
0.0342158
-0.00785389
0.0367899
-0.00867871
0.0394368
-0.00954184
0.0421387
-0.0104318
0.044876
-0.0113346
0.0476275
-0.0122341
0.0503704
-0.0131128
0.0530812
-0.0139524
0.0557359
-0.0147347
0.0583107
-0.0154427
0.0607826
-0.0160609
0.0631301
-0.0165766
0.0653343
-0.01698
0.0673787
-0.017265
0.0692504
-0.0174299
0.0709397
-0.0174771
-0.017413
0.0724403
0.0162629
-0.00165459
0.0172891
-0.00184357
0.0183983
-0.00204971
0.0195945
-0.0022787
0.0208796
-0.00253632
0.0222549
-0.00282765
0.0237209
-0.0031568
0.0252779
-0.00352674
0.0269271
-0.00393912
0.0286701
-0.00439432
0.0305097
-0.00489194
0.0324488
-0.0054314
0.0344897
-0.00601246
0.0366326
-0.00663561
0.038874
-0.00730175
0.041207
-0.00801136
0.0436206
-0.00876361
0.0461006
-0.00955576
0.0486294
-0.0103826
0.0511872
-0.0112363
0.0537517
-0.0121062
0.0562991
-0.0129791
0.0588046
-0.01384
0.0612428
-0.0146721
0.0635882
-0.015458
0.0658161
-0.0161802
0.0679032
-0.0168217
0.0698281
-0.0173675
0.0715721
-0.0178049
0.0731195
-0.018124
0.0744582
-0.0183187
0.07558
-0.0183869
0.0764806
-0.0183305
0.0771593
-0.0181558
-0.0178728
0.077619
0.0291339
-0.00284209
0.0303928
-0.00310252
0.0317279
-0.00338479
0.0331423
-0.00369307
0.0346378
-0.00403165
0.0362147
-0.0044044
0.0378724
-0.00481443
0.0396097
-0.00526393
0.0414247
-0.00575398
0.043315
-0.0062846
0.045278
-0.00685493
0.0473101
-0.00746358
0.0494066
-0.00810894
0.0515602
-0.00878929
0.0537612
-0.00950269
0.0559963
-0.0102465
0.0582494
-0.0110166
0.0605014
-0.0118076
0.0627307
-0.0126118
0.0649139
-0.0134194
0.0670263
-0.0142184
0.0690426
-0.0149952
0.0709374
-0.0157346
0.0726862
-0.0164208
0.0742659
-0.0170377
0.0756557
-0.0175698
0.0768373
-0.0180032
0.0777959
-0.018326
0.0785202
-0.0185292
0.0790033
-0.018607
0.0792423
-0.0185577
0.0792388
-0.0183834
0.0789983
-0.0180901
0.0785303
-0.0176879