/*--------------------------------*- C++ -*----------------------------------*\
| =========                 |                                                 |
| \\      /  F ield         | OpenFOAM: The Open Source CFD Toolbox           |
|  \\    /   O peration     | Version:  2406                                  |
|   \\  /    A nd           | Website:  www.openfoam.com                      |
|    \\/     M anipulation  |                                                 |
\*---------------------------------------------------------------------------*/
FoamFile
{
    version     2.0;
    format      ascii;
    arch        "LSB;label=32;scalar=64";
    class       surfaceScalarField;
    location    "23";
    object      phi;
}
// * * * * * * * * * * * * * * * * * * * * * * * * * * * * * * * * * * * * * //

dimensions      [0 3 -1 0 0 0 0];

oriented        oriented;

internalField   nonuniform List<scalar> 
3270
(
0.0193215
-0.000321462
0.0196362
-0.00031477
0.0199093
-0.000273119
0.02021
-0.000300656
0.0206037
-0.000393778
0.0211896
-0.000585922
0.0221572
-0.000967638
0.0238901
-0.00173293
0.0273858
-0.00349575
-0.00891897
0.0363047
0.051004
-0.000325438
0.0512503
-0.000561073
0.051628
-0.00065087
0.0521331
-0.000805862
0.0528233
-0.00108404
0.0538011
-0.00156385
0.0552346
-0.00240121
0.0573925
-0.00389088
0.0605545
-0.00665785
-0.0119244
0.0635598
0.0749811
-0.000306592
0.0751014
-0.000681365
0.0753861
-0.000935628
0.0758249
-0.00124476
0.0764428
-0.00170206
0.0772871
-0.00240826
0.0784104
-0.00352457
0.0798212
-0.00530177
0.0812794
-0.00811605
-0.0123966
0.0817515
0.0909686
-0.000275168
0.0909817
-0.00069451
0.0910999
-0.00105392
0.0913254
-0.00147043
0.0916564
-0.00203311
0.0920864
-0.00283836
0.0925785
-0.00401673
0.093013
-0.00573636
0.0930806
-0.0081837
-0.0114623
0.0921463
0.0989408
-0.000215991
0.098848
-0.000601738
0.0987842
-0.00099018
0.0987531
-0.00143951
0.0987344
-0.00201441
0.0986881
-0.0027922
0.0985354
-0.003864
0.0981267
-0.00532772
0.0972043
-0.00726129
-0.00965043
0.0953925
0.0989039
-0.000119951
0.0987134
-0.000411195
0.0984923
-0.000769208
0.098237
-0.00118427
0.0979133
-0.00169076
0.0974654
-0.00234436
0.0968033
-0.00320191
0.0957896
-0.00431397
0.0942335
-0.00570515
-0.00733151
0.0919147
0.090867
1.3076e-05
0.0906122
-0.000156446
0.0902989
-0.00045598
0.089906
-0.000791428
0.0893898
-0.00117461
0.0886904
-0.00164503
0.0877237
-0.00223525
0.0863786
-0.0029688
0.0845229
-0.00384943
-0.00483874
0.0820301
0.0748444
0.000168693
0.0746042
8.37812e-05
0.0743041
-0.000155912
0.0738966
-0.000384047
0.0733384
-0.00061653
0.0725772
-0.000883893
0.0715458
-0.00120389
0.0701639
-0.00158691
0.0683468
-0.00203234
-0.00251835
0.0660264
0.0508863
0.000282392
0.0508058
0.000164314
0.0506405
9.28778e-06
0.0503491
-9.26595e-05
0.0499106
-0.00017808
0.0492938
-0.000267146
0.0484582
-0.000368393
0.0473563
-0.000484973
0.0459407
-0.000616747
-0.000757358
0.0441796
0.0192824
0.0194467
0.019456
0.0193633
0.0191852
0.0189181
0.0185497
0.0180647
0.017448
0.0166906
-0.000131803
0.00013193
-0.000343159
0.000211643
-0.000495966
0.000153073
-0.00051371
1.79708e-05
-0.000373615
-0.000139901
-8.61015e-05
-0.000287345
0.000320762
-0.000406714
0.000812259
-0.000491362
0.00135398
-0.000541592
0.00191563
-0.000561547
0.00247292
-0.000557183
0.00300792
-0.000534914
0.00350887
-0.000500879
0.00396944
-0.000460516
0.00438789
-0.000418416
0.00476622
-0.000378314
0.00510941
-0.000343185
0.00542478
-0.000315386
0.00572157
-0.000296821
0.00601063
-0.00028911
0.00630432
-0.000293737
0.00661643
-0.00031217
0.00696232
-0.000345948
0.00735892
-0.000396664
0.00782473
-0.000465871
0.00837945
-0.000554773
0.00904312
-0.000663713
0.00983436
-0.000791279
0.0107675
-0.000933121
0.0118478
-0.00108037
0.0130661
-0.00121828
0.0143916
-0.00132546
0.0157671
-0.00137555
0.0171095
-0.00134239
-0.00120992
0.0183195
-0.000239701
0.000371908
-0.000564572
0.000537296
-0.00071583
0.000305006
-0.000558266
-0.000139013
-5.48541e-05
-0.000642823
0.000766827
-0.0011086
0.00184436
-0.00148388
0.00310216
-0.00174884
0.00446554
-0.00190468
0.00586866
-0.00196442
0.00725838
-0.00194668
0.00859525
-0.0018716
0.00985306
-0.00175853
0.0110174
-0.00162477
0.0120841
-0.00148505
0.0130574
-0.00135156
0.0139484
-0.00123417
0.0147738
-0.00114086
0.0155551
-0.00107817
0.0163176
-0.0010517
0.0170903
-0.00106655
0.0179056
-0.00112765
0.0187995
-0.00123997
0.0198112
-0.00140849
0.020983
-0.00163781
0.0223593
-0.00193124
0.0239847
-0.00228916
0.0258997
-0.00270641
0.0281352
-0.0031687
0.0307028
-0.00364802
0.0335827
-0.00409822
0.0367101
-0.00445281
0.0399637
-0.00462908
0.0431644
-0.00454305
-0.0041399
0.0460944
-0.000248168
0.000620414
-0.000495375
0.000785197
-0.000434811
0.000245083
6.95966e-05
-0.000642884
0.00103442
-0.00160719
0.00240337
-0.00247718
0.00408453
-0.00316473
0.00597583
-0.00363988
0.00798055
-0.00390917
0.0100157
-0.00399932
0.0120152
-0.00394606
0.013931
-0.00378726
0.0157315
-0.0035589
0.0173999
-0.00329311
0.0189323
-0.00301734
0.0203352
-0.00275446
0.0216242
-0.00252313
0.0228219
-0.00233862
0.0239573
-0.00221358
0.0250644
-0.00215892
0.0261823
-0.00218452
0.0273545
-0.00229991
0.0286289
-0.0025145
0.030058
-0.00283764
0.0316979
-0.00327781
0.0336076
-0.00384111
0.0358467
-0.00452833
0.0384706
-0.0053304
0.0415234
-0.00622169
0.045027
-0.00715165
0.0489642
-0.00803553
0.0532599
-0.00874861
0.057761
-0.00913015
0.0622277
-0.00900971
-0.00826508
0.0663529
-0.000199435
0.000820056
-0.000231788
0.000818226
0.000212793
-0.000198948
0.00122357
-0.00165322
0.00275975
-0.00314301
0.0047182
-0.00443533
0.00697535
-0.00542164
0.00941081
-0.00607514
0.0119192
-0.00641738
0.0144149
-0.0064949
0.0168331
-0.00636411
0.0191282
-0.00608235
0.0212724
-0.00570302
0.0232527
-0.00527328
0.0250688
-0.00483337
0.0267311
-0.00441675
0.0282589
-0.00405093
0.0296789
-0.00375855
0.0310238
-0.00355855
0.0323322
-0.00346734
0.0336476
-0.00349991
0.0350183
-0.00367066
0.0364976
-0.00399392
0.0381438
-0.00448388
0.0400196
-0.00515372
0.0421919
-0.00601353
0.0447297
-0.00706627
0.0477005
-0.00830137
0.0511636
-0.0096849
0.0551579
-0.0111461
0.0596835
-0.0125613
0.064674
-0.0137391
0.0699634
-0.0144196
0.0752594
-0.0143058
-0.0131611
0.0801555
-0.000103442
0.0009238
0.000224023
0.000491167
0.00124451
-0.00121905
0.00293702
-0.00334538
0.00516316
-0.00536889
0.00775764
-0.00702958
0.0105669
-0.00823073
0.0134628
-0.00897089
0.0163453
-0.00929975
0.0191405
-0.00928994
0.0217969
-0.00902045
0.0242823
-0.0085676
0.0265799
-0.00800051
0.0286859
-0.00737931
0.0306075
-0.00675485
0.0323602
-0.00616937
0.0339669
-0.00565766
0.0354569
-0.00524846
0.0368644
-0.00496605
0.0382287
-0.00483162
0.0395935
-0.00486477
0.0410073
-0.00508445
0.0425231
-0.00550979
0.0441993
-0.0061601
0.0460996
-0.00705408
0.0482933
-0.00820739
0.0508552
-0.0096282
0.0538627
-0.0113091
0.0573921
-0.0132143
0.0615064
-0.0152606
0.0662359
-0.0172908
0.0715404
-0.0190438
0.0772562
-0.0201354
0.0830334
-0.020083
-0.0184487
0.0883211
7.80894e-05
0.000845734
0.00098453
-0.000414993
0.00283694
-0.00307123
0.00541298
-0.00592124
0.00843889
-0.00839463
0.0116872
-0.0102778
0.0149905
-0.0115339
0.0182326
-0.0122129
0.0213372
-0.0124042
0.0242568
-0.0122094
0.0269649
-0.0117285
0.0294507
-0.0110533
0.0317147
-0.0102644
0.0337661
-0.00943069
0.0356213
-0.00860996
0.037302
-0.00784998
0.0388344
-0.00719007
0.0402489
-0.00666292
0.0415792
-0.00629628
0.0428624
-0.00611479
0.044139
-0.00614141
0.0454535
-0.00639887
0.0468542
-0.00691052
0.0483948
-0.00770068
0.0501347
-0.00879405
0.0521408
-0.0102135
0.0544881
-0.0119757
0.057261
-0.014082
0.0605506
-0.016504
0.0644481
-0.0191581
0.0690237
-0.0218665
0.0742833
-0.0243034
0.0800856
-0.0259376
0.0860215
-0.0260191
-0.0237474
0.0913202
0.000465656
0.000380165
0.00233923
-0.00228863
0.00538217
-0.0061142
0.00904723
-0.00958631
0.0129226
-0.01227
0.0167587
-0.0141138
0.0204158
-0.0151909
0.0238224
-0.0156194
0.0269477
-0.0155295
0.029785
-0.0150466
0.0323414
-0.0142848
0.0346321
-0.013344
0.0366776
-0.0123099
0.0385016
-0.0112545
0.0401295
-0.0102379
0.0415888
-0.00930916
0.0429078
-0.00850904
0.0441163
-0.00787135
0.0452452
-0.00742517
0.0463271
-0.00719663
0.0473963
-0.00721062
0.0484898
-0.00749229
0.0496474
-0.00806817
0.0509136
-0.00896688
0.0523384
-0.0102189
0.0539798
-0.0118549
0.0559063
-0.0139022
0.0582004
-0.0163761
0.0609605
-0.0192642
0.0643001
-0.0224977
0.0683327
-0.0258992
0.0731272
-0.0290982
0.0786003
-0.0314113
0.0843085
-0.0317277
-0.028613
0.0891738
0.00133368
-0.00095364
0.00491826
-0.00587345
0.00960217
-0.0107983
0.0144554
-0.0144397
0.0190566
-0.0168713
0.0232458
-0.018303
0.0269805
-0.0189257
0.0302716
-0.0189105
0.0331521
-0.01841
0.035663
-0.0175576
0.0378469
-0.0164686
0.0397445
-0.0152416
0.0413944
-0.0139596
0.0428319
-0.012692
0.04409
-0.0114959
0.0451991
-0.0104182
0.0461875
-0.00949737
0.0470821
-0.00876594
0.047909
-0.00825196
0.0486935
-0.00798114
0.0494615
-0.00797853
0.0502394
-0.00827012
0.0510553
-0.00888411
0.0519403
-0.00985181
0.0529295
-0.011208
0.0540646
-0.01299
0.0553974
-0.015235
0.0569943
-0.017973
0.0589427
-0.0212127
0.0613565
-0.0249118
0.0643753
-0.0289183
0.0681344
-0.0328578
0.0726565
-0.0359341
0.0775442
-0.0366161
-0.0324081
0.0813385
0.00366572
-0.00461946
0.0102345
-0.0124425
0.0167431
-0.0173072
0.0224474
-0.0201442
0.0272782
-0.0217022
0.0313193
-0.0223442
0.0346823
-0.0222887
0.037474
-0.0217022
0.0397881
-0.0207241
0.041705
-0.0194745
0.0432933
-0.0180569
0.0446111
-0.0165594
0.045708
-0.0150565
0.0466258
-0.0136097
0.0473996
-0.0122697
0.0480592
-0.0110777
0.0486298
-0.0100679
0.0491328
-0.00926892
0.0495868
-0.00870592
0.0500082
-0.00840249
0.0504119
-0.00838217
0.0508119
-0.00867005
0.0512219
-0.00929403
0.051656
-0.0102858
0.0521295
-0.0116815
0.0526606
-0.013521
0.0532718
-0.0158462
0.0539941
-0.0186953
0.0548727
-0.0220913
0.055976
-0.0260152
0.0574081
-0.0303507
0.0593152
-0.0347653
0.0618463
-0.0384659
0.0648832
-0.0396538
-0.0341202
0.0665949
0.0125595
-0.0171791
0.0218083
-0.0216916
0.0285721
-0.0240713
0.0337329
-0.0253051
0.0377255
-0.025695
0.040827
-0.0254459
0.0432329
-0.0246946
0.0450879
-0.0235573
0.046505
-0.0221413
0.0475753
-0.0205448
0.0483732
-0.0188548
0.0489599
-0.0171461
0.0493852
-0.0154818
0.0496893
-0.0139138
0.0499039
-0.0124843
0.0500535
-0.0112273
0.0501564
-0.0101708
0.0502261
-0.00933851
0.0502715
-0.00875129
0.0502983
-0.00842929
0.0503094
-0.00839316
0.0503049
-0.00866547
0.0502827
-0.00927178
0.0502383
-0.0102414
0.0501643
-0.0116075
0.0500498
-0.0134065
0.0498789
-0.0156752
0.0496286
-0.018445
0.0492664
-0.0217291
0.0487479
-0.0254968
0.0480186
-0.0296217
0.0470241
-0.0337714
0.0457303
-0.0371726
0.0442086
-0.0381324
-0.0322598
0.0423481
0.0390878
-0.0199624
0.0424073
-0.0250113
0.0453486
-0.0270128
0.0477591
-0.0277158
0.0496319
-0.0275679
0.050998
-0.026812
0.0519221
-0.0256188
0.0524807
-0.0241159
0.0527486
-0.0224092
0.0527937
-0.02059
0.0526753
-0.0187364
0.0524429
-0.0169137
0.0521366
-0.0151755
0.0517873
-0.0135645
0.0514174
-0.0121144
0.0510422
-0.010852
0.0506702
-0.00979877
0.0503043
-0.00897262
0.0499429
-0.00838983
0.04958
-0.00806631
0.0492058
-0.00801893
0.0488069
-0.00826653
0.0483658
-0.00883057
0.0478598
-0.00973537
0.0472598
-0.0110074
0.0465267
-0.0126733
0.0456064
-0.0147549
0.0444209
-0.0172594
0.0428528
-0.0201609
0.0407193
-0.0233633
0.0377268
-0.0266292
0.0333941
-0.0294389
0.0269084
-0.0306869
0.0166939
-0.0279176
-0.0155658
0.0630666
-0.0194693
0.062327
-0.0242719
0.06185
-0.0265361
0.0614435
-0.0273095
0.0609796
-0.027104
0.0603894
-0.0262218
0.0596533
-0.0248828
0.0587859
-0.0232486
0.0578186
-0.0214419
0.0567884
-0.0195598
0.0557312
-0.0176792
0.0546782
-0.0158607
0.0536536
-0.0141509
0.0526745
-0.0125854
0.0517506
-0.0111905
0.0508849
-0.00998638
0.0500745
-0.00898832
0.049311
-0.00820905
0.0485813
-0.00766011
0.0478682
-0.00735315
0.0471502
-0.00730089
0.0464015
-0.00751782
0.0455914
-0.00802035
0.0446825
-0.00882637
0.0436286
-0.00995352
0.0423709
-0.0114155
0.0408312
-0.0132151
0.0389024
-0.0153305
0.0364338
-0.0176923
0.0332119
-0.0201411
0.0289399
-0.0223571
0.0232387
-0.0237375
0.015747
-0.0231946
0.00672459
-0.0188946
-0.00884117
0.0799775
-0.0176955
0.0773896
-0.021684
0.0747668
-0.0239134
0.0722549
-0.0247977
0.0698538
-0.0247029
0.0675385
-0.0239066
0.065291
-0.0226354
0.0631094
-0.021067
0.0610042
-0.0193367
0.0589912
-0.0175469
0.057087
-0.0157751
0.0553047
-0.0140784
0.0536523
-0.0124985
0.0521317
-0.0110648
0.0507389
-0.00979774
0.0494642
-0.00871174
0.048293
-0.00781704
0.0472058
-0.00712181
0.0461791
-0.00663346
0.0451858
-0.00635973
0.0441944
-0.00630945
0.0431694
-0.00649279
0.0420702
-0.00692107
0.0408495
-0.00760567
0.0394516
-0.0085555
0.0378084
-0.00977226
0.0358354
-0.0112419
0.0334253
-0.0129204
0.0304432
-0.0147099
0.0267255
-0.0164232
0.0220995
-0.0177308
0.0164561
-0.0180937
0.00996501
-0.016703
0.00363216
-0.0125611
-0.00520895
0.0896429
-0.0151922
0.0861985
-0.0182396
0.0824249
-0.0201399
0.0786112
-0.0209839
0.0748865
-0.0209782
0.0713111
-0.0203311
0.0679135
-0.0192378
0.0647104
-0.0178639
0.0617144
-0.0163406
0.0589346
-0.0147672
0.0563761
-0.0132166
0.0540388
-0.0117411
0.051917
-0.0103767
0.0499994
-0.00914716
0.0482696
-0.00806797
0.0467067
-0.00714878
0.0452855
-0.00639585
0.0439774
-0.00581376
0.0427506
-0.00540664
0.04157
-0.0051791
0.0403973
-0.00513665
0.0391903
-0.00528578
0.0379028
-0.00563343
0.0364827
-0.00618555
0.0348715
-0.0069442
0.0330018
-0.00790251
0.0307962
-0.00903615
0.028166
-0.01029
0.0250152
-0.0115589
0.0212538
-0.0126615
0.0168351
-0.0133118
0.0118404
-0.0130988
0.00664931
-0.0115114
0.00219393
-0.00810534
-0.00301498
0.0924233
-0.012223
0.0885804
-0.0143967
0.084275
-0.0158344
0.0798008
-0.0165098
0.0753476
-0.0165249
0.0710367
-0.0160203
0.0669433
-0.0151443
0.0631118
-0.0140325
0.0595673
-0.0127961
0.0563209
-0.0115207
0.0533729
-0.0102685
0.0507149
-0.00908315
0.0483317
-0.0079934
0.0462019
-0.00701743
0.0442999
-0.00616596
0.0425962
-0.00544498
0.0410581
-0.00485775
0.0396506
-0.00440628
0.0383364
-0.00409241
0.0370758
-0.00391843
0.0358266
-0.00388742
0.034544
-0.00400309
0.0331798
-0.00426917
0.0316822
-0.00468788
0.0299953
-0.00525719
0.028059
-0.00596612
0.0258103
-0.0067873
0.0231866
-0.0076662
0.0201348
-0.00850684
0.0166297
-0.00915618
0.0127113
-0.00939313
0.00854914
-0.00893635
0.00453775
-0.00749965
0.00138092
-0.00494818
-0.00163402
0.0887064
-0.00901474
0.0847553
-0.0104456
0.080333
-0.011412
0.0756901
-0.0118668
0.0710242
-0.0118589
0.0664816
-0.0114775
0.0621629
-0.0108256
0.0581319
-0.0100014
0.0544238
-0.00908801
0.051053
-0.00814978
0.0480178
-0.00723337
0.0453054
-0.00637073
0.0428944
-0.00558239
0.0407576
-0.00488058
0.0388636
-0.00427194
0.0371782
-0.00375955
0.0356651
-0.00334464
0.0342865
-0.00302762
0.033003
-0.00280892
0.0317741
-0.00268941
0.0305572
-0.00267055
0.0293085
-0.00275425
0.0279816
-0.00294225
0.0265287
-0.00323484
0.0249002
-0.00362857
0.0230467
-0.00411247
0.0209218
-0.00466231
0.0184885
-0.0052327
0.0157295
-0.00574762
0.0126657
-0.0060921
0.00938419
-0.00611134
0.00607677
-0.00562868
0.00307963
-0.00450222
0.000879131
-0.00274743
-0.000754869
0.0788463
-0.00583093
0.075066
-0.00666538
0.0708779
-0.00722386
0.0664836
-0.00747262
0.0620613
-0.00743661
0.0577532
-0.00716944
0.0536627
-0.00673514
0.0498573
-0.00619596
0.0463741
-0.00560487
0.0432272
-0.00500287
0.0404131
-0.00441933
0.0379163
-0.00387397
0.0357129
-0.00337896
0.0337735
-0.00294116
0.0320654
-0.00256383
0.0305541
-0.00224812
0.0292035
-0.00199403
0.0279772
-0.00180124
0.0268379
-0.00166951
0.0257476
-0.00159899
0.0246674
-0.00159025
0.0235574
-0.00164419
0.0223769
-0.00176157
0.0210842
-0.0019421
0.0196387
-0.00218288
0.0180021
-0.00247579
0.0161436
-0.00280364
0.0140461
-0.003135
0.0117171
-0.00341846
0.00920384
-0.00357861
0.00661118
-0.00351848
0.00411935
-0.00313667
0.00198879
-0.00237147
0.000529603
-0.00128812
-0.000225256
0.0631884
-0.002993
0.0599061
-0.00338319
0.056317
-0.00363484
0.0525769
-0.00373263
0.0488303
-0.00369012
0.045196
-0.00353523
0.0417615
-0.00330076
0.0385836
-0.00301819
0.0356926
-0.00271397
0.033098
-0.00240825
0.0307937
-0.00211513
0.0287635
-0.00184377
0.0269841
-0.00159953
0.0254281
-0.00138516
0.024066
-0.00120171
0.0228672
-0.00104925
0.0218007
-0.000927389
0.0208352
-0.000835654
0.0199395
-0.000773703
0.0190821
-0.000741441
0.0182311
-0.000739056
0.017354
-0.000766937
0.016418
-0.000825443
0.0153905
-0.000914428
0.0142401
-0.00103241
0.0129396
-0.00117517
0.0114698
-0.00133369
0.00982635
-0.00149138
0.00802905
-0.001621
0.0061334
-0.00168278
0.00424142
-0.00162635
0.00250615
-0.00140128
0.00111814
-0.000983371
0.000258015
-0.000427934
3.27643e-05
0.0420781
-0.000891516
0.0396927
-0.000997911
0.0371192
-0.00106146
0.0344655
-0.00107899
0.0318312
-0.00105596
0.0292976
-0.00100165
0.0269229
-0.000926229
0.0247437
-0.000839058
0.0227774
-0.000747737
0.0210269
-0.000657813
0.0194847
-0.000573
0.0181365
-0.00049555
0.0169636
-0.000426662
0.0159453
-0.000366824
0.0150598
-0.000316088
0.0142849
-0.000274281
0.0135987
-0.00024115
0.0129796
-0.000216454
0.012406
-0.000200027
0.0118565
-0.000191801
0.0113094
-0.000191822
0.0107428
-0.000200218
0.0101346
-0.000217147
0.00946296
-0.000242653
0.00870708
-0.000276432
0.0078494
-0.000317394
0.00687883
-0.000363018
0.00579598
-0.000408414
0.00462038
-0.000445276
0.00339885
-0.000461124
0.0022124
-0.000439795
0.00117591
-0.000364713
0.00042033
-0.000227743
4.22438e-05
-4.98162e-05
7.50117e-05
0.0157991
0.0148011
0.0137397
0.0126607
0.0116047
0.010603
0.00967681
0.00883774
0.00809
0.00743218
0.00685918
0.00636363
0.00593696
0.00557014
0.00525406
0.00497979
0.00473865
0.0045222
0.00432219
0.0041304
0.00393859
0.00373839
0.00352125
0.00327861
0.00300219
0.00268481
0.0023218
0.0019134
0.00146814
0.00100703
0.000567246
0.000202539
-2.51991e-05
-7.50117e-05
0.0193034
-0.000983864
0.0200021
-0.00069873
0.0204015
-0.00039939
0.0205215
-0.000119959
0.0203986
0.000122906
0.0200717
0.00032688
0.0195727
0.000499011
0.0189226
0.000650181
0.018133
0.00078958
0.000919437
0.0172135
0.0485423
-0.00343171
0.0503679
-0.0025243
0.0515269
-0.00155833
0.0520489
-0.000641934
0.0520023
0.000169552
0.0514636
0.000865629
0.0504965
0.00146616
0.0491421
0.00200454
0.0474219
0.00250974
0.00298902
0.0453523
0.0698281
-0.00690681
0.0724591
-0.0051553
0.074199
-0.00329816
0.0751006
-0.00154341
0.0752605
9.62002e-06
0.074778
0.0013482
0.0737274
0.00251679
0.0721461
0.00358581
0.0700393
0.00461655
0.00562672
0.0674016
0.0842232
-0.0109745
0.0872431
-0.00817517
0.0892261
-0.0052812
0.0902984
-0.00261569
0.0906097
-0.000301605
0.0902836
0.00167431
0.0893911
0.00340926
0.0879412
0.00503576
0.085888
0.00666982
0.00835187
0.0831628
0.0924946
-0.0151479
0.0953642
-0.0110447
0.0971112
-0.00702818
0.0980124
-0.00351694
0.0983016
-0.000590862
0.0981279
0.001848
0.0975428
0.00399429
0.0965009
0.00607763
0.0948674
0.00830322
0.0107651
0.0924542
0.0949829
-0.0188107
0.0970003
-0.0130622
0.0979269
-0.00795482
0.0982711
-0.00386131
0.0983507
-0.000670564
0.0983121
0.00188656
0.0981612
0.00414507
0.0977775
0.00646121
0.0969052
0.00917559
0.0125104
0.0951599
0.0914482
-0.0210855
0.0917226
-0.0133369
0.091247
-0.00747942
0.0907573
-0.0033719
0.0905531
-0.000466505
0.0906984
0.0017411
0.0911242
0.00371908
0.0916473
0.00593818
0.0918961
0.0089266
0.0132197
0.0911868
0.0808697
-0.0206171
0.0784281
-0.0108957
0.0762666
-0.00531833
0.0750072
-0.00211284
0.0746598
-0.000119311
0.075097
0.00130368
0.0761846
0.00263145
0.0777796
0.00434302
0.079535
0.0071713
0.0124044
0.0803503
0.060996
-0.0150185
0.0554812
-0.00538124
0.0522853
-0.0021228
0.0508679
-0.000695614
0.0506786
6.97945e-05
0.0514006
0.000581548
0.052925
0.00110686
0.0553462
0.0019219
0.0588392
0.00367813
0.00904434
0.0621994
0.0273296
0.0219483
0.0198255
0.0191299
0.0191996
0.0197812
0.020888
0.0228099
0.0264881
0.0355323
0.0161813
0.00103213
0.0150685
0.00111279
0.0139176
0.00115085
0.0127718
0.00114576
0.0116677
0.00110402
0.0106326
0.00103504
0.00968403
0.000948541
0.00883068
0.000853302
0.00807438
0.00075626
0.00741194
0.000662409
0.00683695
0.000574968
0.0063411
0.000495833
0.00591519
0.000425903
0.00554972
0.000365472
0.00523531
0.00031443
0.00496281
0.000272516
0.00472345
0.00023939
0.00450871
0.000214777
0.00431029
0.000198463
0.00411997
0.000190375
0.00392949
0.00019053
0.00373048
0.000199062
0.00351442
0.000216107
0.00327275
0.000241721
0.00299721
0.000275585
0.00268063
0.000316622
0.00231836
0.000362297
0.00191066
0.000407731
0.00146607
0.000444616
0.00100561
0.000460498
0.000566438
0.000439199
0.000202225
0.000364247
-2.51979e-05
0.000227422
-7.49193e-05
4.97245e-05
-7.49221e-05
0.0429678
0.00341653
0.0403402
0.00374022
0.03757
0.00392098
0.034763
0.00395258
0.0320139
0.0038531
0.0293969
0.00365192
0.0269639
0.00338142
0.0247453
0.00307177
0.0227537
0.00274781
0.020988
0.00242808
0.0194376
0.00212528
0.018086
0.00184743
0.0169129
0.00159899
0.0158964
0.00138203
0.0150138
0.00119709
0.0142425
0.00104389
0.0135601
0.000921787
0.0129449
0.000830126
0.012375
0.000768429
0.011829
0.000736528
0.0112851
0.000734543
0.0107215
0.000762833
0.010116
0.000821723
0.00944675
0.000911058
0.00869311
0.00102933
0.00783749
0.00117233
0.00686883
0.00133104
0.00578779
0.00148885
0.00461394
0.00161856
0.00339411
0.00168043
0.00220927
0.00162415
0.00117419
0.00139937
0.000419683
0.000981985
4.21508e-05
0.000427233
-3.27722e-05
0.0642587
0.00655936
0.0607059
0.00729302
0.0568897
0.00773716
0.0529671
0.00787511
0.0490792
0.00774096
0.0453391
0.00739201
0.041828
0.00689256
0.0385964
0.00630329
0.0356694
0.00567483
0.0330518
0.00504567
0.0307342
0.0044429
0.0286973
0.00388427
0.0269159
0.00338041
0.025361
0.00293691
0.024002
0.00255615
0.0228074
0.00223854
0.0217456
0.00198363
0.0207851
0.0017907
0.0198943
0.00165928
0.0190416
0.00158931
0.018195
0.00158126
0.017322
0.00163593
0.0163898
0.00175403
0.0153657
0.00193523
0.0142186
0.00217659
0.012921
0.00246998
0.0114539
0.00279819
0.0098131
0.00312979
0.00801837
0.00341342
0.00612526
0.00357371
0.00423572
0.0035138
0.00250273
0.0031325
0.00111653
0.00236821
0.000257596
0.00128618
0.000224824
0.0797473
0.00997488
0.0757551
0.0112853
0.0713834
0.012109
0.0668364
0.0124221
0.0622914
0.012286
0.0578879
0.0117956
0.0537256
0.0110549
0.0498677
0.0101611
0.0463479
0.00919465
0.0431767
0.00821696
0.0403476
0.00727195
0.0378428
0.00638911
0.0356363
0.00558691
0.0336973
0.00487595
0.0319919
0.00426155
0.0304846
0.00374583
0.029139
0.00332927
0.027918
0.00301175
0.026784
0.0027933
0.0256989
0.00267448
0.0246236
0.00265657
0.0235183
0.00274133
0.022342
0.00293041
0.0210533
0.00322401
0.0196114
0.00361863
0.0179782
0.00410326
0.0161228
0.00465364
0.0140284
0.00522439
0.0117025
0.00573949
0.00919227
0.00608407
0.00660276
0.00610353
0.00411395
0.00562141
0.00198608
0.00449617
0.00052887
0.0027435
0.000753719
0.0891506
0.0132785
0.0851088
0.015327
0.0806025
0.0166154
0.0758837
0.0171409
0.0711513
0.0170185
0.0665523
0.0163946
0.0621877
0.0154196
0.0581208
0.0142281
0.054386
0.0129295
0.0509964
0.0116066
0.0479491
0.0103192
0.0452299
0.00910834
0.0428162
0.00800065
0.0406796
0.0070125
0.038788
0.00615316
0.0371064
0.00542745
0.0355979
0.00483773
0.0342244
0.00438533
0.0329461
0.00407158
0.0317222
0.00389839
0.0305103
0.00386856
0.0292661
0.0039856
0.0279434
0.00425309
0.0264944
0.00467314
0.0248694
0.00524365
0.0230192
0.00595356
0.0208975
0.00677546
0.0184673
0.00765477
0.0157114
0.00849554
0.0126509
0.00914482
0.00937287
0.00938169
0.00606917
0.00892532
0.00307559
0.00749003
0.000877859
0.00494141
0.00163161
0.092261
0.0161775
0.0884783
0.0191097
0.0842152
0.0208786
0.0797647
0.0215914
0.0753201
0.0214632
0.0710075
0.0207073
0.0669064
0.0195207
0.063065
0.0180695
0.0595108
0.0164837
0.0562563
0.0148611
0.0533026
0.013273
0.0506414
0.0117695
0.0482572
0.0103849
0.0461284
0.00914128
0.0442288
0.00805275
0.0425284
0.00712779
0.0409945
0.00637171
0.0395915
0.00578833
0.0382818
0.00538123
0.0370257
0.00515455
0.0357808
0.00511348
0.0345022
0.00526426
0.0331417
0.00561364
0.0316474
0.00616744
0.0299636
0.0069276
0.0280301
0.00788714
0.025784
0.00902166
0.0231629
0.010276
0.0201137
0.0115449
0.0166116
0.012647
0.0126968
0.0132968
0.00853886
0.0130835
0.00453188
0.0114972
0.00137901
0.00809474
0.00301069
0.0889125
0.0184518
0.0856688
0.0223534
0.0820527
0.0244948
0.0783533
0.0252909
0.0747064
0.0251101
0.0711808
0.0242329
0.067813
0.0228885
0.0646266
0.0212559
0.0616392
0.0194711
0.0588636
0.0176367
0.0563072
0.0158294
0.0539713
0.0141053
0.0518511
0.0125051
0.0499355
0.0110568
0.0482084
0.00977988
0.0466486
0.00868762
0.0452309
0.00778944
0.0439264
0.00709275
0.0427033
0.00660438
0.0415263
0.00633162
0.0403569
0.00628292
0.039153
0.00646818
0.0378682
0.00689851
0.0364505
0.00758512
0.0348414
0.00853677
0.0329736
0.00975505
0.0307695
0.0112258
0.0281409
0.0129048
0.0249918
0.0146941
0.0212325
0.0164065
0.0168168
0.0177127
0.0118264
0.0180742
0.00664082
0.0166835
0.00219093
0.0125452
0.00520174
0.0789125
0.0198897
0.0766092
0.0246567
0.0742076
0.0268964
0.0718597
0.0276388
0.0695757
0.0273941
0.0673413
0.0264673
0.065148
0.0250817
0.0630018
0.0234021
0.0609189
0.021554
0.0589199
0.0196356
0.0570245
0.0177248
0.0552479
0.0158819
0.0535995
0.0141535
0.0520821
0.0125742
0.0506922
0.0111698
0.0494203
0.00995951
0.0482517
0.008958
0.0471671
0.00817732
0.0461431
0.00762847
0.0451521
0.00732264
0.0441629
0.00727219
0.0431398
0.00749131
0.0420422
0.00799621
0.0408228
0.00880458
0.0394257
0.00993391
0.037783
0.0113978
0.0358101
0.0131987
0.0334001
0.0153149
0.030418
0.0176764
0.0267008
0.020124
0.0220764
0.0223374
0.0164366
0.0237144
0.00995169
0.0231689
0.00362694
0.0188709
0.00882876
0.0620403
0.0200487
0.0615654
0.0251315
0.0612906
0.0271711
0.0610371
0.0278922
0.060687
0.0277442
0.0601797
0.0269745
0.059503
0.0257584
0.0586769
0.0242281
0.0577379
0.022493
0.0567266
0.0206469
0.055682
0.0187694
0.0546372
0.0169267
0.0536181
0.0151725
0.0526429
0.0135495
0.0517218
0.0120909
0.0508583
0.010823
0.0500498
0.00976662
0.0492878
0.00893932
0.0485595
0.00835683
0.0478475
0.00803466
0.0471304
0.00798934
0.0463823
0.00823941
0.0455725
0.00880614
0.0446634
0.00971367
0.0436091
0.0109883
0.0423503
0.0126566
0.0408091
0.01474
0.0388784
0.0172457
0.0364076
0.0201473
0.0331833
0.0233483
0.0289099
0.0266109
0.0232097
0.0294147
0.0157238
0.0306552
0.00671356
0.0278813
0.0155423
0.0384673
0.0171137
0.0419043
0.0216943
0.0449499
0.0241254
0.047451
0.025391
0.0493994
0.0257957
0.0508267
0.0255471
0.0517987
0.0247864
0.0523934
0.0236333
0.0526878
0.0221986
0.0527517
0.0205829
0.0526462
0.0188748
0.0524225
0.0171504
0.0521219
0.0154731
0.0517763
0.0138951
0.0514088
0.0124584
0.051035
0.0111968
0.0506638
0.0101379
0.0502983
0.00930478
0.049937
0.00871818
0.049574
0.00839778
0.0491994
0.00836396
0.0487999
0.00863902
0.0483577
0.00924835
0.0478504
0.0102211
0.0472485
0.0115903
0.0465129
0.0133922
0.0455894
0.0156636
0.0443996
0.0184355
0.0428263
0.0217207
0.0406865
0.0254881
0.0376871
0.0296102
0.0333482
0.0337533
0.0268602
0.0371429
0.0166554
0.0380857
0.0321977
0.0124323
0.00468129
0.0216258
0.0125005
0.0283849
0.0173661
0.0335653
0.0202105
0.037588
0.0217729
0.0407218
0.0224132
0.0431574
0.0223507
0.0450377
0.021753
0.0464749
0.0207614
0.0475603
0.0194975
0.0483691
0.0180661
0.0489631
0.0165563
0.0493932
0.0150431
0.0497001
0.0135883
0.0499161
0.0122425
0.050066
0.0110468
0.0501687
0.0100352
0.0502376
0.00923594
0.050282
0.00867389
0.0503075
0.00837231
0.050317
0.00835453
0.0503107
0.0086454
0.0502864
0.00927268
0.0502395
0.010268
0.0501626
0.0116673
0.0500443
0.0135105
0.0498686
0.0158393
0.049612
0.018692
0.0492415
0.0220912
0.0487119
0.0260177
0.0479675
0.0303543
0.0469527
0.0347676
0.0456316
0.0384633
0.0440736
0.0396433
0.0341061
0.0421648
0.00366211
0.00101912
0.0102012
0.00596116
0.0166893
0.0108779
0.0223886
0.014511
0.0272261
0.0169353
0.0312803
0.018359
0.0346588
0.0189722
0.0374655
0.0189463
0.0397926
0.0184342
0.0417199
0.0175701
0.0433159
0.0164701
0.0446389
0.0152333
0.0457388
0.0139432
0.0466579
0.0126692
0.0474318
0.0114686
0.0480906
0.0103881
0.0486598
0.00946614
0.0491609
0.00873487
0.0496127
0.00822212
0.0500317
0.00795335
0.0504329
0.00795343
0.0508302
0.00824817
0.0512372
0.00886566
0.0516681
0.00983717
0.052138
0.0111975
0.0526646
0.0129839
0.0532702
0.0152337
0.0539851
0.0179771
0.0548535
0.0212227
0.0559424
0.0249286
0.0573536
0.0289427
0.0592298
0.0328909
0.0617147
0.0359778
0.0646828
0.0366746
0.0324936
0.0662949
0.00134594
-0.000326902
0.00493252
0.00237456
0.00961134
0.00619905
0.0144616
0.00966075
0.0190645
0.0123324
0.0232592
0.0141643
0.0270016
0.0152297
0.030301
0.0156469
0.0331891
0.0155461
0.0357063
0.015053
0.0378946
0.0142819
0.039795
0.013333
0.0414459
0.0122923
0.0428832
0.011232
0.04414
0.0102119
0.045247
0.0092812
0.0462327
0.00848044
0.0471244
0.00784325
0.0479481
0.00739849
0.0487294
0.00717209
0.0494941
0.0071888
0.0502686
0.00747364
0.0510812
0.00805309
0.0519627
0.00895574
0.052948
0.0102121
0.0540787
0.0118532
0.0554061
0.0139064
0.0569958
0.0163873
0.0589343
0.0192842
0.0613339
0.0225288
0.0643314
0.0259449
0.0680585
0.0291635
0.0725319
0.0315038
0.0773462
0.03186
0.0288068
0.0810328
0.000479073
-0.000805905
0.00236649
0.000487258
0.00541719
0.00314845
0.00908692
0.00599111
0.0129665
0.00845288
0.0168073
0.0103235
0.0204696
0.0115675
0.0238813
0.0122353
0.0270111
0.0124164
0.0298517
0.0122124
0.03241
0.0117236
0.0347013
0.0110417
0.0367461
0.0102475
0.0385682
0.00940991
0.0401935
0.00858662
0.0416494
0.0078253
0.0429648
0.00716516
0.0441693
0.0066387
0.0452943
0.00627355
0.0463723
0.00609414
0.0474378
0.00612337
0.0485276
0.00638384
0.0496818
0.00689891
0.0509446
0.00769293
0.052366
0.00879073
0.0540037
0.0102154
0.055926
0.011984
0.0582147
0.0140985
0.0609676
0.0165312
0.0642967
0.0191996
0.0683135
0.0219279
0.0730841
0.0243927
0.0785209
0.0260669
0.0841743
0.0262066
0.0240213
0.0889597
9.00159e-05
-0.000895866
0.00101337
-0.000435886
0.00288014
0.00128186
0.00546703
0.00340438
0.00850123
0.0054188
0.0117562
0.00706868
0.0150648
0.00825897
0.0183111
0.00898907
0.0214185
0.00930893
0.0243397