/*--------------------------------*- C++ -*----------------------------------*\
| =========                 |                                                 |
| \\      /  F ield         | OpenFOAM: The Open Source CFD Toolbox           |
|  \\    /   O peration     | Version:  2406                                  |
|   \\  /    A nd           | Website:  www.openfoam.com                      |
|    \\/     M anipulation  |                                                 |
\*---------------------------------------------------------------------------*/
FoamFile
{
    version     2.0;
    format      ascii;
    arch        "LSB;label=32;scalar=64";
    class       volScalarField;
    location    "25";
    object      p;
}
// * * * * * * * * * * * * * * * * * * * * * * * * * * * * * * * * * * * * * //

dimensions      [0 2 -2 0 0 0 0];

internalField   nonuniform List<scalar> 
1900
(
1.1392
1.08721
1.03246
0.977464
0.919832
0.858899
0.793799
0.723332
0.646275
0.534737
1.15156
1.09079
1.03204
0.976113
0.918153
0.856947
0.792095
0.722621
0.645959
0.554034
1.15914
1.09402
1.03281
0.976931
0.91967
0.859484
0.796692
0.731539
0.664287
0.596433
1.16537
1.09855
1.03617
0.981018
0.925384
0.867537
0.808501
0.749495
0.691908
0.638294
1.17165
1.10412
1.04139
0.987176
0.933372
0.878186
0.823019
0.769443
0.718841
0.673054
1.17708
1.10941
1.04701
0.993702
0.941428
0.888516
0.836449
0.786741
0.740466
0.698728
1.18043
1.11321
1.05173
0.99908
0.947736
0.896365
0.846326
0.79889
0.754836
0.714818
1.18055
1.11485
1.05479
1.00234
0.951196
0.900505
0.851395
0.80485
0.761462
0.721705
1.17523
1.11367
1.05575
1.00313
0.951546
0.900717
0.851533
0.804748
0.760888
0.720426
1.16246
1.10936
1.05472
1.00215
0.949986
0.898593
0.848785
0.801179
0.756315
0.714748
0.489526
0.489353
0.492267
0.498754
0.507741
0.518036
0.528573
0.53847
0.547055
0.55387
0.558656
0.561316
0.561889
0.560507
0.557369
0.552708
0.54677
0.539799
0.532024
0.52365
0.514855
0.505791
0.496582
0.487326
0.4781
0.468958
0.459943
0.451079
0.442382
0.433858
0.425508
0.417327
0.409305
0.401433
0.393696
0.489836
0.489608
0.492295
0.498189
0.506339
0.515713
0.52538
0.534551
0.542597
0.54907
0.553698
0.556365
0.55708
0.555948
0.553137
0.548856
0.54333
0.536782
0.529425
0.521453
0.513035
0.504318
0.49542
0.48644
0.477452
0.468514
0.459669
0.450945
0.44236
0.433923
0.425639
0.417505
0.409514
0.40166
0.393932
0.486887
0.486907
0.489837
0.495759
0.503709
0.512741
0.522025
0.530842
0.538608
0.544897
0.549442
0.552123
0.55294
0.551984
0.54941
0.545411
0.540197
0.533979
0.526958
0.519317
0.511219
0.502801
0.49418
0.485449
0.476683
0.467939
0.45926
0.450676
0.442206
0.433863
0.425653
0.417574
0.409625
0.401799
0.394089
0.47933
0.48037
0.484467
0.491393
0.500084
0.509601
0.519159
0.528098
0.535888
0.542147
0.546643
0.549282
0.550079
0.549137
0.546618
0.542714
0.537632
0.531577
0.524745
0.517309
0.509426
0.501225
0.492818
0.484292
0.475718
0.467151
0.458632
0.450189
0.441843
0.433605
0.425483
0.417478
0.409587
0.401808
0.394132
0.466675
0.469868
0.476371
0.485371
0.495671
0.506338
0.516643
0.526002
0.533974
0.540254
0.544675
0.547191
0.547858
0.546805
0.544209
0.540274
0.535209
0.529216
0.522486
0.515187
0.507464
0.499441
0.49122
0.482884
0.474497
0.466109
0.457758
0.449469
0.441262
0.433149
0.425135
0.417222
0.40941
0.401696
0.394073
0.44816
0.455293
0.465922
0.478229
0.490955
0.503286
0.514623
0.524523
0.532681
0.538917
0.543158
0.54543
0.54584
0.544556
0.541777
0.537719
0.532595
0.526606
0.519935
0.512742
0.505164
0.497313
0.489283
0.481146
0.472961
0.464772
0.45661
0.448501
0.440458
0.432493
0.424612
0.416816
0.409105
0.401476
0.393925
0.42263
0.436455
0.453768
0.470796
0.486643
0.500958
0.513413
0.523791
0.531997
0.538018
0.541905
0.54377
0.543782
0.542148
0.539091
0.534838
0.529605
0.523588
0.516961
0.50987
0.502442
0.494777
0.486956
0.479044
0.471088
0.463126
0.455185
0.447283
0.439434
0.431647
0.423924
0.41627
0.408682
0.401159
0.393699
0.384312
0.411768
0.440663
0.464116
0.483575
0.499942
0.51337
0.523977
0.531953
0.537497
0.5408
0.542071
0.541536
0.539441
0.536029
0.531532
0.526162
0.520106
0.513525
0.50655
0.499293
0.491838
0.484256
0.476597
0.468901
0.461197
0.453506
0.445843
0.438216
0.430631
0.423093
0.415602
0.408159
0.400761
0.393408
0.310872
0.377738
0.428065
0.459746
0.482877
0.500975
0.514914
0.525272
0.532596
0.537316
0.539768
0.540244
0.539023
0.536375
0.532552
0.527784
0.522271
0.516186
0.509669
0.502835
0.495776
0.488563
0.481248
0.473873
0.466466
0.459048
0.451633
0.444231
0.436848
0.429488
0.422154
0.414845
0.407561
0.400303
0.393069
0.223292
0.354124
0.426589
0.463159
0.487374
0.505445
0.518674
0.527925
0.533989
0.537458
0.538765
0.538253
0.536225
0.532957
0.528695
0.523654
0.518014
0.511923
0.505501
0.498839
0.492009
0.485065
0.478045
0.470977
0.46388
0.456767
0.449645
0.44252
0.435396
0.428273
0.421152
0.414035
0.406921
0.399811
0.392704
0.377313
0.412647
0.457744
0.482826
0.500538
0.514665
0.525083
0.532028
0.536106
0.537872
0.537754
0.53609
0.533171
0.529252
0.524555
0.519263
0.513528
0.507468
0.501174
0.494717
0.488144
0.481492
0.474785
0.468038
0.461262
0.45446
0.447638
0.440794
0.43393
0.427046
0.420142
0.413218
0.406275
0.399314
0.392335
0.471293
0.472425
0.493229
0.507402
0.51804
0.526875
0.53329
0.537101
0.538656
0.538387
0.536654
0.533747
0.529912
0.525357
0.52026
0.514764
0.50898
0.502994
0.496867
0.490641
0.484346
0.478
0.471613
0.465189
0.458731
0.452237
0.445706
0.439136
0.432525
0.425871
0.419175
0.412437
0.405658
0.398839
0.391983
0.54199
0.527187
0.530095
0.534123
0.537544
0.540493
0.542257
0.542456
0.541196
0.53874
0.535338
0.531199
0.526495
0.521371
0.515947
0.510314
0.504541
0.498675
0.492747
0.486776
0.48077
0.474732
0.46866
0.46255
0.456397
0.450194
0.443937
0.437622
0.431244
0.424804
0.418299
0.411731
0.405102
0.398414
0.39167
0.595438
0.573404
0.564579
0.559834
0.556393
0.553565
0.55065
0.547203
0.54315
0.538584
0.533627
0.528384
0.522942
0.517372
0.511726
0.506044
0.500348
0.49465
0.488953
0.483251
0.477537
0.471801
0.46603
0.460214
0.454341
0.448404
0.442395
0.436308
0.430139
0.423886
0.41755
0.411131
0.404632
0.398057
0.391411
0.63535
0.609643
0.593215
0.581452
0.572075
0.56418
0.557111
0.550423
0.543921
0.537556
0.531322
0.52522
0.519247
0.513399
0.507667
0.502037
0.49649
0.491008
0.485567
0.480146
0.474721
0.469272
0.463782
0.458234
0.452614
0.446912
0.441119
0.435229
0.429238
0.423146
0.416951
0.410657
0.404267
0.397786
0.391219
0.663082
0.635068
0.613699
0.596772
0.582785
0.570922
0.560603
0.551399
0.543041
0.535365
0.528257
0.521622
0.515379
0.509455
0.503787
0.498317
0.492996
0.487775
0.482616
0.47748
0.472339
0.467163
0.461931
0.456625
0.451228
0.44573
0.440122
0.434398
0.428556
0.422594
0.416515
0.410321
0.404017
0.397608
0.391102
0.679608
0.649878
0.625302
0.604872
0.587684
0.573091
0.560583
0.54974
0.54024
0.531831
0.524311
0.517509
0.511277
0.505489
0.500042
0.494844
0.489821
0.48491
0.480057
0.475218
0.470357
0.465442
0.460452
0.455364
0.450165
0.444844
0.439394
0.433809
0.428089
0.422232
0.416244
0.410126
0.403887
0.397532
0.39107
0.686069
0.654959
0.62833
0.605738
0.586626
0.570482
0.556827
0.545233
0.535321
0.526774
0.519317
0.51272
0.506787
0.501356
0.496291
0.491485
0.486845
0.482301
0.477791
0.473269
0.468696
0.464043
0.459285
0.454406
0.44939
0.444229
0.438917
0.433452
0.427832
0.422061
0.416142
0.410083
0.403889
0.397571
0.391134
0.683837
0.651511
0.623561
0.599786
0.579792
0.563107
0.549239
0.53771
0.528082
0.519971
0.513046
0.507031
0.501695
0.496851
0.49235
0.48807
0.483916
0.479813
0.475701
0.471534
0.467276
0.462899
0.458382
0.45371
0.448873
0.443863
0.438679
0.433318
0.427785
0.422082
0.416217
0.410197
0.404032
0.397731
0.391307
0.677043
0.643677
0.614871
0.590525
0.570288
0.55367
0.540128
0.52912
0.520143
0.512754
0.506578
0.501302
0.496676
0.492498
0.488609
0.484886
0.481233
0.477576
0.473859
0.47004
0.466086
0.461973
0.457684
0.453208
0.448536
0.443666
0.438597
0.43333
0.427872
0.422227
0.416404
0.410414
0.404268
0.397976
0.391553
0.386084
0.37858
0.371173
0.363849
0.356595
0.349402
0.342257
0.335152
0.328078
0.321029
0.386319
0.378808
0.371389
0.36405
0.356779
0.349566
0.342403
0.335279
0.328187
0.321121
0.386484
0.378976
0.371553
0.364206
0.356926
0.349701
0.342525
0.335387
0.328282
0.321203
0.386553
0.379062
0.371651
0.36431
0.35703
0.349803
0.342622
0.335479
0.328366
0.321279
0.386536
0.379078
0.371691
0.364367
0.357099
0.34988
0.342702
0.335558
0.328444
0.321352
0.386447
0.379036
0.371687
0.364392
0.357145
0.349941
0.342772
0.335634
0.328522
0.32143
0.386296
0.378948
0.371648
0.364392
0.357176
0.349993
0.34284
0.335712
0.328605
0.321515
0.386096
0.378822
0.371583
0.364376
0.357196
0.350042
0.342909
0.335795
0.328696
0.321609
0.385859
0.378669
0.371499
0.364347
0.357212
0.35009
0.342981
0.335883
0.328794
0.321713
0.385601
0.378502
0.371406
0.364313
0.357224
0.350139
0.343056
0.335975
0.328898
0.321822
0.385341
0.378332
0.371311
0.364279
0.357237
0.350188
0.343131
0.336069
0.329003
0.321933
0.385094
0.378172
0.371223
0.364249
0.357253
0.350238
0.343207
0.336162
0.329107
0.322042
0.384875
0.378033
0.371149
0.364227
0.357272
0.350289
0.34328
0.336252
0.329206
0.322146
0.384698
0.377925
0.371096
0.364219
0.357299
0.350341
0.343352
0.336336
0.329297
0.322241
0.384573
0.377854
0.371071
0.364228
0.357336
0.350398
0.343423
0.336415
0.329382
0.322327
0.384507
0.377829
0.371078
0.364261
0.357386
0.350462
0.343495
0.336493
0.329461
0.322405
0.384509
0.377859
0.371127
0.364325
0.357459
0.350541
0.343576
0.336573
0.329538
0.322478
0.384593
0.377955
0.371232
0.364432
0.357567
0.350644
0.343675
0.336664
0.329623
0.322554
0.384769
0.378129
0.3714
0.364592
0.357715
0.35078
0.343797
0.336774
0.329718
0.322637
0.38501
0.378361
0.371618
0.364793
0.357899
0.350945
0.343943
0.336901
0.329827
0.322729
0.313997
0.306977
0.299966
0.292958
0.285953
0.278946
0.271936
0.264923
0.257905
0.250881
0.243852
0.236818
0.229779
0.222734
0.215685
0.208632
0.201575
0.194515
0.187452
0.180386
0.173318
0.166249
0.159178
0.152105
0.145032
0.137959
0.130884
0.123809
0.116734
0.109659
0.102584
0.0955084
0.088433
0.0813576
0.0742822
0.314074
0.30704
0.300016
0.292998
0.285982
0.278968
0.271951
0.264932
0.25791
0.250883
0.243852
0.236816
0.229775
0.22273
0.21568
0.208627
0.20157
0.19451
0.187447
0.180381
0.173314
0.166245
0.159174
0.152103
0.14503
0.137956
0.130882
0.123808
0.116733
0.109658
0.102583
0.0955076
0.0884324
0.081357
0.0742817
0.314144
0.307099
0.300065
0.293037
0.286014
0.278992
0.27197
0.264946
0.25792
0.25089
0.243856
0.236817
0.229775
0.222729
0.215678
0.208624
0.201567
0.194507
0.187444
0.180379
0.173311
0.166242
0.159172
0.152101
0.145028
0.137955
0.130881
0.123807
0.116732
0.109657
0.102582
0.0955073
0.0884321
0.081357
0.0742817
0.314211
0.307158
0.300116
0.293081
0.286051
0.279023
0.271995
0.264967
0.257936
0.250902
0.243865
0.236824
0.22978
0.222732
0.21568
0.208625
0.201567
0.194506
0.187443
0.180377
0.17331
0.166241
0.159171
0.152099
0.145027
0.137954
0.13088
0.123806
0.116731
0.109657
0.102582
0.0955067
0.0884316
0.0813565
0.0742813
0.31428
0.307221
0.300173
0.293132
0.286095
0.279062
0.272028
0.264994
0.257959
0.250921
0.24388
0.236836
0.229789
0.222739
0.215685
0.208629
0.201569
0.194507
0.187443
0.180377
0.173309
0.16624
0.15917
0.152098
0.145026
0.137953
0.130879
0.123805
0.11673
0.109656
0.102581
0.0955059
0.0884309
0.0813559
0.0742808
0.314354
0.307292
0.300238
0.293191
0.286149
0.279109
0.27207
0.265031
0.25799
0.250947
0.243902
0.236854
0.229803
0.22275
0.215694
0.208635
0.201574
0.194511
0.187445
0.180378
0.17331
0.16624
0.159169
0.152097
0.145025
0.137951
0.130878
0.123804
0.116729
0.109655
0.10258
0.0955051
0.0884302
0.0813552
0.0742802
0.314438
0.307373
0.300315
0.293262
0.286214
0.279167
0.272121
0.265075
0.258028
0.25098
0.24393
0.236877
0.229822
0.222765
0.215706
0.208644
0.201581
0.194516
0.187449
0.180381
0.173311
0.166241
0.159169
0.152097
0.145024
0.13795
0.130877
0.123802
0.116728
0.109654
0.102579
0.0955041
0.0884293
0.0813544
0.0742795
0.314533
0.307465
0.300402
0.293344
0.286288
0.279235
0.272182
0.265128
0.258074
0.251019
0.243963
0.236905
0.229845
0.222784
0.21572
0.208656
0.20159
0.194522
0.187453
0.180384
0.173313
0.166241
0.159169
0.152096
0.145023
0.137949
0.130875
0.123801
0.116727
0.109652
0.102578
0.095503
0.0884282
0.0813535
0.0742787
0.314637
0.307566
0.300499
0.293435
0.286372
0.279311
0.272249
0.265188
0.258126
0.251064
0.244001
0.236936
0.229871
0.222805
0.215737
0.208669
0.2016
0.194529
0.187459
0.180387
0.173315
0.166242
0.159169
0.152096
0.145022
0.137948
0.130874
0.1238
0.116725
0.109651
0.102576
0.0955017
0.088427
0.0813524
0.0742777
0.314748
0.307675
0.300603
0.293532
0.286462
0.279392
0.272322
0.265252
0.258182
0.251112
0.244041
0.23697
0.229899
0.222827
0.215755
0.208683
0.20161
0.194537
0.187464
0.180391
0.173317
0.166243
0.159169
0.152095
0.145021
0.137947
0.130873
0.123798
0.116724
0.109649
0.102575
0.0955003
0.0884258
0.0813513
0.0742767
0.31486
0.307786
0.300709
0.293632
0.286554
0.279475
0.272397
0.265318
0.258239
0.251161
0.244083
0.237005
0.229928
0.222851
0.215774
0.208698
0.201621
0.194546
0.18747
0.180395
0.173319
0.166244
0.15917
0.152095
0.14502
0.137946
0.130871
0.123797
0.116722
0.109648
0.102573
0.0954989
0.0884245
0.0813501
0.0742757
0.314971
0.307894
0.300813
0.293729
0.286644
0.279557
0.272469
0.265382
0.258295
0.251209
0.244124
0.237039
0.229956
0.222873
0.215792
0.208712
0.201632
0.194554
0.187476
0.180398
0.173322
0.166246
0.15917
0.152094
0.145019
0.137944
0.13087
0.123795
0.116721
0.109646
0.102572
0.0954976
0.0884233
0.081349
0.0742747
0.315075
0.307996
0.300911
0.293821
0.286728
0.279633
0.272537
0.265442
0.258347
0.251254
0.244162
0.237071
0.229982
0.222895
0.215809
0.208725
0.201642
0.194561
0.187481
0.180402
0.173324
0.166246
0.15917
0.152094
0.145018
0.137943
0.130868
0.123794
0.116719
0.109645
0.10257
0.0954963
0.0884221
0.081348
0.0742739
0.31517
0.308089
0.300998
0.293903
0.286803
0.279701
0.272598
0.265495
0.258393
0.251293
0.244195
0.237099
0.230005
0.222913
0.215824
0.208736
0.201651
0.194567
0.187485
0.180405
0.173325
0.166247
0.15917
0.152093
0.145017
0.137942
0.130867
0.123792
0.116718
0.109643
0.102569
0.0954952
0.0884211
0.0813472
0.0742731
0.315255
0.30817
0.301075
0.293973
0.286867
0.279759
0.272649
0.26554
0.258432
0.251326
0.244223
0.237122
0.230024
0.222928
0.215836
0.208745
0.201658
0.194572
0.187489
0.180407
0.173327
0.166247
0.15917
0.152093
0.145017
0.137941
0.130866
0.123791
0.116717
0.109642
0.102568
0.095494
0.0884204
0.0813462
0.0742726
0.31533
0.308241
0.301141
0.294033
0.286921
0.279807
0.272691
0.265576
0.258463
0.251352
0.244244
0.23714
0.230038
0.22294
0.215844
0.208752
0.201663
0.194576
0.187491
0.180408
0.173327
0.166248
0.159169
0.152092
0.145016
0.13794
0.130865
0.12379
0.116715
0.109641
0.102567
0.0954934
0.0884195
0.0813457
0.0742718
0.315398
0.308304
0.301197
0.294084
0.286965
0.279845
0.272724
0.265605
0.258486
0.251372
0.24426
0.237152
0.230047
0.222947
0.215849
0.208756
0.201665
0.194577
0.187491
0.180408
0.173326
0.166247
0.159168
0.152091
0.145014
0.137939
0.130863
0.123789
0.116714
0.109641
0.102566
0.095493
0.0884186
0.0813455
0.0742712
0.315466
0.308363
0.301249
0.294128
0.287003
0.279876
0.27275
0.265625
0.258503
0.251384
0.24427
0.237158
0.230053
0.22295
0.215852
0.208756
0.201665
0.194576
0.187491
0.180406
0.173326
0.166245
0.159167
0.152089
0.145013
0.137937
0.130863
0.123787
0.116714
0.109639
0.102566
0.0954916
0.0884187
0.0813443
0.0742714
0.315537
0.308422
0.301298
0.294168
0.287035
0.279901
0.272769
0.265639
0.258513
0.251391
0.244273
0.237161
0.230053
0.222949
0.21585
0.208754
0.201662
0.194574
0.187487
0.180404
0.173322
0.166243
0.159164
0.152087
0.145011
0.137936
0.130861
0.123787
0.116712
0.109639
0.102565
0.0954913
0.0884176
0.0813442
0.0742705
0.315614
0.308485
0.301349
0.294208
0.287065
0.279924
0.272784
0.265649
0.258518
0.251393
0.244273
0.237158
0.230049
0.222944
0.215844
0.208749
0.201657
0.194568
0.187483
0.180399
0.173318
0.166239
0.159161
0.152085
0.145009
0.137934
0.130859
0.123785
0.116711
0.109638
0.102564
0.0954909
0.0884175
0.081344
0.0742705
0.0672068
0.0601314
0.0530561
0.045981
0.0389059
0.03183
0.0247543
0.0176809
0.0106024
0.00352631
0.0672063
0.0601311
0.0530559
0.0459814
0.0389058
0.031827
0.0247525
0.0176963
0.0105931
0.0035014
0.0672065
0.0601313
0.0530565
0.0459824
0.0389071
0.031827
0.0247532
0.0177057
0.0105976
0.0035033
0.0672062
0.060131
0.0530563
0.0459822
0.0389067
0.0318262
0.0247527
0.0177058
0.0105919
0.00350284
0.0672057
0.0601306
0.0530559
0.0459818
0.0389062
0.0318258
0.0247537
0.0177065
0.010584
0.00350221
0.0672052
0.0601302
0.0530556
0.0459814
0.0389056
0.0318255
0.0247549
0.017708
0.0105773
0.00350305
0.0672046
0.0601297
0.0530551
0.0459808
0.0389049
0.031825
0.0247555
0.0177086
0.0105709
0.00350411
0.0672038
0.060129
0.0530544
0.0459802
0.0389041
0.0318243
0.0247557
0.0177087
0.0105652
0.00350501
0.067203
0.0601282
0.0530538
0.0459795
0.0389034
0.0318237
0.0247557
0.0177085
0.0105611
0.00350578
0.0672021
0.0601275
0.0530531
0.0459789
0.0389028
0.0318233
0.0247556
0.0177083
0.010559
0.00350639
0.0672012
0.0601267
0.0530525
0.0459784
0.0389025
0.031823
0.0247554
0.0177083
0.0105591
0.0035068
0.0672004
0.060126
0.053052
0.0459781
0.0389023
0.0318229
0.0247552
0.0177082
0.0105615
0.00350695
0.0671997
0.0601254
0.0530516
0.0459778
0.0389023
0.031823
0.0247549
0.0177081
0.0105658
0.00350686
0.067199
0.0601249
0.0530512
0.0459777
0.0389025
0.0318232
0.0247546
0.0177078
0.0105717
0.00350646
0.0671983
0.0601246
0.0530507
0.0459777
0.0389025
0.0318236
0.0247536
0.017707
0.0105781
0.00350571
0.067198
0.060124
0.0530506
0.0459774
0.0389028
0.0318234
0.0247523
0.0177054
0.0105847
0.0035049
0.0671979
0.0601235
0.0530506
0.0459771
0.0389033
0.0318234
0.0247511
0.0177045
0.0105926
0.00350538
0.067197
0.0601239
0.0530498
0.0459776
0.0389029
0.0318243
0.0247514
0.0177047
0.0105983
0.00350549
0.0671969
0.060123
0.0530495
0.0459762
0.0389021
0.031824
0.0247505
0.0176955
0.010594
0.00350319
0.0671969
0.0601232
0.0530494
0.0459757
0.0389018
0.0318271
0.0247524
0.0176801
0.0106028
0.00352709
)
;

boundaryField
{
    inlet
    {
        type            zeroGradient;
    }
    outlet
    {
        type            fixedValue;
        value           uniform 0;
    }
    upperWall
    {
        type            zeroGradient;
    }
    lowerWall
    {
        type            zeroGradient;
    }
    frontAndBack
    {
        type            empty;
    }
}


// ************************************************************************* //
