/*--------------------------------*- C++ -*----------------------------------*\
| =========                 |                                                 |
| \\      /  F ield         | OpenFOAM: The Open Source CFD Toolbox           |
|  \\    /   O peration     | Version:  2406                                  |
|   \\  /    A nd           | Website:  www.openfoam.com                      |
|    \\/     M anipulation  |                                                 |
\*---------------------------------------------------------------------------*/
FoamFile
{
    version     2.0;
    format      ascii;
    arch        "LSB;label=32;scalar=64";
    class       volScalarField;
    location    "67";
    object      p;
}
// * * * * * * * * * * * * * * * * * * * * * * * * * * * * * * * * * * * * * //

dimensions      [0 2 -2 0 0 0 0];

internalField   nonuniform List<scalar> 
1800
(
2.34288
2.32288
2.29405
2.26011
2.21859
2.16659
2.10237
2.02371
1.92836
1.8099
2.3718
2.34111
2.30539
2.26984
2.22865
2.17755
2.11534
2.04147
1.95606
1.86152
2.42976
2.38956
2.34684
2.31054
2.27211
2.2258
2.17148
2.11106
2.04817
1.9906
2.51718
2.47251
2.42645
2.39127
2.35763
2.31895
2.27578
2.2313
2.18937
2.15514
2.62462
2.57775
2.53097
2.49843
2.47053
2.44031
2.40865
2.37895
2.35428
2.33772
2.73509
2.68743
2.64225
2.61379
2.59183
2.56947
2.54788
2.53026
2.51886
2.51534
2.82972
2.78309
2.74138
2.71727
2.70014
2.68381
2.66965
2.66048
2.65787
2.66259
2.89265
2.85061
2.81395
2.7929
2.77826
2.76536
2.75561
2.75121
2.75315
2.7618
2.91579
2.88373
2.85386
2.83403
2.81912
2.80668
2.79796
2.79452
2.79705
2.80578
2.90865
2.88577
2.8611
2.84176
2.82621
2.81346
2.80454
2.80064
2.80238
2.81008
1.82573
1.82507
1.82428
1.82358
1.82293
1.82231
1.82172
1.82114
1.8206
1.82009
1.8196
1.81912
1.81864
1.8182
1.81785
1.81778
1.81838
1.82043
1.8253
1.8351
1.85272
1.88179
1.92673
1.99271
2.08499
2.20817
2.36614
2.559
2.77808
3.00513
3.21513
3.38255
3.48633
3.50114
3.40862
1.82651
1.82581
1.82509
1.82449
1.82393
1.82337
1.82284
1.82234
1.8219
1.82153
1.82122
1.82101
1.82093
1.82106
1.82147
1.82227
1.82363
1.82596
1.83009
1.83739
1.84992
1.87058
1.90364
1.95594
2.0372
2.15618
2.315
2.50857
2.72601
2.95006
3.15979
3.32683
3.42393
3.42868
3.32649
1.82726
1.82641
1.82567
1.82514
1.82463
1.82409
1.82358
1.82313
1.82274
1.82245
1.82229
1.82231
1.82253
1.82295
1.8235
1.82406
1.82453
1.82506
1.82586
1.82739
1.83117
1.84101
1.86405
1.91014
1.98958
2.10666
2.2599
2.44579
2.65444
2.86654
3.05785
3.20071
3.2682
3.23886
3.09997
1.82716
1.82615
1.82536
1.82482
1.82426
1.82368
1.82311
1.8226
1.82219
1.82192
1.82184
1.82198
1.82227
1.82257
1.82264
1.82216
1.82097
1.81913
1.81673
1.81431
1.81417
1.82145
1.84306
1.88625
1.96071
2.07154
2.21732
2.39198
2.58266
2.76874
2.92408
3.01987
3.02893
2.93092
2.71786
1.82521
1.82418
1.82339
1.82285
1.82225
1.8216
1.82096
1.82039
1.81995
1.81972
1.81973
1.81995
1.82022
1.82026
1.81983
1.81877
1.817
1.81458
1.81171
1.80882
1.80827
1.81516
1.83682
1.88135
1.9557
2.06301
2.20053
2.35946
2.52409
2.67145
2.7729
2.79717
2.71525
2.5061
2.16822
1.82021
1.81958
1.81914
1.81884
1.81837
1.81781
1.81727
1.81679
1.81649
1.81646
1.81669
1.81709
1.81745
1.81755
1.81727
1.81658
1.81519
1.813
1.8106
1.8093
1.81203
1.82403
1.85208
1.90289
1.98133
2.08844
2.21915
2.36139
2.49599
2.59712
2.63375
2.57218
2.38071
2.03048
1.51843
1.8108
1.81161
1.81254
1.8132
1.81338
1.81334
1.81324
1.81322
1.81338
1.81379
1.81436
1.81502
1.81573
1.81627
1.81637
1.81606
1.81561
1.81551
1.81679
1.82163
1.83348
1.85735
1.899
1.9634
2.05302
2.16587
2.29376
2.4216
2.52726
2.58235
2.55208
2.40006
2.0916
1.59199
0.903797
1.79429
1.8
1.80495
1.80799
1.80958
1.81049
1.81106
1.81151
1.81211
1.81296
1.81392
1.81493
1.81598
1.81724
1.81898
1.82151
1.82564
1.83262
1.84421
1.86308
1.89276
1.93741
2.00108
2.08631
2.19265
2.31525
2.44384
2.56233
2.64788
2.67097
2.58989
2.35831
1.90852
1.20477
0.272409
1.75837
1.78528
1.80098
1.80676
1.80943
1.81137
1.81249
1.81305
1.81369
1.8148
1.81659
1.81935
1.82345
1.82939
1.83779
1.8495
1.86587
1.88868
1.91995
1.9621
2.01782
2.0897
2.1795
2.28717
2.40988
2.5414
2.67167
2.78666
2.86734
2.88915
2.81057
2.57791
2.04379
1.11097
-0.550252
1.67831
1.76727
1.80513
1.80912
1.81043
1.81391
1.81677
1.81915
1.82259
1.82787
1.83531
1.84554
1.85937
1.87765
1.90125
1.93118
1.96879
2.01561
2.07322
2.14312
2.22656
2.32423
2.43576
2.55924
2.69079
2.82446
2.95226
3.06461
3.15018
3.19652
3.18169
3.08003
2.75961
2.0912
-0.26904
1.72381
1.78547
1.82321
1.82375
1.82385
1.83143
1.8411
1.85155
1.86451
1.8811
1.90183
1.92746
1.95896
1.99715
2.04267
2.09616
2.15842
2.23034
2.31266
2.40571
2.50936
2.62276
2.7442
2.87089
2.99895
3.12354
3.23937
3.34143
3.42575
3.49089
3.53597
3.56873
3.57153
3.5908
3.15565
1.80507
1.82892
1.86351
1.87821
1.88913
1.90615
1.92752
1.95161
1.97929
2.01173
2.04971
2.09401
2.14533
2.20408
2.27041
2.34445
2.42635
2.51623
2.61391
2.71876
2.82959
2.94463
3.06153
3.17734
3.28871
3.3922
3.48485
3.56488
3.63257
3.69132
3.74756
3.81357
3.89581
4.01388
4.05264
1.95752
1.96366
1.9892
2.01132
2.03148
2.05728
2.08979
2.12731
2.16953
2.21728
2.27138
2.33226
2.4
2.47443
2.5552
2.64192
2.73411
2.83115
2.93211
3.03563
3.13996
3.24299
3.34238
3.43569
3.52056
3.59503
3.65794
3.70931
3.75092
3.7869
3.8241
3.87313
3.94387
4.04685
4.12386
2.1366
2.14098
2.16336
2.1916
2.22254
2.25929
2.30293
2.35238
2.4071
2.46753
2.53403
2.60647
2.68432
2.76691
2.85348
2.94316
3.03498
3.12777
3.22015
3.31051
3.39712
3.47818
3.55208
3.61744
3.67327
3.71904
3.75477
3.78121
3.80006
3.81451
3.83
3.85514
3.90032
3.97012
4.02703
2.33313
2.34389
2.36872
2.40215
2.44104
2.48576
2.53689
2.59401
2.65663
2.7245
2.79726
2.87417
2.95428
3.03655
3.1199
3.20313
3.28499
3.36417
3.43932
3.50919
3.57264
3.6288
3.67712
3.71748
3.7501
3.77543
3.79397
3.80622
3.81294
3.81593
3.81928
3.83051
3.85823
3.90253
3.93979
2.52144
2.53861
2.56657
2.60314
2.6463
2.69551
2.75076
2.81161
2.87726
2.94687
3.01951
3.09411
3.16947
3.24436
3.31755
3.38786
3.45416
3.5155
3.57107
3.62037
3.66315
3.69946
3.72966
3.75435
3.77428
3.79012
3.80214
3.81013
3.81387
3.81423
3.81458
3.82148
3.83987
3.86952
3.89312
2.67538
2.69683
2.72691
2.76471
2.80909
2.85929
2.91477
2.9748
3.03838
3.10442
3.17173
3.23913
3.30537
3.36929
3.42983
3.48614
3.53759
3.5838
3.62466
3.66024
3.69086
3.71697
3.73917
3.75809
3.77434
3.7883
3.79983
3.8083
3.81322
3.81532
3.81745
3.82464
3.84082
3.86153
3.87253
2.77743
2.80029
2.83032
2.86705
2.90974
2.95765
3.01005
3.06606
3.12464
3.18466
3.24497
3.30442
3.36195
3.41663
3.4678
3.51499
3.55798
3.59673
3.63138
3.66215
3.68934
3.71331
3.73443
3.75306
3.76949
3.78386
3.79602
3.80565
3.81264
3.8179
3.82402
3.83424
3.84909
3.86153
3.86424
2.82088
2.84245
2.87042
2.90445
2.94405
2.98857
3.03731
3.0894
3.14391
3.19978
3.25596
3.3114
3.36517
3.4165
3.46483
3.50985
3.55141
3.58945
3.62401
3.65516
3.68298
3.70766
3.72945
3.74862
3.76547
3.78014
3.79264
3.80303
3.8118
3.82008
3.8297
3.84201
3.85514
3.86279
3.8624
2.82394
2.84406
2.87039
2.90268
2.94053
2.98339
3.03059
3.08134
3.13472
3.18978
3.24548
3.30082
3.35484
3.40673
3.45582
3.50168
3.54407
3.58288
3.61814
3.64995
3.67841
3.70374
3.72617
3.74592
3.76318
3.77807
3.79067
3.80136
3.81098
3.82084
3.83235
3.84579
3.85837
3.86472
3.86384
3.20789
2.91086
2.53925
2.12063
1.68299
1.25034
0.840933
0.467152
0.136248
-0.151557
3.11596
2.80977
2.43159
2.01027
1.57339
1.14382
0.738862
0.370031
0.0421556
-0.244575
2.85226
2.51267
2.11148
1.68137
1.2483
0.831495
0.445613
0.0999305
-0.202375
-0.462365
2.39737
1.99618
1.55748
1.11816
0.697605
0.308145
-0.0393552
-0.339452
-0.593569
-0.806825
1.72456
1.22989
0.751589
0.318949
-0.0697959
-0.411924
-0.698916
-0.930159
-1.11362
-1.2594
0.877021
0.236856
-0.274476
-0.671079
-1.00234
-1.27211
-1.47144
-1.60827
-1.69942
-1.7596
-0.00757933
-0.874651
-1.42381
-1.76753
-2.02612
-2.1971
-2.27424
-2.28513
-2.26025
-2.21916
-1.03288
-2.09583
-2.58653
-2.79571
-2.90869
-2.92256
-2.84877
-2.72946
-2.59577
-2.46411
-2.85616
-3.52491
-3.54081
-3.42717
-3.28619
-3.12947
-2.96652
-2.80569
-2.64762
-2.49177
-4.822
-4.27939
-3.77502
-3.59677
-3.40233
-3.18988
-2.99007
-2.81196
-2.65579
-2.51214
-0.402116
-0.620162
-0.807185
-0.964428
-1.09401
-1.19834
-1.27954
-1.33942
-1.3796
-1.40158
-1.40672
-1.39633
-1.37169
-1.33413
-1.28502
-1.22585
-1.15818
-1.08368
-1.00412
-0.921354
-0.837297
-0.753864
-0.672875
-0.595921
-0.524234
-0.458547
-0.399114
-0.345757
-0.297997
-0.255374
-0.217555
-0.184247
-0.155145
-0.129879
-0.10798
-0.490886
-0.69951
-0.874853
-1.02063
-1.13987
-1.23509
-1.30838
-1.36142
-1.39566
-1.41241
-1.41293
-1.39842
-1.3701
-1.32922
-1.2771
-1.21521
-1.1451
-1.0685
-0.987232
-0.903253
-0.818567
-0.735164
-0.654891
-0.579298
-0.509438
-0.445772
-0.388341
-0.336739
-0.290323
-0.248663
-0.211629
-0.179111
-0.150859
-0.126447
-0.105325
-0.683492
-0.870248
-1.02677
-1.15654
-1.2622
-1.34584
-1.40918
-1.45372
-1.4807
-1.49127
-1.48646
-1.4673
-1.43475
-1.38985
-1.3337
-1.26755
-1.19281
-1.11109
-1.0242
-0.934137
-0.84303
-0.753063
-0.666314
-0.584584
-0.509213
-0.440985
-0.380144
-0.326415
-0.279219
-0.237965
-0.202108
-0.171055
-0.144177
-0.120841
-0.100551
-0.985215
-1.13458
-1.25942
-1.36264
-1.44628
-1.51206
-1.56149
-1.59571
-1.61552
-1.6216
-1.61458
-1.59501
-1.56337
-1.52016
-1.46595
-1.40147
-1.32767
-1.24567
-1.15687
-1.06288
-0.965558
-0.866922
-0.769105
-0.674209
-0.584153
-0.500527
-0.42449
-0.356712
-0.297413
-0.246457
-0.203407
-0.167565
-0.138041
-0.113834
-0.0939026
-1.37672
-1.47388
-1.55627
-1.62531
-1.68114
-1.7246
-1.75685
-1.77847
-1.78959
-1.79027
-1.78075
-1.76129
-1.73205
-1.69314
-1.64465
-1.58674
-1.51977
-1.44425
-1.36094
-1.27082
-1.17504
-1.07499
-0.972229
-0.868482
-0.765591
-0.665414
-0.569739
-0.48018
-0.398109
-0.324605
-0.260411
-0.205889
-0.160951
-0.12498
-0.0968765
-1.80132
-1.83624
-1.87042
-1.90219
-1.92828
-1.9482
-1.96277
-1.97211
-1.97561
-1.97256
-1.96247
-1.94512
-1.92035
-1.88803
-1.84794
-1.79985
-1.74363
-1.67927
-1.60699
-1.52719
-1.44042
-1.34733
-1.24873
-1.1456
-1.03913
-0.930695
-0.821883
-0.71439
-0.610003
-0.510562
-0.417899
-0.333753
-0.259593
-0.196403
-0.144539
-2.17775
-2.15284
-2.14605
-2.1471
-2.14863
-2.14913
-2.1488
-2.14751
-2.14466
-2.13936
-2.13057
-2.1174
-2.09923
-2.07564
-2.04621
-2.01048
-1.96797
-1.91832
-1.86132
-1.79688
-1.72503
-1.64581
-1.55935
-1.46592
-1.36601
-1.26038
-1.14999
-1.036
-0.919757
-0.802781
-0.686828
-0.573953
-0.466538
-0.367183
-0.278444
-2.35492
-2.29636
-2.27444
-2.26453
-2.2578
-2.25342
-2.25048
-2.248
-2.24564
-2.24301
-2.23924
-2.23322
-2.22413
-2.21138
-2.1945
-2.173
-2.1464
-2.11423
-2.07607
-2.03155
-1.98022
-1.92153
-1.85493
-1.78001
-1.69663
-1.60499
-1.5055
-1.39869
-1.28517
-1.16552
-1.0404
-0.910885
-0.778809
-0.647072
-0.519567
-2.36444
-2.30949
-2.2938
-2.28606
-2.27964
-2.27579
-2.27417
-2.27384
-2.27446
-2.27578
-2.27712
-2.27753
-2.27618
-2.27248
-2.26604
-2.25656
-2.24379
-2.22749
-2.20746
-2.18339
-2.15462
-2.12013
-2.07872
-2.02933
-1.97123
-1.90413
-1.82795
-1.74265
-1.64801
-1.54332
-1.42754
-1.29985
-1.16033
-1.01071
-0.854723
-2.36839
-2.31078
-2.29206
-2.28485
-2.28045
-2.27791
-2.27703
-2.27752
-2.27925
-2.28201
-2.28521
-2.28806
-2.28982
-2.28994
-2.28816
-2.28441
-2.27872
-2.27125
-2.26228
-2.25192
-2.23973
-2.22469
-2.20532
-2.18022
-2.1484
-2.10928
-2.06269
-2.0085
-1.94587
-1.87267
-1.78554
-1.68071
-1.55522
-1.40827
-1.24204
-2.31425
-2.29976
-2.29043
-2.28551
-2.28252
-2.28068
-2.28001
-2.28064
-2.28252
-2.28534
-2.28851
-2.29131
-2.29305
-2.29335
-2.29206
-2.28928
-2.28528
-2.28056
-2.27574
-2.27133
-2.26725
-2.26265
-2.25615
-2.2465
-2.23309
-2.21564
-2.19438
-2.16985
-2.14153
-2.10669
-2.06014
-1.99474
-1.90315
-1.78029
-1.62512
-2.28969
-2.2871
-2.28427
-2.28197
-2.28039
-2.27949
-2.27943
-2.28039
-2.28244
-2.28533
-2.28848
-2.29114
-2.29265
-2.29272
-2.29131
-2.28845
-2.28435
-2.2797
-2.27539
-2.27226
-2.27073
-2.27008
-2.26868
-2.26538
-2.26007
-2.25347
-2.24716
-2.24311
-2.24164
-2.24026
-2.23316
-2.21085
-2.16212
-2.07711
-1.95009
-2.27846
-2.27829
-2.27787
-2.27719
-2.27671
-2.27652
-2.27683
-2.27787
-2.27974
-2.28238
-2.28545
-2.28833
-2.29031
-2.29081
-2.28954
-2.28656
-2.28233
-2.27763
-2.27349
-2.27093
-2.27008
-2.26992
-2.2691
-2.26697
-2.26347
-2.25953
-2.25815
-2.26359
-2.2779
-2.29981
-2.32355
-2.33743
-2.32728
-2.27996
-2.18611
-2.27206
-2.27274
-2.27318
-2.27326
-2.27337
-2.27363
-2.27413
-2.27503
-2.27645
-2.27844
-2.28086
-2.28333
-2.28533
-2.28631
-2.28583
-2.28381
-2.28053
-2.27657
-2.27279
-2.2701
-2.26887
-2.2687
-2.2684
-2.26645
-2.26214
-2.25737
-2.25701
-2.26558
-2.28628
-2.3208
-2.36433
-2.40338
-2.42109
-2.40142
-2.33342
-2.26873
-2.26963
-2.27033
-2.27069
-2.27107
-2.27154
-2.27213
-2.27289
-2.27392
-2.27528
-2.27695
-2.27877
-2.2804
-2.28141
-2.28142
-2.28027
-2.2781
-2.2753
-2.27238
-2.26989
-2.26826
-2.26762
-2.26756
-2.26688
-2.26439
-2.26088
-2.26042
-2.26911
-2.29324
-2.33509
-2.38944
-2.44259
-2.47592
-2.47009
-2.41373
-2.26739
-2.26826
-2.26895
-2.26939
-2.26984
-2.27037
-2.27098
-2.27167
-2.27246
-2.27339
-2.27449
-2.2757
-2.27688
-2.27777
-2.27812
-2.27775
-2.27674
-2.27531
-2.27365
-2.27194
-2.27039
-2.26937
-2.26906
-2.269
-2.26839
-2.2676
-2.26941
-2.27885
-2.30321
-2.34737
-2.40756
-2.46818
-2.50859
-2.5074
-2.45201
-2.26725
-2.26797
-2.26858
-2.26903
-2.26951
-2.27004
-2.27064
-2.27128
-2.27196
-2.27267
-2.27343
-2.27422
-2.275
-2.27567
-2.27608
-2.27615
-2.27596
-2.27565
-2.27531
-2.2749
-2.27442
-2.2741
-2.2743
-2.27511
-2.27639
-2.27842
-2.2825
-2.29171
-2.31237
-2.35124
-2.40857
-2.47058
-2.51098
-2.50513
-2.44548
-2.2677
-2.26825
-2.2688
-2.26925
-2.26974
-2.27028
-2.27088
-2.2715
-2.27213
-2.27276
-2.27337
-2.27395
-2.27449
-2.27495
-2.27531
-2.27555
-2.27574
-2.276
-2.27644
-2.27708
-2.27786
-2.27883
-2.2802
-2.28226
-2.28527
-2.28946
-2.29527
-2.30388
-2.31825
-2.3428
-2.38034
-2.42586
-2.46156
-2.46071
-2.40317
-2.26829
-2.26871
-2.26921
-2.26972
-2.27024
-2.27081
-2.27141
-2.27204
-2.27267
-2.27328
-2.27384
-2.27434
-2.27476
-2.2751
-2.27537
-2.27561
-2.27589
-2.27632
-2.27701
-2.27808
-2.27958
-2.28157
-2.28419
-2.28767
-2.2923
-2.29835
-2.30613
-2.31592
-2.3278
-2.34127
-2.35496
-2.3663
-2.36951
-2.35252
-2.29675
-2.26871
-2.26911
-2.26966
-2.27023
-2.27081
-2.27141
-2.27204
-2.27268
-2.27333
-2.27396
-2.27453
-2.27503
-2.27543
-2.27572
-2.27595
-2.27614
-2.2764
-2.27683
-2.27755
-2.27869
-2.28042
-2.28289
-2.28631
-2.29096
-2.29718
-2.30539
-2.316
-2.32901
-2.34328
-2.3559
-2.36223
-2.3568
-2.33352
-2.28473
-2.20093
-0.0889893
-0.0724889
-0.0581534
-0.0457913
-0.03534
-0.0267558
-0.0199075
-0.0145447
-0.0101254
-0.00472539
-0.0869987
-0.0710509
-0.0571579
-0.0451047
-0.0347393
-0.0259716
-0.0189266
-0.0135901
-0.00934172
-0.00488297
-0.0829856
-0.067799
-0.0545965
-0.0429729
-0.0326454
-0.0236081
-0.0162934
-0.0111747
-0.00789803
-0.00504643
-0.0772408
-0.0629869
-0.0504496
-0.0391555
-0.0289125
-0.0197906
-0.0123359
-0.00746128
-0.00564293
-0.00516175
-0.0752497
-0.0585963
-0.0453828
-0.0342532
-0.0243482
-0.0154838
-0.0082772
-0.00383416
-0.00309827
-0.00518613
-0.103643
-0.0726512
-0.0498841
-0.0333257
-0.0210231
-0.0116609
-0.00483769
-0.00118497
-0.00122837
-0.005976
-0.202407
-0.140261
-0.0919998
-0.0564299
-0.0314601
-0.0149674
-0.00478351
-0.000640727
0.000485214
-0.0121045
-0.400752
-0.294904
-0.205296
-0.133642
-0.0798135
-0.0425714
-0.0184409
-0.00787002
0.00218801
-0.0306005
-0.697887
-0.546866
-0.408373
-0.288181
-0.189824
-0.115353
-0.0610268
-0.0326003
0.00283887
-0.0685404
-1.06181
-0.875327
-0.691759
-0.52057
-0.369393
-0.245164
-0.144927
-0.0847896
-0.00364884
-0.124298
-1.44117
-1.23602
-1.02006
-0.805399
-0.603241
-0.425715
-0.271353
-0.168589
-0.0277685
-0.180966
-1.78112
-1.57584
-1.3443
-1.10003
-0.856951
-0.631857
-0.425561
-0.276466
-0.0780666
-0.217359
-2.04194
-1.84977
-1.61747
-1.35829
-1.08793
-0.826679
-0.579424
-0.388298
-0.152125
-0.220551
-2.21175
-2.03564
-1.80959
-1.54516
-1.25879
-0.973182
-0.699167
-0.476157
-0.232616
-0.189571
-2.30288
-2.13564
-1.91344
-1.64546
-1.34814
-1.0454
-0.755913
-0.512433
-0.291414
-0.132261
-2.33983
-2.16955
-1.94183
-1.66452
-1.35392
-1.03459
-0.733743
-0.478086
-0.299395
-0.0596869
-2.32916
-2.15049
-1.91102
-1.61885
-1.29004
-0.950057
-0.634369
-0.368348
-0.235296
0.0216906
-2.27996
-2.08964
-1.83415
-1.52413
-1.17506
-0.812175
-0.476381
-0.197687
-0.0986048
0.110031
-2.18169
-1.99374
-1.7337
-1.41174
-1.04378
-0.658285
-0.296378
0.00479102
0.0989924
0.227342
-2.0721
-1.888
-1.63778
-1.31926
-0.947212
-0.551266
-0.173888
0.128229
0.239289
0.332647
)
;

boundaryField
{
    inlet
    {
        type            zeroGradient;
    }
    outlet
    {
        type            fixedValue;
        value           uniform 0;
    }
    upperWall
    {
        type            zeroGradient;
    }
    lowerWall
    {
        type            zeroGradient;
    }
    frontAndBack
    {
        type            empty;
    }
}


// ************************************************************************* //
