/*--------------------------------*- C++ -*----------------------------------*\
| =========                 |                                                 |
| \\      /  F ield         | OpenFOAM: The Open Source CFD Toolbox           |
|  \\    /   O peration     | Version:  2406                                  |
|   \\  /    A nd           | Website:  www.openfoam.com                      |
|    \\/     M anipulation  |                                                 |
\*---------------------------------------------------------------------------*/
FoamFile
{
    version     2.0;
    format      ascii;
    arch        "LSB;label=32;scalar=64";
    class       surfaceScalarField;
    location    "67";
    object      phi;
}
// * * * * * * * * * * * * * * * * * * * * * * * * * * * * * * * * * * * * * //

dimensions      [0 3 -1 0 0 0 0];

oriented        oriented;

internalField   nonuniform List<scalar> 
3470
(
0.0959783
-0.000978346
0.097894
-0.00191574
0.100408
-0.00251452
0.103464
-0.00305523
0.107089
-0.00362516
0.111348
-0.00425936
0.116359
-0.00501133
0.12237
-0.0060111
0.129659
-0.0072884
-0.0105473
0.140206
0.255012
-0.000990178
0.255703
-0.0026068
0.257165
-0.00397671
0.259389
-0.0052792
0.262394
-0.00663029
0.266229
-0.00809461
0.270969
-0.0097513
0.276696
-0.0117385
0.283635
-0.0142272
-0.0176054
0.290693
0.375107
-0.0010976
0.375574
-0.00307351
0.376524
-0.00492693
0.378
-0.006755
0.380027
-0.00865707
0.382634
-0.0107019
0.385844
-0.0129617
0.389641
-0.015535
0.393935
-0.0185217
-0.0220319
0.398362
0.455068
-0.00116579
0.4553
-0.00330488
0.455776
-0.00540314
0.456543
-0.00752195
0.457615
-0.00972903
0.458993
-0.0120802
0.460663
-0.0146322
0.462578
-0.0174499
0.464648
-0.0205913
-0.0240936
0.466709
0.494981
-0.00114642
0.49494
-0.00326415
0.494929
-0.00539272
0.494984
-0.00757618
0.495105
-0.00985
0.495275
-0.012251
0.495464
-0.0148211
0.495616
-0.0176021
0.495649
-0.0206243
-0.0238958
0.495452
0.494876
-0.00102234
0.494536
-0.00292475
0.494032
-0.00488786
0.493384
-0.00692816
0.49258
-0.00904688
0.491593
-0.0112634
0.490379
-0.0136073
0.48888
-0.0161028
0.487017
-0.0187614
-0.0215777
0.484699
0.454753
-0.000775496
0.454101
-0.00227227
0.453112
-0.00389885
0.451793
-0.00560993
0.450117
-0.00737084
0.448045
-0.00919066
0.445526
-0.0110889
0.442498
-0.0130749
0.438883
-0.0151466
-0.0172908
0.434597
0.374579
-0.000354148
0.373612
-0.00130521
0.372177
-0.0024643
0.370252
-0.00368458
0.367791
-0.00491017
0.364751
-0.00615093
0.36108
-0.007418
0.356714
-0.00870805
0.351577
-0.0100102
-0.0113085
0.345595
0.254309
0.000336872
0.253113
-0.000109115
0.251421
-0.000772316
0.249157
-0.00142059
0.246264
-0.00201705
0.242697
-0.00258436
0.238411
-0.00313122
0.233353
-0.00365092
0.227478
-0.00413492
-0.00457546
0.220745
0.0953369
0.0952278
0.0944554
0.0930349
0.0910178
0.0884335
0.0853023
0.0816514
0.0775164
0.072941
-3.63577e-05
3.6383e-05
-0.000304806
0.000268481
-0.000732718
0.000427915
-0.00123254
0.000499825
-0.00176803
0.000535483
-0.00233176
0.000563739
-0.00292675
0.000594997
-0.00355969
0.000632905
-0.00424006
0.000680301
-0.00498204
0.000741856
-0.0058075
0.000825347
-0.00674881
0.000941272
-0.00785305
0.00110435
-0.00918835
0.0013356
-0.0108527
0.00166465
-0.0129845
0.00213218
-0.0157696
0.00278522
-0.0194315
0.00366172
-0.0241921
0.0047604
-0.0301892
0.00599683
-0.0373594
0.00717005
-0.0453294
0.0079696
-0.0533641
0.00803427
-0.0603986
0.00703395
-0.0651908
0.00479165
-0.0665823
0.00139128
-0.0638276
-0.00275471
-0.0566933
-0.00713424
-0.0452055
-0.0114876
-0.0296253
-0.01558
-0.0102852
-0.0193398
0.0123422
-0.0226272
0.0374314
-0.0250888
0.063916
-0.0264843
-0.0267932
0.0907096
-0.000415022
0.000451439
-0.00137378
0.00122728
-0.00264256
0.0016967
-0.00406218
0.0019194
-0.00556758
0.00204087
-0.00714577
0.00214193
-0.00880562
0.00225482
-0.0105666
0.0023938
-0.012458
0.00257147
-0.0145218
0.00280538
-0.0168168
0.00312016
-0.0194226
0.00354723
-0.022442
0.00412416
-0.0259984
0.00489264
-0.0302257
0.00589263
-0.0352426
0.00714948
-0.0411065
0.00864895
-0.0477474
0.0103022
-0.0548941
0.0119066
-0.0620168
0.013119
-0.0683202
0.013473
-0.0728104
0.0124593
-0.0744417
0.00966487
-0.0723154
0.00490686
-0.06598
-0.00154445
-0.0556215
-0.00896747
-0.0415553
-0.0168208
-0.0237196
-0.0249695
-0.00208391
-0.0331228
0.0232858
-0.0409493
0.051914
-0.0479678
0.0830565
-0.0537696
0.115961
-0.0579929
0.149761
-0.0602842
-0.0604697
0.183438
-0.000921007
0.00137248
-0.00269341
0.00299967
-0.00483073
0.00383398
-0.00711698
0.00420559
-0.00948237
0.00440624
-0.0119166
0.00457617
-0.014432
0.00477024
-0.0170511
0.00501293
-0.0198047
0.00532491
-0.022731
0.00573162
-0.0258742
0.00626337
-0.0292781
0.00695127
-0.0329749
0.0078214
-0.0369664
0.00888473
-0.0411956
0.0101223
-0.0455126
0.0114669
-0.0496431
0.0127797
-0.053166
0.0138249
-0.0555181
0.0142585
-0.0560376
0.0136384
-0.0540516
0.0114871
-0.048987
0.00739464
-0.0405301
0.00120791
-0.028873
-0.00675047
-0.0143972
-0.0160203
0.00295091
-0.0263153
0.0235438
-0.0374132
0.0474387
-0.0488642
0.074474
-0.0601579
0.104299
-0.0707747
0.136459
-0.0801272
0.170329
-0.0876398
0.20516
-0.0928243
0.240132
-0.0952563
-0.0946596
0.274322
-0.00148033
0.00285279
-0.00405972
0.00557901
-0.00696001
0.00673417
-0.00991105
0.00715658
-0.0128458
0.00734103
-0.0157571
0.00748755
-0.0186516
0.00766489
-0.0215357
0.00789717
-0.0244109
0.00820013
-0.0272697
0.00859048
-0.030088
0.00908167
-0.0328125
0.009676
-0.0353476
0.0103568
-0.0375389
0.0110766
-0.039156
0.0117402
-0.0398826
0.0121943
-0.0393269
0.0122243
-0.0370504
0.0115487
-0.0326166
0.00982502
-0.025658
0.00668026
-0.0159794
0.0018091
-0.00363521
-0.00494867
0.0111671
-0.0135937
0.0284577
-0.0240404
0.0484633
-0.0360254
0.0713214
-0.049173
0.0969709
-0.0630625
0.125236
-0.0771291
0.155792
-0.0907136
0.188165
-0.103148
0.22182
-0.113783
0.256177
-0.121996
0.290606
-0.127254
0.324385
-0.129036
-0.126959
0.356685
-0.00205335
0.0049061
-0.00529871
0.00882423
-0.00867002
0.0101053
-0.0118741
0.0103607
-0.0148626
0.0103296
-0.0176343
0.0102594
-0.0201853
0.010216
-0.022497
0.010209
-0.0245299
0.010233
-0.0262215
0.0102819
-0.0274799
0.01034
-0.0281742
0.0103704
-0.0281278
0.0103108
-0.027118
0.0100675
-0.0248731
0.00949601
-0.0210769
0.00839869
-0.0154029
0.00655067
-0.00757459
0.00372054
0.00260343
-0.000352879
0.0152186
-0.0059346
0.0303513
-0.0133229
0.0480684
-0.0226651
0.0684147
-0.0339394
0.0913505
-0.0469758
0.116769
-0.0614435
0.144444
-0.0768474
0.173979
-0.0925971
0.204885
-0.108035
0.236646
-0.122475
0.268771
-0.135273
0.300821
-0.145832
0.33244
-0.153616
0.363308
-0.158122
0.392948
-0.158676
-0.154675
0.420664
-0.00262169
0.00752771
-0.00624462
0.0124469
-0.00956048
0.013421
-0.0123547
0.0131548
-0.0146481
0.012623
-0.0164621
0.0120735
-0.017791
0.011545
-0.0186001
0.0110181
-0.0188217
0.0104545
-0.0183596
0.00981954
-0.0170902
0.0090703
-0.0148529
0.008133
-0.0114478
0.00690603
-0.00664742
0.00526784
-0.000201922
0.00305129
0.00812249
7.46399e-05
0.0185605
-0.00388752
0.0313804
-0.00909977
0.0468131
-0.0157858
0.0650089
-0.0241303
0.0859564
-0.0342702
0.109508
-0.0462159
0.13539
-0.0598212
0.163196
-0.0747821
0.192403
-0.0906496
0.222418
-0.106862
0.252622
-0.122801
0.282434
-0.137847
0.311371
-0.151412
0.339099
-0.163
0.365432
-0.172166
0.390398
-0.178582
0.414139
-0.181863
0.436656
-0.181193
-0.175941
0.457921
-0.00317813
0.0107057
-0.00665288
0.0159213
-0.00900208
0.0157699
-0.0103563
0.0145089
-0.0109135
0.0131802
-0.0107332
0.0118934
-0.00980699
0.010619
-0.00809551
0.00930667
-0.00551797
0.00787679
-0.00195776
0.00625907
0.002729
0.00438334
0.00871588
0.00214627
0.0162071
-0.000584625
0.0254619
-0.00398637
0.0367713
-0.00825768
0.0504175
-0.0135714
0.0666184
-0.0200886
0.0854714
-0.027953
0.106957
-0.0372711
0.130915
-0.0480887
0.157017
-0.0603718
0.184778
-0.0739771
0.213594
-0.088637
0.242778
-0.103966
0.271616
-0.119487
0.299422
-0.134668
0.325591
-0.14897
0.349646
-0.161902
0.37129
-0.173055
0.390442
-0.182153
0.407256
-0.188979
0.422187
-0.193514
0.435842
-0.195518
0.448901
-0.194252
-0.19124
0.4642
-0.0036278
0.0143333
-0.00559753
0.0178906
-0.00515355
0.0153256
-0.00332151
0.0126768
-0.000573892
0.0104327
0.00305672
0.00826304
0.00762145
0.00605449
0.0131843
0.00374387
0.0198437
0.00121736
0.0277596
-0.00165703
0.037168
-0.00502502
0.0483282
-0.00901362
0.0614829
-0.0137389
0.0768124
-0.0193155
0.094406
-0.0258509
0.114273
-0.0334386
0.136331
-0.0421461
0.160381
-0.0520035
0.186103
-0.0629932
0.213051
-0.075037
0.240665
-0.087985
0.268293
-0.101605
0.295238
-0.115582
0.320796
-0.129525
0.344305
-0.142996
0.365182
-0.155545
0.382959
-0.166747
0.397313
-0.176257
0.408117
-0.183859
0.415493
-0.189529
0.41996
-0.193446
0.422515
-0.196069
0.424694
-0.197697
0.428153
-0.197711
-0.20374
0.440653
-0.00237381
0.0167068
0.00214791
0.0133683
0.00924768
0.00822549
0.0169603
0.00496397
0.0252416
0.00215147
0.0343112
-0.00080649
0.0443659
-0.00400018
0.0556036
-0.00749384
0.0682117
-0.0113907
0.0823479
-0.0157933
0.0981091
-0.0207861
0.115541
-0.0264456
0.134644
-0.032841
0.155358
-0.0400299
0.177557
-0.0480499
0.201034
-0.0569151
0.225497
-0.0666093
0.250573
-0.0770796
0.275809
-0.0882291
0.300683
-0.0999109
0.324621
-0.111923
0.34702
-0.124004
0.367279
-0.135841
0.384826
-0.147072
0.399146
-0.157316
0.409797
-0.166196
0.416431
-0.17338
0.418805
-0.178631
0.416825
-0.181879
0.410599
-0.183302
0.400702
-0.183549
0.388462
-0.18383
0.377481
-0.186716
0.373213
-0.193442
-0.215138
0.384612
0.0234355
-0.00672894
0.0420223
-0.00521881
0.0577544
-0.00750678
0.0729488
-0.0102305
0.0881673
-0.013067
0.103683
-0.0163222
0.119741
-0.0200584
0.136519
-0.024272
0.154121
-0.0289923
0.17259
-0.0342628
0.191924
-0.0401198
0.212068
-0.0465891
0.232913
-0.0536856
0.254293
-0.0614098
0.275986
-0.0697426
0.297712
-0.078641
0.319137
-0.0880349
0.339879
-0.0978216
0.359512
-0.107862
0.377576
-0.117976
0.393596
-0.127942
0.407087
-0.137496
0.41758
-0.146334
0.424635
-0.154127
0.427856
-0.160536
0.426901
-0.165241
0.421499
-0.167978
0.411453
-0.168585
0.396644
-0.16707
0.377021
-0.163679
0.352634
-0.159162
0.323647
-0.154843
0.291959
-0.155028
0.26534
-0.166823
-0.226587
0.27679
0.149063
-0.0155863
0.162312
-0.0184683
0.175918
-0.021112
0.189928
-0.0242409
0.204522
-0.0276616
0.219611
-0.031411
0.235141
-0.0355885
0.251102
-0.0402325
0.267461
-0.0453518
0.284152
-0.0509535
0.301073
-0.057041
0.318091
-0.0636074
0.335037
-0.0706314
0.351703
-0.078076
0.367846
-0.0858847
0.383184
-0.0939791
0.397404
-0.102255
0.410164
-0.110581
0.421093
-0.118792
0.429806
-0.126689
0.435905
-0.134041
0.438994
-0.140584
0.43869
-0.146031
0.434645
-0.150081
0.426557
-0.152449
0.414198
-0.152883
0.397427
-0.151207
0.376194
-0.147352
0.35052
-0.141397
0.32043
-0.133588
0.28571
-0.124443
0.245419
-0.114552
0.195831
-0.10544
0.126146
-0.0971377
-0.100441
0.2969
-0.0217934
0.304166
-0.025734
0.312367
-0.0293134
0.321214
-0.0330874
0.330702
-0.03715
0.340763
-0.0414722
0.351264
-0.0460896
0.362074
-0.0510421
0.373063
-0.0563404
0.384088
-0.0619787
0.394989
-0.0679419
0.405584
-0.0742031
0.415672
-0.0807191
0.425025
-0.0874291
0.433393
-0.0942524
0.4405
-0.101086
0.446049
-0.107804
0.44972
-0.114252
0.451177
-0.120248
0.450073
-0.125585
0.446064
-0.130032
0.438819
-0.13334
0.428047
-0.135259
0.41352
-0.135554
0.395103
-0.134031
0.372782
-0.130563
0.34669
-0.125114
0.317101
-0.117762
0.284401
-0.108696
0.249008
-0.0981953
0.211154
-0.0865888
0.170597
-0.0739947
0.125473
-0.0603148
0.0722703
-0.043935
-0.0281708
0.402615
-0.026047
0.407064
-0.0301828
0.411951
-0.0341996
0.417152
-0.0382894
0.422581
-0.0425782
0.428172
-0.0470639
0.433829
-0.0517465
0.439429
-0.0566418
0.44484
-0.061751
0.449916
-0.0670552
0.454495
-0.0725211
0.458395
-0.0781022
0.461411
-0.0837353
0.46332
-0.0893387
0.463879
-0.0948107
0.462821
-0.100029
0.459865
-0.104848
0.454717
-0.109103
0.447078
-0.11261
0.436663
-0.11517
0.423213
-0.116582
0.406527
-0.116654
0.386489
-0.115221
0.363101
-0.112166
0.336514
-0.107445
0.307055
-0.101104
0.275232
-0.093292
0.241722
-0.0842519
0.207319
-0.0742935
0.172839
-0.0637152
0.138875
-0.0526243
0.105401
-0.0405211
0.0711126
-0.0260257
0.0345236
-0.00734572
0.00635287
0.468589
-0.027927
0.47033
-0.0319239
0.472064
-0.035933
0.473757
-0.0399822
0.47532
-0.0441418
0.476679
-0.0484226
0.477743
-0.0528109
0.478398
-0.0572966
0.47851
-0.0618628
0.477931
-0.0664763
0.476498
-0.0710876
0.474027
-0.075632
0.470321
-0.0800287
0.465161
-0.0841792
0.458318
-0.0879673
0.44955
-0.0912608
0.438616
-0.0939142
0.425286
-0.095773
0.409357
-0.0966818
0.390681
-0.0964939
0.369184
-0.0950851
0.344899
-0.0923694
0.317995
-0.0883163
0.288796
-0.0829672
0.257799
-0.0764481
0.225669
-0.0689741
0.19322
-0.0608425
0.161376
-0.0524077
0.131102
-0.0440203
0.103239
-0.0358516
0.0781362
-0.0275219
0.0552907
-0.0176757
0.0334452
-0.00418023
0.0131673
0.0129325
0.0195201
0.49491
-0.0273854
0.493994
-0.0310077
0.492731
-0.0346701
0.491096
-0.0383471
0.489011
-0.0420566
0.486387
-0.0457992
0.483129
-0.0495521
0.479119
-0.0532866
0.474224
-0.0569684
0.468298
-0.0605506
0.461182
-0.0639708
0.452702
-0.0671524
0.442678
-0.0700052
0.430926
-0.0724267
0.417264
-0.0743055
0.401529
-0.0755257
0.383588
-0.0759734
0.363361
-0.0755452
0.340837
-0.0741579
0.316103
-0.0717603
0.289362
-0.0683442
0.260948
-0.0639556
0.231334
-0.0587023
0.201124
-0.052757
0.17103
-0.0463546
0.14184
-0.0397845
0.114377
-0.0333794
0.0894537
-0.027485
0.067764
-0.0223308
0.0495944
-0.0176822
0.03448
-0.0124078
0.0213582
-0.0045544
0.00960776
0.00756998
0.00136809
0.0211718
0.0208881
0.481836
-0.0245226
0.478369
-0.0275412
0.474269
-0.0305694
0.469489
-0.0335674
0.463954
-0.0365212
0.45757
-0.0394151
0.450236
-0.0422188
0.441843
-0.0448931
0.432268
-0.0473931
0.421382
-0.0496652
0.409057
-0.0516456
0.395166
-0.0532615
0.379596
-0.0544351
0.362256
-0.0550872
0.343094
-0.0551427
0.322105
-0.0545373
0.299357
-0.0532249
0.274997
-0.0511856
0.249272
-0.0484329
0.222532
-0.0450198
0.195229
-0.0410416
0.167907
-0.0366342
0.141173
-0.0319679
0.115651
-0.0272358
0.09194
-0.0226437
0.0705701
-0.0184149
0.0519959
-0.0148056
0.0365543
-0.0120437
0.0242967
-0.0100735
0.0147536
-0.00813961
0.00697134
-0.00462634
0.000310718
0.0021054
-0.00435993
0.0122399
-0.00445928
0.0212708
0.0164288
0.429554
-0.0194801
0.423685
-0.0216721
0.416933
-0.0238176
0.409241
-0.0258752
0.400538
-0.0278175
0.390743
-0.0296201
0.379776
-0.031252
0.367559
-0.0326762
0.354019
-0.0338534
0.339096
-0.0347418
0.322749
-0.0352981
0.304966
-0.0354793
0.285778
-0.0352472
0.265264
-0.0345724
0.243561
-0.0334396
0.220875
-0.031852
0.197486
-0.0298359
0.173743
-0.0274429
0.150061
-0.0247509
0.126901
-0.0218597
0.104743
-0.0188839
0.0840501
-0.0159413
0.0652193
-0.0131374
0.0485373
-0.0105541
0.034156
-0.00826274
0.022117
-0.00637633
0.0123966
-0.00508556
0.00485219
-0.00449965
-0.0009036
-0.00431802
-0.00546088
-0.0035828
-0.00914916
-0.000938768
-0.0114857
0.00444129
-0.010899
0.0116527
-0.00594898
0.0163204
0.0104798
0.338694
-0.0125795
0.330814
-0.0137918
0.321907
-0.0149102
0.311935
-0.0159037
0.300868
-0.0167501
0.288681
-0.0174328
0.275364
-0.0179351
0.260928
-0.0182404
0.245409
-0.018334
0.228872
-0.0182049
0.21142
-0.0178465
0.193199
-0.0172578
0.174397
-0.0164451
0.155248
-0.0154241
0.13603
-0.0142209
0.117051
-0.0128736
0.0986448
-0.0114296
0.0811451
-0.00994346
0.0648663
-0.00847227
0.0500744
-0.007068
0.0369563
-0.00576613
0.0256041
-0.00458958
0.0160046
-0.00353833
0.0080511
-0.00260102
0.00159356
-0.00180555
-0.00354004
-0.00124303
-0.00756266
-0.0010631
-0.0107548
-0.00130762
-0.0133985
-0.00167445
-0.0155272
-0.00145444
-0.0166664
0.000199926
-0.0158381
0.00361244
-0.011928
0.00774212
-0.00516883
0.00956086
0.00531089
0.213129
-0.00496268
0.204621
-0.00528387
0.195236
-0.005526
0.185013
-0.00567976
0.174004
-0.00574194
0.162286
-0.00571413
0.149951
-0.00560013
0.137116
-0.00540545
0.12392
-0.0051384
0.110526
-0.00481056
0.0971158
-0.00443615
0.083889
-0.00403093
0.0710544
-0.00361061
0.0588189
-0.00318867
0.047371
-0.00277313
0.0368713
-0.00237392
0.0274382
-0.00199668
0.0191311
-0.0016366
0.0119547
-0.00129607
0.00587064
-0.000984303
0.000814496
-0.000710422
-0.00330618
-0.000469326
-0.0065907
-0.000254175
-0.00912684
-6.51704e-05
-0.0110211
8.85545e-05
-0.0124272
0.000162872
-0.0135788
8.84607e-05
-0.0147316
-0.000154897
-0.0159591
-0.000446992
-0.0169172
-0.000496689
-0.0167838
6.60374e-05
-0.0145597
0.0013879
-0.00977785
0.00295984
-0.00365678
0.00343953
0.00165408
0.0679784
0.0626945
0.0571685
0.0514888
0.0457469
0.0400327
0.0344326
0.0290272
0.0238888
0.0190783
0.0146421
0.0106112
0.00700056
0.00381188
0.00103873
-0.00133522
-0.00333193
-0.00496856
-0.00626468
-0.00724904
-0.00795951
-0.00842889
-0.00868311
-0.00874832
-0.00865979
-0.00849694
-0.00840848
-0.00856339
-0.00901042
-0.00950717
-0.0094412
-0.00805336
-0.00509357
-0.00165408
0.116728
-0.0260182
0.140954
-0.0242251
0.162556
-0.0216019
0.180978
-0.0184206
0.195924
-0.0149459
0.207307
-0.0113824
0.215185
-0.00787694
0.219719
-0.00453319
0.221086
-0.00136668
0.00160798
0.219479
0.215952
-0.0585325
0.246349
-0.0546214
0.273887
-0.049139
0.298124
-0.0426572
0.318881
-0.0357026
0.33616
-0.0286605
0.350094
-0.0218107
0.360917
-0.0153556
0.368982
-0.00943036
-0.00408896
0.374679
0.306728
-0.0909382
0.336397
-0.0842903
0.362702
-0.0754436
0.385433
-0.065388
0.404646
-0.0549155
0.42053
-0.0445443
0.433363
-0.0346434
0.443482
-0.0254739
0.451231
-0.0171795
-0.00980172
0.456944
0.386513
-0.120767
0.412911
-0.110688
0.435496
-0.098028
0.454435
-0.0843277
0.470049
-0.0705293
0.482658
-0.0571534
0.492616
-0.0446009
0.500302
-0.0331603
0.506089
-0.022966
-0.0140296
0.510317
0.445406
-0.145509
0.466322
-0.131604
0.483516
-0.115222
0.497497
-0.0983092
0.508594
-0.0816256
0.517065
-0.0656248
0.523275
-0.0508114
0.527658
-0.0375434
0.530645
-0.0259526
-0.016013
0.532628
0.476601
-0.164189
0.49156
-0.146564
0.503057
-0.126719
0.5112
-0.106452
0.516008
-0.0864336
0.51797
-0.0675871
0.517922
-0.0507632
0.516698
-0.0363194
0.514983
-0.0242383
-0.014335
0.513305
0.478543
-0.178532
0.487072
-0.155093
0.489183
-0.12883
0.484981
-0.102251
0.475974
-0.0774261
0.464599
-0.0562126
0.452984
-0.039148
0.442483
-0.0258182
0.433825
-0.01558
-0.00788611
0.427377
0.448033
-0.185911
0.437698
-0.144758
0.41319
-0.104321
0.381776
-0.0708363
0.349882
-0.0455325
0.321562
-0.0278913
0.298479
-0.0160647
0.280824
-0.00816166
0.268153
-0.0029079
0.000343395
0.259924
0.354853
-0.156152
0.295379
-0.0852832
0.228992
-0.0379346
0.174638
-0.0164814
0.134643
-0.00553628
0.107003
-0.00025
0.0890724
0.00186764
0.0783372
0.0025748
0.0724284
0.00300121
0.00192048
0.0708529
0.120637
0.0353545
-0.00257978
-0.0190607
-0.0245964
-0.0248459
-0.022978
-0.0204032
-0.0174016
-0.0154804
0.215222
0.0042573
0.208751
0.0064712
0.200506
0.00824582
0.190883
0.00962323
0.180233
0.0106504
0.168862
0.0113727
0.157029
0.0118341
0.144954
0.0120764
0.132818
0.0121375
0.120769
0.0120504
0.108927
0.0118431
0.09739
0.0115379
0.086239
0.0111519
0.0755424
0.0106971
0.065361
0.0101818
0.0557499
0.00961118
0.0467601
0.00898965
0.0384379
0.00832197
0.0308227
0.00761496
0.0239434
0.00687903
0.0178142
0.00612917
0.0124293
0.00538498
0.0077607
0.00466911
0.00375901
0.00400252
0.000364804
0.00339546
-0.00250218
0.00286863
-0.00490957
0.00240935
-0.0068829
0.00197558
-0.00843202
0.00155147
-0.0095703
0.00114077
-0.0103377
0.000769884
-0.0107879
0.000452543
-0.010983
0.000197113
-0.0109872
5.97373e-06
-0.000141381
-0.0108443
0.378234
0.000702971
0.379729
0.00497688
0.379235
0.00873993
0.376838
0.0120207
0.372627
0.0148621
0.366695
0.017306
0.359137
0.0193931
0.350051
0.0211636
0.339533
0.0226561
0.327679
0.0239058
0.31458
0.0249426
0.300328
0.0257911
0.285012
0.0264689
0.268723
0.0269859
0.251561
0.0273447
0.233631
0.0275408
0.215056
0.027564
0.195978
0.0273998
0.176562
0.0270312
0.157
0.026441
0.137515
0.0256136
0.118363
0.0245379
0.0998233
0.0232094
0.0821935
0.0216336
0.0657611
0.0198297
0.0507967
0.0178355
0.0375052
0.015704
0.025979
0.0135056
0.0162069
0.0113279
0.00809013
0.00926235
0.00148016
0.007385
-0.00381251
0.00575015
-0.0079715
0.00436062
-0.0111415
0.00318009
0.00218665
-0.0134655
0.460965
-0.00331723
0.46359
0.00235132
0.465009
0.00732104
0.465333
0.0116969
0.464622
0.0155736
0.462897
0.019031
0.460152
0.0221394
0.456354
0.0249617
0.451458
0.0275525
0.445407
0.0299577
0.438135
0.0322146
0.429576
0.0343513
0.419659
0.0363859
0.408319
0.0383262
0.395495
0.0401687
0.381137
0.041899
0.365209
0.0434917
0.347698
0.044911
0.328617
0.0461114
0.308019
0.0470388
0.286001
0.0476322
0.262713
0.0478257
0.23837
0.0475527
0.213253
0.046751
0.187713
0.0453704
0.162168
0.0433819
0.137088
0.0407861
0.112973
0.0376224
0.0903283
0.0339747
0.069623
0.0299704
0.0512385
0.0257725
0.0354238
0.0215683
0.0222415
0.0175468
0.0115539
0.013872
0.0106536
0.00309148
0.513282
-0.00628218
0.515224
0.000409728
0.516324
0.00622135
0.5167
0.0113206
0.516437
0.0158366
0.515593
0.0198757
0.514198
0.0235338
0.512262
0.0268984
0.509768
0.030047
0.506679
0.0330477
0.502935
0.0359587
0.498459
0.0388279
0.493154
0.0416911
0.486909
0.0445716
0.479597
0.04748
0.471083
0.0504136
0.461218
0.0533562
0.449852
0.0562774
0.436831
0.0591317
0.422012
0.061858
0.405266
0.0643786
0.386492
0.0665993
0.365635
0.0684107
0.342694
0.0696919
0.317749
0.0703164
0.29097
0.0701617
0.262637
0.0691205
0.233147
0.0671139
0.203018
0.0641055
0.172877
0.0601128
0.143435
0.0552162
0.115443
0.049563
0.0896243
0.0433672
0.0665993
0.0368992
0.0304649
0.0467905
0.533939
-0.00759302
0.534809
-0.000460092
0.535361
0.00566935
0.535644
0.0110378
0.535681
0.0157994
0.535482
0.0200745
0.535044
0.023972
0.534355
0.0275879
0.533396
0.0310069
0.532139
0.0343054
0.530547
0.0375515
0.528572
0.0408037
0.526154
0.0441091
0.523223
0.0475036
0.519692
0.0510115
0.515459
0.0546462
0.510406
0.0584099
0.504391
0.0622929
0.49725
0.0662728
0.488797
0.0703115
0.478823
0.074353
0.467102
0.0783197
0.453403
0.0821105
0.437496
0.0855993
0.419176
0.0886367
0.398284
0.0910549
0.374731
0.0926742
0.348531
0.0933143
0.319831
0.0928069
0.288934
0.0910114
0.256319
0.087832
0.222648
0.0832359
0.188744
0.0772727
0.155553
0.0700911
0.0619472
0.124073
0.512042
-0.00633021
0.511342
0.00024054
0.511154
0.00585756
0.511393
0.0107986
0.511986
0.015206
0.512859
0.0192013
0.513938
0.0228941
0.515149
0.0263766
0.516427
0.0297301
0.517703
0.0330301
0.51891
0.036345
0.519981
0.0397338
0.520846
0.0432446
0.521436
0.0469144
0.521678
0.0507702
0.521494
0.05483
0.5208
0.0591039
0.519499
0.0635946
0.517475
0.0682969
0.514591
0.0731956
0.510681
0.0782627
0.505548
0.0834529
0.49896
0.0886991
0.490651
0.0939084
0.480329
0.0989594
0.467683
0.103702
0.452402
0.107956
0.434198
0.111518
0.412844
0.114162
0.388206
0.11565
0.360296
0.115743
0.329309
0.114224
0.295664
0.110919
0.260021
0.105735
0.0986876
0.223282
0.423315
-0.00226788
0.42136
0.002196
0.421085
0.00613275
0.422193
0.00969107
0.424442
0.0129568
0.427621
0.0160227
0.431553
0.0189623
0.436093
0.0218373
0.441113
0.0247104
0.446497
0.0276463
0.452137
0.0307055
0.45793
0.0339414
0.463778
0.0373972
0.469587
0.0411061
0.475265
0.0450925
0.480721
0.0493737
0.485863
0.0539617
0.490593
0.0588644
0.494805
0.0640854
0.498378
0.0696229
0.501174
0.0754666
0.503034
0.0815937
0.50377
0.0879637
0.503164
0.0945144
0.500964
0.101159
0.496881
0.107786
0.490585
0.114252
0.481716
0.120387
0.469895
0.125984
0.454747
0.130798
0.435942
0.134548
0.413244
0.136922
0.386568
0.137596
0.356042
0.136261
0.132671
0.322059
0.256173
0.00148492
0.255967
0.00240249
0.258487
0.00361393
0.263152
0.00502658
0.26946
0.00664954
0.277029
0.00845351
0.285597
0.0103943
0.294977
0.0124573
0.305029
0.0146593
0.315639
0.0170365
0.326712
0.0196323
0.338163
0.0224906
0.349911
0.0256493
0.361879
0.0291382
0.373991
0.0329813
0.386166
0.0371991
0.398317
0.0418104
0.410347
0.0468343
0.422145
0.052289
0.433578
0.0581906
0.444496
0.0645496
0.454725
0.0713652
0.464071
0.0786188
0.472316
0.0862698
0.479222
0.094254
0.484523
0.102485
0.487923
0.110852
0.489088
0.119223
0.48764
0.127431
0.483165
0.135273
0.475223
0.14249
0.463379
0.148766
0.447248
0.153727
0.426549
0.15696
0.158043
0.401177
0.0759205
-0.00358067
0.0839585
-0.0056336
0.0934037
-0.0058302
0.103455
-0.00502383
0.113815
-0.00371146
0.124483
-0.00221497
0.135549
-0.000672383
0.147089
0.000916072
0.159148
0.00259982
0.171753
0.00443136
0.184919
0.00646566
0.198655
0.00875348
0.212965
0.0113387
0.227851
0.0142522
0.243308
0.0175238
0.259324
0.0211834
0.275871
0.0252646
0.292899
0.0298074
0.310331
0.0348581
0.328058
0.040466
0.34593
0.0466798
0.363759
0.0535384
0.38132
0.06106
0.398356
0.0692349
0.414585
0.0780264
0.429697
0.0873732
0.443356
0.0971931
0.455195
0.107384
0.464809
0.117817
0.471756
0.128326
0.475558
0.138688
0.475714
0.148609
0.471723
0.157717
0.463118
0.165565
0.171654
0.449506
-0.000661998
-0.018398
0.0100933
-0.0163878
0.0183768
-0.0141137
0.0256632
-0.0123119
0.032636
-0.0106867
0.0396667
-0.00924845
0.0469839
-0.00799252
0.0547405
-0.00684247
0.0630468
-0.00570877
0.0719814
-0.00450466
0.0815992
-0.0031538
0.0919554
-0.00160368
0.103125
0.000168487
0.115188
0.00218889
0.128219
0.00449282
0.142298
0.00710494
0.157502
0.0100624
0.17389
0.0134214
0.191491
0.0172603
0.21029
0.02167
0.230221
0.0267533
0.251154
0.0326086
0.272906
0.039312
0.295237
0.0469059
0.317864
0.0554017
0.340451
0.0647863
0.362616
0.0750274
0.383921
0.0860783
0.403867
0.0978694
0.421903
0.110288
0.437438
0.123151
0.449857
0.136189
0.458549
0.149025
0.462924
0.161189
0.172136
0.46244
-0.00581473
-0.0125833
-0.00531184
-0.0168929
-0.00339147
-0.016037
-0.00110202
-0.0146056
0.00150109
-0.0132952
0.0044794
-0.0122327
0.00788936
-0.0114079
0.011779
-0.0107366
0.0161737
-0.0101062
0.0210712
-0.00940314
0.0264574
-0.00853878
0.0323349
-0.0074781
0.0387382
-0.00623007
0.0457607
-0.00482812
0.0535647
-0.00330554
0.0623426
-0.00166676
0.0723099
0.000100572
0.0836829
0.00205537
0.0966397
0.00430934
0.111322
0.00699556
0.127811
0.0102706
0.146132
0.0142944
0.166256
0.0191933
0.188104
0.0250618
0.211537
0.0319706
0.236347
0.0399765
0.262241
0.0491327
0.288821
0.0594969
0.31557
0.0711192
0.341856
0.0840008
0.366952
0.0980542
0.390075
0.113064
0.410433
0.128666
0.427262
0.14436
0.159547
0.43985
-0.00378335
-0.00880212
-0.00683667
-0.0138433
-0.00842418
-0.0144538
-0.00915944
-0.0138756
-0.0093222
-0.0131388
-0.00902628
-0.0125353
-0.00832736
-0.0121128
-0.00724515
-0.0118228
-0.00577558
-0.0115767
-0.00390357
-0.0112722
-0.00161837
-0.0108169
0.00106988
-0.0101557
0.00414544
-0.00929288
0.00762525
-0.00829485
0.0115757
-0.00724318
0.0161136
-0.00619402
0.0214048
-0.00517998
0.027686
-0.00421737
0.0352412
-0.00323551
0.0443074
-0.0020614
0.0550788
-0.000490211
0.0677296
0.00165235
0.0824152
0.00451433
0.0992737
0.00820687
0.118433
0.0128121
0.139977
0.0184304
0.163902
0.0252055
0.19005
0.0333462
0.218078
0.0430905
0.247448
0.05463
0.277446
0.0680559
0.307226
0.0832824
0.335881
0.10001
0.36249
0.117748
0.135872
0.386163
-0.00280309
-0.00600052
-0.00619534
-0.0104556
-0.00896891
-0.0116847
-0.0111187
-0.0117305
-0.0127785
-0.0114837
-0.014055
-0.0112629
-0.0150251
-0.0111452
-0.015739
-0.011109
-0.0162231
-0.0110898
-0.0164788
-0.0110103
-0.016483
-0.0108038
-0.0161915
-0.0104361
-0.0155529
-0.00991962
-0.0145288
-0.00930712
-0.013092
-0.00866946
-0.0112029
-0.00807419
-0.0087973
-0.00757837
-0.00578747
-0.00722082
-0.00202476
-0.00699241
0.00272412
-0.00680431
0.0087072
-0.00646822
0.0161221
-0.005759
0.0251666
-0.00452964
0.0361006
-0.00272883
0.0492578
-0.000351746
0.064979
0.00270238
0.0835472
0.00662908
0.105127
0.0117618
0.129672
0.0185441
0.156899
0.0274021
0.1863
0.0386531
0.217207
0.0523735
0.248845
0.0683675
0.280376
0.0862144
0.10534
0.310905
-0.00211355
-0.00388924
-0.00519667
-0.00737673
-0.00817736
-0.00870776
-0.010833
-0.00907793
-0.013182
-0.00913701
-0.015287
-0.00915888
-0.0172059
-0.00922526
-0.0189811
-0.00933068
-0.0206331
-0.00943201
-0.0221599
-0.00947579
-0.0235374
-0.00941662
-0.0247278
-0.00923545
-0.0256898
-0.00894752
-0.0263872
-0.00860055
-0.0267896
-0.00825995
-0.0268654
-0.00799315
-0.026582
-0.00785915
-0.0259049
-0.00789705
-0.0247882
-0.00811048
-0.0231466
-0.00844864
-0.020808
-0.00881141
-0.0174903
-0.00908251
-0.0128509
-0.0091761
-0.00654279
-0.00904732
0.00175782
-0.00866521
0.0124102
-0.00796587
0.0257725
-0.00674544
0.0420795
-0.00455525
0.0614144
-0.000797704
0.0836951
0.00511576
0.108631
0.0137121
0.135853
0.0251449
0.164994
0.0392208
0.19567
0.0555334
0.0736437
0.227361
-0.0015639
-0.00232693
-0.00414535
-0.00479915
-0.00688963
-0.00596643
-0.00953231
-0.00643709
-0.0120343
-0.00663555
-0.0144214
-0.00677062
-0.0167281
-0.00691569
-0.0189797
-0.00707399
-0.0211864
-0.00721878
-0.0233408
-0.0073133
-0.0254215
-0.00732741
-0.0273998
-0.00724891
-0.0292491
-0.00709105
-0.0309531
-0.00689133
-0.0325058
-0.00670396
-0.0339091
-0.006589
-0.035167
-0.00660227
-0.036279
-0.00678818
-0.0372237
-0.00716979
-0.0379339
-0.0077439
-0.0382637
-0.00848688
-0.0379742
-0.00937826
-0.0367352
-0.010421
-0.0341463
-0.011644
-0.0297623
-0.0130587
-0.0231591
-0.014582
-0.0139897
-0.0159303
-0.00196593
-0.0165972
0.0130183
-0.0157995
0.030603
-0.0124868
0.050277
-0.00598139
0.0717474
0.00365619
0.0950557
0.0158995
0.120453
0.030125
0.0459322
0.148154
-0.00110734
-0.00122122
-0.00311311
-0.00279654
-0.00539786
-0.00368381
-0.00772198
-0.00411371
-0.0100234
-0.00433334
-0.0123033
-0.00448823
-0.0145773
-0.00463746
-0.0168568
-0.00478887
-0.0191424
-0.00492611
-0.0214235
-0.0050248
-0.0236804
-0.00506333
-0.0258919
-0.0050316
-0.0280433
-0.0049357
-0.0301332
-0.00479988
-0.0321752
-0.00466261
-0.034195
-0.00457193
-0.0362242
-0.00457704
-0.0382937
-0.00472324
-0.0404216
-0.00504654
-0.0425934
-0.00557631
-0.0447397
-0.00634447
-0.0467173
-0.00740434
-0.0483024
-0.00884007
-0.0491878
-0.0107644
-0.048979
-0.0132758
-0.0471955
-0.0163766
-0.0432966
-0.0198427
-0.0367915
-0.0231184
-0.0273642
-0.0252469
-0.0148636
-0.0250128
0.000506258
-0.0213812
0.017829
-0.0136937
0.036318
-0.00261302
0.0561826
0.0102398
0.0239214
0.0781744
-0.000718977
-0.000503437
-0.00214057