/*--------------------------------*- C++ -*----------------------------------*\
| =========                 |                                                 |
| \\      /  F ield         | OpenFOAM: The Open Source CFD Toolbox           |
|  \\    /   O peration     | Version:  2406                                  |
|   \\  /    A nd           | Website:  www.openfoam.com                      |
|    \\/     M anipulation  |                                                 |
\*---------------------------------------------------------------------------*/
FoamFile
{
    version     2.0;
    format      ascii;
    arch        "LSB;label=32;scalar=64";
    class       surfaceScalarField;
    location    "39";
    object      phi;
}
// * * * * * * * * * * * * * * * * * * * * * * * * * * * * * * * * * * * * * //

dimensions      [0 3 -1 0 0 0 0];

oriented        oriented;

internalField   nonuniform List<scalar> 
3470
(
0.0194135
-0.000413491
0.0199692
-0.000555673
0.0205031
-0.000533865
0.0210477
-0.000544611
0.0216545
-0.000606807
0.0223706
-0.000715998
0.0232638
-0.000893215
0.0244531
-0.00118926
0.0261858
-0.00173276
-0.00344678
0.0296325
0.0508933
-0.000306823
0.0510399
-0.000702225
0.0514191
-0.000913062
0.0519725
-0.00109799
0.052692
-0.0013262
0.0535973
-0.00162119
0.0547253
-0.00202123
0.0561346
-0.00259859
0.0578655
-0.00346376
-0.00488673
0.0593055
0.0749594
-0.000266193
0.0749774
-0.000720253
0.0751416
-0.00107727
0.0754581
-0.00141448
0.0759253
-0.00179333
0.0765483
-0.00224412
0.0773285
-0.00280138
0.0782467
-0.00351687
0.07923
-0.00444711
-0.0056611
0.0800044
0.0909812
-0.000247429
0.090959
-0.000697989
0.0909962
-0.00111455
0.0911146
-0.00153284
0.0913136
-0.00199228
0.0915886
-0.00251906
0.0919262
-0.00313896
0.0922917
-0.00388249
0.0926195
-0.00477495
-0.00582663
0.0927851
0.0989701
-0.000217502
0.0988973
-0.000625275
0.0988213
-0.00103857
0.0987623
-0.0014738
0.0987169
-0.00194679
0.0986729
-0.00247502
0.0986109
-0.00307699
0.0984974
-0.00376898
0.0982812
-0.00455883
-0.00543855
0.0978931
0.0989459
-0.000163419
0.0988052
-0.000484534
0.0986149
-0.000848354
0.098391
-0.00124982
0.0981251
-0.00168091
0.0978013
-0.00215117
0.0973983
-0.00267401
0.0968858
-0.00325649
0.0962241
-0.00389713
-0.00458349
0.095369
0.0909099
-7.3364e-05
0.0906887
-0.000263265
0.0903913
-0.00055098
0.0900261
-0.00088458
0.0895783
-0.00123306
0.0890302
-0.00160311
0.0883607
-0.00200451
0.0875423
-0.00243805
0.0865432
-0.0028981
-0.00337337
0.085333
0.0748466
8.0059e-05
0.0745529
3.04259e-05
0.0741924
-0.000190483
0.0737519
-0.000444073
0.0732076
-0.000688743
0.0725401
-0.000935458
0.0717271
-0.00119151
0.0707437
-0.00145478
0.0695661
-0.00172052
-0.00198236
0.0681751
0.0507621
0.000318007
0.0505332
0.000259251
0.0502832
5.95423e-05
0.0499399
-0.000100731
0.0494731
-0.00022191
0.0488672
-0.000329485
0.0481072
-0.000431488
0.0471798
-0.000527426
0.0460758
-0.000616565
-0.000698211
0.0447916
0.019318
0.0195773
0.0196368
0.0195361
0.0193142
0.0189847
0.0185532
0.0180258
0.0174092
0.016711
-8.1303e-05
8.1284e-05
-0.000346764
0.000265435
-0.000722667
0.000375879
-0.00114126
0.000418577
-0.00156886
0.000427587
-0.00199226
0.000423393
-0.00240695
0.000414695
-0.00281079
0.00040385
-0.00320114
0.00039036
-0.00357362
0.000372503
-0.00392167
0.000348077
-0.00423633
0.000314685
-0.00450614
0.000269833
-0.00471718
0.000211073
-0.00485334
0.000136187
-0.00489675
4.34299e-05
-0.00482826
-6.84528e-05
-0.00462864
-0.000199592
-0.00427935
-0.000349261
-0.00376336
-0.000515959
-0.003066
-0.000697323
-0.00217579
-0.000890162
-0.00108471
-0.00109103
0.000211973
-0.00129663
0.0017151
-0.00150307
0.00342063
-0.00170547
0.00532012
-0.00189944
0.00739998
-0.00207981
0.00963985
-0.00223983
0.0120103
-0.00237039
0.0144696
-0.00245928
0.0169603
-0.00249065
0.0194062
-0.00244586
0.0217119
-0.00230576
-0.00205677
0.0237686
-0.000311754
0.000393021
-0.000990869
0.000944474
-0.00186174
0.0012467
-0.00280106
0.00135786
-0.00374041
0.00136691
-0.00464699
0.00132997
-0.00550525
0.00127297
-0.00630545
0.00120407
-0.00703779
0.00112274
-0.00768994
0.0010247
-0.00824602
0.000904224
-0.00868645
0.000755177
-0.00898812
0.00057158
-0.00912517
0.000348187
-0.00907
8.10829e-05
-0.0087944
-0.000232117
-0.00827131
-0.000591473
-0.00747594
-0.0009949
-0.00638687
-0.00143825
-0.00498719
-0.00191556
-0.00326515
-0.00241928
-0.00121397
-0.00294124
0.00116819
-0.00347307
0.00387659
-0.0040049
0.0069011
-0.00452745
0.0102281
-0.00503232
0.0138394
-0.00551068
0.0177123
-0.00595255
0.0218175
-0.00634504
0.0261175
-0.0066703
0.0305617
-0.00690335
0.0350815
-0.00701041
0.0395852
-0.00694966
0.0439535
-0.00667415
-0.00614509
0.0480417
-0.000506994
0.000899974
-0.00149431
0.00193175
-0.00267782
0.00243017
-0.00389808
0.00257808
-0.00507148
0.00254028
-0.00615636
0.00241485
-0.00713104
0.00224766
-0.00798101
0.00205407
-0.00869251
0.00183427
-0.00924961
0.00158185
-0.00963336
0.00128803
-0.00982174
0.000943621
-0.00979049
0.000540391
-0.00951444
7.2195e-05
-0.00896898
-0.000464315
-0.0081319
-0.00106915
-0.00698385
-0.00173946
-0.00550947
-0.00246922
-0.00369844
-0.00324921
-0.00154552
-0.00406841
0.000949777
-0.00491449
0.00378234
-0.0057737
0.00694132
-0.00663195
0.0104129
-0.00747636
0.0141806
-0.00829503
0.0182258
-0.00907744
0.0225287
-0.00981349
0.027068
-0.0104917
0.0318199
-0.0110969
0.0367561
-0.0116064
0.0418389
-0.0119861
0.0470153
-0.0121868
0.0522085
-0.0121429
0.0573076
-0.0117734
-0.0110043
0.0621667
-0.000634887
0.00153487
-0.00178744
0.00308428
-0.00308089
0.00372359
-0.00433266
0.00382982
-0.00545884
0.00366644
-0.00642105
0.00337705
-0.00720042
0.00302705
-0.00778481
0.00263848
-0.00816275
0.00221225
-0.00832117
0.00174031
-0.00824485
0.00121176
-0.007917
0.000615827
-0.00732037
-5.61754e-05
-0.00643898
-0.000809144
-0.00525944
-0.0016438
-0.00377118
-0.00255737
-0.00196734
-0.00354324
0.000154465
-0.00459097
0.00259249
-0.00568718
0.00533973
-0.00681558
0.00838424
-0.00795894
0.0117105
-0.00909988
0.0153005
-0.0102218
0.0191345
-0.0113103
0.0231929
-0.0123533
0.0274569
-0.0133414
0.03191
-0.0142665
0.0365382
-0.0151199
0.0413304
-0.0158891
0.0462762
-0.0165521
0.0513614
-0.0170712
0.0565597
-0.017385
0.061819
-0.0174022
0.067039
-0.0169936
-0.0160341
0.0720687
-0.000700003
0.00223485
-0.0018555
0.00423979
-0.00302749
0.00489558
-0.00404106
0.00484337
-0.0048346
0.00445997
-0.00538783
0.00393029
-0.00569473
0.00333396
-0.00575271
0.00269648
-0.00555825
0.00201781
-0.00510584
0.00128793
-0.00438844
0.000494395
-0.00339845
-0.000374113
-0.00212953
-0.00132506
-0.000577308
-0.00236132
0.00126033
-0.00348141
0.00338214
-0.00467914
0.00578276
-0.00594383
0.00845256
-0.00726074
0.0113775
-0.00861211
0.01454
-0.009978
0.0179191
-0.011338
0.021492
-0.0126727
0.0252349
-0.0139646
0.0291247
-0.0152001
0.0331409
-0.0163695
0.0372671
-0.0174675
0.0414929
-0.0184922
0.0458157
-0.0194428
0.0502423
-0.0203156
0.0547882
-0.0210979
0.0594747
-0.0217576
0.0643203
-0.0222304
0.0693186
-0.0224006
0.0743968
-0.0220718
-0.0210421
0.079405
-0.000712694
0.00294759
-0.00168854
0.0052157
-0.00246729
0.00567432
-0.00294285
0.00531892
-0.0031124
0.00462951
-0.00299009
0.00380798
-0.00258972
0.0029336
-0.00192157
0.00202834
-0.000991642
0.0010879
0.000197273
9.90405e-05
0.00164417
-0.000952466
0.00334758
-0.0020775
0.00530405
-0.0032815
0.00750768
-0.00456494
0.0099494
-0.00592312
0.0126165
-0.0073462
0.0154923
-0.00881963
0.0185565
-0.0103249
0.0217851
-0.0118407
0.0251518
-0.0133446
0.0286283
-0.0148145
0.0321861
-0.0162304
0.0357979
-0.0175763
0.0394392
-0.0188413
0.0430907
-0.0200209
0.0467402
-0.021117
0.050386
-0.0221379
0.0540395
-0.0230963
0.0577293
-0.0240053
0.0615037
-0.0248722
0.0654321
-0.0256858
0.0696019
-0.0264002
0.0740944
-0.0268929
0.0789455
-0.0269228
-0.0261818
0.0840852
-0.00065938
0.00360701
-0.00119815
0.00575454
-0.00122126
0.00569748
-0.000803113
0.00490078
-4.40228e-05
0.00387041
0.000999673
0.00276429
0.00229743
0.00163586
0.00383073
0.000495066
0.00558894
-0.000670281
0.00756627
-0.00187827
0.00975614
-0.00314232
0.0121491
-0.00447045
0.014733
-0.00586542
0.0174927
-0.00732457
0.0204092
-0.00883962
0.0234601
-0.0103971
0.0266193
-0.0119789
0.0298579
-0.0135634
0.0331444
-0.0151273
0.0364467
-0.0166468
0.0397322
-0.0181
0.0429702
-0.0194684
0.0461329
-0.020739
0.0491976
-0.021906
0.0521485
-0.0229717
0.0549796
-0.0239481
0.0576984
-0.0248567
0.0603308
-0.0257287
0.0629286
-0.026603
0.0655781
-0.0275216
0.0684096
-0.0285174
0.0716057
-0.0295962
0.0753888
-0.0306764
0.0800591
-0.0315934
-0.0319542
0.0858314
-0.00043691
0.00404396
8.32184e-06
0.00530944
0.00130227
0.0044036
0.00303939
0.00316367
0.0050196
0.0018902
0.0071755
0.000608419
0.0094836
-0.00067221
0.0119349
-0.00195623
0.0145244
-0.0032598
0.0172451
-0.00459894
0.020087
-0.0059842
0.0230367
-0.00742006
0.0260766
-0.00890536
0.0291855
-0.0104334
0.032338
-0.0119922
0.0355057
-0.0135647
0.038657
-0.0151302
0.041759
-0.0166653
0.0447776
-0.018146
0.0476798
-0.0195489
0.0504339
-0.0208541
0.0530116
-0.0220461
0.055389
-0.0231164
0.0575483
-0.0240652
0.0594793
-0.0249027
0.0611823
-0.025651
0.0626718
-0.0263461
0.0639828
-0.0270398
0.065183
-0.0278032
0.0663914
-0.0287301
0.0678108
-0.0299367
0.0697664
-0.0315522
0.0727449
-0.0336551
0.0774129
-0.0362616
-0.038569
0.0840273
0.000616668
0.00342735
0.00335564
0.00257054
0.00669405
0.00106523
0.0100721
-0.000214379
0.0133898
-0.00142749
0.0166567
-0.00265844
0.0198935
-0.00390906
0.0231159
-0.00517851
0.0263331
-0.00647699
0.0295479
-0.00781378
0.0327559
-0.00919215
0.0359456
-0.0106097
0.0390995
-0.0120593
0.0421954
-0.0135293
0.0452068
-0.0150036
0.0481044
-0.0164624
0.0508574
-0.0178832
0.0534342
-0.0192421
0.0558041
-0.0205158
0.0579383
-0.0216832
0.0598113
-0.022727
0.0614015
-0.0236362
0.0626925
-0.0244074
0.0636737
-0.0250465
0.0643417
-0.0255707
0.0647012
-0.0260105
0.0647678
-0.0264126
0.0645729
-0.0268448
0.0641749
-0.0274052
0.0636833
-0.0282384
0.0633145
-0.0295679
0.0635105
-0.0317483
0.0651927
-0.0353376
0.0696873
-0.0407565
-0.0447251
0.0758434
0.00715032
-0.00372296
0.0132134
-0.0034925
0.0182793
-0.00400059
0.0227865
-0.00472159
0.0268985
-0.0055395
0.0307158
-0.00647574
0.0343167
-0.00750991
0.0377536
-0.00861541
0.041055
-0.00977831
0.044232
-0.0109908
0.0472843
-0.0122445
0.0502028
-0.0135282
0.0529716
-0.0148281
0.0555698
-0.0161274
0.057973
-0.0174068
0.0601549
-0.0186443
0.0620889
-0.0198171
0.0637489
-0.0209021
0.0651111
-0.0218781
0.0661549
-0.0227269
0.0668635
-0.0234357
0.0672252
-0.0239978
0.0672329
-0.0244151
0.0668851
-0.0246986
0.0661848
-0.0248705
0.0651399
-0.0249656
0.0637618
-0.0250345
0.0620657
-0.0251487
0.0600711
-0.0254106
0.0578074
-0.0259747
0.0553338
-0.0270943
0.0528101
-0.0292247
0.0507574
-0.0332851
0.0506691
-0.040668
-0.0488317
0.0547758
0.0319553
-0.00604571
0.0354946
-0.00703178
0.0390412
-0.00754709
0.0424736
-0.00815404
0.0457809
-0.0088468
0.0489274
-0.00962218
0.0519029
-0.0104854
0.054712
-0.0114245
0.0573559
-0.0124222
0.0598287
-0.0134636
0.0621189
-0.0145347
0.0642108
-0.0156201
0.0660851
-0.0167024
0.0677201
-0.0177624
0.0690928
-0.0187794
0.0701802
-0.0197317
0.0709606
-0.0205975
0.0714151
-0.0213566
0.071528
-0.021991
0.0712883
-0.0224872
0.0706899
-0.0228372
0.0697317
-0.0230396
0.0684177
-0.0231011
0.066756
-0.0230369
0.0647574
-0.0228718
0.0624326
-0.0226409
0.0597894
-0.0223914
0.0568262
-0.0221855
0.053522
-0.0221063
0.0498163
-0.022269
0.0455647
-0.0228426
0.0404253
-0.0240854
0.0335149
-0.0263747
0.0224462
-0.0295993
-0.0263854
0.0599853
-0.00672556
0.0610567
-0.00810309
0.0625204
-0.00901084
0.0641741
-0.00980769
0.0659217
-0.0105944
0.0676817
-0.0113822
0.0693858
-0.0121895
0.0709875
-0.0130262
0.0724535
-0.0138881
0.0737549
-0.014765
0.074865
-0.0156448
0.0757582
-0.0165132
0.0764099
-0.0173541
0.0767967
-0.0181492
0.0768967
-0.0188795
0.076691
-0.019526
0.076164
-0.0200705
0.0753046
-0.0204972
0.074107
-0.0207933
0.072571
-0.0209512
0.0707021
-0.0209683
0.0685115
-0.020849
0.0660145
-0.0206042
0.0632296
-0.020252
0.0601754
-0.0198176
0.0568676
-0.0193331
0.0533138
-0.0188375
0.0495054
-0.0183771
0.0454058
-0.0180066
0.0409286
-0.0177916
0.0358978
-0.0178118
0.0299673
-0.0181549
0.0224299
-0.0188373
0.0119483
-0.0191175
-0.0144371
0.0803686
-0.00708976
0.080645
-0.00837944
0.0810252
-0.009391
0.0814777
-0.0102602
0.0819597
-0.0110764
0.0824342
-0.0118567
0.0828559
-0.0126113
0.0831812
-0.0133514
0.0833724
-0.0140794
0.0833972
-0.0147898
0.0832259
-0.0154735
0.0828319
-0.0161192
0.0821915
-0.0167137
0.0812847
-0.0172423
0.0800952
-0.01769
0.0786115
-0.0180422
0.0768273
-0.0182863
0.0747424
-0.0184123
0.072363
-0.0184139
0.0697014
-0.0182895
0.0667758
-0.0180427
0.063609
-0.0176823
0.0602274
-0.0172225
0.056658
-0.0166826
0.0529263
-0.0160858
0.0490518
-0.0154587
0.045044
-0.0148297
0.0408948
-0.0142279
0.0365697
-0.0136815
0.031993
-0.0132149
0.0270269
-0.0128455
0.0214395
-0.0125674
0.0148729
-0.0122706
0.00706216
-0.0113067
-0.00737494
0.0926808
-0.00698543
0.0923936
-0.00809225
0.0920459
-0.0090432
0.0916546
-0.00986886
0.0911993
-0.0106211
0.0906606
-0.011318
0.090015
-0.0119656
0.0892343
-0.0125707
0.0882916
-0.0131366
0.0871625
-0.0136607
0.0858257
-0.0141366
0.0842627
-0.0145562
0.0824588
-0.0149097
0.0804036
-0.0151872
0.0780921
-0.0153785
0.0755249
-0.015475
0.0727087
-0.0154701
0.0696564
-0.0153601
0.0663874
-0.0151448
0.0629261
-0.0148282
0.0593015
-0.0144182
0.0555457
-0.0139264
0.0516912
-0.0133681
0.0477695
-0.0127609
0.0438076
-0.012124
0.0398256
-0.0114766
0.0358324
-0.0108365
0.031822
-0.0102175
0.0277673
-0.00962678
0.023614
-0.00906142
0.0192726
-0.00850393
0.014617
-0.00791171
0.00951796
-0.00717162
0.00411933
-0.00590799
-0.00325562
0.0972765
-0.00636881
0.0964531
-0.00726875
0.0954813
-0.00807145
0.0943835
-0.00877101
0.0931529
-0.00939049
0.0917787
-0.00994387
0.0902492
-0.0104361
0.0885497
-0.0108712
0.0866654
-0.0112523
0.0845837
-0.011579
0.0822951
-0.011848
0.0797938
-0.0120548
0.0770781
-0.012194
0.0741513
-0.0122604
0.0710222
-0.0122493
0.0677048
-0.0121576
0.064219
-0.0119843
0.0605896
-0.0117306
0.0568457
-0.011401
0.0530198
-0.0110023
0.0491458
-0.0105441
0.0452576
-0.0100383
0.0413876
-0.00949796
0.0375637
-0.00893701
0.0338086
-0.00836884
0.030137
-0.0078051
0.0265545
-0.00725398
0.0230549
-0.00671786
0.0196185
-0.00619028
0.01621
-0.00565286
0.0127797
-0.00507352
0.00927404
-0.00440597
0.0056838
-0.00358127
0.0022477
-0.00247195
-0.00100792
0.0942873
-0.00528709
0.0929806
-0.00596203
0.0914755
-0.00656626
0.0897905
-0.007086
0.087929
-0.00752902
0.0858898
-0.00790459
0.0836713
-0.00821763
0.081272
-0.00847192
0.0786907
-0.00867093
0.0759283
-0.00881655
0.0729891
-0.00890881
0.0698809
-0.00894666
0.0666157
-0.00892878
0.0632094
-0.00885412
0.0596825
-0.00872233
0.0560591
-0.00853423
0.0523669
-0.00829211
0.0486363
-0.00799996
0.0448988
-0.00766343
0.0411862
-0.00728969
0.0375292
-0.0068871
0.0339557
-0.00646474
0.0304897
-0.00603188
0.02715
-0.00559733
0.0239498
-0.00516866
0.0208959
-0.0047512
0.0179884
-0.00434647
0.0152207
-0.0039501
0.0125795
-0.00354906
0.0100464
-0.00311964
0.00760161
-0.00262868
0.005237
-0.00204129
0.00299272
-0.00133706
0.00106813
-0.000547387
6.01958e-05
0.0838908
-0.00384482
0.0822146
-0.00428579
0.0803197
-0.00467126
0.0782237
-0.00499003
0.0759394
-0.00524469
0.0734769
-0.00544208
0.070847
-0.00558773
0.0680613
-0.00568621
0.0651321
-0.00574177
0.0620734
-0.00575779
0.058901
-0.00573637
0.0556332
-0.00567878
0.0522904
-0.00558605
0.0488956
-0.00545931
0.0454735
-0.00530016
0.0420501
-0.00511081
0.0386522
-0.00489425
0.0353066
-0.00465428
0.0320386
-0.0043954
0.0288716
-0.00412266
0.0258259
-0.00384138
0.022918
-0.00355689
0.0201604
-0.00327422
0.0175608
-0.00299771
0.0151227
-0.00273056
0.0128456
-0.00247417
0.0107261
-0.00222691
0.00875837
-0.00198237
0.00693661
-0.00172724
0.00525722
-0.00144017
0.0037233
-0.00109468
0.00235229
-0.000670253
0.00119224
-0.000177009
0.000353677
0.000291104
0.000413861
0.0665608
-0.00223055
0.0647271
-0.00245202
0.0626905
-0.00263463
0.0604737
-0.00277316
0.0580991
-0.00287015
0.0555884
-0.00293134
0.0529627
-0.00296201
0.0502429
-0.00296643
0.0474494
-0.00294827
0.0446021
-0.00291046
0.0417209
-0.00285506
0.0388256
-0.00278349
0.0359365
-0.00269695
0.0330738
-0.00259663
0.0302576
-0.0024839
0.0275071
-0.00236036
0.0248408
-0.00222787
0.022275
-0.00208856
0.0198244
-0.00194472
0.0175005
-0.00179874
0.0153121
-0.00165297
0.0132648
-0.00150961
0.0113612
-0.00137058
0.00960091
-0.00123741
0.00798132
-0.00111097
0.00649831
-0.000991159
0.00514747
-0.000876076
0.00392597
-0.000760857
0.00283504
-0.000636261
0.00188309
-0.000488146
0.00108853
-0.000300032
0.000480453
-6.21257e-05
9.45525e-05
0.00020884
-4.36352e-05
0.000429221
0.000370218
0.0433314
-0.000770295
0.0417087
-0.000829296
0.0399462
-0.000872005
0.0380708
-0.000897757
0.0361093
-0.000908743
0.0340862
-0.000908188
0.0320229
-0.000898778
0.0299389
-0.000882423
0.0278513
-0.000860572
0.0257751
-0.000834275
0.0237243
-0.000804219
0.0217117
-0.000770831
0.0197492
-0.000734487
0.0178482
-0.000695573
0.0160188
-0.000654545
0.0142704
-0.000611898
0.0126107
-0.000568192
0.0110462
-0.000524003
0.00958139
-0.000479937
0.00821924
-0.000436564
0.00696071
-0.000394427
0.0058051
-0.000353989
0.00475016
-0.000315639
0.0037924
-0.000279641
0.00292752
-0.000246098
0.00215116
-0.000214799
0.00146008
-0.000184999
0.000854036
-0.000154793
0.00033842
-0.000120599
-7.26895e-05
-7.69678e-05
-0.000355181
-1.74721e-05
-0.000478661
6.13797e-05
-0.000421637
0.000151786
-0.000208278
0.000215816
0.000161934
0.0159407
0.0151114
0.0142394
0.0133417
0.0124329
0.0115247
0.010626
0.00974354
0.00888298
0.00804871
0.0072445
0.00647367
0.00573918
0.00504361
0.00438906
0.00377716
0.00320898
0.00268498
0.00220504
0.00176848
0.00137406
0.00102007
0.000704432
0.00042479
0.000178692
-3.61063e-05
-0.000221105
-0.000375893
-0.000496485
-0.000573442
-0.000590906
-0.000529524
-0.000377744
-0.000161934
0.0254663
-0.0016977
0.0267158
-0.00124958
0.0274746
-0.000758698
0.027753
-0.000278304
0.0276009
0.00015212
0.0270907
0.000510323
0.0263009
0.000789879
0.0253068
0.000994105
0.0241754
0.00113149
0.00121292
0.0229625
0.0516897
-0.00534573
0.0547509
-0.00431082
0.057132
-0.00313967
0.0588046
-0.00195071
0.059786
-0.000829101
0.0601172
0.000179288
0.0598597
0.00104755
0.0590918
0.00176209
0.0578982
0.00232519
0.00274919
0.0563621
0.0666053
-0.00978434
0.0704542
-0.00815965
0.0736223
-0.00630773
0.0760965
-0.00442474
0.0779
-0.00263244
0.0790706
-0.000991167
0.0796525
0.000465706
0.0796926
0.001722
0.0792425
0.00277541
0.00363626
0.0783555
0.0766759
-0.0143916
0.0806431
-0.0121268
0.0838977
-0.00956224
0.0864733
-0.00700023
0.0884247
-0.00458379
0.0898099
-0.00237635
0.0906929
-0.000417288
0.0911322
0.00128266
0.0911707
0.00273688
0.00396641
0.0908406
0.0839728
-0.0189593
0.0877686
-0.0159225
0.0907479
-0.0125415
0.093002
-0.00925426
0.0946239
-0.00620557
0.0957141
-0.00346654
0.0963803
-0.00108355
0.0967126
0.000950243
0.0967677
0.00268182
0.00416074
0.0965733
0.0886908
-0.0235648
0.0921433
-0.0193749
0.094486
-0.0148841
0.0959301
-0.0106983
0.0966813
-0.00695681
0.0969645
-0.00374974
0.0969757
-0.00109485
0.0968377
0.00108815
0.0966036
0.00291579
0.00448857
0.0962757
0.0904837
-0.0282173
0.0928443
-0.0217357
0.0934611
-0.0155011
0.0929869
-0.0102241
0.0919755
-0.0059455
0.0908756
-0.00264985
0.0899392
-0.000158526
0.0892458
0.00178137
0.0887735
0.00338801
0.00484042
0.0884216
0.087058
-0.0312482
0.0856209
-0.0202989
0.0822669
-0.0121473
0.0785785
-0.00653591
0.0754201
-0.00278717
0.0731573
-0.000387111
0.0718093
0.00118919
0.0712473
0.00234337
0.0712713
0.00336386
0.00458182
0.0715297
0.0708831
-0.0262879
0.0616154
-0.0110313
0.0536587
-0.0041908
0.0482429
-0.00112024
0.0451855
0.000270141
0.0439091
0.000889079
0.0438768
0.00122132
0.0447243
0.00149569
0.0462
0.00188791
0.00311787
0.0476638
0.0284878
0.0174564
0.0132656
0.0121453
0.0124154
0.0133045
0.0145257
0.0160214
0.0179092
0.021027
0.0217131
0.00124947
0.0204626
0.00125066
0.0192378
0.00122481
0.0180579
0.00118001
0.016934
0.00112399
0.0158711
0.00106296
0.0148702
0.00100104
0.0139297
0.000940656
0.0130466
0.000883226
0.0122173
0.000829451
0.0114379
0.0007795
0.0107049
0.000733186
0.0100149
0.00069015
0.00936502
0.000649975
0.00875291
0.000612244
0.00817646
0.000576575
0.00763394
0.000542633
0.00712391
0.000510151
0.0066451
0.000478914
0.00619643
0.000448767
0.00577693
0.000419599
0.00538567
0.000391344
0.00502179
0.000363973
0.00468438
0.000337488
0.00437253
0.000311915
0.0040853
0.000287301
0.00382167
0.000263694
0.00358058
0.000241152
0.00336091
0.000219725
0.00316149
0.000199465
0.00298112
0.000180411
0.00281854
0.000162604
0.00267248
0.000146076
0.00254164
0.000130863
0.000116999
0.00242465
0.0545624
0.00304928
0.0525731
0.00324018
0.0504609
0.00333711
0.0482831
0.00335796
0.0460849
0.00332239
0.0438999
0.00324814
0.0417521
0.00314897
0.039658
0.00303503
0.0376277
0.00291376
0.035667
0.00279036
0.0337788
0.00266804
0.0319637
0.00254857
0.0302214
0.0024327
0.028551
0.00232059
0.0269515
0.00221202
0.0254217
0.00210657
0.0239608
0.00200377
0.022568
0.00190317
0.0212427
0.0018044
0.0199845
0.0017072
0.0187929
0.00161142
0.0176674
0.001517
0.0166075
0.00142403
0.0156125
0.00133266
0.0146814
0.00124314
0.0138131
0.00115577
0.0130061
0.00107087
0.0122585
0.000988801
0.0115685
0.000909895
0.0109335
0.000834473
0.0103512
0.000762831
0.00981858
0.000695234
0.00933276
0.000631923
0.00889051
0.000573112
0.000519011
0.00848851
0.0770873
0.00431753
0.0754975
0.00483008
0.0736476
0.00518708
0.0715957
0.00540998
0.0693923
0.0055259
0.0670804
0.00556022
0.0646961
0.00553338
0.0622695
0.00546175
0.0598248
0.00535863
0.0573812
0.00523419
0.0549537
0.00509572
0.0525544
0.00494816
0.0501926
0.00479473
0.0478759
0.00463743
0.0456108
0.00447734
0.0434026
0.00431498
0.0412561
0.00415051
0.0391755
0.00398393
0.0371649
0.00381523
0.0352278
0.00364447
0.0333676
0.00347181
0.0315871
0.0032976
0.029889
0.00312232
0.0282751
0.00294666
0.026747
0.00277142
0.0253053
0.00259753
0.0239503
0.00242597
0.0226815
0.00225779
0.0214974
0.00209398
0.0203964
0.00193554
0.0193759
0.00178337
0.0184329
0.00163833
0.0175636
0.00150115
0.0167642
0.00137255
0.00125313
0.0160301
0.0901714
0.00498676
0.0891987
0.00580282
0.0879631
0.00642282
0.0865013
0.00687182
0.0848436
0.00718372
0.0830162
0.0073877
0.0810437
0.00750592
0.078949
0.00755662
0.0767526
0.00755512
0.0744736
0.00751339
0.0721292
0.00744024
0.0697355
0.00734206
0.067307
0.00722341
0.0648572
0.00708744
0.0623985
0.00693621
0.0599427
0.006771
0.0575008
0.00659263
0.0550832
0.00640165
0.0527001
0.00619853
0.0503609
0.00598381
0.0480747
0.00575819
0.0458498
0.00552256
0.0436942
0.00527813
0.0416146
0.00502635
0.0396172
0.00476891
0.0377071
0.00450774
0.0358882
0.0042449
0.0341636
0.00398253
0.0325348
0.00372279
0.0310026
0.0034678
0.0295665
0.00321959
0.0282248
0.00298004
0.026975
0.0027509
0.0258138
0.00253374
0.00233001
0.0247369
0.0961475
0.00541247
0.0955196
0.00643079
0.0947232
0.00721924
0.0937784
0.00781659
0.0926923
0.0082698
0.0914686
0.00861141
0.0901112
0.00886336
0.0886241
0.00904376
0.087012
0.00916728
0.085281
0.00924448
0.0834387
0.00928271
0.0814936
0.00928724
0.0794555
0.00926172
0.0773345
0.00920855
0.0751417
0.00912912
0.0728887
0.00902416
0.0705875
0.00889398
0.0682505
0.00873874
0.0658906
0.00855859
0.0635207
0.00835388
0.0611537
0.00812524
0.0588027
0.00787373
0.0564801
0.00760088
0.0541978
0.0073087
0.0519671
0.00699967
0.0497983
0.00667668
0.0477003
0.00634296
0.0456809
0.00600197
0.0437465
0.00565729
0.0419018
0.00531255
0.0401501
0.00497128
0.0384933
0.00463689
0.0369316
0.00431257
0.0354641
0.00400127
0.00370567
0.0340884
0.095845
0.00584313
0.0953418
0.006934
0.0948039
0.0077571
0.0942356
0.00838489
0.0936221
0.00888324
0.0929484
0.00928511
0.0922005
0.00961121
0.0913651
0.0098792
0.0904308
0.0101016
0.0893896
0.0102857
0.0882365
0.0104359
0.0869688
0.010555
0.0855862
0.0106444
0.0840905
0.0107043
0.0824856
0.0107342
0.0807768
0.010733
0.0789714
0.0106995
0.0770781
0.0106321
0.0751072
0.0105296
0.0730703
0.010391
0.0709798
0.0102158
0.0688494
0.0100043
0.0666929
0.00975738
0.0645249
0.00947683
0.0623595
0.00916517
0.0602105
0.00882568
0.0580912
0.00846231
0.0560137
0.00807953
0.0539889
0.00768219
0.0520261
0.00727535
0.0501332
0.00686419
0.0483164
0.00645379
0.0465799
0.00604907
0.0449265
0.00565468
0.00527494
0.0433573
0.0880963
0.00616835
0.087835
0.00719527
0.0876795
0.00791259
0.087602
0.00846223
0.0875616
0.0089236
0.087526
0.0093206
0.0874666
0.00967056
0.0873575
0.00998823
0.087178
0.010281
0.0869121
0.0105515
0.0865475
0.0108006
0.0860745
0.0110281
0.0854858
0.011233
0.0847767
0.0114135
0.0839441
0.0115668
0.0829871
0.0116901
0.0819065
0.0117801
0.0807055
0.0118332
0.0793889
0.0118463
0.0779635
0.0118164
0.0764382
0.0117412
0.0748232
0.0116193
0.0731306
0.0114501
0.0713735
0.011234
0.0695658
0.0109729
0.0677222
0.0106694
0.0658572
0.0103273
0.0639853
0.0099515
0.0621202
0.00954736
0.0602746
0.00912095
0.0584602
0.0086787
0.0566868
0.00822718
0.0549629
0.00777294
0.0532953
0.00732236
0.00688151
0.0516887
0.0717926
0.00590532
0.0722267
0.00676114
0.0728726
0.00726651
0.0736502
0.0076845
0.0744947
0.008079
0.0753583
0.0084568
0.0761998
0.00882889
0.0769878
0.00920019
0.0777004
0.0095683
0.0783223
0.00992956
0.0788416
0.0102812
0.0792491
0.0106205
0.0795373
0.0109448
0.0797002
0.0112505
0.0797329
0.0115342
0.0796316
0.0117914
0.0793938
0.0120179
0.0790185
0.0122085
0.0785062
0.0123586
0.0778591
0.0124635
0.0770815
0.0125189
0.0761793
0.0125215
0.0751605
0.0124689
0.0740347
0.0123599
0.0728131
0.0121945
0.0715082
0.0119743
0.0701334
0.0117022
0.0687027
0.0113823
0.0672302
0.0110199
0.0657298
0.0106214
0.0642148
0.0101937
0.0626976
0.00974442
0.0611893
0.00928121
0.0596999
0.00881188
0.00834402
0.0582374
0.048772
0.00479696
0.0503242
0.00520877
0.0521872
0.00540339
0.0541689
0.00570268
0.0561736
0.00607406
0.0581358
0.00649451
0.060013
0.00695152
0.0617845
0.00742849
0.0634409
0.00791181
0.0649767
0.00839358
0.0663887
0.00886912
0.0676742
0.00933492
0.068831
0.00978794
0.0698563
0.0102251
0.0707474
0.0106431
0.071501
0.0110378
0.0721144
0.0114045
0.0725849
0.011738
0.072911
0.0120326
0.0730917
0.0122827
0.0731278
0.0124829
0.0730212
0.0126281
0.0727757
0.0127144
0.0723969
0.0127388
0.0718919
0.0126995
0.0712697
0.0125966
0.0705405
0.0124314
0.0697158
0.012207
0.0688079
0.0119278
0.0678297
0.0115997
0.0667939
0.0112296
0.0657133
0.0108251
0.0646
0.0103946
0.0634652
0.00994668
0.00949009
0.0623192
0.0236031
0.0022207
0.0270171
0.00179462
0.0303987
0.00202158
0.0336252
0.00247603
0.036677
0.00302196
0.0395387
0.00363264
0.042218
0.00427205
0.0447325
0.00491377
0.0470972
0.00554692
0.0493227
0.00616794
0.0514165
0.00677518
0.0533837
0.00736757
0.0552272
0.00794436
0.0569476
0.00850456
0.0585442
0.00904641
0.0600148
0.00956706
0.0613566
0.0100626
0.0625664
0.0105282
0.0636409
0.0109582
0.064577
0.0113467
0.0653724
0.0116875
0.0660258
0.0119748
0.066537
0.0122032
0.0669074
0.0123684
0.06714
0.012467
0.0672393
0.0124973
0.0672116
0.0124592
0.0670645
0.0123542
0.0668069
0.0121855
0.0664487
0.0119579
0.0660008
0.0116776
0.065474
0.0113519
0.0648796
0.010989
0.0642286
0.0105978
0.0101874
0.0635313
0.00513937
-0.00291872
0.0097661
-0.00283238
0.0137307
-0.0019433
0.0172874
-0.00108098
0.0205405
-0.000231363
0.0235557
0.000617193
0.0263856
0.00144188
0.0290686
0.00223054
0.0316301
0.00298527
0.0340861
0.00371171
0.036447
0.00441416
0.0387186
0.00509575
0.0409039
0.00575897
0.043003
0.00640533
0.0450143
0.00703499
0.0469347
0.00764661
0.0487598
0.00823735
0.0504848
0.00880311
0.0521042
0.00933876
0.0536125
0.00983841
0.0550042
0.0102957
0.0562748
0.0107043
0.0574202
0.0110579
0.0584377
0.0113509
0.0593258
0.011579
0.0600845
0.0117387
0.0607155
0.0118283
0.0612218
0.0118479
0.0616082
0.0117992
0.0618806
0.0116856
0.0620461
0.0115122
0.0621128
0.0112853
0.0620893
0.0110126
0.0619846
0.0107025
0.0103641
0.061808
0.000466061
-0.00338496
0.00243021
-0.00479686
0.00485175
-0.00436515
0.00731393
-0.00354348
0.00972463
-0.00264236
0.0120768
-0.00173526
0.0143807
-0.000862246
0.0166477
-3.67512e-05
0.0188862
0.000746532
0.0211008
0.00149695
0.0232936
0.00222122
0.0254645
0.00292462
0.0276119
0.00361146
0.0297324
0.00428474
0.0318213
0.00494588
0.0338732
0.0055946
0.0358815
0.00622898
0.0378389
0.00684565
0.0397376
0.00743997
0.0415697
0.00800636
0.0433268
0.00853855
0.0450013
0.00902988
0.0465855
0.00947368
0.0480729
0.00986363
0.0494578
0.0101941
0.0507358
0.0104607
0.0519039
0.0106603
0.0529606
0.0107914
0.0539058
0.0108542
0.0547409
0.0108506
0.0554689
0.0107843
0.0560939
0.0106604
0.0566211
0.0104856
0.0570564
0.0102673
0.0100141
0.0574066
-0.000366305
-0.00301879
-0.000146873
-0.00501672
0.000670896
-0.00518332
0.00180596
-0.00467892
0.00310888
-0.00394564
0.00452233
-0.00314904
0.00601975
-0.00235996
0.00758634
-0.00160363
0.00921456
-0.000881938
0.0109005
-0.000189199
0.0126396
0.000481952
0.0144261
0.00113801
0.0162537
0.00178371
0.0181161
0.00242223
0.0200064
0.00305544
0.0219172
0.00368363
0.0238406
0.00430548
0.025768
0.00491819
0.0276903
0.00551764
0.029598
0.00609867
0.0314812
0.00665534
0.03333
0.00718116
0.0351344
0.00766934
0.036885
0.00811317
0.0385727
0.0085065
0.0401896
0.00884401
0.0417285
0.00912154
0.0431838
0.00933634
0.044551
0.00948722
0.0458271
0.00957469
0.0470107
0.0096009
0.0481017
0.00956961
0.0491015
0.00948603
0.0500124
0.0093566
0.00918876
0.0508379
-0.000561648
-0.00245738
-0.00111083
-0.00446802
-0.00131481
-0.00497979
-0.00120985
-0.00478432
-0.000867356
-0.00428855
-0.000333867
-0.0036829
0.00036003
-0.0030542
0.00119282
-0.00243673
0.00214978
-0.00183915
0.00322021
-0.00125983
0.00439575
-0.000693744
0.00566919
-0.000135528
0.00703329
0.000419519
0.00848084
0.00097462
0.0100047
0.00153154
0.0115974
0.00209083
0.0132513
0.00265158
0.014958
0.00321146
0.0167088
0.00376688
0.0184943
0.00431316
0.0203047
0.00484505
0.0221294
0.00535655
0.0239577
0.00584121
0.0257786
0.00629239
0.0275814
0.00670386
0.0293557
0.00706995
0.0310915
0.00738591
0.03278
0.00764813
0.0344131
0.00785434
0.0359843