/*--------------------------------*- C++ -*----------------------------------*\
| =========                 |                                                 |
| \\      /  F ield         | OpenFOAM: The Open Source CFD Toolbox           |
|  \\    /   O peration     | Version:  2406                                  |
|   \\  /    A nd           | Website:  www.openfoam.com                      |
|    \\/     M anipulation  |                                                 |
\*---------------------------------------------------------------------------*/
FoamFile
{
    version     2.0;
    format      ascii;
    arch        "LSB;label=32;scalar=64";
    class       volVectorField;
    location    "39";
    object      U;
}
// * * * * * * * * * * * * * * * * * * * * * * * * * * * * * * * * * * * * * //

dimensions      [0 1 -1 0 0 0 0];

internalField   nonuniform List<vector> 
1800
(
(0.190142 -0.00239365 0)
(0.196399 -0.00308536 0)
(0.202414 -0.00244428 0)
(0.207723 -0.00212856 0)
(0.213321 -0.00223473 0)
(0.219825 -0.00261582 0)
(0.227727 -0.00334971 0)
(0.237723 -0.00473518 0)
(0.252029 -0.00823402 0)
(0.267335 -0.0269444 0)
(0.506671 -0.00358381 0)
(0.508257 -0.00727 0)
(0.512104 -0.00844335 0)
(0.516743 -0.00921881 0)
(0.522888 -0.0104698 0)
(0.53093 -0.0123953 0)
(0.541032 -0.0153006 0)
(0.553501 -0.0198527 0)
(0.568999 -0.0271294 0)
(0.585158 -0.041169 0)
(0.747474 -0.00280744 0)
(0.748472 -0.00709113 0)
(0.750587 -0.0101441 0)
(0.752894 -0.0129406 0)
(0.756507 -0.0161252 0)
(0.761896 -0.0200017 0)
(0.76895 -0.0249499 0)
(0.777464 -0.0316098 0)
(0.787091 -0.0408409 0)
(0.796437 -0.0541226 0)
(0.907857 -0.00248132 0)
(0.908647 -0.00702471 0)
(0.909924 -0.0110639 0)
(0.910649 -0.0150359 0)
(0.911912 -0.0194009 0)
(0.914224 -0.0244635 0)
(0.91738 -0.0305399 0)
(0.921003 -0.0380424 0)
(0.924614 -0.0473757 0)
(0.927373 -0.0588077 0)
(0.987965 -0.00225391 0)
(0.988402 -0.00663116 0)
(0.988865 -0.0109083 0)
(0.988183 -0.0153144 0)
(0.987349 -0.0201153 0)
(0.986852 -0.0255375 0)
(0.986438 -0.0318059 0)
(0.985685 -0.039147 0)
(0.984155 -0.0477073 0)
(0.981291 -0.0574457 0)
(0.987911 -0.00186185 0)
(0.98792 -0.00562415 0)
(0.987497 -0.00959926 0)
(0.985427 -0.0138725 0)
(0.982675 -0.0185027 0)
(0.97969 -0.0236173 0)
(0.976182 -0.0293682 0)
(0.971725 -0.0358654 0)
(0.965945 -0.0431273 0)
(0.958453 -0.0510304 0)
(0.907699 -0.00118756 0)
(0.907229 -0.00390094 0)
(0.90591 -0.00719101 0)
(0.902568 -0.0108895 0)
(0.898208 -0.0148476 0)
(0.893213 -0.0191262 0)
(0.887253 -0.0238292 0)
(0.879922 -0.0289917 0)
(0.870904 -0.0345673 0)
(0.859916 -0.0404219 0)
(0.747224 -1.77655e-05 0)
(0.746235 -0.00129078 0)
(0.744274 -0.00376539 0)
(0.74021 -0.00666957 0)
(0.735026 -0.0096442 0)
(0.728982 -0.0127494 0)
(0.721701 -0.0160667 0)
(0.712807 -0.019584 0)
(0.70205 -0.0232324 0)
(0.689239 -0.0269063 0)
(0.506385 0.00181552 0)
(0.505583 0.00216293 0)
(0.504521 0.000196993 0)
(0.50156 -0.00212543 0)
(0.497338 -0.0041753 0)
(0.491997 -0.00606481 0)
(0.485247 -0.00790402 0)
(0.476854 -0.00969585 0)
(0.46671 -0.0114128 0)
(0.45477 -0.0130202 0)
(0.189884 0.0017537 0)
(0.19427 0.00162375 0)
(0.19651 0.000431512 0)
(0.196217 -0.000357337 0)
(0.194471 -0.000789131 0)
(0.191692 -0.00111791 0)
(0.187896 -0.00141265 0)
(0.183099 -0.00165936 0)
(0.177367 -0.00185254 0)
(0.170778 -0.00200125 0)
(-0.00010623 9.22056e-05 0)
(-0.0018941 0.000562068 0)
(-0.0051854 0.00085438 0)
(-0.00926349 0.000958878 0)
(-0.0135526 0.000989227 0)
(-0.0178308 0.00100001 0)
(-0.022031 0.00101059 0)
(-0.0261307 0.00102508 0)
(-0.0301107 0.00104127 0)
(-0.0339379 0.00105368 0)
(-0.0375585 0.00105553 0)
(-0.0408948 0.00103937 0)
(-0.0438447 0.000997192 0)
(-0.0462806 0.000920298 0)
(-0.0480514 0.000800334 0)
(-0.0489862 0.00062936 0)
(-0.0488968 0.000401736 0)
(-0.0475896 0.000113854 0)
(-0.0448744 -0.000236151 0)
(-0.0405714 -0.000648535 0)
(-0.0345202 -0.00112078 0)
(-0.026589 -0.00164596 0)
(-0.0166816 -0.00221596 0)
(-0.0047422 -0.00281876 0)
(0.00925305 -0.00342763 0)
(0.0252991 -0.00401982 0)
(0.0433387 -0.00458651 0)
(0.0632597 -0.0051086 0)
(0.0848955 -0.00555798 0)
(0.108003 -0.00589665 0)
(0.132233 -0.00607384 0)
(0.157098 -0.0060257 0)
(0.181935 -0.00568085 0)
(0.205887 -0.00497353 0)
(0.227923 -0.0038732 0)
(-0.000744911 0.0020112 0)
(-0.00598205 0.00534338 0)
(-0.0139506 0.00732056 0)
(-0.0232453 0.00811369 0)
(-0.032768 0.00827535 0)
(-0.0420538 0.00816862 0)
(-0.0509066 0.00795899 0)
(-0.0592217 0.00769544 0)
(-0.066911 0.00737147 0)
(-0.0738679 0.00695749 0)
(-0.0799524 0.00641443 0)
(-0.0849867 0.00569939 0)
(-0.0887559 0.00476819 0)
(-0.0910126 0.00357873 0)
(-0.0914855 0.00209373 0)
(-0.0898896 0.00028744 0)
(-0.0859483 -0.00185425 0)
(-0.0793991 -0.0043278 0)
(-0.0700063 -0.00711389 0)
(-0.0575771 -0.0101785 0)
(-0.0419672 -0.0134742 0)
(-0.0230878 -0.0169459 0)
(-0.000910176 -0.0205335 0)
(0.0245475 -0.0241675 0)
(0.0532248 -0.0277718 0)
(0.0850076 -0.0312752 0)
(0.119733 -0.0346125 0)
(0.157198 -0.0377014 0)
(0.197147 -0.0404358 0)
(0.239254 -0.0426715 0)
(0.283086 -0.0442128 0)
(0.32806 -0.044804 0)
(0.373389 -0.0441409 0)
(0.418025 -0.0419021 0)
(0.460645 -0.037845 0)
(-0.00131765 0.00615946 0)
(-0.00939071 0.0138454 0)
(-0.0205669 0.0178675 0)
(-0.0329115 0.0192785 0)
(-0.0450437 0.0192799 0)
(-0.0564072 0.0186251 0)
(-0.0667446 0.0176687 0)
(-0.0759001 0.0165265 0)
(-0.0837432 0.0151953 0)
(-0.0901296 0.0136193 0)
(-0.0948853 0.0117232 0)
(-0.0978038 0.00942676 0)
(-0.0986508 0.00665424 0)
(-0.097174 0.00334331 0)
(-0.0931145 -0.000546027 0)
(-0.0862433 -0.00503143 0)
(-0.0763486 -0.0101019 0)
(-0.0632523 -0.0157184 0)
(-0.0468238 -0.0218143 0)
(-0.0269866 -0.0283045 0)
(-0.00372083 -0.0350897 0)
(0.0229416 -0.0420589 0)
(0.0529251 -0.0490957 0)
(0.0861102 -0.0560814 0)
(0.122342 -0.0629065 0)
(0.161443 -0.0694716 0)
(0.203223 -0.0756751 0)
(0.247475 -0.0813992 0)
(0.293979 -0.0864914 0)
(0.342479 -0.090736 0)
(0.392656 -0.0938248 0)
(0.444071 -0.0953321 0)
(0.496096 -0.0947204 0)
(0.547813 -0.0913709 0)
(0.59795 -0.0847634 0)
(-0.00172256 0.0120045 0)
(-0.0115773 0.0248931 0)
(-0.0242166 0.0307519 0)
(-0.0373009 0.0322357 0)
(-0.04935 0.0314321 0)
(-0.0598544 0.029543 0)
(-0.0685946 0.027127 0)
(-0.07544 0.0243735 0)
(-0.0802819 0.0212873 0)
(-0.0830001 0.017794 0)
(-0.0834522 0.0137924 0)
(-0.0814758 0.00917887 0)
(-0.076895 0.00386574 0)
(-0.0695315 -0.00220452 0)
(-0.0592493 -0.00905338 0)
(-0.0459209 -0.0166647 0)
(-0.0294565 -0.0249922 0)
(-0.00980582 -0.0339556 0)
(0.0130272 -0.0434417 0)
(0.0389883 -0.0533126 0)
(0.0679859 -0.0634181 0)
(0.0998834 -0.0735993 0)
(0.13451 -0.0836994 0)
(0.171676 -0.0935784 0)
(0.211181 -0.103111 0)
(0.252831 -0.11219 0)
(0.296447 -0.120712 0)
(0.341877 -0.128568 0)
(0.388997 -0.135601 0)
(0.437701 -0.141572 0)
(0.48788 -0.146103 0)
(0.539346 -0.148622 0)
(0.591751 -0.148334 0)
(0.644368 -0.144204 0)
(0.695984 -0.135272 0)
(-0.00201513 0.0188063 0)
(-0.0125222 0.0368184 0)
(-0.0246008 0.0436446 0)
(-0.0358442 0.0442102 0)
(-0.0449853 0.0416953 0)
(-0.0517421 0.0377634 0)
(-0.0560477 0.0331566 0)
(-0.0578782 0.0281215 0)
(-0.0572088 0.0226667 0)
(-0.0539928 0.0167041 0)
(-0.0481652 0.0101203 0)
(-0.0396463 0.00280411 0)
(-0.0283585 -0.00532948 0)
(-0.0142516 -0.0143219 0)
(0.00271475 -0.0241685 0)
(0.0225389 -0.0348255 0)
(0.0451834 -0.046207 0)
(0.0705756 -0.058187 0)
(0.0985986 -0.0706097 0)
(0.129092 -0.083293 0)
(0.161859 -0.0960455 0)
(0.196679 -0.108679 0)
(0.233316 -0.12102 0)
(0.271533 -0.132921 0)
(0.311108 -0.144267 0)
(0.351852 -0.154978 0)
(0.393627 -0.164992 0)
(0.436365 -0.17425 0)
(0.480085 -0.182652 0)
(0.524897 -0.190001 0)
(0.570993 -0.19592 0)
(0.618581 -0.199749 0)
(0.667805 -0.200445 0)
(0.718285 -0.196383 0)
(0.769104 -0.185907 0)
(-0.00225978 0.0260114 0)
(-0.0123022 0.0479382 0)
(-0.0214137 0.0540795 0)
(-0.0278346 0.0523881 0)
(-0.0310521 0.0471964 0)
(-0.0312471 0.0405213 0)
(-0.0286002 0.0332012 0)
(-0.0232383 0.02549 0)
(-0.0152412 0.0173759 0)
(-0.00463997 0.00874701 0)
(0.00854825 -0.0005291 0)
(0.0243158 -0.0105701 0)
(0.042634 -0.0214426 0)
(0.0634599 -0.033164 0)
(0.0867227 -0.0457064 0)
(0.112314 -0.0589916 0)
(0.140085 -0.0728926 0)
(0.169849 -0.0872404 0)
(0.201384 -0.101838 0)
(0.234435 -0.11647 0)
(0.268727 -0.13092 0)
(0.303971 -0.144985 0)
(0.339885 -0.158496 0)
(0.376206 -0.171323 0)
(0.412711 -0.18339 0)
(0.449236 -0.194674 0)
(0.485707 -0.205199 0)
(0.522165 -0.215011 0)
(0.558798 -0.224138 0)
(0.595985 -0.232516 0)
(0.634308 -0.239871 0)
(0.674544 -0.245571 0)
(0.717657 -0.248351 0)
(0.764026 -0.245981 0)
(0.814305 -0.236014 0)
(-0.00246706 0.0335068 0)
(-0.0104829 0.0563884 0)
(-0.0132624 0.0590861 0)
(-0.0110979 0.0536127 0)
(-0.00504453 0.0450352 0)
(0.00407734 0.0353118 0)
(0.0158509 0.0251869 0)
(0.0300488 0.0148366 0)
(0.0465264 0.00417819 0)
(0.0652193 -0.00694894 0)
(0.0860829 -0.0186892 0)
(0.109029 -0.0311377 0)
(0.133954 -0.044336 0)
(0.16072 -0.0582739 0)
(0.18916 -0.0728869 0)
(0.219066 -0.0880581 0)
(0.250194 -0.103622 0)
(0.282267 -0.119376 0)
(0.314979 -0.135094 0)
(0.34801 -0.15054 0)
(0.381031 -0.16549 0)
(0.413725 -0.179748 0)
(0.445793 -0.193164 0)
(0.476981 -0.205652 0)
(0.50709 -0.217196 0)
(0.536007 -0.227865 0)
(0.563729 -0.237805 0)
(0.590413 -0.247228 0)
(0.616426 -0.256382 0)
(0.642434 -0.265478 0)
(0.669476 -0.27454 0)
(0.699102 -0.283182 0)
(0.73339 -0.289988 0)
(0.774406 -0.292277 0)
(0.827032 -0.28632 0)
(-0.00245735 0.0413041 0)
(-0.00434113 0.0591162 0)
(0.00500837 0.0544246 0)
(0.0208256 0.0440723 0)
(0.0397253 0.0321933 0)
(0.0605255 0.0198589 0)
(0.0828912 0.00745592 0)
(0.106712 -0.00499364 0)
(0.131942 -0.0176488 0)
(0.15852 -0.0306869 0)
(0.186365 -0.0442338 0)
(0.215366 -0.0583539 0)
(0.245369 -0.0730582 0)
(0.276178 -0.0883026 0)
(0.307559 -0.103987 0)
(0.339242 -0.119959 0)
(0.370924 -0.136023 0)
(0.402281 -0.151951 0)
(0.432974 -0.167503 0)
(0.462663 -0.18244 0)
(0.491023 -0.196548 0)
(0.517749 -0.209654 0)
(0.542579 -0.22165 0)
(0.5653 -0.232503 0)
(0.585769 -0.242277 0)
(0.603933 -0.251146 0)
(0.619857 -0.259401 0)
(0.633774 -0.267467 0)
(0.646168 -0.275902 0)
(0.657926 -0.28539 0)
(0.670525 -0.296656 0)
(0.686551 -0.310258 0)
(0.709533 -0.325698 0)
(0.745795 -0.340954 0)
(0.803511 -0.348324 0)
(0.0030692 0.0406611 0)
(0.0182391 0.0467781 0)
(0.0487831 0.0335013 0)
(0.0834843 0.0194046 0)
(0.117375 0.00587321 0)
(0.150266 -0.00753578 0)
(0.182739 -0.0208627 0)
(0.215038 -0.0341571 0)
(0.24724 -0.0475987 0)
(0.279404 -0.0613573 0)
(0.311539 -0.075526 0)
(0.343569 -0.0901264 0)
(0.375345 -0.105123 0)
(0.406662 -0.120427 0)
(0.437274 -0.1359 0)
(0.4669 -0.151359 0)
(0.495236 -0.166585 0)
(0.521968 -0.18134 0)
(0.54678 -0.195383 0)
(0.569372 -0.208491 0)
(0.589469 -0.220472 0)
(0.606834 -0.231193 0)
(0.621274 -0.240593 0)
(0.632654 -0.248702 0)
(0.640903 -0.25566 0)
(0.646026 -0.261735 0)
(0.648122 -0.267352 0)
(0.647419 -0.273129 0)
(0.644345 -0.279947 0)
(0.639703 -0.28906 0)
(0.634963 -0.302278 0)
(0.633291 -0.322215 0)
(0.639753 -0.35242 0)
(0.66909 -0.396305 0)
(0.720019 -0.441647 0)
(0.0600604 0.00262309 0)
(0.10534 -0.00222688 0)
(0.156137 -0.0133793 0)
(0.20559 -0.0243125 0)
(0.249295 -0.0348299 0)
(0.28867 -0.0458334 0)
(0.325537 -0.0574479 0)
(0.360672 -0.0695399 0)
(0.394353 -0.0820627 0)
(0.426737 -0.0950214 0)
(0.457895 -0.108396 0)
(0.487785 -0.122119 0)
(0.516276 -0.136085 0)
(0.543175 -0.150149 0)
(0.568251 -0.16413 0)
(0.591247 -0.177817 0)
(0.611895 -0.19098 0)
(0.62993 -0.20338 0)
(0.6451 -0.214792 0)
(0.657179 -0.225015 0)
(0.665978 -0.233896 0)
(0.671353 -0.241344 0)
(0.673209 -0.247349 0)
(0.671506 -0.251998 0)
(0.666253 -0.255491 0)
(0.657508 -0.25816 0)
(0.645374 -0.260505 0)
(0.629991 -0.263243 0)
(0.611543 -0.267418 0)
(0.590302 -0.274603 0)
(0.566716 -0.287338 0)
(0.542114 -0.310021 0)
(0.519637 -0.350933 0)
(0.514918 -0.421608 0)
(0.502538 -0.503479 0)
(0.314018 -0.0581423 0)
(0.34042 -0.0633819 0)
(0.371257 -0.0656461 0)
(0.407013 -0.0699827 0)
(0.441715 -0.0762113 0)
(0.47402 -0.0839559 0)
(0.50451 -0.0929488 0)
(0.533438 -0.102906 0)
(0.560748 -0.11359 0)
(0.586362 -0.124829 0)
(0.610209 -0.136475 0)
(0.632167 -0.148378 0)
(0.652057 -0.160368 0)
(0.669666 -0.172256 0)
(0.684767 -0.18383 0)
(0.697125 -0.194868 0)
(0.706517 -0.20514 0)
(0.712737 -0.214424 0)
(0.715608 -0.22252 0)
(0.714997 -0.229265 0)
(0.710815 -0.234551 0)
(0.703026 -0.238336 0)
(0.691648 -0.240662 0)
(0.676743 -0.24166 0)
(0.658411 -0.24157 0)
(0.636768 -0.240746 0)
(0.611921 -0.239689 0)
(0.583919 -0.239083 0)
(0.552687 -0.239882 0)
(0.517896 -0.243479 0)
(0.478683 -0.252071 0)
(0.43319 -0.269415 0)
(0.376846 -0.302503 0)
(0.297598 -0.357402 0)
(0.129396 -0.355099 0)
(0.598438 -0.0627823 0)
(0.606148 -0.0771701 0)
(0.616872 -0.0859201 0)
(0.632593 -0.0933345 0)
(0.650324 -0.10079 0)
(0.668143 -0.108535 0)
(0.685522 -0.116748 0)
(0.702132 -0.125497 0)
(0.717569 -0.134712 0)
(0.731486 -0.144262 0)
(0.743611 -0.154003 0)
(0.753693 -0.163777 0)
(0.761483 -0.173408 0)
(0.766737 -0.182702 0)
(0.769226 -0.191453 0)
(0.768743 -0.199451 0)
(0.765113 -0.206492 0)
(0.758202 -0.212387 0)
(0.747925 -0.216981 0)
(0.73425 -0.220164 0)
(0.717203 -0.22188 0)
(0.69687 -0.222144 0)
(0.673386 -0.221045 0)
(0.646925 -0.218753 0)
(0.61768 -0.215521 0)
(0.585835 -0.211692 0)
(0.55152 -0.207706 0)
(0.514755 -0.204114 0)
(0.475352 -0.201615 0)
(0.432769 -0.201117 0)
(0.385823 -0.20385 0)
(0.332264 -0.211458 0)
(0.267278 -0.225434 0)
(0.182325 -0.239718 0)
(0.0520997 -0.200673 0)
(0.802903 -0.0702879 0)
(0.805824 -0.0836951 0)
(0.808248 -0.0937685 0)
(0.812168 -0.102455 0)
(0.817091 -0.110718 0)
(0.822078 -0.118754 0)
(0.826644 -0.126698 0)
(0.830455 -0.134671 0)
(0.833131 -0.142683 0)
(0.834301 -0.150668 0)
(0.833644 -0.158521 0)
(0.830884 -0.166114 0)
(0.825771 -0.173297 0)
(0.818085 -0.179906 0)
(0.80764 -0.185765 0)
(0.794296 -0.190705 0)
(0.777964 -0.194566 0)
(0.758611 -0.197217 0)
(0.736266 -0.198561 0)
(0.711021 -0.19855 0)
(0.683031 -0.197192 0)
(0.652505 -0.194554 0)
(0.619692 -0.190768 0)
(0.584865 -0.186025 0)
(0.548297 -0.180575 0)
(0.510222 -0.174716 0)
(0.4708 -0.168793 0)
(0.430057 -0.163186 0)
(0.387809 -0.158306 0)
(0.34355 -0.154592 0)
(0.296285 -0.152486 0)
(0.244286 -0.15229 0)
(0.184416 -0.153224 0)
(0.113989 -0.147875 0)
(0.026478 -0.104131 0)
(0.928006 -0.0715591 0)
(0.926012 -0.0834224 0)
(0.922482 -0.093462 0)
(0.91858 -0.102233 0)
(0.914407 -0.11031 0)
(0.909549 -0.11789 0)
(0.903691 -0.125065 0)
(0.896609 -0.131918 0)
(0.888055 -0.138477 0)
(0.877763 -0.14471 0)
(0.865492 -0.150541 0)
(0.851039 -0.155873 0)
(0.834238 -0.16059 0)
(0.814963 -0.164567 0)
(0.793136 -0.167676 0)
(0.768733 -0.169801 0)
(0.74179 -0.170844 0)
(0.712407 -0.170737 0)
(0.680744 -0.16945 0)
(0.647023 -0.166999 0)
(0.611516 -0.163445 0)
(0.574529 -0.158899 0)
(0.536393 -0.153515 0)
(0.497435 -0.147485 0)
(0.457952 -0.141028 0)
(0.418191 -0.134378 0)
(0.378304 -0.127767 0)
(0.33832 -0.12141 0)
(0.298088 -0.115472 0)
(0.257226 -0.110042 0)
(0.215036 -0.105075 0)
(0.170428 -0.100241 0)
(0.12178 -0.0942616 0)
(0.0692444 -0.0820272 0)
(0.0137213 -0.0493789 0)
(0.976425 -0.0678667 0)
(0.969237 -0.0778986 0)
(0.96012 -0.0867969 0)
(0.949654 -0.0946062 0)
(0.938012 -0.101623 0)
(0.925037 -0.108004 0)
(0.910554 -0.113809 0)
(0.894436 -0.119087 0)
(0.87655 -0.123863 0)
(0.856754 -0.128126 0)
(0.834929 -0.131827 0)
(0.810993 -0.134902 0)
(0.784908 -0.137276 0)
(0.756681 -0.138871 0)
(0.726372 -0.139615 0)
(0.694096 -0.139449 0)
(0.660022 -0.138339 0)
(0.624377 -0.136277 0)
(0.587432 -0.133291 0)
(0.549498 -0.129442 0)
(0.510911 -0.124825 0)
(0.472015 -0.119566 0)
(0.433145 -0.113815 0)
(0.394608 -0.107735 0)
(0.356663 -0.101492 0)
(0.319501 -0.0952426 0)
(0.283228 -0.0891126 0)
(0.247846 -0.0831761 0)
(0.213231 -0.077423 0)
(0.179117 -0.0717229 0)
(0.145075 -0.0657908 0)
(0.11052 -0.0591265 0)
(0.0748447 -0.0507722 0)
(0.0392646 -0.0384269 0)
(0.00660991 -0.0186863 0)
(0.948853 -0.0592246 0)
(0.936931 -0.0671159 0)
(0.922816 -0.0742122 0)
(0.9068 -0.0804051 0)
(0.889044 -0.0858069 0)
(0.869546 -0.0905145 0)
(0.848262 -0.094574 0)
(0.825174 -0.0980212 0)
(0.800271 -0.100885 0)
(0.77355 -0.103174 0)
(0.745032 -0.104875 0)
(0.714773 -0.10596 0)
(0.682872 -0.106399 0)
(0.649468 -0.106163 0)
(0.614745 -0.105232 0)
(0.578926 -0.103599 0)
(0.542275 -0.101277 0)
(0.505082 -0.098299 0)
(0.467659 -0.0947234 0)
(0.430329 -0.0906281 0)
(0.393407 -0.08611 0)
(0.357187 -0.0812785 0)
(0.321933 -0.07625 0)
(0.287863 -0.0711391 0)
(0.255137 -0.0660497 0)
(0.223857 -0.0610626 0)
(0.194056 -0.0562194 0)
(0.165703 -0.0514988 0)
(0.138698 -0.0467873 0)
(0.112879 -0.0418523 0)
(0.0880435 -0.0363406 0)
(0.0639876 -0.0298237 0)
(0.0406945 -0.0218861 0)
(0.0194525 -0.0123194 0)
(0.00265038 -0.00295947 0)
(0.846701 -0.0463101 0)
(0.831122 -0.0518834 0)
(0.813234 -0.0568319 0)
(0.793228 -0.0610323 0)
(0.771284 -0.064515 0)
(0.747521 -0.0673441 0)
(0.722031 -0.0695684 0)
(0.694923 -0.0712305 0)
(0.666317 -0.0723711 0)
(0.636343 -0.07302 0)
(0.605147 -0.073193 0)
(0.572899 -0.0728965 0)
(0.539791 -0.0721342 0)
(0.506043 -0.0709119 0)
(0.471893 -0.0692418 0)
(0.437598 -0.0671451 0)
(0.403423 -0.0646545 0)
(0.369639 -0.0618148 0)
(0.336508 -0.058682 0)
(0.304277 -0.0553212 0)
(0.273166 -0.0518031 0)
(0.243361 -0.0482004 0)
(0.215007 -0.0445834 0)
(0.188206 -0.0410149 0)
(0.163013 -0.0375442 0)
(0.139442 -0.0341982 0)
(0.117471 -0.0309683 0)
(0.0970491 -0.0277895 0)
(0.0781142 -0.0245159 0)
(0.0606131 -0.020906 0)
(0.0445342 -0.0166481 0)
(0.0299486 -0.0114706 0)
(0.0171188 -0.00538977 0)
(0.00691683 0.000734355 0)
(0.000522675 0.00349317 0)
(0.674232 -0.0304547 0)
(0.656983 -0.0336857 0)
(0.63759 -0.0364275 0)
(0.616263 -0.0386037 0)
(0.593244 -0.0402347 0)
(0.568761 -0.0413787 0)
(0.543026 -0.0420924 0)
(0.516248 -0.0424263 0)
(0.488633 -0.0424263 0)
(0.460381 -0.0421297 0)
(0.43169 -0.0415622 0)
(0.402757 -0.040742 0)
(0.373784 -0.0396835 0)
(0.344974 -0.0384022 0)
(0.316529 -0.0369161 0)
(0.288647 -0.0352477 0)
(0.261518 -0.0334236 0)
(0.235318 -0.0314753 0)
(0.210202 -0.0294374 0)
(0.186303 -0.0273464 0)
(0.163722 -0.0252386 0)
(0.142533 -0.023149 0)
(0.122774 -0.0211084 0)
(0.104458 -0.0191418 0)
(0.0875666 -0.0172649 0)
(0.0720645 -0.0154787 0)
(0.057905 -0.0137597 0)
(0.0450464 -0.0120445 0)
(0.033474 -0.010212 0)
(0.0232301 -0.00807737 0)
(0.014448 -0.00542405 0)
(0.00736974 -0.00211823 0)
(0.00232889 0.00164359 0)
(-0.000326863 0.00484041 0)
(-0.000537295 0.00452524 0)
(0.441036 -0.0144651 0)
(0.425587 -0.0156758 0)
(0.408604 -0.0165908 0)
(0.390347 -0.0171951 0)
(0.371098 -0.0175224 0)
(0.351117 -0.0176244 0)
(0.330635 -0.0175465 0)
(0.309855 -0.0173234 0)
(0.288957 -0.0169823 0)
(0.268103 -0.0165432 0)
(0.247435 -0.0160196 0)
(0.227087 -0.0154203 0)
(0.207182 -0.0147535 0)
(0.187837 -0.0140271 0)
(0.169159 -0.0132506 0)
(0.151248 -0.012434 0)
(0.134188 -0.0115888 0)
(0.118052 -0.0107268 0)
(0.102895 -0.0098606 0)
(0.0887539 -0.00900235 0)
(0.0756486 -0.00816374 0)
(0.0635801 -0.00735486 0)
(0.0525333 -0.00658425 0)
(0.0424785 -0.00585768 0)
(0.0333755 -0.0051774 0)
(0.0251787 -0.00453907 0)
(0.0178464 -0.00392714 0)
(0.0113561 -0.00330615 0)
(0.00572671 -0.00261115 0)
(0.00105074 -0.00174389 0)
(-0.0024763 -0.000592746 0)
(-0.00455566 0.000897358 0)
(-0.00488487 0.00257683 0)
(-0.00347465 0.00379098 0)
(-0.000918943 0.00290672 0)
(0.163415 -0.00211024 0)
(0.15539 -0.00217331 0)
(0.14685 -0.002183 0)
(0.137967 -0.00214299 0)
(0.128905 -0.00206793 0)
(0.119797 -0.00197364 0)
(0.110743 -0.00187072 0)
(0.101822 -0.00176487 0)
(0.0930949 -0.00165868 0)
(0.0846101 -0.00155251 0)
(0.0764083 -0.00144543 0)
(0.0685245 -0.00133658 0)
(0.06099 -0.00122602 0)
(0.0538327 -0.00111471 0)
(0.0470761 -0.00100408 0)
(0.040739 -0.000895694 0)
(0.0348349 -0.000790956 0)
(0.0293717 -0.000691053 0)
(0.0243512 -0.000596836 0)
(0.0197692 -0.000508934 0)
(0.0156162 -0.000427721 0)
(0.0118772 -0.000353462 0)
(0.0085331 -0.00028626 0)
(0.0055614 -0.00022613 0)
(0.00293745 -0.000172767 0)
(0.000636649 -0.000125268 0)
(-0.00136144 -8.13134e-05 0)
(-0.00306477 -3.58245e-05 0)
(-0.00445486 2.12349e-05 0)
(-0.00546723 0.000106179 0)
(-0.00597173 0.000239599 0)
(-0.00577154 0.000438203 0)
(-0.00468285 0.000692483 0)
(-0.00280874 0.000889738 0)
(-0.000703797 0.000714703 0)
(0.246919 -0.00241523 0)
(0.261832 -0.000738524 0)
(0.271959 0.000924912 0)
(0.277136 0.00235645 0)
(0.277669 0.00343692 0)
(0.274197 0.00413755 0)
(0.267537 0.00448915 0)
(0.25847 0.00456484 0)
(0.24771 0.0044462 0)
(0.235877 0.0042055 0)
(0.499698 -0.0319105 0)
(0.533582 -0.024405 0)
(0.561016 -0.0160552 0)
(0.581349 -0.007709 0)
(0.594578 -1.30149e-06 0)
(0.601065 0.00669044 0)
(0.601269 0.0121638 0)
(0.595946 0.0163759 0)
(0.585937 0.0194083 0)
(0.572091 0.0214089 0)
(0.644857 -0.0746308 0)
(0.686691 -0.0614067 0)
(0.722018 -0.0463773 0)
(0.750278 -0.0310083 0)
(0.771599 -0.0163282 0)
(0.786369 -0.00291186 0)
(0.795058 0.00890962 0)
(0.798052 0.0189413 0)
(0.795867 0.0271529 0)
(0.789043 0.03363 0)
(0.744698 -0.120816 0)
(0.788092 -0.101529 0)
(0.824447 -0.0797147 0)
(0.853533 -0.0576318 0)
(0.875994 -0.0365779 0)
(0.892523 -0.0172157 0)
(0.90373 7.41983e-05 0)
(0.910225 0.0151344 0)
(0.912506 0.0279814 0)
(0.910963 0.0387295 0)
(0.817839 -0.166933 0)
(0.860568 -0.140634 0)
(0.894731 -0.111363 0)
(0.920601 -0.0824786 0)
(0.939604 -0.0553749 0)
(0.952916 -0.0307005 0)
(0.961482 -0.00885897 0)
(0.966275 0.010093 0)
(0.968072 0.0263752 0)
(0.967308 0.0402745 0)
(0.864878 -0.212655 0)
(0.907211 -0.17785 0)
(0.936425 -0.139688 0)
(0.954354 -0.102968 0)
(0.96447 -0.0692319 0)
(0.969183 -0.0393146 0)
(0.970316 -0.013616 0)
(0.969412 0.00812933 0)
(0.967412 0.026587 0)
(0.964606 0.0424027 0)
(0.883737 -0.256645 0)
(0.922881 -0.209481 0)
(0.936788 -0.159379 0)
(0.934527 -0.112762 0)
(0.925397 -0.0717824 0)
(0.914216 -0.0376031 0)
(0.903697 -0.0100795 0)
(0.89534 0.0121108 0)
(0.889526 0.0305291 0)
(0.88567 0.0465088 0)
(0.863585 -0.298477 0)
(0.875032 -0.223407 0)
(0.844567 -0.153209 0)
(0.803513 -0.0954387 0)
(0.767867 -0.0510236 0)
(0.74094 -0.018753 0)
(0.722912 0.00439537 0)
(0.713462 0.0216253 0)
(0.71117 0.0357329 0)
(0.71336 0.0493647 0)
(0.757393 -0.331579 0)
(0.676943 -0.192322 0)
(0.572124 -0.0960287 0)
(0.501169 -0.0380479 0)
(0.461946 -0.00579902 0)
(0.442282 0.010752 0)
(0.436524 0.0193904 0)
(0.441056 0.0251344 0)
(0.453061 0.0309432 0)
(0.468331 0.0408709 0)
(0.439768 -0.255546 0)
(0.24181 -0.0586802 0)
(0.134401 0.00264752 0)
(0.117702 0.0110803 0)
(0.12115 0.0102537 0)
(0.127937 0.00856034 0)
(0.138316 0.00737575 0)
(0.151816 0.00717452 0)
(0.168634 0.00914278 0)
(0.186002 0.0228096 0)
(0.223475 0.00389709 0)
(0.210902 0.00355638 0)
(0.19847 0.0032074 0)
(0.186407 0.00287033 0)
(0.174863 0.00256117 0)
(0.163917 0.00228784 0)
(0.153593 0.00205038 0)
(0.143886 0.0018452 0)
(0.134771 0.00166816 0)
(0.126214 0.00151509 0)
(0.118177 0.00138181 0)
(0.110621 0.00126445 0)
(0.103511 0.00115979 0)
(0.096816 0.00106537 0)
(0.0905103 0.000979283 0)
(0.0845708 0.000900111 0)
(0.0789788 0.000826782 0)
(0.0737184 0.000758492 0)
(0.0687761 0.000694598 0)
(0.0641405 0.000634593 0)
(0.0598012 0.000578064 0)
(0.0557489 0.000524732 0)
(0.0519747 0.000474412 0)
(0.0484698 0.000427029 0)
(0.0452252 0.000382552 0)
(0.0422317 0.000340988 0)
(0.0394795 0.000302306 0)
(0.0369581 0.00026648 0)
(0.0346566 0.000233418 0)
(0.0325637 0.000203044 0)
(0.0306675 0.000175229 0)
(0.0289556 0.000149905 0)
(0.0274154 0.000126965 0)
(0.0260339 0.000106397 0)
(0.024798 8.81467e-05 0)
(0.555225 0.0225416 0)
(0.536106 0.0229586 0)
(0.515442 0.0228051 0)
(0.493861 0.0222308 0)
(0.471877 0.021383 0)
(0.449886 0.0203848 0)
(0.428169 0.0193238 0)
(0.406924 0.0182574 0)
(0.386279 0.017222 0)
(0.366312 0.0162378 0)
(0.347061 0.0153133 0)
(0.328543 0.0144487 0)
(0.310756 0.0136399 0)
(0.293694 0.0128806 0)
(0.277346 0.0121641 0)
(0.261702 0.0114835 0)
(0.24675 0.0108329 0)
(0.232482 0.0102074 0)
(0.218892 0.00960298 0)
(0.205975 0.00901686 0)
(0.193727 0.00844716 0)
(0.182142 0.00789291 0)
(0.171216 0.0073539 0)
(0.160943 0.00683053 0)
(0.151315 0.00632365 0)
(0.14232 0.00583443 0)
(0.133947 0.00536416 0)
(0.126178 0.00491415 0)
(0.118995 0.00448569 0)
(0.112376 0.00407994 0)
(0.106296 0.00369797 0)
(0.100728 0.00334068 0)
(0.0956433 0.00300892 0)
(0.0910109 0.00270342 0)
(0.086798 0.002425 0)
(0.778128 0.0385037 0)
(0.763691 0.0419107 0)
(0.74634 0.0440113 0)
(0.726687 0.0450178 0)
(0.705286 0.0451745 0)
(0.682606 0.0447091 0)
(0.65904 0.0438066 0)
(0.634916 0.0426122 0)
(0.610503 0.0412384 0)
(0.586018 0.0397675 0)
(0.561628 0.0382555 0)
(0.537466 0.0367371 0)
(0.513639 0.0352323 0)
(0.490229 0.0337507 0)
(0.467305 0.032295 0)
(0.444925 0.030864 0)
(0.42314 0.0294544 0)
(0.401993 0.0280621 0)
(0.381528 0.0266838 0)
(0.36178 0.0253169 0)
(0.342785 0.0239604 0)
(0.324575 0.0226146 0)
(0.307176 0.0212814 0)
(0.290611 0.0199638 0)
(0.274898 0.0186664 0)
(0.260047 0.0173942 0)
(0.246064 0.0161528 0)
(0.232946 0.0149483 0)
(0.220685 0.0137861 0)
(0.209265 0.0126719 0)
(0.198665 0.0116105 0)
(0.188855 0.0106065 0)
(0.179803 0.00966383 0)
(0.17147 0.00878628 0)
(0.163813 0.00797718 0)
(0.905896 0.0474907 0)
(0.897605 0.0543393 0)
(0.886463 0.0593891 0)
(0.872876 0.0628671 0)
(0.857197 0.0650648 0)
(0.839706 0.0662521 0)
(0.820647 0.0666502 0)
(0.800253 0.066443 0)
(0.778746 0.0657834 0)
(0.756322 0.0647919 0)
(0.733164 0.0635577 0)
(0.709435 0.0621449 0)
(0.685289 0.0605988 0)
(0.660865 0.0589496 0)
(0.636291 0.0572168 0)
(0.61169 0.0554123 0)
(0.587174 0.0535427 0)
(0.562851 0.0516122 0)
(0.538823 0.049624 0)
(0.515188 0.0475815 0)
(0.492038 0.0454891 0)
(0.469463 0.0433531 0)
(0.447541 0.0411819 0)
(0.426348 0.0389855 0)
(0.405949 0.0367762 0)
(0.386399 0.0345675 0)
(0.367746 0.032374 0)
(0.350022 0.0302106 0)
(0.333252 0.0280924 0)
(0.317447 0.0260336 0)
(0.302607 0.0240478 0)
(0.288722 0.0221475 0)
(0.275772 0.0203439 0)
(0.263727 0.0186473 0)
(0.252548 0.0170669 0)
(0.964178 0.0519589 0)
(0.958861 0.0614363 0)
(0.951658 0.0687885 0)
(0.942886 0.074316 0)
(0.932706 0.0783915 0)
(0.921154 0.0813135 0)
(0.90824 0.083304 0)
(0.894002 0.0845471 0)
(0.878489 0.0851964 0)
(0.861757 0.0853709 0)
(0.843872 0.085158 0)
(0.824912 0.0846215 0)
(0.804971 0.0838079 0)
(0.784148 0.0827495 0)
(0.762551 0.0814681 0)
(0.740292 0.0799782 0)
(0.71749 0.0782893 0)
(0.694267 0.0764084 0)
(0.670751 0.074342 0)
(0.647069 0.0720971 0)
(0.623352 0.069683 0)
(0.59973 0.0671114 0)
(0.576331 0.0643977 0)
(0.553277 0.0615604 0)
(0.530685 0.0586217 0)
(0.508662 0.0556061 0)
(0.487306 0.0525406 0)
(0.466702 0.0494534 0)
(0.446918 0.0463731 0)
(0.428012 0.0433279 0)
(0.410024 0.040345 0)
(0.392978 0.0374502 0)
(0.376886 0.0346672 0)
(0.361745 0.0320174 0)
(0.347536 0.0295205 0)
(0.960872 0.0558477 0)
(0.95618 0.0667597 0)
(0.95087 0.0752052 0)
(0.945281 0.0816858 0)
(0.939405 0.0867321 0)
(0.933027 0.0906851 0)
(0.925956 0.0937683 0)
(0.918062 0.0961603 0)
(0.909235 0.0979996 0)
(0.899376 0.0993818 0)
(0.888417 0.100371 0)
(0.876318 0.101009 0)
(0.863065 0.101323 0)
(0.848667 0.101329 0)
(0.833152 0.101032 0)
(0.816567 0.100433 0)
(0.798975 0.0995277 0)
(0.780458 0.0983128 0)
(0.76111 0.0967852 0)
(0.741041 0.0949444 0)
(0.720372 0.0927944 0)
(0.699233 0.0903441 0)
(0.677762 0.0876084 0)
(0.656104 0.0846088 0)
(0.6344 0.0813724 0)
(0.612794 0.0779322 0)
(0.59142 0.0743259 0)
(0.570407 0.0705944 0)
(0.549869 0.0667811 0)
(0.529909 0.0629303 0)
(0.510613 0.0590859 0)
(0.492051 0.0552904 0)
(0.474275 0.0515844 0)
(0.457321 0.0480053 0)
(0.441207 0.0445876 0)
(0.882595 0.0603475 0)
(0.879684 0.0712559 0)
(0.877411 0.0793628 0)
(0.876192 0.085575 0)
(0.875725 0.0905851 0)
(0.875472 0.09473 0)
(0.875064 0.098223 0)
(0.874265 0.101232 0)
(0.872866 0.103864 0)
(0.870679 0.106177 0)
(0.867558 0.108202 0)
(0.863393 0.109954 0)
(0.858102 0.111434 0)
(0.851624 0.112634 0)
(0.843919 0.113538 0)
(0.83497 0.114124 0)
(0.824777 0.114367 0)
(0.813359 0.114242 0)
(0.800757 0.113728 0)
(0.787028 0.112805 0)
(0.772251 0.111462 0)
(0.756521 0.109691 0)
(0.739952 0.107499 0)
(0.722669 0.104897 0)
(0.704808 0.101909 0)
(0.686515 0.0985679 0)
(0.667934 0.0949138 0)
(0.649214 0.0909951 0)
(0.630495 0.0868655 0)
(0.61191 0.0825823 0)
(0.593583 0.0782049 0)
(0.57562 0.0737926 0)
(0.558115 0.0694036 0)
(0.541142 0.0650936 0)
(0.524761 0.0609147 0)
(0.716779 0.0625324 0)
(0.720146 0.0720337 0)
(0.72506 0.0783761 0)
(0.732172 0.0833059 0)
(0.740562 0.0875928 0)
(0.749289 0.0914359 0)
(0.757888 0.0949854 0)
(0.766086 0.0983597 0)
(0.773639 0.101601 0)
(0.780351 0.104709 0)
(0.786086 0.107672 0)
(0.790743 0.110475 0)
(0.794242 0.113097 0)
(0.796513 0.11551 0)
(0.797501 0.117679 0)
(0.797165 0.119566 0)
(0.795473 0.121128 0)
(0.792408 0.122322 0)
(0.787967 0.123105 0)
(0.782163 0.123438 0)
(0.775028 0.123287 0)
(0.766612 0.122628 0)
(0.756985 0.121446 0)
(0.746235 0.119737 0)
(0.734468 0.117513 0)
(0.721802 0.114794 0)
(0.708369 0.111617 0)
(0.694305 0.108028 0)
(0.679753 0.104081 0)
(0.664854 0.0998424 0)
(0.649744 0.0953793 0)
(0.634553 0.0907642 0)
(0.619399 0.0860702 0)
(0.604387 0.0813691 0)
(0.589608 0.0767303 0)
(0.483346 0.0548152 0)
(0.495762 0.0628391 0)
(0.511637 0.0669998 0)
(0.53121 0.0704434 0)
(0.551722 0.0739946 0)
(0.571741 0.0776924 0)
(0.590963 0.0815602 0)
(0.609241 0.0855813 0)
(0.626415 0.0896841 0)
(0.642391 0.093795 0)
(0.657136 0.0978607 0)
(0.670632 0.101841 0)
(0.682854 0.1057 0)
(0.693774 0.109401 0)
(0.703363 0.112904 0)
(0.711593 0.116164 0)
(0.718434 0.119132 0)
(0.723858 0.121756 0)
(0.727845 0.123979 0)
(0.730381 0.125748 0)
(0.731463 0.127014 0)
(0.731104 0.127733 0)
(0.729332 0.127871 0)
(0.726195 0.127408 0)
(0.721755 0.126336 0)
(0.716094 0.124661 0)
(0.709309 0.122405 0)
(0.701509 0.119606 0)
(0.692814 0.116314 0)
(0.68335 0.112591 0)
(0.673246 0.108508 0)
(0.662633 0.104142 0)
(0.651633 0.0995758 0)
(0.640365 0.0948927 0)
(0.628937 0.0901754 0)
(0.227471 0.0415522 0)
(0.254882 0.0417257 0)
(0.286052 0.0417271 0)
(0.319936 0.0439686 0)
(0.35201 0.047707 0)
(0.381556 0.0523677 0)
(0.409159 0.0575704 0)
(0.435114 0.0630264 0)
(0.459506 0.0685541 0)
(0.482436 0.0740589 0)
(0.504014 0.0794903 0)
(0.524311 0.0848153 0)