/*--------------------------------*- C++ -*----------------------------------*\
| =========                 |                                                 |
| \\      /  F ield         | OpenFOAM: The Open Source CFD Toolbox           |
|  \\    /   O peration     | Version:  2406                                  |
|   \\  /    A nd           | Website:  www.openfoam.com                      |
|    \\/     M anipulation  |                                                 |
\*---------------------------------------------------------------------------*/
FoamFile
{
    version     2.0;
    format      ascii;
    arch        "LSB;label=32;scalar=64";
    class       volScalarField;
    location    "72";
    object      p;
}
// * * * * * * * * * * * * * * * * * * * * * * * * * * * * * * * * * * * * * //

dimensions      [0 2 -2 0 0 0 0];

internalField   nonuniform List<scalar> 
2000
(
0.0390153
0.0401948
0.0410377
0.0414037
0.0415637
0.0416295
0.041608
0.041508
0.041349
0.0411467
0.0400744
0.0405874
0.0411175
0.0414199
0.0415551
0.0415988
0.0415682
0.0414688
0.0413131
0.0411142
0.0409842
0.0409285
0.0411146
0.0413532
0.0414897
0.0415259
0.0414919
0.0413989
0.0412531
0.0410631
0.0416908
0.0413652
0.0412909
0.0414126
0.0415022
0.0415004
0.0414369
0.04133
0.0411819
0.0409947
0.0422694
0.0418139
0.0415449
0.0415265
0.0415424
0.0414944
0.0413967
0.0412693
0.0411132
0.0409252
0.042738
0.0422087
0.0418075
0.0416713
0.0416137
0.0415188
0.0413855
0.0412328
0.0410622
0.0408675
0.0431055
0.0425324
0.0420463
0.0418222
0.0416991
0.0415584
0.0413902
0.0412118
0.0410247
0.0408208
0.0433778
0.0427786
0.0422392
0.0419538
0.0417791
0.0415998
0.0414027
0.0412027
0.041001
0.0407879
0.0435583
0.0429439
0.042373
0.0420495
0.0418403
0.0416339
0.0414159
0.0412005
0.0409877
0.040767
0.0436482
0.043027
0.0424414
0.0420996
0.0418734
0.0416529
0.041424
0.0412003
0.0409816
0.0407568
0.0436482
0.043027
0.0424414
0.0420996
0.0418734
0.0416529
0.041424
0.0412003
0.0409816
0.0407568
0.0435583
0.0429439
0.042373
0.0420495
0.0418403
0.0416339
0.0414159
0.0412005
0.0409876
0.040767
0.0433778
0.0427786
0.0422392
0.0419538
0.0417791
0.0415998
0.0414027
0.0412027
0.0410009
0.0407878
0.0431055
0.0425324
0.0420464
0.0418222
0.041699
0.0415584
0.0413903
0.0412118
0.0410246
0.0408207
0.042738
0.0422087
0.0418075
0.0416712
0.0416136
0.0415188
0.0413856
0.0412328
0.0410621
0.0408674
0.0422694
0.0418139
0.0415449
0.0415265
0.0415424
0.0414945
0.0413968
0.0412693
0.041113
0.040925
0.0416908
0.0413652
0.0412909
0.0414126
0.0415021
0.0415004
0.041437
0.04133
0.0411817
0.0409946
0.0409842
0.0409286
0.0411147
0.0413532
0.0414896
0.0415259
0.041492
0.0413989
0.041253
0.041063
0.0400744
0.0405874
0.0411175
0.0414199
0.0415551
0.0415987
0.0415682
0.0414688
0.0413131
0.0411142
0.0390153
0.0401948
0.0410377
0.0414037
0.0415637
0.0416295
0.041608
0.041508
0.041349
0.0411467
0.0409103
0.0406461
0.0403589
0.0400528
0.0397306
0.0393948
0.039047
0.0386888
0.0383214
0.0379458
0.0375629
0.0371732
0.0367775
0.0363762
0.0359697
0.0355585
0.0351428
0.0347231
0.0342996
0.0338725
0.033442
0.0330084
0.0325719
0.0321325
0.0316905
0.0312459
0.0307989
0.0303497
0.0298983
0.0294449
0.0289894
0.0285321
0.028073
0.0276122
0.0271498
0.0408812
0.0406204
0.0403363
0.0400327
0.0397128
0.0393789
0.0390328
0.0386762
0.0383101
0.0379356
0.0375535
0.0371645
0.0367694
0.0363687
0.0359628
0.0355521
0.0351369
0.0347176
0.0342944
0.0338675
0.0334373
0.0330039
0.0325675
0.0321283
0.0316865
0.0312421
0.0307954
0.0303463
0.0298951
0.0294417
0.0289864
0.0285292
0.0280702
0.0276095
0.0271471
0.0408374
0.0405826
0.0403038
0.0400047
0.0396883
0.0393572
0.0390134
0.0386589
0.0382947
0.037922
0.0375414
0.0371536
0.0367593
0.0363593
0.0359541
0.035544
0.0351295
0.0347108
0.0342882
0.0338618
0.033432
0.0329989
0.0325628
0.0321239
0.0316823
0.0312381
0.0307915
0.0303427
0.0298916
0.0294385
0.0289834
0.0285263
0.0280674
0.0276068
0.0271446
0.0407734
0.0405238
0.0402508
0.0399575
0.0396464
0.0393197
0.0389796
0.0386285
0.0382677
0.0378982
0.0375205
0.0371352
0.0367428
0.0363442
0.03594
0.0355309
0.0351173
0.0346997
0.0342781
0.0338528
0.0334238
0.0329915
0.0325559
0.0321173
0.031676
0.0312321
0.0307858
0.0303372
0.0298865
0.0294337
0.0289788
0.0285221
0.0280635
0.0276031
0.027141
0.040706
0.0404599
0.0401916
0.0399038
0.039598
0.0392757
0.0389393
0.0385914
0.0382341
0.0378682
0.0374941
0.0371118
0.0367219
0.0363249
0.0359219
0.0355138
0.0351013
0.0346848
0.0342645
0.0338405
0.0334127
0.0329814
0.0325467
0.0321087
0.0316678
0.0312243
0.0307782
0.0303299
0.0298795
0.029427
0.0289726
0.0285163
0.0280581
0.0275981
0.0271363
0.040646
0.0404002
0.0401343
0.0398504
0.0395491
0.0392309
0.0388977
0.0385527
0.0381984
0.0378361
0.0374656
0.0370867
0.0366995
0.0363045
0.0359028
0.0354957
0.0350841
0.0346686
0.0342495
0.0338269
0.0334005
0.0329705
0.0325367
0.0320995
0.0316591
0.0312158
0.03077
0.0303219
0.0298717
0.0294196
0.0289656
0.0285097
0.028052
0.0275924
0.027131
0.0405947
0.0403474
0.0400825
0.0398017
0.0395043
0.0391896
0.0388593
0.0385167
0.0381649
0.0378055
0.0374383
0.0370627
0.0366782
0.0362852
0.0358849
0.0354787
0.0350678
0.0346532
0.0342352
0.0338138
0.0333887
0.0329599
0.0325272
0.0320907
0.0316508
0.0312079
0.0307622
0.0303143
0.0298643
0.0294124
0.0289588
0.0285033
0.028046
0.0275868
0.0271259
0.0405563
0.0403064
0.0400414
0.0397625
0.039468
0.039156
0.0388278
0.0384868
0.0381368
0.0377796
0.0374151
0.0370423
0.0366602
0.0362691
0.03587
0.0354646
0.0350543
0.0346402
0.034223
0.0338025
0.0333786
0.0329508
0.032519
0.0320833
0.0316439
0.0312013
0.0307558
0.030308
0.0298581
0.0294064
0.028953
0.0284978
0.0280409
0.0275821
0.0271215
0.0405306
0.0402781
0.0400126
0.0397348
0.0394422
0.0391321
0.0388054
0.0384654
0.0381165
0.0377607
0.0373981
0.0370273
0.0366471
0.0362575
0.0358594
0.0354545
0.0350446
0.034631
0.0342142
0.0337944
0.0333711
0.0329441
0.0325131
0.0320779
0.0316389
0.0311965
0.0307512
0.0303035
0.0298537
0.0294021
0.0289488
0.0284938
0.0280372
0.0275787
0.0271183
0.0405177
0.0402638
0.0399979
0.0397207
0.0394291
0.03912
0.0387939
0.0384544
0.0381059
0.0377508
0.0373891
0.0370194
0.0366402
0.0362514
0.0358539
0.0354494
0.0350397
0.0346262
0.0342096
0.0337901
0.0333672
0.0329406
0.0325099
0.0320751
0.0316363
0.0311941
0.0307489
0.0303012
0.0298514
0.0293998
0.0289466
0.0284918
0.0280352
0.0275768
0.0271166
0.0405178
0.0402638
0.039998
0.0397207
0.039429
0.03912
0.0387939
0.0384545
0.0381059
0.0377508
0.037389
0.0370193
0.0366402
0.0362514
0.035854
0.0354495
0.0350397
0.0346262
0.0342096
0.03379
0.0333671
0.0329405
0.0325098
0.032075
0.0316363
0.0311941
0.0307489
0.0303012
0.0298514
0.0293999
0.0289466
0.0284918
0.0280352
0.0275768
0.0271166
0.0405306
0.0402781
0.0400126
0.0397347
0.0394421
0.0391321
0.0388055
0.0384656
0.0381165
0.0377607
0.037398
0.0370271
0.036647
0.0362575
0.0358595
0.0354547
0.0350448
0.0346311
0.0342142
0.0337943
0.033371
0.032944
0.032513
0.0320779
0.0316389
0.0311966
0.0307513
0.0303035
0.0298537
0.0294021
0.0289488
0.0284938
0.0280371
0.0275786
0.0271183
0.0405563
0.0403065
0.0400414
0.0397624
0.0394678
0.039156
0.038828
0.0384871
0.0381369
0.0377796
0.0374149
0.0370421
0.0366601
0.0362691
0.0358701
0.0354647
0.0350544
0.0346403
0.034223
0.0338025
0.0333785
0.0329507
0.032519
0.0320833
0.031644
0.0312013
0.0307559
0.030308
0.0298581
0.0294064
0.0289529
0.0284978
0.0280408
0.0275821
0.0271215
0.0405948
0.0403475
0.0400825
0.0398015
0.039504
0.0391896
0.0388595
0.0385169
0.038165
0.0378054
0.0374382
0.0370625
0.0366781
0.0362852
0.035885
0.0354788
0.0350679
0.0346532
0.0342352
0.0338137
0.0333886
0.0329598
0.0325272
0.0320908
0.0316509
0.0312079
0.0307623
0.0303143
0.0298643
0.0294124
0.0289587
0.0285032
0.0280459
0.0275868
0.0271259
0.0406462
0.0404005
0.0401343
0.0398502
0.0395489
0.0392308
0.0388979
0.038553
0.0381986
0.037836
0.0374655
0.0370866
0.0366994
0.0363045
0.0359029
0.0354958
0.0350841
0.0346686
0.0342495
0.0338268
0.0334005
0.0329704
0.0325368
0.0320996
0.0316592
0.0312159
0.03077
0.0303219
0.0298717
0.0294195
0.0289655
0.0285096
0.0280519
0.0275924
0.0271311
0.0407061
0.0404602
0.0401916
0.0399036
0.0395977
0.0392757
0.0389395
0.0385916
0.0382341
0.0378682
0.037494
0.0371118
0.0367219
0.036325
0.035922
0.0355139
0.0351013
0.0346847
0.0342644
0.0338404
0.0334127
0.0329815
0.0325468
0.0321089
0.0316679
0.0312243
0.0307782
0.0303299
0.0298794
0.0294269
0.0289725
0.0285162
0.0280581
0.0275981
0.0271364
0.0407736
0.040524
0.0402508
0.0399573
0.0396463
0.0393197
0.0389797
0.0386285
0.0382677
0.0378981
0.0375205
0.0371352
0.0367429
0.0363442
0.03594
0.0355309
0.0351173
0.0346996
0.034278
0.0338527
0.0334238
0.0329915
0.032556
0.0321174
0.0316761
0.0312321
0.0307858
0.0303372
0.0298864
0.0294336
0.0289788
0.0285221
0.0280635
0.0276031
0.0271411
0.0408374
0.0405827
0.0403038
0.0400046
0.0396883
0.0393572
0.0390135
0.0386589
0.0382947
0.0379219
0.0375413
0.0371536
0.0367594
0.0363594
0.0359541
0.035544
0.0351294
0.0347107
0.0342881
0.0338618
0.033432
0.032999
0.0325629
0.0321239
0.0316823
0.0312381
0.0307915
0.0303426
0.0298916
0.0294385
0.0289833
0.0285263
0.0280675
0.0276068
0.0271446
0.0408813
0.0406204
0.0403363
0.0400327
0.0397128
0.0393789
0.0390328
0.0386762
0.0383101
0.0379356
0.0375535
0.0371645
0.0367694
0.0363687
0.0359627
0.035552
0.0351369
0.0347176
0.0342943
0.0338675
0.0334373
0.0330039
0.0325675
0.0321283
0.0316865
0.0312421
0.0307953
0.0303463
0.029895
0.0294417
0.0289864
0.0285292
0.0280702
0.0276095
0.0271471
0.0409103
0.0406461
0.0403589
0.0400528
0.0397306
0.0393947
0.039047
0.0386888
0.0383214
0.0379458
0.0375628
0.0371732
0.0367775
0.0363762
0.0359697
0.0355585
0.0351428
0.0347231
0.0342995
0.0338724
0.033442
0.0330084
0.0325719
0.0321325
0.0316905
0.0312459
0.030799
0.0303497
0.0298983
0.0294448
0.0289894
0.0285321
0.028073
0.0276122
0.0271497
0.0266857
0.0262201
0.0257531
0.0252847
0.0248149
0.0243438
0.0238714
0.0233978
0.022923
0.0224471
0.0266831
0.0262176
0.0257507
0.0252823
0.0248126
0.0243415
0.0238692
0.0233957
0.022921
0.0224452
0.0266807
0.0262153
0.0257484
0.0252801
0.0248105
0.0243395
0.0238673
0.0233938
0.0229192
0.0224434
0.0266773
0.0262121
0.0257453
0.0252771
0.0248076
0.0243367
0.0238646
0.0233912
0.0229167
0.022441
0.0266729
0.0262078
0.0257412
0.0252732
0.0248037
0.024333
0.0238609
0.0233877
0.0229133
0.0224378
0.0266679
0.0262031
0.0257367
0.0252688
0.0247994
0.0243288
0.0238569
0.0233837
0.0229094
0.022434
0.0266631
0.0261986
0.0257324
0.0252646
0.0247954
0.0243248
0.0238529
0.0233799
0.0229057
0.0224304
0.026659
0.0261947
0.0257287
0.0252611
0.0247919
0.0243214
0.0238496
0.0233766
0.0229024
0.0224272
0.0266561
0.026192
0.0257261
0.0252585
0.0247894
0.024319
0.0238472
0.0233742
0.0229001
0.022425
0.0266545
0.0261905
0.0257247
0.0252572
0.0247882
0.0243177
0.0238459
0.023373
0.0228989
0.0224238
0.0266545
0.0261905
0.0257247
0.0252572
0.0247882
0.0243177
0.0238459
0.023373
0.0228989
0.0224238
0.026656
0.026192
0.0257261
0.0252585
0.0247894
0.0243189
0.0238472
0.0233742
0.0229001
0.0224249
0.026659
0.0261947
0.0257287
0.0252611
0.0247919
0.0243214
0.0238496
0.0233765
0.0229024
0.0224272
0.0266631
0.0261986
0.0257324
0.0252646
0.0247954
0.0243248
0.0238529
0.0233798
0.0229056
0.0224303
0.026668
0.0262032
0.0257368
0.0252688
0.0247995
0.0243288
0.0238568
0.0233837
0.0229094
0.022434
0.0266729
0.0262079
0.0257413
0.0252732
0.0248037
0.0243329
0.0238609
0.0233877
0.0229132
0.0224377
0.0266774
0.0262121
0.0257453
0.0252771
0.0248076
0.0243367
0.0238645
0.0233912
0.0229167
0.022441
0.0266807
0.0262153
0.0257484
0.0252801
0.0248104
0.0243395
0.0238673
0.0233938
0.0229192
0.0224434
0.0266831
0.0262176
0.0257507
0.0252823
0.0248126
0.0243415
0.0238692
0.0233957
0.022921
0.0224452
0.0266857
0.0262201
0.0257531
0.0252847
0.0248149
0.0243438
0.0238714
0.0233978
0.022923
0.0224471
0.0219701
0.0214921
0.021013
0.0205329
0.0200519
0.0195699
0.0190871
0.0186033
0.0181187
0.0176332
0.017147
0.01666
0.0161722
0.0156836
0.0151944
0.0147044
0.0142138
0.0137224
0.0132305
0.0127379
0.0122446
0.0117508
0.0112564
0.0107614
0.0102658
0.00976973
0.00927309
0.00877591
0.00827823
0.00778004
0.00728136
0.00678219
0.00628255
0.00578245
0.00528189
0.0219682
0.0214902
0.0210112
0.0205311
0.0200502
0.0195682
0.0190854
0.0186017
0.0181171
0.0176317
0.0171455
0.0166585
0.0161707
0.0156822
0.015193
0.0147031
0.0142124
0.0137211
0.0132292
0.0127366
0.0122434
0.0117496
0.0112552
0.0107602
0.0102647
0.00976862
0.009272
0.00877485
0.00827718
0.00777901
0.00728035
0.0067812
0.00628158
0.00578149
0.00528095
0.0219665
0.0214886
0.0210096
0.0205296
0.0200487
0.0195668
0.019084
0.0186003
0.0181158
0.0176304
0.0171442
0.0166573
0.0161695
0.015681
0.0151918
0.0147019
0.0142113
0.0137201
0.0132282
0.0127356
0.0122424
0.0117486
0.0112543
0.0107593
0.0102638
0.00976773
0.00927112
0.00877399
0.00827634
0.00777819
0.00727955
0.00678042
0.00628082
0.00578075
0.00528023
0.0219642
0.0214864
0.0210075
0.0205276
0.0200467
0.0195649
0.0190822
0.0185985
0.0181141
0.0176287
0.0171426
0.0166557
0.016168
0.0156796
0.0151904
0.0147006
0.01421
0.0137188
0.0132269
0.0127344
0.0122412
0.0117475
0.0112531
0.0107582
0.0102627
0.00976669
0.00927011
0.00877301
0.00827538
0.00777726
0.00727864
0.00677954
0.00627996
0.00577992
0.00527943
0.0219611
0.0214834
0.0210047
0.0205249
0.0200441
0.0195624
0.0190798
0.0185962
0.0181118
0.0176266
0.0171405
0.0166536
0.016166
0.0156776
0.0151885
0.0146987
0.0142082
0.013717
0.0132252
0.0127327
0.0122397
0.011746
0.0112517
0.0107568
0.0102613
0.00976533
0.00926879
0.00877172
0.00827413
0.00777604
0.00727746
0.00677839
0.00627886
0.00577886
0.00527842
0.0219575
0.02148
0.0210014
0.0205218
0.0200412
0.0195596
0.019077
0.0185936
0.0181093
0.0176241
0.0171381
0.0166513
0.0161637
0.0156754
0.0151863
0.0146966
0.0142061
0.013715
0.0132232
0.0127308
0.0122378
0.0117442
0.0112499
0.0107551
0.0102597
0.00976376
0.00926726
0.00877023
0.00827269
0.00777464
0.00727609
0.00677707
0.00627758
0.00577763
0.00527724
0.021954
0.0214766
0.0209981
0.0205187
0.0200382
0.0195568
0.0190743
0.018591
0.0181068
0.0176216
0.0171357
0.0166489
0.0161614
0.0156731
0.0151841
0.0146944
0.014204
0.013713
0.0132213
0.0127289
0.012236
0.0117424
0.0112482
0.0107534
0.0102581
0.00976217
0.00926571
0.00876873
0.00827122
0.00777321
0.00727471
0.00677572
0.00627628
0.00577638
0.00527604
0.021951
0.0214737
0.0209954
0.020516
0.0200357
0.0195544
0.019072
0.0185888
0.0181046
0.0176196
0.0171337
0.0166469
0.0161595
0.0156712
0.0151822
0.0146926
0.0142022
0.0137112
0.0132196
0.0127273
0.0122343
0.0117408
0.0112467
0.010752
0.0102567
0.00976079
0.00926437
0.00876742
0.00826995
0.00777197
0.0072735
0.00677455
0.00627514
0.00577529
0.005275
0.0219488
0.0214716
0.0209933
0.0205141
0.0200339
0.0195526
0.0190704
0.0185872
0.0181031
0.0176181
0.0171322
0.0166455
0.016158
0.0156698
0.0151809
0.0146912
0.0142009
0.0137099
0.0132183
0.012726
0.0122332
0.0117397
0.0112456
0.0107509
0.0102556
0.00975978
0.0092634
0.00876647
0.00826903
0.00777107
0.00727262
0.0067737
0.00627432
0.00577449
0.00527424
0.0219476
0.0214705
0.0209923
0.0205131
0.0200329
0.0195517
0.0190695
0.0185864
0.0181023
0.0176173
0.0171314
0.0166448
0.0161573
0.0156691
0.0151801
0.0146905
0.0142002
0.0137093
0.0132176
0.0127254
0.0122325
0.0117391
0.011245
0.0107503
0.0102551
0.00975926
0.00926289
0.00876598
0.00826854
0.0077706
0.00727216
0.00677325
0.00627388
0.00577407
0.00527384
0.0219476
0.0214705
0.0209923
0.0205131
0.0200329
0.0195517
0.0190695
0.0185864
0.0181023
0.0176173
0.0171314
0.0166448
0.0161573
0.0156691
0.0151801
0.0146905
0.0142002
0.0137092
0.0132176
0.0127254
0.0122325
0.0117391
0.011245
0.0107503
0.0102551
0.00975926
0.00926289
0.00876597
0.00826854
0.00777059
0.00727216
0.00677325
0.00627388
0.00577406
0.00527383
0.0219488
0.0214716
0.0209933
0.0205141
0.0200339
0.0195526
0.0190704
0.0185872
0.0181031
0.0176181
0.0171322
0.0166455
0.016158
0.0156698
0.0151809
0.0146912
0.0142009
0.0137099
0.0132183
0.012726
0.0122332
0.0117397
0.0112456
0.0107509
0.0102556
0.00975978
0.0092634
0.00876647
0.00826902
0.00777106
0.00727261
0.00677369
0.0062743
0.00577448
0.00527422
0.0219509
0.0214737
0.0209954
0.020516
0.0200357
0.0195544
0.0190721
0.0185888
0.0181046
0.0176196
0.0171337
0.0166469
0.0161594
0.0156712
0.0151822
0.0146925
0.0142022
0.0137112
0.0132195
0.0127272
0.0122343
0.0117408
0.0112467
0.010752
0.0102567
0.00976079
0.00926437
0.00876742
0.00826995
0.00777196
0.00727349
0.00677454
0.00627512
0.00577527
0.00527498
0.021954
0.0214766
0.0209981
0.0205187
0.0200382
0.0195568
0.0190744
0.018591
0.0181068
0.0176217
0.0171357
0.0166489
0.0161614
0.0156731
0.0151841
0.0146944
0.014204
0.013713
0.0132212
0.0127289
0.0122359
0.0117424
0.0112482
0.0107534
0.0102581
0.00976216
0.00926571
0.00876872
0.00827121
0.0077732
0.00727469
0.0067757
0.00627625
0.00577635
0.00527601
0.0219575
0.0214799
0.0210014
0.0205218
0.0200412
0.0195596
0.0190771
0.0185936
0.0181093
0.0176241
0.0171381
0.0166513
0.0161637
0.0156753
0.0151863
0.0146965
0.0142061
0.013715
0.0132232
0.0127308
0.0122378
0.0117442
0.0112499
0.0107551
0.0102597
0.00976375
0.00926725
0.00877022
0.00827267
0.00777462
0.00727607
0.00677704
0.00627755
0.0057776
0.00527721
0.0219611
0.0214834
0.0210046
0.0205249
0.0200441
0.0195624
0.0190798
0.0185963
0.0181118
0.0176266
0.0171405
0.0166536
0.016166
0.0156776
0.0151885
0.0146987
0.0142082
0.013717
0.0132252
0.0127327
0.0122396
0.0117459
0.0112516
0.0107568
0.0102613
0.00976532
0.00926878
0.00877171
0.00827412
0.00777602
0.00727744
0.00677837
0.00627883
0.00577883
0.00527838
0.0219642
0.0214864
0.0210075
0.0205276
0.0200467
0.0195649
0.0190822
0.0185986
0.0181141
0.0176287
0.0171426
0.0166557
0.016168
0.0156796
0.0151904
0.0147005
0.01421
0.0137188
0.0132269
0.0127344
0.0122412
0.0117475
0.0112531
0.0107582
0.0102627
0.00976668
0.0092701
0.00877299
0.00827536
0.00777724
0.00727861
0.00677951
0.00627993
0.0057799
0.0052794
0.0219665
0.0214886
0.0210096
0.0205296
0.0200487
0.0195668
0.019084
0.0186003
0.0181157
0.0176304
0.0171442
0.0166572
0.0161695
0.015681
0.0151918
0.0147019
0.0142113
0.0137201
0.0132281
0.0127356
0.0122424
0.0117486
0.0112543
0.0107593
0.0102638
0.00976771
0.0092711
0.00877397
0.00827632
0.00777817
0.00727952
0.00678039
0.00628079
0.00578072
0.0052802
0.0219682
0.0214902
0.0210112
0.0205311
0.0200501
0.0195682
0.0190854
0.0186017
0.0181171
0.0176317
0.0171455
0.0166585
0.0161707
0.0156822
0.015193
0.014703
0.0142124
0.0137211
0.0132292
0.0127366
0.0122434
0.0117496
0.0112552
0.0107602
0.0102647
0.0097686
0.00927198
0.00877482
0.00827716
0.00777899
0.00728032
0.00678117
0.00628155
0.00578146
0.00528092
0.0219701
0.0214921
0.021013
0.0205329
0.0200519
0.0195699
0.019087
0.0186033
0.0181187
0.0176332
0.017147
0.01666
0.0161722
0.0156836
0.0151944
0.0147044
0.0142137
0.0137224
0.0132305
0.0127378
0.0122446
0.0117508
0.0112564
0.0107614
0.0102658
0.00976971
0.00927307
0.00877589
0.00827821
0.00778002
0.00728133
0.00678217
0.00628253
0.00578242
0.00528186
0.00478088
0.00427943
0.00377755
0.00327524
0.00277252
0.00226938
0.0017658
0.00126191
0.000757349
0.000253627
0.00477996
0.00427853
0.00377666
0.00327437
0.00277166
0.00226854
0.00176492
0.00126117
0.000756098
0.000253986
0.00477926
0.00427785
0.00377601
0.00327374
0.00277105
0.00226794
0.00176429
0.00126068
0.000755002
0.000254785
0.0047785
0.00427713
0.00377533
0.00327312
0.00277048
0.00226744
0.00176385
0.0012603
0.000754603
0.000254737
0.00477753
0.00427622
0.00377449
0.00327235
0.00276981
0.00226688
0.00176346
0.00126001
0.000754944
0.000253453
0.00477642
0.00427518
0.00377354
0.0032715
0.0027691
0.00226633
0.00176321
0.00125988
0.000755922
0.000251322
0.00477529
0.00427412
0.00377257
0.00327066
0.00276841
0.00226582
0.00176303
0.00125983
0.000757113
0.000248976
0.0047743
0.00427321
0.00377174
0.00326994
0.00276784
0.00226542
0.00176293
0.00125985
0.000758177
0.000247039
0.00477358
0.00427254
0.00377114
0.00326942
0.00276743
0.00226515
0.00176288
0.00125988
0.000758911
0.000245763
0.0047732
0.00427219
0.00377083
0.00326915
0.00276723
0.00226502
0.00176285
0.00125991
0.000759269
0.000245172
0.0047732
0.00427218
0.00377082
0.00326915
0.00276722
0.00226501
0.00176285
0.00125991
0.000759259
0.000245224
0.00477357
0.00427252
0.00377113
0.00326941
0.00276742
0.00226515
0.00176287
0.00125989
0.00075889
0.00024591
0.00477428
0.00427318
0.00377172
0.00326992
0.00276782
0.00226541
0.00176292
0.00125986
0.00075814
0.000247265
0.00477526
0.00427409
0.00377255
0.00327063
0.00276839
0.00226581
0.00176302
0.00125984
0.00075707
0.000249249
0.00477638
0.00427515
0.0037735
0.00327148
0.00276908
0.00226631
0.00176319
0.00125989
0.000755879
0.000251602
0.0047775
0.00427619
0.00377446
0.00327233
0.00276979
0.00226686
0.00176345
0.00126002
0.000754902
0.0002537
0.00477847
0.0042771
0.0037753
0.00327309
0.00277045
0.00226742
0.00176383
0.0012603
0.00075457
0.000254914
0.00477923
0.00427782
0.00377598
0.00327371
0.00277102
0.00226792
0.00176427
0.00126067
0.000754972
0.00025488
0.00477993
0.0042785
0.00377664
0.00327435
0.00277163
0.00226851
0.0017649
0.00126116
0.000756077
0.000254007
0.00478085
0.00427941
0.00377752
0.00327522
0.00277249
0.00226935
0.00176579
0.00126189
0.000757338
0.000253627
)
;

boundaryField
{
    inlet
    {
        type            zeroGradient;
    }
    outlet
    {
        type            fixedValue;
        value           uniform 0;
    }
    upperWall
    {
        type            zeroGradient;
    }
    lowerWall
    {
        type            zeroGradient;
    }
    frontAndBack
    {
        type            empty;
    }
}


// ************************************************************************* //
