/*--------------------------------*- C++ -*----------------------------------*\
| =========                 |                                                 |
| \\      /  F ield         | OpenFOAM: The Open Source CFD Toolbox           |
|  \\    /   O peration     | Version:  2406                                  |
|   \\  /    A nd           | Website:  www.openfoam.com                      |
|    \\/     M anipulation  |                                                 |
\*---------------------------------------------------------------------------*/
FoamFile
{
    version     2.0;
    format      ascii;
    arch        "LSB;label=32;scalar=64";
    class       surfaceScalarField;
    location    "82";
    object      phi;
}
// * * * * * * * * * * * * * * * * * * * * * * * * * * * * * * * * * * * * * //

dimensions      [0 3 -1 0 0 0 0];

oriented        oriented;

internalField   nonuniform List<scalar> 
3680
(
0.0194165
-0.000416491
0.0199822
-0.000565702
0.0205222
-0.000540091
0.0210347
-0.000512508
0.0215459
-0.000511195
0.0220808
-0.000534919
0.0226728
-0.000591969
0.0233774
-0.000704636
0.0242828
-0.000905448
-0.00176224
0.026045
0.050836
-0.000252535
0.0508304
-0.000560072
0.0509919
-0.000701665
0.0512788
-0.000799433
0.0516739
-0.000906322
0.0521748
-0.00103585
0.0527886
-0.00120571
0.0535346
-0.00145071
0.0544452
-0.0018161
-0.00243097
0.0551139
0.074932
-0.000184572
0.0748614
-0.000489485
0.0748649
-0.000705179
0.0749516
-0.000886152
0.0751214
-0.00107612
0.075377
-0.00129144
0.0757173
-0.00154608
0.0761289
-0.00186228
0.0765734
-0.00226065
-0.00276601
0.0769085
0.0909652
-0.000149759
0.0908933
-0.000417649
0.0908398
-0.000651689
0.0908261
-0.000872456
0.0908546
-0.00110464
0.0909244
-0.00136119
0.0910299
-0.00165162
0.0911549
-0.00198732
0.0912703
-0.00237607
-0.00281805
0.0913224
0.0989658
-0.000115604
0.0988788
-0.000330601
0.0987753
-0.000548212
0.0986776
-0.000774746
0.098589
-0.00101604
0.098506
-0.00127825
0.098422
-0.00156757
0.0983235
-0.00188885
0.0981901
-0.00224264
-0.00262231
0.0979943
0.098954
-6.96332e-05
0.0988337
-0.00021033
0.0986748
-0.000389303
0.0984977
-0.000597639
0.098304
-0.00082229
0.0980889
-0.00106316
0.0978456
-0.00132432
0.0975632
-0.00160643
0.0972267
-0.00190617
-0.002216
0.0968204
0.09093
3.65859e-07
0.0907604
-4.07289e-05
0.0905434
-0.000172345
0.090295
-0.000349262
0.090012
-0.00053925
0.0896888
-0.000739975
0.0893186
-0.000954136
0.0888916
-0.00117935
0.0883961
-0.00141067
-0.00164189
0.087822
0.0748749
0.000125488
0.0746485
0.000185625
0.0743907
8.5469e-05
0.0741017
-6.03084e-05
0.0737721
-0.00020962
0.0733951
-0.000362958
0.072962
-0.000521057
0.0724621
-0.000679393
0.0718851
-0.000833625
-0.000980319
0.0712235
0.0507658
0.000359652
0.0505641
0.000387402
0.050396
0.000253555
0.0502129
0.000122725
0.0499891
1.42544e-05
0.0497083
-8.21454e-05
0.0493567
-0.000169542
0.0489242
-0.000246853
0.0484047
-0.000314055
-0.000371873
0.0477962
0.0193597
0.0197471
0.0200006
0.0201233
0.0201376
0.0200554
0.0198859
0.0196391
0.019325
0.0189531
-4.5056e-05
4.50448e-05
-0.000197097
0.000152014
-0.000414292
0.000217169
-0.000655677
0.00024136
-0.000900894
0.000245193
-0.00114232
0.000241403
-0.00137795
0.000235609
-0.00160766
0.000229694
-0.00183171
0.000224027
-0.00205027
0.00021855
-0.00226346
0.000213169
-0.00247131
0.000207836
-0.00267387
0.000202545
-0.00287118
0.000197297
-0.00306328
0.000192088
-0.0032502
0.000186905
-0.00343193
0.000181715
-0.00360841
0.000176467
-0.00377951
0.000171092
-0.00394501
0.000165501
-0.00410461
0.000159589
-0.00425784
0.000153232
-0.00440414
0.000146294
-0.00454276
0.000138622
-0.00467281
0.000130056
-0.00479323
0.000120431
-0.0049028
0.000109582
-0.00500013
9.73467e-05
-0.00508369
8.3581e-05
-0.00515181
6.81387e-05
-0.00520268
5.09026e-05
-0.00523445
3.18003e-05
-0.00524515
1.07329e-05
-0.00523284
-1.22633e-05
-3.70441e-05
-0.00519575
-0.000190327
0.000235345
-0.000596231
0.00055785
-0.00111582
0.000736697
-0.00167593
0.000801405
-0.00223771
0.000806925
-0.00278471
0.00078835
-0.00331142
0.000762273
-0.00381675
0.000734979
-0.00430102
0.000708257
-0.00476489
0.000682372
-0.00520898
0.000657226
-0.00563388
0.0006327
-0.00604007
0.000608702
-0.00642795
0.000585142
-0.00679779
0.000561907
-0.00714976
0.000538848
-0.00748385
0.000515782
-0.00779988
0.000492478
-0.00809747
0.000468662
-0.008376
0.000444022
-0.00863463
0.000418209
-0.00887224
0.000390843
-0.00908747
0.000361521
-0.00927865
0.000329814
-0.00944388
0.000295303
-0.009581
0.000257584
-0.00968766
0.000216268
-0.00976127
0.000171006
-0.00979917
0.000121534
-0.00979859
6.7617e-05
-0.0097567
9.08657e-06
-0.0096708
-5.4013e-05
-0.00953844
-0.000121532
-0.00935732
-0.000193288
-0.000268931
-0.00912531
-0.00033666
0.000571976
-0.000971675
0.0011928
-0.00172979
0.00149475
-0.00251559
0.00158716
-0.00328371
0.00157499
-0.00401566
0.00152025
-0.00470569
0.00145225
-0.00535333
0.00138258
-0.00596
0.00131489
-0.00652759
0.00124992
-0.00705791
0.00118752
-0.00755257
0.00112732
-0.00801286
0.00106896
-0.00843979
0.00101205
-0.00883407
0.000956164
-0.00919611
0.000900867
-0.00952602
0.00084567
-0.0098236
0.00079004
-0.0100883
0.000733392
-0.0103194
0.000675106
-0.0105158
0.000614533
-0.0106759
0.000551003
-0.0107982
0.000483836
-0.0108808
0.000412348
-0.0109213
0.000335892
-0.0109176
0.000253919
-0.0108673
0.000165935
-0.0107677
7.14831e-05
-0.0106164
-2.9679e-05
-0.0104112
-0.000137557
-0.01015
-0.000252047
-0.00983094
-0.000372971
-0.00945246
-0.00049993
-0.00901333
-0.000632331
-0.000769354
-0.00851281
-0.000462256
0.00103421
-0.00127216
0.00200265
-0.00218277
0.0024053
-0.00308286
0.0024872
-0.00392894
0.00242104
-0.00470728
0.00229855
-0.00541635
0.00216128
-0.00605914
0.00202533
-0.0066399
0.00189562
-0.00716283
0.00177281
-0.00763157
0.00165623
-0.00804914
0.00154486
-0.00841789
0.00143768
-0.00873962
0.00133375
-0.00901558
0.0012321
-0.00924654
0.0011318
-0.00943285
0.00103196
-0.00957447
0.000931646
-0.009671
0.00082991
-0.00972171
0.000725804
-0.00972558
0.000618396
-0.00968135
0.000506774
-0.00958757
0.000390067
-0.00944265
0.00026744
-0.00924485
0.00013811
-0.00899239
1.48732e-06
-0.00868369
-0.000142736
-0.00831745
-0.000294711
-0.00789251
-0.000454573
-0.00740774
-0.000622272
-0.00686225
-0.000797477
-0.00625557
-0.000979588
-0.00558772
-0.00116771
-0.00485919
-0.00136079
-0.00155748
-0.00407099
-0.000563323
0.0015975
-0.00146925
0.00290852
-0.00241212
0.00334812
-0.0032825
0.00335753
-0.00405141
0.0031899
-0.00471734
0.00296443
-0.00528736
0.00273126
-0.00577045
0.00250838
-0.00617504
0.00230017
-0.00650821
0.00210595
-0.00677564
0.00192363
-0.00698172
0.0017509
-0.00712977
0.00158571
-0.00722227
0.00142622
-0.00726096
0.00127076
-0.00724694
0.00111776
-0.00718083
0.000965828
-0.00706283
0.000813627
-0.00689278
0.000659847
-0.00667024
0.00050325
-0.00639454
0.000342682
-0.00606483
0.000177059
-0.0056802
5.43384e-06
-0.00523978
-0.00017298
-0.0047429
-0.000358757
-0.00418909
-0.000552315
-0.00357787
-0.000753945
-0.00290884
-0.000963715
-0.00218194
-0.00118146
-0.00139742
-0.00140676
-0.000555979
-0.00163888
0.000341257
-0.00187679
0.0012928
-0.00211922
0.00229663
-0.00236459
-0.002611
0.00335019
-0.000640491
0.00223797
-0.00153514
0.00380311
-0.00234322
0.00415614
-0.00299589
0.00401016
-0.00350016
0.00369413
-0.003875
0.00333923
-0.00413878
0.00299501
-0.00430712
0.00267668
-0.00439227
0.00238529
-0.00440351
0.00211715
-0.00434767
0.00186776
-0.00422975
0.00163294
-0.00405335
0.00140928
-0.00382113
0.00119397
-0.0035349
0.000984501
-0.00319582
0.00077865
-0.00280453
0.000574513
-0.00236134
0.000370412
-0.00186627
0.000164752
-0.00131915
-4.38897e-05
-0.00071969
-0.000256793
-6.76558e-05
-0.000474991
0.000637055
-0.000699293
0.00139446
-0.000930396
0.00220447
-0.00116878
0.00306681
-0.00141467
0.00398097
-0.00166811
0.00494614
-0.00192889
0.00596118
-0.0021965
0.00702457
-0.00247016
0.0081344
-0.00274871
0.00928831
-0.0030307
0.0104835
-0.00331436
0.0117165
-0.00359763
-0.00387811
0.0129836
-0.000685412
0.00292336
-0.00139865
0.00451629
-0.00182077
0.00457821
-0.00200168
0.00419103
-0.00201381
0.00370622
-0.00189991
0.00322529
-0.00168651
0.00278156
-0.00139216
0.00238229
-0.00102959
0.00202268
-0.000607309
0.00169483
-0.000130939
0.00139135
0.000395666
0.0011063
0.000969886
0.000835024
0.00159002
0.000573798
0.00225501
0.000319482
0.00296416
6.94693e-05
0.00371721
-0.000178572
0.00451434
-0.000426742
0.0053557
-0.000676634
0.00624131
-0.000929523
0.00717098
-0.00118649
0.0081444
-0.00144844
0.00916115
-0.00171606
0.0102206
-0.00198986
0.0113219
-0.00227011
0.012464
-0.00255678
0.0136454
-0.00284958
0.0148645
-0.00314795
0.016119
-0.00345099
0.0174063
-0.00375749
0.0187234
-0.00406589
0.020067
-0.00437428
0.0214331
-0.00468046
0.0228174
-0.00498191
-0.00527587
0.0242151
-0.000640114
0.00356345
-0.000786253
0.00466238
-0.000397875
0.00418979
0.000239265
0.00355385
0.00098241
0.00296303
0.00178649
0.00242117
0.00263349
0.00193453
0.00351278
0.00150296
0.00441911
0.00111631
0.00535036
0.000763553
0.00630595
0.000435718
0.00728578
0.000126443
0.00829015
-0.000169377
0.00932003
-0.000456114
0.0103765
-0.000737004
0.0114604
-0.00101447
0.0125723
-0.00129047
0.0137122
-0.00156673
0.0148802
-0.00184468
0.0160762
-0.00212551
0.0172998
-0.00241015
0.0185507
-0.00269929
0.019828
-0.00299336
0.0211306
-0.00329257
0.0224574
-0.00359686
0.0238064
-0.00390584
0.0251757
-0.00421885
0.0265626
-0.00453492
0.0279643
-0.00485274
0.0293775
-0.00517065
0.0307983
-0.0054867
0.0322226
-0.0057986
0.0336459
-0.00610377
0.0350634
-0.00639939
-0.00668242
0.0364699
-2.09951e-05
0.00358442
0.00141942
0.00322191
0.00325287
0.0023563
0.00505279
0.00175388
0.00675549
0.00126029
0.00837294
0.000803681
0.0099231
0.000384334
0.0114215
4.48967e-06
0.0128816
-0.000343784
0.0143148
-0.000669687
0.0157297
-0.000979241
0.0171328
-0.00127669
0.0185289
-0.00156544
0.0199211
-0.00184837
0.021312
-0.00212791
0.0227035
-0.00240603
0.0240974
-0.00268432
0.0254947
-0.00296409
0.0268963
-0.00324634
0.0283027
-0.00353187
0.0297137
-0.00382122
0.0311291
-0.00411467
0.032548
-0.00441229
0.0339692
-0.00471385
0.0353912
-0.00501886
0.0368119
-0.00532652
0.0382288
-0.00563576
0.039639
-0.00594516
0.0410392
-0.006253
0.0424258
-0.00655729
0.0437948
-0.00685569
0.0451419
-0.00714565
0.0464624
-0.00742435
0.0477518
-0.0076888
-0.00793587
0.0490053
0.00511911
-0.00153472
0.00919415
-0.000853168
0.0124217
-0.000871295
0.0152011
-0.00102556
0.0176606
-0.00119921
0.0198785
-0.00141428
0.021921
-0.00165814
0.0238358
-0.00191031
0.025654
-0.00216203
0.0273964
-0.00241214
0.0290781
-0.00266096
0.0307103
-0.00290893
0.0323016
-0.00315669
0.0338583
-0.00340509
0.0353853
-0.00365501
0.0368865
-0.00390723
0.0383646
-0.00416244
0.0398217
-0.00442116
0.041259
-0.00468375
0.0426775
-0.00495038
0.0440773
-0.00522106
0.0454582
-0.00549555
0.0468193
-0.0057734
0.0481594
-0.00605393
0.0494767
-0.00633618
0.0507691
-0.00661893
0.052034
-0.00690068
0.0532685
-0.00717965
0.0544693
-0.00745381
0.0556328
-0.00772085
0.0567554
-0.00797827
0.0578331
-0.00822333
0.0588619
-0.00845316
0.0598379
-0.0086648
-0.00885524
0.0607573
0.027398
-0.00288775
0.0296423
-0.00309745
0.0318637
-0.00309271
0.0339884
-0.00315028
0.0360246
-0.00323542
0.0379536
-0.00334337
0.0397758
-0.00348031
0.0415051
-0.00363966
0.0431558
-0.00381272
0.0447386
-0.00399498
0.0462621
-0.00418446
0.0477331
-0.00437998
0.0491572
-0.00458074
0.0505384
-0.00478637
0.0518802
-0.00499675
0.0531848
-0.00521187
0.054454
-0.00543168
0.055689
-0.00565611
0.0568902
-0.00588496
0.0580577
-0.00611791
0.0591911
-0.00635446
0.0602895
-0.00659395
0.0613516
-0.00683551
0.0623757
-0.00707807
0.0633598
-0.00732031
0.0643016
-0.00756067
0.0651983
-0.00779739
0.0660471
-0.00802844
0.0668449
-0.00825162
0.0675886
-0.00846453
0.0682749
-0.0086646
0.0689008
-0.00884917
0.0694632
-0.00901551
0.0699592
-0.00916086
-0.00928256
0.0703866
0.0553957
-0.00316958
0.0559382
-0.00363989
0.0567155
-0.00387002
0.0576173
-0.00405218
0.058606
-0.00422409
0.0596442
-0.0043816
0.0606979
-0.00453402
0.0617474
-0.00468911
0.0627825
-0.00484785
0.063797
-0.00500955
0.0647868
-0.00517426
0.0657491
-0.00534224
0.066682
-0.00551364
0.0675841
-0.00568854
0.0684544
-0.00586702
0.0692916
-0.00604912
0.0700947
-0.00623478
0.0708624
-0.0064238
0.0715933
-0.00661585
0.0722858
-0.0068104
0.0729382
-0.0070068
0.0735484
-0.00720418
0.0741144
-0.00740147
0.0746337
-0.0075974
0.0751039
-0.00779052
0.0755224
-0.00797915
0.0758865
-0.00816142
0.0761934
-0.00833532
0.0764404
-0.00849867
0.0766251
-0.00864917
0.076745
-0.00878446
0.0767979
-0.00890212
0.0767823
-0.00899978
0.0766966
-0.00907514
-0.00912602
0.07654
0.0770723
-0.00333345
0.0772354
-0.00380294
0.0774839
-0.00411859
0.0777917
-0.00435993
0.0781413
-0.00457373
0.0785246
-0.00476489
0.0789285
-0.00493796
0.0793404
-0.00510094
0.079751
-0.00525849
0.0801538
-0.00541232
0.0805432
-0.00556363
0.0809145
-0.00571361
0.0812641
-0.00586319
0.0815886
-0.00601302
0.0818851
-0.00616352
0.0821509
-0.00631496
0.0823835
-0.0064674
0.0825805
-0.00662072
0.0827392
-0.00677461
0.0828574
-0.00692856
0.0829325
-0.00708188
0.082962
-0.00723368
0.0829435
-0.00738288
0.0828743
-0.00752822
0.0827521
-0.00766826
0.0825744
-0.00780143
0.082339
-0.00792597
0.0820437
-0.00804005
0.0816868
-0.00814173
0.0812668
-0.00822905
0.0807824
-0.00830001
0.080233
-0.00835267
0.0796184
-0.00838519
0.0789391
-0.00839583
-0.0083831
0.0781963
0.0912734
-0.00328451
0.0911732
-0.00370268
0.0910838
-0.00402921
0.0910115
-0.00428768
0.0909471
-0.0045093
0.0908864
-0.00470418
0.0908246
-0.00487617
0.090755
-0.0050313
0.0906715
-0.00517502
0.0905697
-0.0053105
0.0904458
-0.00543973
0.0902966
-0.00556434
0.0901191
-0.00568566
0.0899107
-0.0058046
0.089669
-0.00592181
0.0893916
-0.00603762
0.0890765
-0.0061522
0.0887212
-0.00626546
0.0883238
-0.00637713
0.087882
-0.00648674
0.0873938
-0.00659364
0.0868572
-0.00669699
0.0862702
-0.00679583
0.085631
-0.00688901
0.0849381
-0.00697528
0.0841899
-0.00705326
0.0833855
-0.0071215
0.082524
-0.0071785
0.0816051
-0.00722272
0.0806287
-0.00725264
0.0795956
-0.00726681
0.0785068
-0.00726383
0.0773641
-0.00724249
0.0761701
-0.0072017
-0.00714064
0.0749277
0.0977176
-0.00300777
0.0973777
-0.00336281
0.0970085
-0.00365998
0.0966228
-0.00390197
0.0962187
-0.00410515
0.0957941
-0.00427954
0.0953475
-0.00442965
0.0948765
-0.00456024
0.0943778
-0.0046763
0.0938488
-0.0047815
0.0932874
-0.0048783
0.0926916
-0.00496853
0.0920597
-0.00505368
0.0913899
-0.00513482
0.0906808
-0.00521268
0.0899309
-0.00528772
0.0891389
-0.00536012
0.0883034
-0.00542989
0.0874231
-0.00549681
0.0864969
-0.00556052
0.0855238
-0.00562048
0.0845029
-0.005676
0.0834334
-0.00572629
0.0823149
-0.00577045
0.0811472
-0.00580748
0.0799303
-0.00583635
0.0786649
-0.00585597
0.0773517
-0.00586527
0.0759922
-0.00586317
0.0745883
-0.00584867
0.0731424
-0.00582083
0.0716575
-0.00577886
0.0701372
-0.00572209
0.0685856
-0.00565004
-0.00556242
0.0670074
0.0963349
-0.0025222
0.0957769
-0.00280479
0.0951637
-0.00304686
0.0945074
-0.00324558
0.093811
-0.00340877
0.0930757
-0.00354419
0.0923026
-0.00365651
0.0914921
-0.00374975
0.0906439
-0.00382805
0.0897574
-0.00389496
0.0888321
-0.00395301
0.0878677
-0.00400411
0.0868638
-0.00404974
0.08582
-0.00409102
0.0847361
-0.00412873
0.0836118
-0.00416337
0.0824469
-0.00419519
0.0812413
-0.00422426
0.079995
-0.00425047
0.0787081
-0.00427357
0.0773809
-0.00429318
0.0760138
-0.00430881
0.0746075
-0.0043199
0.0731629
-0.00432581
0.0716814
-0.00432586
0.0701644
-0.00431936
0.0686141
-0.0043056
0.0670328
-0.0042839
0.0654234
-0.00425364
0.0637891
-0.00421426
0.0621336
-0.00416528
0.0604612
-0.00410635
0.0587764
-0.00403724
0.0570843
-0.00395786
-0.00386827
0.0553902
0.087164
-0.0018642
0.0864253
-0.00206614
0.0856163
-0.00223778
0.084747
-0.00237623
0.0838236
-0.00248538
0.0828503
-0.00257083
0.0818306
-0.00263685
0.0807678
-0.00268691
0.0796642
-0.00272442
0.0785217
-0.0027524
0.0773419
-0.00277322
0.0761265
-0.00278859
0.0748766
-0.00279985
0.0735936
-0.00280796
0.0722785
-0.00281362
0.0709325
-0.00281727
0.0695564
-0.00281912
0.0681515
-0.00281926
0.0667187
-0.00281761
0.0652592
-0.00281401
0.0637743
-0.0028082
0.0622654
-0.00279985
0.0607342
-0.00278859
0.0591825
-0.00277402
0.0576124
-0.00275571
0.0560264
-0.00273326
0.0544271
-0.00270628
0.0528177
-0.0026744
0.0512015
-0.00263733
0.0495821
-0.00259481
0.0479636
-0.00254668
0.0463502
-0.00249285
0.0447463
-0.00243333
0.0431568
-0.0023682
-0.00229768
0.0415862
0.0704745
-0.00111512
0.0696408
-0.00123248
0.0687308
-0.00132772
0.0677544
-0.00139977
0.0667204
-0.00145136
0.0656362
-0.00148665
0.0645086
-0.00150919
0.0633435
-0.00152178
0.0621461
-0.00152692
0.0609205
-0.0015268
0.0596704
-0.0015231
0.0583989
-0.00151698
0.0571084
-0.00150927
0.055801
-0.00150055
0.0544786
-0.00149118
0.0531428
-0.00148136
0.0517949
-0.00147115
0.0504363
-0.00146054
0.0490682
-0.00144941
0.0476918
-0.00143762
0.0463087
-0.00142499
0.0449203
-0.00141131
0.0435281
-0.00139635
0.0421341
-0.0013799
0.0407402
-0.00136172
0.0393487
-0.00134164
0.037962
-0.00131946
0.0365827
-0.00129506
0.0352138
-0.00126831
0.0338582
-0.00123916
0.0325192
-0.00120758
0.0312
-0.00117359
0.0299041
-0.00113726
0.0286346
-0.00109871
-0.00105809
0.0273951
0.0471014
-0.000420261
0.0463273
-0.0004583
0.0454848
-0.000485281
0.044587
-0.000501841
0.0436457
-0.000510031
0.0426713
-0.000512283
0.0416727
-0.000510494
0.0406569
-0.000505974
0.0396298
-0.00049974
0.0385957
-0.000492608
0.0375577
-0.000485132
0.0365185
-0.000477629
0.0354795
-0.000470267
0.0344422
-0.000463128
0.0334073
-0.000456235
0.0323755
-0.000449564
0.0313475
-0.000443065
0.0303237
-0.00043667
0.0293047
-0.000430299
0.0282911
-0.000423869
0.0272834
-0.000417293
0.0262827
-0.000410486
0.0252898
-0.00040337
0.0243059
-0.000395871
0.0233322
-0.000387928
0.0223701
-0.000379487
0.0214213
-0.000370509
0.0204873
-0.000360966
0.0195699
-0.000350842
0.018671
-0.000340137
0.0177923
-0.000328862
0.0169358
-0.000317044
0.0161034
-0.000304721
0.0152967
-0.000291942
-0.000278768
0.0145174
0.0185329
0.0180746
0.0175893
0.0170875
0.0165775
0.0160652
0.0155547
0.0150488
0.014549
0.0140564
0.0135713
0.0130937
0.0126234
0.0121603
0.0117041
0.0112546
0.0108115
0.0103749
0.00994459
0.00952074
0.00910346
0.008693
0.00828964
0.00789379
0.00750588
0.00712642
0.00675592
0.00639498
0.00604415
0.00570403
0.00537518
0.00505815
0.00475344
0.00446151
0.00418276
-0.00513224
-6.34568e-05
-0.00504085
-9.13401e-05
-0.00492035
-0.000120433
-0.00476989
-0.000150406
-0.00458897
-0.000180846
-0.00437758
-0.000211317
-0.00413615
-0.000241341
-0.00386564
-0.000270435
-0.00356746
-0.000298092
-0.000323828
-0.00324355
-0.00884073
-0.000347927
-0.00850236
-0.000429573
-0.00810963
-0.00051303
-0.00766257
-0.000597307
-0.00716197
-0.000681286
-0.00660933
-0.000763784
-0.00600687
-0.000843617
-0.00535753
-0.000919584
-0.00466493
-0.000990512
-0.00105528
-0.00393328
-0.00795073
-0.000909902
-0.00732752
-0.00105267
-0.00664427
-0.00119616
-0.00590272
-0.00133873
-0.00510538
-0.0014785
-0.00425549
-0.00161353
-0.00335699
-0.00174199
-0.00241435
-0.00186208
-0.00143262
-0.0019721
-0.00207044
-0.000417322
-0.0032247
-0.00175611
-0.00232253
-0.00195476
-0.00136731
-0.0021513
-0.000362564
-0.00234339
0.000687653
-0.00252863
0.00177888
-0.00270468
0.00290619
-0.00286922
0.00406419
-0.00302
0.00524707
-0.0031549
-0.00327205
0.00644876
0.00445035
-0.00285623
0.00559349
-0.00309786
0.00677547
-0.00333325
0.00799174
-0.00355962
0.0092373
-0.00377417
0.0105068
-0.00397412
0.0117944
-0.00415682
0.0130942
-0.00431976
0.0144
-0.00446069
-0.00457767
0.0157057
0.0142806
-0.00415315
0.0156026
-0.00441988
0.0169446
-0.00467529
0.0183013
-0.0049163
0.019667
-0.00513981
0.0210357
-0.00534287
0.0224016
-0.00552268
0.0237586
-0.00567671
0.0251006
-0.00580276
-0.00589906
0.0264221
0.0256213
-0.00555933
0.0270305
-0.00582914
0.0284373
-0.00608205
0.0298359
-0.00631485
0.0312204
-0.00652438
0.0325852
-0.00670769
0.0339246
-0.00686208
0.0352332
-0.00698524
0.0365057
-0.00707524
-0.00713066
0.0377373
0.0378602
-0.00694968
0.039229
-0.00719789
0.0405708
-0.00742381
0.0418802
-0.00762427
0.0431521
-0.00779628
0.0443815
-0.00793714
0.0455639
-0.0080445
0.0466951
-0.00811643
0.0477714
-0.00815151
-0.00814888
0.0487896
0.050218
-0.0081624
0.0513853
-0.00836522
0.0525028
-0.00854126
0.0535661
-0.00868765
0.0545716
-0.00880178
0.0555159
-0.0088814
0.0563961
-0.00892471
0.05721
-0.00893037
0.0579561
-0.00889761
-0.00882622
0.0586335
0.0616164
-0.00902152
0.0624119
-0.00916076
0.063141
-0.00927033
0.0638012
-0.00934781
0.0643906
-0.00939117
0.0649079
-0.0093988
0.0653528
-0.00936954
0.0657252
-0.00930279
0.066026
-0.00919846
-0.00905707
0.0662569
0.0707431
-0.00937804
0.0710273
-0.00944495
0.0712382
-0.00948119
0.0713754
-0.00948503
0.0714393
-0.0094551
0.0714311
-0.00939053
0.0713524
-0.0092909
0.071206
-0.00915633
0.0709949
-0.00898745
-0.00878542
0.0707233
0.0763125
-0.00915046
0.0760143
-0.00914674
0.0756466
-0.0091135
0.0752113
-0.0090497
0.074711
-0.00895475
0.074149
-0.0088285
0.0735293
-0.00867126
0.0728568
-0.00848381
0.0721367
-0.00826737
-0.00802361
0.0713749
0.0773915
-0.00834571
0.0765275
-0.00828267
0.0756074
-0.00819334
0.0746351
-0.00807743
0.0736154
-0.00793503
0.0725536
-0.00776663
0.0714554
-0.00757313
0.0703274
-0.00735578
0.0691763
-0.00711621
-0.00685632
0.068009
0.0736407
-0.00705869
0.0723136
-0.00695554
0.0709515
-0.00683117
0.06956
-0.00668589
0.0681453
-0.0065203
0.066714
-0.00633532
0.0652731
-0.00613218
0.0638296
-0.00591235
0.062391
-0.00567753
-0.00542962
0.0609643
0.0654079
-0.00545917
0.0637929
-0.00534045
0.0621685
-0.00520666
0.060541
-0.00505843
0.0589174
-0.00489663
0.0573044
-0.0047223
0.055709
-0.00453668
0.0541378
-0.00434117
0.0525976
-0.00413726
-0.00392653
0.0510945
0.0536998
-0.00376872
0.052019
-0.00365959
0.0503538
-0.00354142
0.0487104
-0.00341489
0.0470946
-0.00328082
0.0455125
-0.00314013
0.0439697
-0.00299381
0.0424714
-0.00284293
0.0410228
-0.00268857
-0.00253182
0.0396281
0.0400396
-0.00222205
0.0385218
-0.00214167
0.0370374
-0.00205703
0.0355912
-0.00196861
0.0341874
-0.00187702
0.0328302
-0.00178285
0.0315232
-0.00168674
0.0302696
-0.00158932
0.0290723
-0.00149123
-0.00139306
0.0279336
0.0261887
-0.0010156
0.0250186
-0.000971476
0.0238876
-0.000925963
0.0227984
-0.000879345
0.0217533
-0.000831904
0.0207545
-0.000783939
0.0198035
-0.000735732
0.0189018
-0.00068757
0.0180503
-0.000639706
-0.000592392
0.0172496
0.0137671
-0.000265268
0.0130472
-0.000251513
0.0123589
-0.000237583
0.0117032
-0.000223556
0.0110808
-0.00020951
0.0104924
-0.000195521
0.0099384
-0.000181661
0.00941886
-0.000167995
0.00893377
-0.000154583
-0.000141474
0.00848289
0.0039175
0.003666
0.00342842
0.00320487
0.00299537
0.00279986
0.0026182
0.00245021
0.00229564
0.00215417
-0.00289629
-0.000347172
-0.0025285
-0.000367712
-0.00214332
-0.000385096
-0.00174418
-0.00039905
-0.0013347
-0.000409388
-0.000918551
-0.000416064
-0.000499425
-0.000419035
-8.10101e-05
-0.000418323
0.000333237
-0.000414154
0.000740052
-0.000406722
0.00113641
-0.000396268
0.00151965
-0.000383146
0.00188746
-0.000367707
0.00223788
-0.000350328
0.00256937
-0.000331397
0.00288076
-0.000311298
0.00317125
-0.000290402
0.00344039
-0.000269061
0.00368807
-0.000247599
0.00391446
-0.000226306
0.00411997
-0.00020544
0.00430526
-0.000185217
0.00447114
-0.000165819
0.00461859
-0.00014739
0.00474869
-0.00013004
0.00486258
-0.000113846
0.00496148
-9.88543e-05
0.00504661
-8.50882e-05
0.00511919
-7.25469e-05
0.00518044
-6.12112e-05
0.00523152
-5.10466e-05
0.00527355
-4.20068e-05
0.00530762
-3.40361e-05
0.00533471
-2.7073e-05
-2.10517e-05
0.00535578
-0.0031674
-0.00111287
-0.00237257
-0.00116236
-0.00155447
-0.001203
-0.000718965
-0.00123437
0.000128057
-0.00125621
0.000980452
-0.00126826
0.00183221
-0.00127059
0.00267769
-0.00126361
0.00351142
-0.00124768
0.00432825
-0.00122335
0.00512348
-0.0011913
0.00589288
-0.00115234
0.00663275
-0.00110738
0.00733995
-0.00105733
0.0080119
-0.00100315
0.00864659
-0.000945802
0.00924258
-0.000886203
0.00979893
-0.000825241
0.0103152
-0.000763742
0.0107916
-0.000702462
0.0112284
-0.000642076
0.0116265
-0.000583175
0.011987
-0.000526266
0.0123115
-0.000471765
0.0126016
-0.000420007
0.0128591
-0.000371245
0.013086
-0.000325659
0.0132844
-0.000283361
0.0134563
-0.000244402
0.013604
-0.00020878
0.0137294
-0.00017645
0.0138348
-0.000147327
0.0139221
-0.000121297
0.0139933
-9.82238e-05
-7.79531e-05
0.0140503
0.00062561
-0.00215565
0.00168994
-0.00222654
0.0027694
-0.00228232
0.00385761
-0.00232244
0.00494809
-0.00234656
0.00603459
-0.00235462
0.00711103
-0.00234689
0.00817152
-0.00232395
0.0092106
-0.00228661
0.0102233
-0.00223585
0.011205
-0.00217287
0.0121518
-0.00209899
0.0130602
-0.00201566
0.0139274
-0.00192437
0.014751
-0.00182663
0.0155294
-0.00172396
0.0162611
-0.00161781
0.0169456
-0.00150957
0.0175825
-0.00140056
0.0181722
-0.00129197
0.0187151
-0.00118487
0.0192122
-0.00108021
0.0196649
-0.000978818
0.0200746
-0.000881379
0.0204431
-0.000788453
0.0207725
-0.000700483
0.0210647
-0.000617791
0.021322
-0.000540599
0.0215467
-0.000469031
0.0217411
-0.000403126
0.0219075
-0.000342849
0.0220484
-0.000288104
0.0221659
-0.000238739
0.0222622
-0.000194561
-0.000155346
0.0223397
0.00766304
-0.00336985
0.00888362
-0.00344704
0.0101042
-0.00350276
0.0113183
-0.00353653
0.0125201
-0.00354824
0.0137037
-0.00353813
0.0148638
-0.00350683
0.0159953
-0.00345534
0.0170937
-0.00338489
0.0181549
-0.00329703
0.0191756
-0.00319345
0.0201528
-0.00307605
0.0210841
-0.0029468
0.0219675
-0.00280773
0.0228019
-0.00266088
0.0235863
-0.00250826
0.0243204
-0.00235178
0.0250042
-0.00219326
0.0256382
-0.00203441
0.0262231
-0.00187677
0.02676
-0.00172171
0.0272503
-0.00157045
0.0276956
-0.00142405
0.0280977
-0.00128338
0.0284585
-0.00114916
0.02878
-0.00102195
0.0290645
-0.000902158
0.029314
-0.000790073
0.0295309
-0.000685856
0.0297174
-0.000589561
0.0298757
-0.000501145
0.0300081
-0.000420489
0.0301168
-0.000347401
0.0302039
-0.000281636
-0.000222905
0.0302715
0.017005
-0.00466915
0.018292
-0.00473399
0.0195608
-0.00477151
0.0208058
-0.0047815
0.0220219
-0.00476422
0.0232041
-0.00472034
0.0243484
-0.00465099
0.0254507
-0.00455763
0.026508
-0.00444208
0.0275174
-0.00430641
0.028477
-0.0041529
0.029385
-0.00398398
0.0302404
-0.00380215
0.0310427
-0.00360994
0.0317917
-0.00340986
0.0324879
-0.00320432
0.0331318
-0.00299565
0.0337246
-0.00278598
0.0342676
-0.00257731
0.0347623
-0.00237143
0.0352106
-0.00216992
0.0356143
-0.00197416
0.0359757
-0.00178533
0.0362967
-0.00160439
0.0365797
-0.00143212
0.0368269
-0.00126912
0.0370406
-0.0011158
0.037223
-0.000972454
0.0373764
-0.000839202
0.037503
-0.000716061
0.0376048
-0.000602936
0.037684
-0.000499644
0.0377425
-0.000405926
0.0377824
-0.000321461
-0.000245881
0.0378054
0.0277172
-0.00596427
0.0289808
-0.00599758
0.030208
-0.00599869
0.0313944
-0.00596783
0.0325359
-0.00590574
0.0336293
-0.00581366
0.0346716
-0.00569325
0.0356606
-0.00554656
0.0365945
-0.00537598
0.0374723
-0.00518413
0.0382933
-0.00497384
0.0390574
-0.00474802
0.0397649
-0.00450966
0.0404167
-0.00426171
0.0410139
-0.00400702
0.041558
-0.00374837
0.0420507
-0.00348831
0.042494
-0.00322924
0.0428901
-0.00297332
0.0432412
-0.00272247
0.0435496
-0.00247837
0.043818
-0.00224247
0.0440486
-0.00201595
0.0442441
-0.0017998
0.0444067
-0.00159476
0.044539
-0.00140138
0.0446433
-0.00122003
0.0447218
-0.00105091
0.0447767
-0.000894076
0.04481
-0.00074944
0.0448239
-0.000616819
0.0448202
-0.000495931
0.0448007
-0.000386417
0.0447672
-0.000287856
-0.000199784
0.0447211
0.0389236
-0.0071506
0.0400608
-0.00713475
0.0411454
-0.00708334
0.0421748
-0.00699717
0.0431466
-0.00687757
0.0440594
-0.00672638
0.044912
-0.00654584
0.045704
-0.00633858
0.0464356
-0.00610752
0.0471072
-0.00585578
0.04772
-0.00558663
0.0482754
-0.00530339
0.0487751
-0.00500938
0.0492212
-0.00470782
0.049616
-0.00440182
0.049962
-0.00409431
0.0502617
-0.00378799
0.0505177
-0.00348532
0.0507329
-0.00318851
0.05091
-0.00289949
0.0510515
-0.00261991
0.0511602
-0.00235118
0.0512386
-0.00209441
0.0512893
-0.00185049
0.0513146
-0.00162008
0.0513169
-0.00140363
0.0512982
-0.00120138
0.0512607
-0.00101343
0.0512064
-0.000839712
0.051137
-0.000680026
0.0510542
-0.000534072
0.0509597
-0.000401455
0.050855
-0.000281706
0.0507415
-0.000174301
-7.86885e-05
0.0506204
0.0497472
-0.00810822
0.0506423
-0.00802983
0.0514736
-0.00791459
0.0522403
-0.00776392
0.0529425
-0.00757979
0.0535807
-0.00736459
0.054156
-0.00712111
0.0546699
-0.00685249
0.0551244
-0.00656204
0.0555218
-0.00625326
0.0558649
-0.00592972
0.0561564
-0.00559495
0.0563995
-0.00525242
0.0565971
-0.00490548
0.0567525
-0.00455726
0.0568688
-0.00421068
0.0569492
-0.00386839
0.0569967
-0.00353279
0.0570141
-0.00320596
0.0570043
-0.0028897
0.0569699
-0.00258553
0.0569133
-0.00229468
0.056837
-0.00201813
0.0567431
-0.0017566
0.0566336
-0.00151059
0.0565104
-0.0012804
0.0563751
-0.00106615
0.0562294
-0.000867764
0.0560747
-0.000685066
0.0559124
-0.000517739
0.0557437
-0.000365364
0.0555697
-0.000227443
0.0553914
-0.000103416
0.0552098
7.29922e-06
0.000105362
0.0550257
0.0592418
-0.00871658
0.0597816
-0.00856965
0.060254
-0.00838696
0.0606606
-0.00817055
0.0610036
-0.0079229
0.061286
-0.00764693
0.0615106
-0.00734583
0.0616811
-0.00702303
0.0618012
-0.00668214
0.0618747
-0.00632678
0.0619055
-0.00596061
0.0618977
-0.00558718
0.0618551
-0.00520989
0.0617816
-0.00483197
0.0616806
-0.0044564
0.0615558
-0.00408589
0.0614102
-0.00372288
0.0612469
-0.0033695
0.0610685
-0.00302759
0.0608774
-0.00269869
0.0606759
-0.00238407
0.0604659
-0.00208473
0.0602491
-0.00180141
0.0600271
-0.00153462
0.0598012
-0.00128467
0.0595724
-0.0010517
0.0593419
-0.000835636
0.0591104
-0.000636308
0.0588787
-0.000453396
0.0586474
-0.000286481
0.058417
-0.000135051
0.0581881
1.46191e-06
0.057961
0.000123691
0.0577359
0.000232327
0.000328062
0.0575132
0.0664199
-0.00887968
0.0665181
-0.00866787
0.0665549
-0.00842374
0.0665341
-0.00814983
0.0664602
-0.00784902
0.0663377
-0.00752452
0.0661716
-0.00717974
0.0659667
-0.00681823
0.0657281
-0.00644358
0.0654606
-0.00605936
0.065169
-0.00566905