/*--------------------------------*- C++ -*----------------------------------*\
| =========                 |                                                 |
| \\      /  F ield         | OpenFOAM: The Open Source CFD Toolbox           |
|  \\    /   O peration     | Version:  2406                                  |
|   \\  /    A nd           | Website:  www.openfoam.com                      |
|    \\/     M anipulation  |                                                 |
\*---------------------------------------------------------------------------*/
FoamFile
{
    version     2.0;
    format      ascii;
    arch        "LSB;label=32;scalar=64";
    class       volVectorField;
    location    "82";
    object      U;
}
// * * * * * * * * * * * * * * * * * * * * * * * * * * * * * * * * * * * * * //

dimensions      [0 1 -1 0 0 0 0];

internalField   nonuniform List<vector> 
1900
(
(0.191647 -0.00264572 0)
(0.196843 -0.00394665 0)
(0.202467 -0.00333208 0)
(0.20779 -0.00265674 0)
(0.212874 -0.00232992 0)
(0.218037 -0.00226385 0)
(0.223604 -0.00244276 0)
(0.229858 -0.00296793 0)
(0.23777 -0.00414225 0)
(0.244601 -0.0151457 0)
(0.50778 -0.00300282 0)
(0.507517 -0.00630061 0)
(0.508912 -0.00735183 0)
(0.511171 -0.00771022 0)
(0.514491 -0.00812437 0)
(0.51895 -0.00877658 0)
(0.524517 -0.00981883 0)
(0.531221 -0.011575 0)
(0.539299 -0.0144181 0)
(0.547525 -0.0201317 0)
(0.748391 -0.00207663 0)
(0.748279 -0.00510974 0)
(0.748677 -0.0070247 0)
(0.749069 -0.00854325 0)
(0.75014 -0.0101391 0)
(0.752217 -0.0119769 0)
(0.755225 -0.01421 0)
(0.759001 -0.0171228 0)
(0.763328 -0.0210662 0)
(0.767521 -0.0267156 0)
(0.908674 -0.00159604 0)
(0.908672 -0.00442693 0)
(0.908805 -0.00677732 0)
(0.908448 -0.00891565 0)
(0.908293 -0.0111306 0)
(0.908724 -0.0135816 0)
(0.909648 -0.0164002 0)
(0.910853 -0.0197562 0)
(0.912116 -0.0237958 0)
(0.913083 -0.0285782 0)
(0.988759 -0.00127389 0)
(0.988657 -0.00372082 0)
(0.988464 -0.00604624 0)
(0.987471 -0.00835698 0)
(0.986318 -0.0107905 0)
(0.985397 -0.0134493 0)
(0.984615 -0.016418 0)
(0.983759 -0.0197748 0)
(0.982646 -0.023552 0)
(0.981066 -0.02769 0)
(0.988732 -0.000896689 0)
(0.98842 -0.00274537 0)
(0.987797 -0.00476618 0)
(0.986133 -0.00697438 0)
(0.984059 -0.00935416 0)
(0.981957 -0.011929 0)
(0.979722 -0.0147416 0)
(0.977147 -0.0178158 0)
(0.974087 -0.021133 0)
(0.970408 -0.0246144 0)
(0.908593 -0.000353346 0)
(0.907973 -0.00138716 0)
(0.906835 -0.00293988 0)
(0.904497 -0.004844 0)
(0.90162 -0.00692786 0)
(0.898545 -0.00916647 0)
(0.89514 -0.0115802 0)
(0.891202 -0.014157 0)
(0.886614 -0.0168507 0)
(0.881285 -0.0195864 0)
(0.748262 0.000549792 0)
(0.747153 0.000558752 0)
(0.745519 -0.000550178 0)
(0.742743 -0.00212454 0)
(0.739455 -0.00379707 0)
(0.735904 -0.00554411 0)
(0.731917 -0.00739175 0)
(0.727296 -0.00931029 0)
(0.721932 -0.0112467 0)
(0.715752 -0.0131447 0)
(0.507625 0.00201694 0)
(0.506109 0.0034123 0)
(0.504935 0.00264219 0)
(0.503211 0.00120795 0)
(0.5011 -0.000237727 0)
(0.498599 -0.00163798 0)
(0.495493 -0.00300263 0)
(0.491605 -0.00429375 0)
(0.486856 -0.00547703 0)
(0.481217 -0.00653556 0)
(0.191498 0.00220941 0)
(0.195572 0.00290384 0)
(0.198924 0.00186692 0)
(0.200861 0.000847086 0)
(0.201519 0.000169071 0)
(0.201144 -0.000316811 0)
(0.199871 -0.000696051 0)
(0.197777 -0.000982151 0)
(0.194957 -0.00118785 0)
(0.191509 -0.00133144 0)
(-5.04961e-05 3.49104e-05 0)
(-0.00106048 0.000322402 0)
(-0.00296046 0.00050706 0)
(-0.00531731 0.000569686 0)
(-0.00778456 0.000580691 0)
(-0.0102299 0.000575561 0)
(-0.0126181 0.000567969 0)
(-0.0149448 0.000561592 0)
(-0.017213 0.000556362 0)
(-0.0194255 0.000551505 0)
(-0.0215839 0.000546513 0)
(-0.0236887 0.000541211 0)
(-0.0257405 0.000535657 0)
(-0.0277397 0.000529985 0)
(-0.0296866 0.000524311 0)
(-0.0315816 0.000518733 0)
(-0.0334249 0.000513302 0)
(-0.0352162 0.000507989 0)
(-0.0369545 0.000502726 0)
(-0.0386383 0.000497361 0)
(-0.0402647 0.000491702 0)
(-0.0418301 0.000485469 0)
(-0.0433293 0.000478329 0)
(-0.0447558 0.000469847 0)
(-0.0461014 0.00045958 0)
(-0.0473563 0.000447027 0)
(-0.0485091 0.000431664 0)
(-0.0495468 0.000412899 0)
(-0.0504547 0.000390161 0)
(-0.0512168 0.000362739 0)
(-0.0518155 0.000329945 0)
(-0.0522325 0.000291119 0)
(-0.0524489 0.000245725 0)
(-0.0524444 0.000193793 0)
(-0.0522004 0.000135552 0)
(-0.000478407 0.00114172 0)
(-0.00360974 0.00305659 0)
(-0.00837241 0.00421397 0)
(-0.013914 0.00466178 0)
(-0.0195936 0.00473452 0)
(-0.0251621 0.00465772 0)
(-0.0305368 0.00453687 0)
(-0.0356968 0.00440993 0)
(-0.0406429 0.00428621 0)
(-0.0453814 0.00416611 0)
(-0.0499194 0.00404854 0)
(-0.0542628 0.00393284 0)
(-0.0584169 0.00381881 0)
(-0.0623863 0.00370637 0)
(-0.0661743 0.00359528 0)
(-0.0697832 0.00348508 0)
(-0.0732137 0.003375 0)
(-0.0764651 0.00326396 0)
(-0.0795344 0.00315051 0)
(-0.0824169 0.00303289 0)
(-0.0851052 0.00290906 0)
(-0.0875895 0.00277666 0)
(-0.0898574 0.00263309 0)
(-0.0918938 0.00247555 0)
(-0.0936808 0.00230113 0)
(-0.095198 0.00210692 0)
(-0.0964228 0.00188993 0)
(-0.0973303 0.00164733 0)
(-0.0978942 0.00137655 0)
(-0.0980872 0.00107519 0)
(-0.0978813 0.000741567 0)
(-0.0972478 0.000375158 0)
(-0.0961613 -2.45257e-05 0)
(-0.0945984 -0.000456935 0)
(-0.0925367 -0.000920041 0)
(-0.000935898 0.00377556 0)
(-0.00614817 0.00829927 0)
(-0.0133148 0.0106915 0)
(-0.0212243 0.011528 0)
(-0.0290772 0.0115574 0)
(-0.0366034 0.0112519 0)
(-0.0437175 0.0108386 0)
(-0.0504026 0.0104066 0)
(-0.0566688 0.00998332 0)
(-0.0625348 0.00957405 0)
(-0.0680197 0.00917815 0)
(-0.0731407 0.00879387 0)
(-0.0779124 0.0084195 0)
(-0.0823463 0.00805321 0)
(-0.0864509 0.0076928 0)
(-0.0902319 0.0073357 0)
(-0.0936919 0.00697886 0)
(-0.0968302 0.00661869 0)
(-0.0996436 0.00625107 0)
(-0.102125 0.0058714 0)
(-0.104266 0.00547471 0)
(-0.106052 0.00505568 0)
(-0.107469 0.00460873 0)
(-0.108498 0.00412812 0)
(-0.109119 0.00360823 0)
(-0.109309 0.00304383 0)
(-0.109045 0.00242994 0)
(-0.108301 0.00176228 0)
(-0.107053 0.00103817 0)
(-0.105275 0.000256033 0)
(-0.102946 -0.000585124 0)
(-0.100049 -0.00148455 0)
(-0.096564 -0.00243962 0)
(-0.0924774 -0.00344672 0)
(-0.0877791 -0.00450022 0)
(-0.00135035 0.00782172 0)
(-0.00829541 0.0156773 0)
(-0.017159 0.019271 0)
(-0.0264221 0.0202478 0)
(-0.0352266 0.0199511 0)
(-0.043362 0.0191437 0)
(-0.0507931 0.018183 0)
(-0.057541 0.0172102 0)
(-0.0636469 0.0162709 0)
(-0.0691548 0.0153738 0)
(-0.0741045 0.0145162 0)
(-0.0785292 0.0136924 0)
(-0.0824555 0.0128963 0)
(-0.0859041 0.0121218 0)
(-0.0888901 0.0113627 0)
(-0.0914234 0.0106122 0)
(-0.0935094 0.00986372 0)
(-0.0951498 0.00911002 0)
(-0.0963422 0.00834343 0)
(-0.0970807 0.007556 0)
(-0.0973566 0.00673966 0)
(-0.0971583 0.0058862 0)
(-0.0964722 0.00498755 0)
(-0.0952829 0.00403575 0)
(-0.0935738 0.00302325 0)
(-0.091327 0.00194416 0)
(-0.0885239 0.000794383 0)
(-0.0851519 -0.000429775 0)
(-0.0811982 -0.00173047 0)
(-0.076652 -0.00310752 0)
(-0.0715016 -0.00455857 0)
(-0.0657404 -0.00607944 0)
(-0.0593661 -0.0076634 0)
(-0.0523811 -0.00930236 0)
(-0.0447927 -0.0109859 0)
(-0.0017359 0.0130055 0)
(-0.00992093 0.024458 0)
(-0.0194549 0.0288484 0)
(-0.0287072 0.0294623 0)
(-0.0369407 0.0284047 0)
(-0.044101 0.0267426 0)
(-0.0502566 0.0249462 0)
(-0.0554983 0.0231933 0)
(-0.0599163 0.0215353 0)
(-0.0635887 0.0199754 0)
(-0.066579 0.0185015 0)
(-0.0689368 0.0170987 0)
(-0.0707003 0.0157523 0)
(-0.0718979 0.0144489 0)
(-0.0725505 0.0131759 0)
(-0.0726718 0.0119208 0)
(-0.0722703 0.0106724 0)
(-0.07135 0.00941919 0)
(-0.0699107 0.00814981 0)
(-0.0679495 0.00685317 0)
(-0.0654605 0.00551873 0)
(-0.0624359 0.00413624 0)
(-0.0588667 0.00269723 0)
(-0.0547431 0.00119383 0)
(-0.0500583 -0.000382155 0)
(-0.0448051 -0.00203613 0)
(-0.0389814 -0.00377109 0)
(-0.0325803 -0.00558798 0)
(-0.0256 -0.00748677 0)
(-0.0180413 -0.00946533 0)
(-0.00990762 -0.0115185 0)
(-0.00120714 -0.0136381 0)
(0.00804474 -0.015813 0)
(0.017829 -0.0180304 0)
(0.0281238 -0.0202739 0)
(-0.00212345 0.0190963 0)
(-0.0109552 0.0337384 0)
(-0.0196996 0.0380278 0)
(-0.0270889 0.0375418 0)
(-0.0328403 0.035218 0)
(-0.0371834 0.0323596 0)
(-0.0403308 0.0294912 0)
(-0.0424551 0.0267903 0)
(-0.0436951 0.0242902 0)
(-0.0441569 0.0219728 0)
(-0.0439192 0.0198068 0)
(-0.0430396 0.0177618 0)
(-0.0415602 0.0158113 0)
(-0.0395119 0.0139314 0)
(-0.0369162 0.0121007 0)
(-0.0337875 0.0103002 0)
(-0.0301349 0.00851372 0)
(-0.0259627 0.00672584 0)
(-0.0212719 0.00492175 0)
(-0.0160616 0.00308792 0)
(-0.01033 0.001212 0)
(-0.00407203 -0.000717299 0)
(0.00271489 -0.00270887 0)
(0.0100272 -0.00477029 0)
(0.0178652 -0.00690664 0)
(0.0262284 -0.00912124 0)
(0.0351128 -0.011416 0)
(0.0445124 -0.0137905 0)
(0.0544173 -0.0162414 0)
(0.0648143 -0.0187628 0)
(0.0756863 -0.0213454 0)
(0.0870122 -0.0239773 0)
(0.0987659 -0.026644 0)
(0.110917 -0.0293272 0)
(0.123428 -0.0320046 0)
(-0.00253666 0.0261264 0)
(-0.0110873 0.0423266 0)
(-0.0167428 0.0448402 0)
(-0.0196226 0.042351 0)
(-0.0204561 0.0383583 0)
(-0.0198595 0.0341383 0)
(-0.0181638 0.030149 0)
(-0.0155845 0.0265112 0)
(-0.0122731 0.0232084 0)
(-0.00833118 0.0201842 0)
(-0.00382556 0.0173794 0)
(0.00119903 0.0147432 0)
(0.00670957 0.012235 0)
(0.012685 0.00982176 0)
(0.0191129 0.00747467 0)
(0.0259863 0.00516889 0)
(0.0332969 0.00288258 0)
(0.0410472 0.000595846 0)
(0.0492396 -0.00170775 0)
(0.0578749 -0.00404202 0)
(0.0669523 -0.00641899 0)
(0.0764687 -0.00884826 0)
(0.086421 -0.0113383 0)
(0.0968039 -0.013896 0)
(0.10761 -0.0165242 0)
(0.118831 -0.0192238 0)
(0.130452 -0.0219939 0)
(0.14246 -0.0248307 0)
(0.154834 -0.0277273 0)
(0.167551 -0.0306737 0)
(0.180582 -0.0336565 0)
(0.193895 -0.0366588 0)
(0.207454 -0.0396606 0)
(0.221218 -0.0426388 0)
(0.235141 -0.0455672 0)
(-0.00290681 0.0343609 0)
(-0.00857187 0.0481344 0)
(-0.00685014 0.0462143 0)
(-0.00124281 0.041039 0)
(0.00587262 0.0354543 0)
(0.0136916 0.0301163 0)
(0.0219912 0.0252835 0)
(0.0306488 0.0209858 0)
(0.0395889 0.0171365 0)
(0.0487815 0.0136333 0)
(0.0582178 0.0103915 0)
(0.0678974 0.00734522 0)
(0.0778166 0.00444138 0)
(0.0879848 0.00163742 0)
(0.0984148 -0.00109948 0)
(0.109115 -0.00379519 0)
(0.120093 -0.00647189 0)
(0.131353 -0.00914884 0)
(0.142893 -0.0118417 0)
(0.154713 -0.0145634 0)
(0.166812 -0.0173243 0)
(0.179186 -0.0201325 0)
(0.191829 -0.0229941 0)
(0.204732 -0.0259126 0)
(0.217883 -0.0288892 0)
(0.231267 -0.0319223 0)
(0.244864 -0.0350073 0)
(0.258652 -0.0381366 0)
(0.272604 -0.0412992 0)
(0.286687 -0.0444809 0)
(0.300867 -0.0476639 0)
(0.315104 -0.0508272 0)
(0.329354 -0.0539467 0)
(0.343571 -0.0569954 0)
(0.357705 -0.059944 0)
(0.000703393 0.0380455 0)
(0.00574477 0.04461 0)
(0.0223988 0.0370539 0)
(0.0414247 0.0299667 0)
(0.0592291 0.023922 0)
(0.075801 0.0184365 0)
(0.0915936 0.013525 0)
(0.106819 0.00918925 0)
(0.121588 0.00530161 0)
(0.136033 0.00173609 0)
(0.150257 -0.00159542 0)
(0.164334 -0.00475305 0)
(0.178321 -0.00778404 0)
(0.192256 -0.0107282 0)
(0.206166 -0.0136173 0)
(0.220074 -0.0164757 0)
(0.233997 -0.0193232 0)
(0.24795 -0.0221757 0)
(0.261944 -0.0250459 0)
(0.275983 -0.0279446 0)
(0.290071 -0.0308795 0)
(0.304204 -0.0338562 0)
(0.318378 -0.0368777 0)
(0.332582 -0.0399441 0)
(0.346803 -0.043053 0)
(0.361022 -0.0461987 0)
(0.375217 -0.0493727 0)
(0.389361 -0.0525629 0)
(0.403422 -0.0557543 0)
(0.417366 -0.0589285 0)
(0.431155 -0.0620639 0)
(0.444747 -0.0651359 0)
(0.458097 -0.0681175 0)
(0.471159 -0.070979 0)
(0.483885 -0.0736894 0)
(0.0464424 0.0143039 0)
(0.0743716 0.0157991 0)
(0.106891 0.0102909 0)
(0.138379 0.00540977 0)
(0.165063 0.00155741 0)
(0.18821 -0.00205628 0)
(0.209315 -0.00558205 0)
(0.229028 -0.00892435 0)
(0.247656 -0.0120638 0)
(0.26542 -0.0150518 0)
(0.282507 -0.0179341 0)
(0.299053 -0.0207405 0)
(0.315152 -0.0234948 0)
(0.330878 -0.0262176 0)
(0.346287 -0.0289266 0)
(0.36142 -0.0316366 0)
(0.37631 -0.03436 0)
(0.390982 -0.0371064 0)
(0.405451 -0.0398835 0)
(0.419729 -0.0426966 0)
(0.433821 -0.0455487 0)
(0.447726 -0.0484402 0)
(0.461439 -0.0513695 0)
(0.474948 -0.0543321 0)
(0.48824 -0.0573208 0)
(0.501295 -0.0603255 0)
(0.514088 -0.0633331 0)
(0.526593 -0.0663276 0)
(0.538779 -0.0692899 0)
(0.55061 -0.0721983 0)
(0.562051 -0.0750283 0)
(0.573062 -0.077753 0)
(0.583605 -0.0803435 0)
(0.593639 -0.0827698 0)
(0.603125 -0.0850006 0)
(0.270806 -0.0300168 0)
(0.287065 -0.0291326 0)
(0.306432 -0.0266615 0)
(0.328852 -0.0255977 0)
(0.350399 -0.0255851 0)
(0.370233 -0.0263249 0)
(0.388863 -0.0276392 0)
(0.406586 -0.0293198 0)
(0.42348 -0.0312054 0)
(0.439631 -0.0332115 0)
(0.455141 -0.0352997 0)
(0.470098 -0.037449 0)
(0.484562 -0.0396481 0)
(0.49858 -0.0418919 0)
(0.512188 -0.0441795 0)
(0.525415 -0.046512 0)
(0.538281 -0.0488903 0)
(0.550799 -0.0513152 0)
(0.562979 -0.0537864 0)
(0.574824 -0.0563024 0)
(0.58633 -0.0588599 0)
(0.597492 -0.061454 0)
(0.608298 -0.0640776 0)
(0.618734 -0.0667214 0)
(0.628781 -0.0693736 0)
(0.638417 -0.07202 0)
(0.647616 -0.0746438 0)
(0.656352 -0.0772257 0)
(0.664593 -0.0797438 0)
(0.672309 -0.0821742 0)
(0.679467 -0.0844911 0)
(0.686036 -0.086667 0)
(0.691985 -0.0886732 0)
(0.697284 -0.0904809 0)
(0.701907 -0.0920609 0)
(0.553788 -0.0288117 0)
(0.557227 -0.0338525 0)
(0.562555 -0.0361625 0)
(0.571006 -0.0377927 0)
(0.580928 -0.0392708 0)
(0.59123 -0.0406497 0)
(0.601693 -0.0420383 0)
(0.612227 -0.0435103 0)
(0.622686 -0.0450688 0)
(0.632955 -0.0466986 0)
(0.642985 -0.0483919 0)
(0.65275 -0.0501451 0)
(0.662229 -0.0519546 0)
(0.671408 -0.0538175 0)
(0.680274 -0.0557318 0)
(0.688814 -0.0576961 0)
(0.697019 -0.0597089 0)
(0.704876 -0.0617677 0)
(0.712373 -0.0638688 0)
(0.719494 -0.0660072 0)
(0.726223 -0.0681764 0)
(0.732541 -0.0703682 0)
(0.738428 -0.0725722 0)
(0.743861 -0.0747762 0)
(0.748815 -0.0769657 0)
(0.753265 -0.0791241 0)
(0.757185 -0.0812327 0)
(0.760547 -0.0832708 0)
(0.763323 -0.0852159 0)
(0.765488 -0.087044 0)
(0.767017 -0.0887298 0)
(0.767886 -0.0902474 0)
(0.768077 -0.0915709 0)
(0.767573 -0.0926743 0)
(0.766363 -0.093533 0)
(0.770416 -0.0332435 0)
(0.771889 -0.0380304 0)
(0.773457 -0.0409756 0)
(0.776093 -0.043186 0)
(0.779522 -0.0451639 0)
(0.783286 -0.046964 0)
(0.787236 -0.0486354 0)
(0.791324 -0.0502524 0)
(0.79546 -0.0518523 0)
(0.79955 -0.0534452 0)
(0.803524 -0.0550375 0)
(0.807337 -0.0566369 0)
(0.810951 -0.0582499 0)
(0.814329 -0.0598807 0)
(0.817442 -0.0615322 0)
(0.82026 -0.0632064 0)
(0.822759 -0.0649037 0)
(0.824912 -0.0666226 0)
(0.826697 -0.0683598 0)
(0.828088 -0.0701103 0)
(0.829061 -0.071867 0)
(0.82959 -0.073621 0)
(0.829652 -0.0753613 0)
(0.829219 -0.077075 0)
(0.828269 -0.0787472 0)
(0.826775 -0.0803613 0)
(0.824715 -0.0818989 0)
(0.822067 -0.0833403 0)
(0.818811 -0.0846643 0)
(0.814929 -0.0858493 0)
(0.810409 -0.086873 0)
(0.805242 -0.0877132 0)
(0.799422 -0.0883485 0)
(0.792951 -0.0887585 0)
(0.785836 -0.0889243 0)
(0.91325 -0.0336279 0)
(0.912481 -0.0379627 0)
(0.911334 -0.0412615 0)
(0.910399 -0.0438947 0)
(0.90974 -0.0461782 0)
(0.909168 -0.0482 0)
(0.908573 -0.0500041 0)
(0.907921 -0.0516562 0)
(0.907167 -0.0532102 0)
(0.906255 -0.0546961 0)
(0.905137 -0.0561324 0)
(0.903779 -0.057534 0)
(0.902152 -0.0589132 0)
(0.900229 -0.0602787 0)
(0.897985 -0.0616363 0)
(0.895395 -0.0629896 0)
(0.892438 -0.0643398 0)
(0.889092 -0.0656862 0)
(0.885334 -0.0670257 0)
(0.881143 -0.0683534 0)
(0.876498 -0.0696625 0)
(0.871379 -0.0709441 0)
(0.865766 -0.0721879 0)
(0.859639 -0.0733815 0)
(0.852983 -0.0745113 0)
(0.845781 -0.0755622 0)
(0.83802 -0.0765178 0)
(0.829693 -0.0773612 0)
(0.820791 -0.0780747 0)
(0.811314 -0.0786406 0)
(0.801264 -0.0790415 0)
(0.790651 -0.0792605 0)
(0.779489 -0.0792821 0)
(0.767798 -0.0790925 0)
(0.755607 -0.0786797 0)
(0.97877 -0.0319292 0)
(0.975681 -0.0357978 0)
(0.972046 -0.0389973 0)
(0.968193 -0.0416041 0)
(0.964235 -0.0438072 0)
(0.960115 -0.0457118 0)
(0.955771 -0.047371 0)
(0.951185 -0.0488402 0)
(0.946341 -0.0501718 0)
(0.94121 -0.0514024 0)
(0.935764 -0.0525556 0)
(0.929983 -0.0536494 0)
(0.923849 -0.054698 0)
(0.917345 -0.0557119 0)
(0.910454 -0.0566983 0)
(0.903163 -0.0576611 0)
(0.895457 -0.0586021 0)
(0.887322 -0.0595207 0)
(0.878746 -0.0604144 0)
(0.869717 -0.0612788 0)
(0.860223 -0.0621079 0)
(0.850255 -0.062894 0)
(0.839805 -0.0636281 0)
(0.828866 -0.0642997 0)
(0.817435 -0.0648975 0)
(0.805511 -0.0654091 0)
(0.793098 -0.0658218 0)
(0.780202 -0.0661225 0)
(0.766835 -0.0662981 0)
(0.753013 -0.066336 0)
(0.738757 -0.0662243 0)
(0.724095 -0.0659523 0)
(0.709059 -0.0655105 0)
(0.693688 -0.0648916 0)
(0.678027 -0.0640903 0)
(0.965979 -0.0280876 0)
(0.960757 -0.0312902 0)
(0.954858 -0.0340239 0)
(0.948464 -0.0362815 0)
(0.941683 -0.038164 0)
(0.934528 -0.0397552 0)
(0.926989 -0.0411047 0)
(0.919069 -0.0422559 0)
(0.910774 -0.0432529 0)
(0.902102 -0.0441316 0)
(0.893045 -0.044918 0)
(0.883598 -0.0456314 0)
(0.873757 -0.0462874 0)
(0.86352 -0.0468975 0)
(0.852882 -0.0474695 0)
(0.841842 -0.0480083 0)
(0.830396 -0.0485162 0)
(0.818544 -0.0489938 0)
(0.806284 -0.0494394 0)
(0.793618 -0.0498502 0)
(0.780547 -0.0502216 0)
(0.767074 -0.0505477 0)
(0.753204 -0.0508218 0)
(0.738947 -0.0510363 0)
(0.724313 -0.0511827 0)
(0.709316 -0.0512523 0)
(0.693975 -0.0512365 0)
(0.678311 -0.0511265 0)
(0.662349 -0.0509141 0)
(0.646122 -0.0505915 0)
(0.629663 -0.0501522 0)
(0.613012 -0.0495907 0)
(0.596214 -0.048903 0)
(0.579317 -0.0480866 0)
(0.562372 -0.047141 0)
(0.87514 -0.0222483 0)
(0.868153 -0.0246856 0)
(0.860388 -0.026777 0)
(0.851965 -0.0284956 0)
(0.842982 -0.0298898 0)
(0.83349 -0.0310189 0)
(0.823519 -0.031927 0)
(0.813099 -0.0326519 0)
(0.802261 -0.0332311 0)
(0.791025 -0.0336977 0)
(0.77941 -0.0340775 0)
(0.767431 -0.0343897 0)
(0.755101 -0.0346494 0)
(0.742434 -0.0348677 0)
(0.72944 -0.0350524 0)
(0.716132 -0.0352084 0)
(0.702519 -0.0353388 0)
(0.688612 -0.0354445 0)
(0.67442 -0.035525 0)
(0.659956 -0.0355785 0)
(0.645231 -0.0356021 0)
(0.630258 -0.0355918 0)
(0.615053 -0.035543 0)
(0.599633 -0.0354506 0)
(0.584019 -0.0353094 0)
(0.568232 -0.0351139 0)
(0.552299 -0.0348589 0)
(0.536247 -0.0345395 0)
(0.52011 -0.0341513 0)
(0.503923 -0.0336906 0)
(0.487723 -0.0331546 0)
(0.471552 -0.0325413 0)
(0.455455 -0.0318503 0)
(0.439476 -0.0310819 0)
(0.423663 -0.0302381 0)
(0.708705 -0.0149341 0)
(0.700785 -0.0165311 0)
(0.692045 -0.0178663 0)
(0.682585 -0.01892 0)
(0.67251 -0.0197204 0)
(0.661902 -0.0203119 0)
(0.650828 -0.0207331 0)
(0.639351 -0.0210169 0)
(0.627525 -0.0211941 0)
(0.6154 -0.021292 0)
(0.603014 -0.0213321 0)
(0.590399 -0.0213306 0)
(0.577583 -0.0212991 0)
(0.564588 -0.0212464 0)
(0.551435 -0.0211782 0)
(0.538141 -0.0210981 0)
(0.524719 -0.021008 0)
(0.511183 -0.0209085 0)
(0.497546 -0.0207988 0)
(0.48382 -0.0206774 0)
(0.47002 -0.020542 0)
(0.456158 -0.0203899 0)
(0.442251 -0.0202182 0)
(0.428315 -0.0200237 0)
(0.41437 -0.0198033 0)
(0.400438 -0.0195541 0)
(0.38654 -0.0192735 0)
(0.372703 -0.0189592 0)
(0.358955 -0.0186094 0)
(0.345325 -0.0182227 0)
(0.331844 -0.0177986 0)
(0.318545 -0.0173369 0)
(0.30546 -0.0168384 0)
(0.292625 -0.0163046 0)
(0.280072 -0.0157374 0)
(0.474693 -0.00745143 0)
(0.46733 -0.00819932 0)
(0.459219 -0.00876039 0)
(0.450486 -0.00913976 0)
(0.441262 -0.00936674 0)
(0.43166 -0.00947839 0)
(0.421776 -0.00950598 0)
(0.411687 -0.00947352 0)
(0.40146 -0.00940072 0)
(0.391144 -0.00930355 0)
(0.380776 -0.00919344 0)
(0.370385 -0.00907768 0)
(0.35999 -0.00896073 0)
(0.349606 -0.00884516 0)
(0.339242 -0.00873217 0)
(0.328908 -0.00862193 0)
(0.318608 -0.0085139 0)
(0.308347 -0.00840707 0)
(0.298132 -0.00830011 0)
(0.287967 -0.00819148 0)
(0.277859 -0.00807957 0)
(0.267815 -0.00796278 0)
(0.257844 -0.00783956 0)
(0.247957 -0.00770848 0)
(0.238166 -0.00756825 0)
(0.228483 -0.00741779 0)
(0.218925 -0.00725621 0)
(0.209506 -0.00708286 0)
(0.200245 -0.00689734 0)
(0.191159 -0.00669954 0)
(0.182266 -0.0064896 0)
(0.173586 -0.00626799 0)
(0.165137 -0.00603538 0)
(0.156937 -0.00579274 0)
(0.149003 -0.0055412 0)
(0.18753 -0.00142363 0)
(0.183116 -0.00146762 0)
(0.178375 -0.0014677 0)
(0.17342 -0.00143467 0)
(0.168344 -0.00138324 0)
(0.163221 -0.00132545 0)
(0.158099 -0.00126768 0)
(0.153011 -0.00121276 0)
(0.147979 -0.00116242 0)
(0.143015 -0.00111768 0)
(0.138126 -0.00107845 0)
(0.133312 -0.00104396 0)
(0.128572 -0.00101326 0)
(0.123906 -0.000985571 0)
(0.119309 -0.000960255 0)
(0.114781 -0.000936757 0)
(0.110318 -0.000914557 0)
(0.10592 -0.000893187 0)
(0.101585 -0.000872195 0)
(0.0973139 -0.000851197 0)
(0.0931078 -0.000829863 0)
(0.0889684 -0.000807957 0)
(0.0848985 -0.0007853 0)
(0.0809015 -0.000761782 0)
(0.0769816 -0.000737319 0)
(0.0731435 -0.000711866 0)
(0.0693924 -0.000685396 0)
(0.0657338 -0.000657916 0)
(0.0621734 -0.000629459 0)
(0.0587173 -0.000600099 0)
(0.055371 -0.000569946 0)
(0.0521402 -0.000539145 0)
(0.0490302 -0.000507866 0)
(0.0460458 -0.000476293 0)
(0.0431912 -0.000444622 0)
(-0.0517001 7.10813e-05 0)
(-0.0509278 4.583e-07 0)
(-0.0498698 -7.58591e-05 0)
(-0.0485156 -0.000157143 0)
(-0.0468583 -0.000242269 0)
(-0.0448954 -0.000330035 0)
(-0.0426289 -0.000418981 0)
(-0.0400658 -0.000507531 0)
(-0.037218 -0.000593914 0)
(-0.0341023 -0.000676373 0)
(-0.0899562 -0.00141091 0)
(-0.0868424 -0.00192567 0)
(-0.0831864 -0.00245924 0)
(-0.0789852 -0.00300531 0)
(-0.0742428 -0.00355638 0)
(-0.0689708 -0.00410439 0)
(-0.0631879 -0.00464102 0)
(-0.0569199 -0.00515771 0)
(-0.0501998 -0.00564581 0)
(-0.0430669 -0.00609706 0)
(-0.0824645 -0.00559206 0)
(-0.0765348 -0.0067122 0)
(-0.0699975 -0.0078488 0)
(-0.0628667 -0.00898841 0)
(-0.0551636 -0.010116 0)
(-0.046917 -0.0112159 0)
(-0.0381631 -0.0122724 0)
(-0.0289442 -0.0132703 0)
(-0.0193081 -0.0141948 0)
(-0.00930834 -0.0150322 0)
(-0.0366139 -0.0127002 0)
(-0.0278637 -0.014429 0)
(-0.0185671 -0.0161539 0)
(-0.00875479 -0.0178548 0)
(0.00153285 -0.0195098 0)
(0.0122515 -0.0210968 0)
(0.0233563 -0.0225953 0)
(0.0347959 -0.023985 0)
(0.0465139 -0.0252463 0)
(0.0584506 -0.0263615 0)
(0.0389014 -0.0225243 0)
(0.0501281 -0.0247596 0)
(0.061765 -0.0269559 0)
(0.0737683 -0.0290875 0)
(0.0860903 -0.0311282 0)
(0.0986792 -0.0330522 0)
(0.111479 -0.0348342 0)
(0.12443 -0.0364498 0)
(0.137473 -0.0378765 0)
(0.150545 -0.0390948 0)
(0.13626 -0.0346516 0)
(0.149368 -0.0372415 0)
(0.162702 -0.0397457 0)
(0.176209 -0.0421346 0)
(0.189835 -0.0443782 0)
(0.203522 -0.0464472 0)
(0.21721 -0.048314 0)
(0.230839 -0.0499527 0)
(0.244348 -0.0513406 0)
(0.257679 -0.0524587 0)
(0.249174 -0.0484174 0)
(0.263265 -0.0511589 0)
(0.277359 -0.0537601 0)
(0.291401 -0.0561888 0)
(0.305331 -0.0584134 0)
(0.319092 -0.0604039 0)
(0.332627 -0.0621321 0)
(0.345879 -0.0635732 0)
(0.358796 -0.0647061 0)
(0.371328 -0.0655142 0)
(0.371703 -0.062761 0)
(0.385512 -0.065414 0)
(0.399079 -0.06787 0)
(0.412348 -0.0700964 0)
(0.425267 -0.0720621 0)
(0.437786 -0.0737382 0)
(0.449856 -0.0750989 0)
(0.461433 -0.0761224 0)
(0.472479 -0.0767916 0)
(0.482958 -0.0770946 0)
(0.496228 -0.0762163 0)
(0.50814 -0.0785271 0)
(0.519575 -0.0805896 0)
(0.530489 -0.0823732 0)
(0.540843 -0.0838493 0)
(0.550599 -0.0849928 0)
(0.559727 -0.0857822 0)
(0.568203 -0.0862011 0)
(0.576006 -0.086238 0)
(0.583124 -0.0858873 0)
(0.612027 -0.0870047 0)
(0.620308 -0.0887515 0)
(0.627938 -0.090212 0)
(0.634889 -0.0913592 0)
(0.641141 -0.0921696 0)
(0.646677 -0.0926235 0)
(0.651489 -0.0927056 0)
(0.655573 -0.0924062 0)
(0.658936 -0.0917208 0)
(0.661589 -0.0906509 0)
(0.705831 -0.0933852 0)
(0.709038 -0.0944273 0)
(0.711515 -0.0951629 0)
(0.713255 -0.0955711 0)
(0.714259 -0.0956345 0)
(0.714534 -0.0953404 0)
(0.714093 -0.0946809 0)
(0.71296 -0.0936535 0)
(0.711163 -0.092261 0)
(0.708739 -0.0905119 0)
(0.764443 -0.094124 0)
(0.761812 -0.0944266 0)
(0.758479 -0.0944232 0)
(0.754459 -0.0940998 0)
(0.749773 -0.0934465 0)
(0.744451 -0.0924581 0)
(0.738532 -0.0911343 0)
(0.732058 -0.0894797 0)
(0.725081 -0.087504 0)
(0.717656 -0.0852218 0)
(0.778093 -0.0888297 0)
(0.769742 -0.0884611 0)
(0.760812 -0.0878082 0)
(0.751339 -0.0868648 0)
(0.741367 -0.0856285 0)
(0.730945 -0.0841013 0)
(0.720129 -0.0822897 0)
(0.708982 -0.0802043 0)
(0.697569 -0.07786 0)
(0.685958 -0.0752753 0)
(0.74295 -0.0780346 0)
(0.729868 -0.077151 0)
(0.716408 -0.0760258 0)
(0.702625 -0.0746595 0)
(0.688578 -0.0730563 0)
(0.67433 -0.0712238 0)
(0.659952 -0.0691732 0)
(0.645512 -0.0669189 0)
(0.631083 -0.0644784 0)
(0.616738 -0.0618713 0)
(0.662125 -0.0631037 0)
(0.646037 -0.0619315 0)
(0.629824 -0.0605764 0)
(0.613548 -0.0590436 0)
(0.597275 -0.0573411 0)
(0.581075 -0.0554797 0)
(0.565015 -0.0534723 0)
(0.549165 -0.0513341 0)
(0.533592 -0.0490816 0)
(0.51836 -0.0467328 0)
(0.545435 -0.0460677 0)
(0.528564 -0.04487 0)
(0.511819 -0.0435533 0)
(0.49526 -0.0421249 0)
(0.478949 -0.0405938 0)
(0.462945 -0.0389703 0)
(0.447306 -0.0372664 0)
(0.432088 -0.0354946 0)
(0.417342 -0.0336682 0)
(0.403115 -0.031801 0)
(0.408065 -0.0293219 0)
(0.39273 -0.0283377 0)
(0.377708 -0.0272908 0)
(0.363044 -0.0261879 0)
(0.348783 -0.025036 0)
(0.334968 -0.0238432 0)
(0.321638 -0.0226177 0)
(0.308827 -0.0213681 0)
(0.296566 -0.020103 0)
(0.284881 -0.0188306 0)
(0.267834 -0.0151395 0)
(0.255944 -0.0145143 0)
(0.244432 -0.0138653 0)
(0.233324 -0.0131966 0)
(0.222647 -0.0125125 0)
(0.212422 -0.0118175 0)
(0.202669 -0.0111158 0)
(0.193403 -0.0104119 0)
(0.184635 -0.00970985 0)
(0.176373 -0.00901351 0)
(0.141351 -0.00528212 0)
(0.133997 -0.00501693 0)
(0.126953 -0.00474721 0)
(0.12023 -0.00447456 0)
(0.113837 -0.00420058 0)
(0.107782 -0.00392686 0)
(0.10207 -0.00365488 0)
(0.0967013 -0.00338604 0)
(0.0916783 -0.00312159 0)
(0.086999 -0.00286265 0)
(0.0404702 -0.00041304 0)
(0.0378856 -0.000381737 0)
(0.0354397 -0.000350881 0)
(0.0331336 -0.000320638 0)
(0.0309681 -0.000291149 0)
(0.028943 -0.000262548 0)
(0.0270573 -0.000234936 0)
(0.0253094 -0.000208406 0)
(0.023697 -0.000183011 0)
(0.0222173 -0.000158797 0)
(-0.0307405 -0.000753098 0)
(-0.0271585 -0.000822386 0)
(-0.0233864 -0.000882687 0)
(-0.0194573 -0.000932924 0)
(-0.0154068 -0.000972498 0)
(-0.011271 -0.00100127 0)
(-0.00708718 -0.00101874 0)
(-0.00289347 -0.0010244 0)
(0.00127432 -0.00101743 0)
(0.00538448 -0.00099845 0)
(0.0094059 -0.000969907 0)
(0.0133091 -0.00093339 0)
(0.0170688 -0.000890116 0)
(0.0206636 -0.00084137 0)
(0.0240762 -0.00078847 0)
(0.0272929 -0.000732688 0)
(0.0303039 -0.000675232 0)
(0.033103 -0.000617204 0)
(0.0356875 -0.000559594 0)
(0.0380575 -0.000503253 0)
(0.0402162 -0.000448899 0)
(0.0421689 -0.000397108 0)
(0.0439231 -0.000348324 0)
(0.0454878 -0.000302863 0)
(0.0468734 -0.000260931 0)
(0.048091 -0.00022263 0)
(0.0491525 -0.000187979 0)
(0.0500701 -0.000156923 0)
(0.0508561 -0.000129352 0)
(0.0515227 -0.000105108 0)
(0.0520819 -8.40047e-05 0)
(0.0525451 -6.58326e-05 0)
(0.0529233 -5.03702e-05 0)
(0.053227 -3.73923e-05 0)
(0.0534658 -2.6674e-05 0)
(-0.0355667 -0.00650412 0)
(-0.0277494 -0.00686036 0)
(-0.0196706 -0.00715952 0)
(-0.0113888 -0.00739747 0)
(-0.00296546 -0.00757173 0)
(0.00553963 -0.00768015 0)
(0.0140706 -0.0077229 0)
(0.0225691 -0.00770221 0)
(0.0309768 -0.00761972 0)
(0.0392406 -0.00747853 0)
(0.047311 -0.00728436 0)
(0.0551433 -0.00704347 0)
(0.0626977 -0.00676201 0)
(0.0699399 -0.00644647 0)
(0.0768413 -0.00610347 0)
(0.0833789 -0.00573965 0)
(0.0895355 -0.00536142 0)
(0.0952992 -0.00497487 0)
(0.100663 -0.00458566 0)
(0.105626 -0.00419891 0)
(0.110191 -0.00381915 0)
(0.114363 -0.0034503 0)
(0.118154 -0.00309564 0)
(0.121576 -0.00275782 0)
(0.124645 -0.00243891 0)
(0.127379 -0.00214038 0)
(0.129796 -0.00186322 0)
(0.131918 -0.00160795 0)
(0.133764 -0.00137467 0)
(0.135357 -0.00116314 0)
(0.136718 -0.000972865 0)
(0.137867 -0.000803081 0)
(0.138826 -0.000652867 0)
(0.139614 -0.000521174 0)
(0.140251 -0.000406862 0)
(0.000994883 -0.0157692 0)
(0.0115418 -0.0163946 0)
(0.0222736 -0.0169011 0)
(0.0331261 -0.0172836 0)
(0.0440335 -0.0175389 0)
(0.054932 -0.0176652 0)
(0.0657599 -0.0176638 0)
(0.0764572 -0.0175395 0)
(0.0869668 -0.0172979 0)
(0.0972363 -0.0169464 0)
(0.107218 -0.0164942 0)
(0.116869 -0.0159519 0)
(0.126153 -0.0153309 0)
(0.135037 -0.0146433 0)
(0.143497 -0.0139016 0)
(0.15151 -0.013118 0)
(0.159063 -0.0123046 0)
(0.166146 -0.0114728 0)
(0.172753 -0.0106335 0)
(0.178885 -0.00979643 0)
(0.184547 -0.00897061 0)
(0.189745 -0.00816384 0)
(0.194491 -0.00738287 0)
(0.198799 -0.00663333 0)
(0.202686 -0.0059198 0)
(0.20617 -0.00524581 0)
(0.209273 -0.00461395 0)
(0.212015 -0.00402591 0)
(0.21442 -0.00348257 0)
(0.21651 -0.00298414 0)
(0.218309 -0.00253018 0)
(0.21984 -0.00211977 0)
(0.221126 -0.00175156 0)
(0.22219 -0.00142384 0)
(0.223054 -0.00113468 0)
(0.0705445 -0.027315 0)
(0.0827331 -0.0280942 0)
(0.0949529 -0.0286905 0)
(0.10714 -0.0290982 0)
(0.119233 -0.0293146 0)
(0.131173 -0.0293402 0)
(0.142903 -0.0291791 0)
(0.154371 -0.0288388 0)
(0.16553 -0.0283293 0)
(0.176337 -0.0276631 0)
(0.186754 -0.0268545 0)
(0.196749 -0.0259195 0)
(0.206297 -0.024875 0)
(0.215374 -0.0237389 0)
(0.223966 -0.0225288 0)
(0.232061 -0.0212625 0)
(0.239654 -0.0199571 0)
(0.246743 -0.0186288 0)
(0.253331 -0.0172928 0)
(0.259423 -0.015963 0)
(0.265029 -0.0146521 0)
(0.270162 -0.013371 0)
(0.274837 -0.0121294 0)
(0.279069 -0.0109353 0)
(0.282879 -0.00979533 0)
(0.286286 -0.00871472 0)
(0.28931 -0.00769736 0)
(0.291975 -0.00674593 0)
(0.294302 -0.00586201 0)
(0.296313 -0.00504618 0)
(0.298032 -0.00429817 0)
(0.29948 -0.00361696 0)
(0.300681 -0.0030009 0)
(0.301655 -0.00244785 0)
(0.302423 -0.00195523 0)
(0.163584 -0.0400884 0)
(0.176529 -0.0408448 0)
(0.189321 -0.0413558 0)
(0.201903 -0.0416173 0)
(0.214219 -0.0416299 0)
(0.226221 -0.0413977 0)
(0.237863 -0.0409293 0)
(0.249103 -0.0402367 0)
(0.259908 -0.0393351 0)
(0.270247 -0.0382424 0)
(0.280096 -0.0369785 0)
(0.289436 -0.0355649 0)
(0.298255 -0.0340242 0)
(0.306544 -0.0323793 0)
(0.314301 -0.0306529 0)
(0.321525 -0.0288676 0)
(0.328223 -0.0270445 0)
(0.334404 -0.0252038 0)
(0.34008 -0.0233642 0)
(0.345264 -0.0215426 0)
(0.349975 -0.019754 0)
(0.35423 -0.0180117 0)
(0.358051 -0.016327 0)
(0.361457 -0.0147094 0)
(0.364472 -0.0131666 0)
(0.367118 -0.0117046 0)
(0.369417 -0.0103278 0)
(0.371392 -0.00903907 0)
(0.373066 -0.00784013 0)
(0.37446 -0.00673143 0)
(0.375597 -0.00571244 0)
(0.376497 -0.00478174 0)
(0.377181 -0.00393717 0)
(0.377668 -0.00317599 0)
(0.377978 -0.00249495 0)
(0.270775 -0.0532918 0)
(0.28358 -0.0538298 0)
(0.296045 -0.0540674 0)
(0.308122 -0.0540042 0)