/*--------------------------------*- C++ -*----------------------------------*\
| =========                 |                                                 |
| \\      /  F ield         | OpenFOAM: The Open Source CFD Toolbox           |
|  \\    /   O peration     | Version:  2406                                  |
|   \\  /    A nd           | Website:  www.openfoam.com                      |
|    \\/     M anipulation  |                                                 |
\*---------------------------------------------------------------------------*/
FoamFile
{
    version     2.0;
    format      ascii;
    arch        "LSB;label=32;scalar=64";
    class       volScalarField;
    location    "50";
    object      p;
}
// * * * * * * * * * * * * * * * * * * * * * * * * * * * * * * * * * * * * * //

dimensions      [0 2 -2 0 0 0 0];

internalField   nonuniform List<scalar> 
1900
(
0.00814749
0.00298347
-0.00383745
-0.0113669
-0.0197148
-0.0290065
-0.0392983
-0.0507703
-0.0636408
-0.0788799
0.0121031
0.00453004
-0.00358449
-0.0112903
-0.0195593
-0.0287597
-0.0388203
-0.0497352
-0.0615074
-0.0736374
0.0156085
0.0063742
-0.00271377
-0.0103372
-0.0182068
-0.026952
-0.0362938
-0.0458867
-0.0552852
-0.0634744
0.019285
0.00941026
-0.000229221
-0.00777893
-0.0151869
-0.0232789
-0.0316706
-0.0398507
-0.0473748
-0.0535941
0.0231391
0.0130516
0.0032117
-0.00419072
-0.0111333
-0.0185517
-0.02605
-0.0330972
-0.039369
-0.0445267
0.0266022
0.0165158
0.00680852
-0.000316143
-0.00684307
-0.0137004
-0.0204985
-0.0267546
-0.0322569
-0.0368578
0.0290309
0.0191636
0.00988654
0.00310653
-0.00312597
-0.00960016
-0.0159299
-0.0217134
-0.0268201
-0.0311925
0.0299024
0.0206807
0.0120873
0.00555586
-0.000580119
-0.00685921
-0.0129333
-0.0185026
-0.0234776
-0.0278213
0.0287129
0.0210891
0.0134329
0.00689416
0.000596404
-0.00568374
-0.0117002
-0.0172555
-0.0222695
-0.026693
0.0253637
0.0200514
0.0135734
0.00713044
0.000728773
-0.00558898
-0.0116417
-0.0172724
-0.0223841
-0.0269117
-0.0600656
-0.0603783
-0.060557
-0.0604434
-0.060044
-0.0593777
-0.0584508
-0.0572621
-0.0558061
-0.0540764
-0.0520678
-0.0497772
-0.0472046
-0.0443536
-0.0412313
-0.0378493
-0.0342236
-0.030375
-0.0263288
-0.022115
-0.017768
-0.0133263
-0.00883132
-0.00432687
0.000142038
0.00453038
0.00879425
0.0128922
0.0167862
0.0204427
0.0238335
0.0269364
0.029735
0.0322198
0.0343872
-0.0597195
-0.0600393
-0.0601822
-0.0600338
-0.0596301
-0.0589849
-0.0580936
-0.0569476
-0.0555378
-0.0538558
-0.0518957
-0.0496545
-0.047132
-0.0443316
-0.0412604
-0.0379296
-0.0343548
-0.030556
-0.0265578
-0.0223901
-0.0180866
-0.0136853
-0.0092272
-0.00475563
-0.00031524
0.00404909
0.00829352
0.0123764
0.0162596
0.0199095
0.023298
0.0264024
0.0292057
0.0316972
0.0338735
-0.0595794
-0.0599423
-0.0600792
-0.0599085
-0.059506
-0.0588844
-0.0580301
-0.0569275
-0.0555634
-0.0539277
-0.0520137
-0.0498179
-0.04734
-0.0445831
-0.041554
-0.0382633
-0.0347258
-0.030961
-0.0269936
-0.0228528
-0.0185724
-0.0141901
-0.0097472
-0.00528699
-0.000854605
0.00350493
0.00774772
0.0118319
0.0157186
0.0193727
0.0227652
0.0258744
0.0286838
0.0311831
0.0333684
-0.0599848
-0.0603722
-0.0605005
-0.0603086
-0.0599008
-0.0592885
-0.0584513
-0.0573693
-0.056027
-0.0544133
-0.0525208
-0.0503457
-0.0478872
-0.045148
-0.0421341
-0.0388556
-0.035327
-0.031568
-0.027603
-0.0234613
-0.0191765
-0.0147867
-0.0103333
-0.00586005
-0.00141334
0.00295979
0.00721455
0.011309
0.0152044
0.0188663
0.0222656
0.0253797
0.0281922
0.0306932
0.0328794
-0.0611389
-0.0614582
-0.0614969
-0.0612276
-0.0607665
-0.0601175
-0.0592533
-0.0581503
-0.0567916
-0.0551648
-0.0532619
-0.0510782
-0.0486121
-0.0458654
-0.042843
-0.0395549
-0.0360154
-0.0322434
-0.0282634
-0.0241062
-0.0198062
-0.0154013
-0.0109338
-0.00644875
-0.00199232
0.00238863
0.0066485
0.0107443
0.0146367
0.0182914
0.0216801
0.0247807
0.0275778
0.0300627
0.0322329
-0.0632049
-0.0632689
-0.0630353
-0.0625539
-0.061938
-0.0611727
-0.0602178
-0.0590425
-0.0576253
-0.0559505
-0.0540072
-0.0517889
-0.0492939
-0.0465227
-0.0434787
-0.0401705
-0.0366124
-0.0328236
-0.0288285
-0.0246574
-0.0203453
-0.015932
-0.0114612
-0.00697865
-0.00253167
0.00183269
0.00606895
0.0101345
0.013991
0.0176052
0.0209501
0.0240052
0.026757
0.0291981
0.0313281
-0.066361
-0.0658077
-0.0649554
-0.0640322
-0.0631162
-0.0621415
-0.0610373
-0.0597541
-0.0582569
-0.0565214
-0.0545322
-0.0522775
-0.0497504
-0.0469491
-0.0438773
-0.0405447
-0.0369657
-0.0331604
-0.0291547
-0.0249802
-0.0206734
-0.0162753
-0.0118302
-0.00738459
-0.00298575
0.00131974
0.00548741
0.00947624
0.0132498
0.0167771
0.0200338
0.0230021
0.0256707
0.028035
0.0300965
-0.0713021
-0.0691096
-0.0669244
-0.0652691
-0.0639364
-0.0627025
-0.0614363
-0.0600496
-0.058483
-0.0566977
-0.0546682
-0.0523775
-0.0498174
-0.0469866
-0.0438903
-0.040539
-0.036949
-0.0331419
-0.0291455
-0.024993
-0.0207228
-0.016377
-0.0120007
-0.00764023
-0.00334197
0.000849209
0.00489125
0.00874612
0.0123808
0.0157682
0.0188875
0.0217244
0.0242713
0.0265265
0.0284937
-0.0811605
-0.0735631
-0.0684591
-0.065876
-0.0641422
-0.0626524
-0.0612553
-0.0598099
-0.0582012
-0.0563742
-0.0543067
-0.0519839
-0.0493961
-0.0465421
-0.0434292
-0.0400714
-0.0364878
-0.0327029
-0.0287465
-0.0246539
-0.0204645
-0.0162214
-0.0119694
-0.00775353
-0.00361798
0.000395708
0.00424958
0.00791024
0.0113496
0.0145455
0.0174819
0.0201488
0.0225424
0.0246639
0.0265196
-0.0970727
-0.0787043
-0.0692508
-0.0659374
-0.0639517
-0.062164
-0.0605812
-0.0590552
-0.0573929
-0.0555126
-0.053398
-0.0510386
-0.048424
-0.0455532
-0.0424363
-0.0390916
-0.0355422
-0.0318154
-0.0279428
-0.0239606
-0.0199087
-0.0158291
-0.0117652
-0.00775896
-0.00385062
-7.67044e-05
0.00353046
0.00694351
0.0101404
0.0131047
0.0158255
0.0182975
0.0205201
0.0224975
0.0242375
-0.0888545
-0.0769679
-0.0680285
-0.0649226
-0.0631001
-0.0611865
-0.0594145
-0.0577633
-0.0560175
-0.0540655
-0.0518896
-0.0494865
-0.0468486
-0.0439759
-0.0408807
-0.0375846
-0.0341134
-0.0304962
-0.0267651
-0.0229555
-0.0191055
-0.0152549
-0.0114431
-0.00770769
-0.00408306
-0.000599517
0.00271732
0.00584678
0.00877319
0.0114858
0.0139787
0.0162502
0.0183027
0.020142
0.0217766
-0.079148
-0.0729516
-0.0662606
-0.0631518
-0.0613162
-0.0594156
-0.0575368
-0.0557566
-0.0539235
-0.0519163
-0.0497034
-0.0472835
-0.0446554
-0.0418229
-0.0388005
-0.0356107
-0.03228
-0.0288373
-0.0253131
-0.0217407
-0.0181548
-0.0145907
-0.0110826
-0.00766212
-0.00435711
-0.00119102
0.0018173
0.00465356
0.00730778
0.00977405
0.0120501
0.014137
0.0160387
0.0177612
0.0193127
-0.0676076
-0.0659247
-0.0622703
-0.059765
-0.0580859
-0.0563986
-0.0546216
-0.0528507
-0.051027
-0.0490524
-0.0468854
-0.0445244
-0.0419773
-0.0392555
-0.0363761
-0.0333617
-0.0302378
-0.0270312
-0.0237703
-0.0204847
-0.0172046
-0.01396
-0.0107793
-0.00768756
-0.00470613
-0.00185218
0.000861317
0.00342514
0.00583357
0.00808385
0.0101759
0.0121119
0.0138958
0.0155331
0.0170302
-0.0573524
-0.0578318
-0.0563671
-0.0548239
-0.0535843
-0.0522932
-0.0508341
-0.0492713
-0.0476038
-0.0457751
-0.0437523
-0.0415386
-0.0391515
-0.0366104
-0.0339362
-0.0311511
-0.028279
-0.0253445
-0.0223729
-0.01939
-0.0164215
-0.0134921
-0.0106243
-0.00783759
-0.00514768
-0.00256687
-0.000103971
0.00223506
0.00444685
0.00653006
0.00848517
0.010314
0.0120197
0.013606
0.0150775
-0.0480609
-0.0496143
-0.0496861
-0.0492134
-0.0486166
-0.0478385
-0.0468204
-0.0455996
-0.0441973
-0.0425975
-0.0407894
-0.0387861
-0.0366125
-0.0342944
-0.0318553
-0.0293177
-0.0267041
-0.0240372
-0.0213398
-0.0186342
-0.0159425
-0.0132847
-0.0106787
-0.00813947
-0.00567925
-0.00330702
-0.0010296
0.00114866
0.00322482
0.00519773
0.00706698
0.00883357
0.0104988
0.012065
0.0135344
-0.0403381
-0.0425418
-0.0436487
-0.0440856
-0.0441469
-0.0438956
-0.0433321
-0.0424851
-0.0413841
-0.040042
-0.0384713
-0.0366958
-0.0347453
-0.0326487
-0.0304314
-0.0281167
-0.0257266
-0.0232827
-0.0208062
-0.0183174
-0.0158351
-0.0133765
-0.0109565
-0.00858752
-0.00627972
-0.00404103
-0.00187749
0.000206357
0.00220729
0.00412312
0.00595257
0.00769504
0.00935058
0.0109196
0.012403
-0.0347335
-0.037365
-0.0391458
-0.0402609
-0.0408827
-0.0410912
-0.0409191
-0.0403994
-0.0395689
-0.0384586
-0.0370981
-0.0355194
-0.0337553
-0.0318362
-0.029789
-0.027638
-0.0254057
-0.0231138
-0.0207826
-0.0184313
-0.0160771
-0.0137359
-0.0114208
-0.00914357
-0.00691362
-0.00473915
-0.00262624
-0.000580429
0.00139455
0.00329516
0.00511941
0.00686523
0.00853192
0.0101184
0.0116249
-0.0314757
-0.0343957
-0.0365973
-0.03816
-0.0391763
-0.0397128
-0.0398145
-0.0395239
-0.0388841
-0.0379368
-0.0367208
-0.0352729
-0.0336278
-0.0318167
-0.0298678
-0.0278066
-0.0256567
-0.02344
-0.0211773
-0.0188869
-0.016586
-0.0142894
-0.0120107
-0.00976098
-0.00755051
-0.00538733
-0.00327887
-0.00123068
0.000752033
0.00266572
0.0045069
0.0062736
0.00796363
0.00957611
0.0111098
-0.0304768
-0.0335882
-0.0360297
-0.0378387
-0.0390706
-0.0397815
-0.0400227
-0.0398438
-0.0392936
-0.0384187
-0.0372621
-0.035863
-0.0342572
-0.0324768
-0.0305512
-0.028507
-0.0263689
-0.0241592
-0.0218987
-0.0196063
-0.0172988
-0.0149914
-0.0126976
-0.0104292
-0.00819661
-0.0060086
-0.0038728
-0.00179561
0.000217682
0.00216271
0.00403601
0.00583483
0.00755709
0.00920119
0.010766
-0.0308066
-0.0340385
-0.0366022
-0.0385204
-0.0398373
-0.0406079
-0.0408886
-0.0407348
-0.0401987
-0.0393294
-0.0381714
-0.0367651
-0.0351469
-0.0333501
-0.0314048
-0.0293384
-0.0271757
-0.0249397
-0.0226511
-0.0203288
-0.0179898
-0.0156495
-0.0133216
-0.0110183
-0.00875008
-0.00652627
-0.0043547
-0.00224202
-0.000193749
0.00178556
0.00369227
0.00552347
0.00727695
0.00895101
0.0105445
0.0362389
0.0377819
0.0390278
0.039992
0.0406929
0.0411508
0.0413874
0.0414249
0.0412859
0.0409919
0.0357365
0.0372934
0.0385556
0.0395381
0.0402592
0.0407388
0.0409985
0.0410601
0.0409457
0.0406767
0.0352417
0.0368099
0.0380846
0.0390811
0.0398175
0.0403138
0.0405914
0.0406723
0.0405782
0.0403305
0.0347533
0.0363224
0.0375989
0.0385984
0.0393395
0.0398427
0.0401294
0.0402216
0.0401413
0.0399095
0.034092
0.0356485
0.0369154
0.0379091
0.0386485
0.0391546
0.0394488
0.0395532
0.0394895
0.0392784
0.0331517
0.0346788
0.0359235
0.0369027
0.0376359
0.0381439
0.0384483
0.0385706
0.0385318
0.038352
0.0318619
0.0333425
0.0345531
0.0355113
0.0362367
0.0367496
0.037071
0.0372213
0.0372206
0.0370874
0.0301816
0.0316027
0.0327725
0.0337086
0.0344299
0.034956
0.0353062
0.0354997
0.0355543
0.0354871
0.0281195
0.0294769
0.0306072
0.0315273
0.032255
0.0328078
0.0332034
0.0334582
0.0335879
0.033607
0.0257509
0.0270509
0.028152
0.0290695
0.029819
0.0304158
0.0308746
0.0312092
0.0314323
0.0315556
0.0232171
0.0244754
0.0255643
0.0264967
0.0272855
0.027943
0.0284807
0.0289094
0.0292387
0.0294773
0.0207024
0.0219402
0.0230364
0.024001
0.0248439
0.025574
0.0261999
0.0267292
0.0271687
0.0275246
0.0183944
0.019633
0.0207535
0.021763
0.0226682
0.0234752
0.0241897
0.0248167
0.0253605
0.0258253
0.016439
0.0176952
0.018851
0.0199108
0.0208786
0.0217584
0.0225534
0.0232667
0.0239008
0.0244583
0.0149097
0.0161935
0.0173885
0.018497
0.0195213
0.0204634
0.0213251
0.0221081
0.0228138
0.0234436
0.0138017
0.0151168
0.0163494
0.0175006
0.0185715
0.0195629
0.0204757
0.0213109
0.0220692
0.0227514
0.0130509
0.0143969
0.0156628
0.0168494
0.0179566
0.0189852
0.0199352
0.0208076
0.0216024
0.0223205
0.0125644
0.0139393
0.0152348
0.0164503
0.0175865
0.0186431
0.0196208
0.0205194
0.0213399
0.0220821
0.0122508
0.013655
0.0149784
0.0162209
0.0173824
0.0184632
0.0194635
0.0203836
0.0212239
0.021985
0.0120564
0.0134864
0.0148341
0.0160994
0.0172823
0.018383
0.0194018
0.020339
0.0211952
0.0219708
0.0405638
0.0400212
0.0393821
0.0386629
0.0378783
0.0370414
0.0361633
0.0352538
0.0343211
0.0333722
0.0324126
0.0314468
0.0304785
0.0295103
0.0285443
0.0275819
0.0266241
0.0256713
0.0247237
0.0237812
0.0228436
0.0219104
0.0209811
0.020055
0.0191315
0.01821
0.0172897
0.01637
0.0154503
0.0145299
0.0136084
0.0126853
0.0117601
0.0108326
0.00990244
0.0402737
0.039756
0.0391412
0.0384456
0.0376836
0.0368681
0.0360103
0.0351198
0.0342047
0.0332718
0.0323269
0.0313744
0.030418
0.0294604
0.0285038
0.0275496
0.0265989
0.0256522
0.0247099
0.0237719
0.022838
0.0219079
0.0209812
0.0200572
0.0191353
0.0182151
0.0172958
0.0163768
0.0154576
0.0145377
0.0136165
0.0126935
0.0117685
0.0108411
0.00991099
0.0399495
0.0394541
0.038862
0.038189
0.0374494
0.0366559
0.0358193
0.0349491
0.0340534
0.0331388
0.032211
0.0312743
0.0303325
0.0293883
0.0284437
0.0275004
0.0265594
0.0256214
0.0246866
0.0237552
0.0228271
0.0219019
0.0209793
0.0200588
0.0191399
0.0182221
0.0173048
0.0163874
0.0154695
0.0145505
0.0136299
0.0127075
0.0117829
0.0108556
0.00992565
0.0395464
0.0390708
0.0384999
0.0378493
0.0371328
0.0363629
0.03555
0.0347034
0.0338308
0.0329386
0.0320323
0.0311162
0.0301937
0.0292675
0.0283398
0.0274119
0.026485
0.0255597
0.0246364
0.0237153
0.0227962
0.021879
0.0209634
0.020049
0.0191352
0.0182218
0.0173081
0.0163938
0.0154783
0.0145612
0.0136422
0.0127209
0.011797
0.0108703
0.0099405
0.0389397
0.0384915
0.0379507
0.0373322
0.0366493
0.0359138
0.0351358
0.0343239
0.0334856
0.0326268
0.0317527
0.0308673
0.0299739
0.0290751
0.0281728
0.0272684
0.0263631
0.0254575
0.024552
0.0236468
0.0227419
0.0218373
0.0209327
0.0200278
0.0191223
0.0182158
0.017308
0.0163985
0.015487
0.0145731
0.0136564
0.0127369
0.0118142
0.0108881
0.00995858
0.03805
0.0376433
0.0371475
0.0365768
0.0359437
0.035259
0.034532
0.0337709
0.0329824
0.032172
0.0313444
0.0305033
0.0296519
0.0287924
0.0279266
0.0270561
0.0261818
0.0253045
0.0244245
0.0235423
0.022658
0.0217716
0.0208829
0.0199919
0.0190984
0.0182022
0.017303
0.0164006
0.0154948
0.0145855
0.0136724
0.0127554
0.0118345
0.0109094
0.00998019
0.0368395
0.0364925
0.0360611
0.0355579
0.0349943
0.0343799
0.0337233
0.0330314
0.0323105
0.0315654
0.0308003
0.0300186
0.029223
0.0284158
0.0275986
0.0267728
0.0259396
0.0250995
0.0242534
0.0234015
0.0225443
0.0216818
0.0208142
0.0199415
0.0190638
0.018181
0.0172932
0.0164002
0.0155021
0.0145988
0.0136904
0.0127769
0.0118582
0.0109344
0.0100057
0.0353135
0.0350475
0.0347019
0.0342876
0.0338145
0.033291
0.0327243
0.0321205
0.0314848
0.0308216
0.0301345
0.0294266
0.0287002
0.0279573
0.0271998
0.0264289
0.0256457
0.0248513
0.0240464
0.0232315
0.022407
0.0215736
0.0207314
0.0198808
0.0190222
0.0181556
0.0172814
0.0163998
0.0155109
0.014615
0.0137121
0.0128027
0.0118867
0.0109645
0.0100361
0.0335285
0.0333643
0.0331248
0.0328192
0.0324556
0.0320409
0.031581
0.0310812
0.0305456
0.0299779
0.0293814
0.0287586
0.0281118
0.0274428
0.0267535
0.0260452
0.0253192
0.0245765
0.023818
0.0230447
0.0222572
0.0214563
0.0206427
0.019817
0.0189796
0.0181312
0.0172722
0.0164032
0.0155245
0.0146366
0.0137399
0.0128348
0.0119217
0.011001
0.010073
0.0315894
0.0315432
0.0314252
0.0312425
0.0310016
0.0307077
0.0303658
0.0299798
0.0295532
0.0290892
0.0285905
0.0280593
0.0274978
0.0269079
0.0262914
0.0256496
0.024984
0.0242959
0.0235865
0.0228569
0.0221083
0.0213417
0.020558
0.0197581
0.018943
0.0181135
0.0172703
0.0164142
0.015546
0.0146663
0.0137757
0.012875
0.0119646
0.0110452
0.0101172
0.0296332
0.0297133
0.0297236
0.0296694
0.0295556
0.0293861
0.0291647
0.0288944
0.0285783
0.0282188
0.0278182
0.0273789
0.0269027
0.0263915
0.0258471
0.0252712
0.0246654
0.0240312
0.0233702
0.0226839
0.0219735
0.0212405
0.0204861
0.0197116
0.0189182
0.018107
0.0172791
0.0164355
0.0155773
0.0147053
0.0138205
0.0129236
0.0120156
0.0110971
0.0101688
0.0278023
0.0280066
0.0281419
0.0282117
0.0282196
0.0281685
0.0280611
0.0279001
0.0276876
0.0274259
0.027117
0.026763
0.026366
0.0259278
0.0254504
0.0249355
0.024385
0.0238008
0.0231846
0.022538
0.0218629
0.0211608
0.0204334
0.0196821
0.0189085
0.0181139
0.0172999
0.0164676
0.0156182
0.0147531
0.0138732
0.0129795
0.0120732
0.0111551
0.0102261
0.0262146
0.0265314
0.0267786
0.0269587
0.0270742
0.0271272
0.0271198
0.0270539
0.0269314
0.0267544
0.026525
0.0262451
0.0259166
0.0255416
0.0251221
0.0246601
0.0241575
0.0236164
0.0230387
0.0224266
0.0217818
0.0211063
0.020402
0.0196707
0.018914
0.0181337
0.0173313
0.0165085
0.0156666
0.014807
0.013931
0.0130398
0.0121346
0.0112164
0.0102862
0.0249412
0.0253515
0.025691
0.0259616
0.0261648
0.0263021
0.0263752
0.0263859
0.0263361
0.0262276
0.0260622
0.025842
0.0255687
0.0252447
0.0248717
0.0244522
0.0239881
0.0234817
0.0229352
0.0223507
0.0217304
0.0210763
0.0203906
0.0196752
0.0189321
0.0181631
0.01737
0.0165546
0.0157184
0.014863
0.0139898
0.0131003
0.0121956
0.0112769
0.0103454
0.0239989
0.0244807
0.0248905
0.0252291
0.0254979
0.0256982
0.0258318
0.0259
0.0259046
0.0258472
0.0257297
0.0255539
0.0253219
0.0250357
0.0246977
0.0243098
0.0238746
0.0233942
0.0228709
0.0223071
0.0217051
0.021067
0.0203952
0.0196916
0.0189586
0.0181979
0.0174117
0.0166016
0.0157696
0.0149171
0.0140458
0.0131571
0.0122525
0.0113331
0.0104002
0.0233584
0.0238909
0.0243496
0.0247356
0.0250503
0.0252948
0.0254703
0.0255784
0.0256205
0.0255984
0.0255138
0.0253686
0.025165
0.024905
0.0245909
0.024225
0.0238096
0.0233471
0.0228399
0.0222904
0.0217009
0.0210738
0.0204114
0.019716
0.0189897
0.0182347
0.017453
0.0166464
0.0158169
0.0149662
0.014096
0.0132077
0.0123027
0.0113825
0.0104482
0.0229621
0.0235282
0.0240194
0.024437
0.0247816
0.0250548
0.0252572
0.0253909
0.0254568
0.0254572
0.0253934
0.0252677
0.025082
0.0248386
0.0245395
0.0241874
0.0237844
0.0233331
0.0228358
0.0222952
0.0217133
0.021093
0.0204363
0.0197458
0.0190235
0.0182718
0.0174925
0.0166879
0.0158596
0.0150098
0.0141397
0.0132513
0.0123458
0.0114248
0.0104892
0.0227472
0.0233355
0.0238481
0.0242855
0.0246491
0.0249397
0.0251589
0.0253077
0.0253881
0.0254015
0.0253501
0.0252355
0.0250601
0.0248259
0.0245354
0.0241907
0.0237945
0.0233491
0.0228571
0.0223207
0.0217429
0.0211256
0.0204717
0.0197832
0.0190626
0.0183119
0.0175336
0.0167293
0.0159012
0.0150511
0.0141807
0.0132915
0.0123853
0.0114631
0.0105265
0.0226675
0.0232721
0.0237995
0.0242507
0.0246268
0.0249289
0.0251583
0.0253166
0.0254054
0.0254263
0.0253815
0.0252727
0.0251023
0.0248725
0.0245855
0.0242439
0.02385
0.0234065
0.0229157
0.0223804
0.0218029
0.0211859
0.0205316
0.0198427
0.0191212
0.0183697
0.0175901
0.0167845
0.015955
0.0151033
0.0142313
0.0133406
0.0124326
0.0115088
0.0105705
0.0226666
0.0232832
0.0238214
0.0242824
0.0246671
0.0249768
0.0252129
0.025377
0.0254706
0.0254957
0.0254541
0.025348
0.0251795
0.024951
0.0246648
0.0243234
0.0239293
0.0234852
0.0229934
0.0224568
0.0218777
0.0212588
0.0206026
0.0199114
0.0191877
0.0184337
0.0176517
0.0168437
0.0160117
0.0151576
0.0142832
0.0133902
0.01248
0.0115541
0.0106137
0.00896938
0.0080333
0.00709411
0.00615182
0.0052065
0.00425834
0.00330784
0.00235512
0.00139821
0.000446369
0.00897802
0.00804205
0.00710301
0.00616091
0.00521584
0.00426789
0.00331725
0.00236403
0.00140374
0.000439398
0.0089927
0.00805668
0.00711754
0.00617526
0.0052299
0.00428143
0.00332993
0.00237532
0.0014134
0.000432585
0.00900755
0.00807132
0.00713175
0.00618882
0.00524253
0.00429276
0.00333953
0.00238217
0.00141894
0.00042187
0.00902546
0.00808869
0.00714825
0.0062041
0.00525621
0.0043044
0.0033488
0.00238818
0.00142398
0.000411305
0.00904681
0.00810926
0.00716756
0.00622169
0.00527168
0.00431732
0.00335895
0.00239488
0.00142973
0.000403484
0.00907196
0.0081334
0.00719008
0.00624208
0.00528948
0.00433216
0.00337065
0.00240307
0.00143639
0.000400695
0.00910196
0.00816212
0.00721684
0.00626628
0.00531065
0.00434993
0.00338489
0.00241364
0.00144425
0.000405142
0.00913812
0.00819669
0.00724904
0.0062955
0.00533636
0.00437182
0.00340267
0.00242761
0.00145383
0.000418413
0.00918133
0.00823792
0.0072875
0.00633052
0.00536744
0.00439859
0.00342484
0.0024456
0.00146564
0.000440971
0.00923145
0.00828568
0.0073321
0.00637129
0.00540385
0.00443031
0.00345141
0.00246775
0.00148015
0.000471662
0.00928696
0.0083385
0.00738146
0.00641656
0.00544451
0.00446598
0.00348166
0.00249328
0.00149739
0.000507573
0.00934502
0.0083937
0.00743309
0.006464
0.00548726
0.00450369
0.00351387
0.00252065
0.00151692
0.000544294
0.00940208
0.0084479
0.00748381
0.00651068
0.00552943
0.00454094
0.00354583
0.00254774
0.00153758
0.000576786
0.00945478
0.00849802
0.00753072
0.00655395
0.00556851
0.00457551
0.00357544
0.00257254
0.0015579
0.000600578
0.00950107
0.00854201
0.00757205
0.00659211
0.00560312
0.00460601
0.00360146
0.00259374
0.00157633
0.000612966
0.00954058
0.00857964
0.0076076
0.00662509
0.00563325
0.00463259
0.00362403
0.00261148
0.00159221
0.000613917
0.00957642
0.00861412
0.00764029
0.00665604
0.00566187
0.00465857
0.00364649
0.00262946
0.0016078
0.000606747
0.00961881
0.00865482
0.00767944
0.00669348
0.00569763
0.00469224
0.0036777
0.00265681
0.00163156
0.000600438
0.00966017
0.00869442
0.00771743
0.00672998
0.00573275
0.00472611
0.00370998
0.00268515
0.00165496
0.00059861
)
;

boundaryField
{
    inlet
    {
        type            zeroGradient;
    }
    outlet
    {
        type            fixedValue;
        value           uniform 0;
    }
    upperWall
    {
        type            zeroGradient;
    }
    lowerWall
    {
        type            zeroGradient;
    }
    frontAndBack
    {
        type            empty;
    }
}


// ************************************************************************* //
