/*--------------------------------*- C++ -*----------------------------------*\
| =========                 |                                                 |
| \\      /  F ield         | OpenFOAM: The Open Source CFD Toolbox           |
|  \\    /   O peration     | Version:  2406                                  |
|   \\  /    A nd           | Website:  www.openfoam.com                      |
|    \\/     M anipulation  |                                                 |
\*---------------------------------------------------------------------------*/
FoamFile
{
    version     2.0;
    format      ascii;
    arch        "LSB;label=32;scalar=64";
    class       volVectorField;
    location    "50";
    object      U;
}
// * * * * * * * * * * * * * * * * * * * * * * * * * * * * * * * * * * * * * //

dimensions      [0 1 -1 0 0 0 0];

internalField   nonuniform List<vector> 
1900
(
(0.190116 -0.00232854 0)
(0.196182 -0.00293602 0)
(0.20181 -0.00223486 0)
(0.206537 -0.00186226 0)
(0.211357 -0.00189641 0)
(0.216845 -0.00217839 0)
(0.223422 -0.00277343 0)
(0.231678 -0.00394905 0)
(0.243566 -0.00708748 0)
(0.255884 -0.0244793 0)
(0.506642 -0.00340536 0)
(0.50799 -0.00675116 0)
(0.511344 -0.00759865 0)
(0.515217 -0.0080399 0)
(0.520309 -0.00891658 0)
(0.526977 -0.0103839 0)
(0.535316 -0.012692 0)
(0.545554 -0.0164274 0)
(0.558232 -0.022545 0)
(0.570985 -0.0347406 0)
(0.74745 -0.00252583 0)
(0.748255 -0.00625039 0)
(0.749973 -0.00874091 0)
(0.751659 -0.0109449 0)
(0.754417 -0.013467 0)
(0.758699 -0.0165599 0)
(0.764358 -0.0205402 0)
(0.771163 -0.0259623 0)
(0.778779 -0.0335605 0)
(0.785869 -0.0446197 0)
(0.907843 -0.0021199 0)
(0.908515 -0.00594109 0)
(0.909551 -0.00924823 0)
(0.909902 -0.0124453 0)
(0.910662 -0.0159491 0)
(0.912333 -0.0200168 0)
(0.914704 -0.0249069 0)
(0.917412 -0.0309607 0)
(0.920031 -0.0384963 0)
(0.921805 -0.0476933 0)
(0.987961 -0.00185303 0)
(0.988365 -0.00543043 0)
(0.988762 -0.00889765 0)
(0.987982 -0.0124481 0)
(0.987029 -0.01631 0)
(0.986402 -0.0206687 0)
(0.985859 -0.025701 0)
(0.985013 -0.0315797 0)
(0.983501 -0.0383973 0)
(0.980854 -0.0460698 0)
(0.987918 -0.00146604 0)
(0.987977 -0.00443923 0)
(0.987661 -0.00762078 0)
(0.985766 -0.0110625 0)
(0.983274 -0.014794 0)
(0.980654 -0.0189092 0)
(0.977641 -0.023522 0)
(0.973859 -0.0287047 0)
(0.969013 -0.0344462 0)
(0.962802 -0.0406079 0)
(0.907715 -0.000839112 0)
(0.907373 -0.00285903 0)
(0.906321 -0.00545862 0)
(0.903403 -0.00844414 0)
(0.899643 -0.0116482 0)
(0.895453 -0.015107 0)
(0.890534 -0.0188964 0)
(0.884531 -0.0230257 0)
(0.877207 -0.0274354 0)
(0.868358 -0.0319936 0)
(0.747249 0.000246945 0)
(0.746452 -0.000502732 0)
(0.74489 -0.0024694 0)
(0.741448 -0.00486444 0)
(0.737127 -0.00731438 0)
(0.732213 -0.0098645 0)
(0.726361 -0.0125795 0)
(0.719241 -0.0154311 0)
(0.710667 -0.0183479 0)
(0.700506 -0.0212348 0)
(0.50641 0.00197916 0)
(0.505834 0.0026359 0)
(0.505232 0.000952076 0)
(0.50298 -0.00110862 0)
(0.499715 -0.00290375 0)
(0.495592 -0.00453502 0)
(0.490339 -0.0061034 0)
(0.483751 -0.00760296 0)
(0.475758 -0.00900861 0)
(0.466346 -0.0102954 0)
(0.189907 0.00181261 0)
(0.194466 0.00175813 0)
(0.197052 0.000612054 0)
(0.197264 -0.000144076 0)
(0.196157 -0.000547619 0)
(0.194145 -0.000847559 0)
(0.191251 -0.00110701 0)
(0.187501 -0.00131605 0)
(0.182971 -0.00147756 0)
(0.17774 -0.00160134 0)
(-8.58582e-05 7.20557e-05 0)
(-0.00169213 0.000501835 0)
(-0.00467208 0.000767719 0)
(-0.00834841 0.000853193 0)
(-0.0121623 0.000861315 0)
(-0.0158818 0.000842766 0)
(-0.0194282 0.000817507 0)
(-0.0227765 0.000791474 0)
(-0.0259173 0.000764692 0)
(-0.0288415 0.000735355 0)
(-0.0315361 0.000701808 0)
(-0.0339842 0.000662799 0)
(-0.0361655 0.0006174 0)
(-0.0380574 0.000564875 0)
(-0.0396354 0.000504699 0)
(-0.0408746 0.000436546 0)
(-0.0417504 0.00036026 0)
(-0.0422397 0.000275954 0)
(-0.0423221 0.000184327 0)
(-0.0419811 8.65771e-05 0)
(-0.0412066 -1.60049e-05 0)
(-0.0399939 -0.000121785 0)
(-0.0383454 -0.000228942 0)
(-0.0362709 -0.00033541 0)
(-0.0337878 -0.000438975 0)
(-0.0309214 -0.000537378 0)
(-0.0277039 -0.000628462 0)
(-0.0241743 -0.000710126 0)
(-0.0203769 -0.000780512 0)
(-0.0163601 -0.000838164 0)
(-0.0121757 -0.000882259 0)
(-0.00787608 -0.000912534 0)
(-0.00351436 -0.00092848 0)
(0.000857697 -0.000929655 0)
(0.0051922 -0.000917145 0)
(-0.000664644 0.00179133 0)
(-0.00542874 0.00482542 0)
(-0.0126942 0.00661519 0)
(-0.0211378 0.00726602 0)
(-0.0296984 0.00728242 0)
(-0.0379135 0.00701509 0)
(-0.0455949 0.00663871 0)
(-0.052667 0.0062222 0)
(-0.059098 0.00578441 0)
(-0.0648684 0.0053251 0)
(-0.0699582 0.00483872 0)
(-0.0743432 0.00431932 0)
(-0.077995 0.00376198 0)
(-0.0808821 0.00316319 0)
(-0.0829714 0.00252107 0)
(-0.0842307 0.00183567 0)
(-0.0846304 0.00110897 0)
(-0.0841464 0.00034564 0)
(-0.0827624 -0.000447315 0)
(-0.0804724 -0.00126079 0)
(-0.0772795 -0.00208384 0)
(-0.0731993 -0.00290438 0)
(-0.0682599 -0.00370924 0)
(-0.0625026 -0.00448457 0)
(-0.0559807 -0.00521651 0)
(-0.0487597 -0.00589186 0)
(-0.0409154 -0.00649869 0)
(-0.0325324 -0.00702668 0)
(-0.0237016 -0.00746784 0)
(-0.0145188 -0.00781608 0)
(-0.00508375 -0.0080673 0)
(0.0045028 -0.0082204 0)
(0.0141462 -0.00827761 0)
(0.0237562 -0.00824338 0)
(0.0332449 -0.00812361 0)
(-0.00120021 0.00557174 0)
(-0.00864929 0.0126115 0)
(-0.0189775 0.0162697 0)
(-0.0303693 0.0174267 0)
(-0.0415083 0.017195 0)
(-0.0518726 0.0163119 0)
(-0.0612518 0.0151595 0)
(-0.0695648 0.0139019 0)
(-0.0767876 0.0125948 0)
(-0.0829156 0.0112479 0)
(-0.0879467 0.00985519 0)
(-0.0918759 0.00840722 0)
(-0.0946938 0.00689575 0)
(-0.0963884 0.00531538 0)
(-0.0969468 0.00366468 0)
(-0.0963582 0.0019469 0)
(-0.0946163 0.000170448 0)
(-0.0917246 -0.00165193 0)
(-0.0876964 -0.00350296 0)
(-0.0825544 -0.00536192 0)
(-0.0763336 -0.00720577 0)
(-0.0690812 -0.0090094 0)
(-0.0608567 -0.0107463 0)
(-0.0517318 -0.0123896 0)
(-0.0417892 -0.0139136 0)
(-0.0311217 -0.0152947 0)
(-0.0198306 -0.016512 0)
(-0.00802335 -0.0175484 0)
(0.0041865 -0.01839 0)
(0.0166863 -0.0190287 0)
(0.0293654 -0.0194622 0)
(0.0421136 -0.0196916 0)
(0.0548258 -0.0197233 0)
(0.0674024 -0.0195684 0)
(0.0797506 -0.01924 0)
(-0.00160338 0.0109906 0)
(-0.0108679 0.0228975 0)
(-0.0227882 0.0282838 0)
(-0.0351779 0.0294998 0)
(-0.0466492 0.0285074 0)
(-0.0567644 0.0264976 0)
(-0.0653908 0.0240782 0)
(-0.0725092 0.0215157 0)
(-0.0781478 0.0189053 0)
(-0.0823478 0.0162679 0)
(-0.0851492 0.0135967 0)
(-0.0865853 0.0108782 0)
(-0.0866833 0.00810045 0)
(-0.0854665 0.00525642 0)
(-0.0829568 0.00234586 0)
(-0.0791771 -0.000622803 0)
(-0.0741623 -0.00363495 0)
(-0.0679505 -0.00666792 0)
(-0.0605879 -0.00969404 0)
(-0.0521308 -0.0126813 0)
(-0.0426461 -0.0155954 0)
(-0.0322101 -0.0184004 0)
(-0.0209084 -0.0210587 0)
(-0.00883548 -0.0235333 0)
(0.00390488 -0.0257891 0)
(0.017204 -0.0277948 0)
(0.0309512 -0.029525 0)
(0.0450323 -0.0309594 0)
(0.0593336 -0.0320838 0)
(0.0737438 -0.032891 0)
(0.0881544 -0.0333814 0)
(0.102462 -0.033561 0)
(0.11657 -0.0334417 0)
(0.13039 -0.0330414 0)
(0.143841 -0.0323823 0)
(-0.00191918 0.0174325 0)
(-0.0120277 0.0342587 0)
(-0.0237632 0.0406526 0)
(-0.0348835 0.0411112 0)
(-0.044225 0.0386598 0)
(-0.0516033 0.0349594 0)
(-0.0570609 0.0308176 0)
(-0.0606981 0.0265783 0)
(-0.0626279 0.0223595 0)
(-0.0629547 0.0181814 0)
(-0.0617684 0.0140297 0)
(-0.0591446 0.00988284 0)
(-0.0551486 0.00572296 0)
(-0.0498392 0.00154077 0)
(-0.0432735 -0.00266385 0)
(-0.0355156 -0.00688058 0)
(-0.0266277 -0.0110871 0)
(-0.0166792 -0.0152549 0)
(-0.00574494 -0.019349 0)
(0.00609155 -0.0233296 0)
(0.0187377 -0.0271531 0)
(0.032097 -0.0307748 0)
(0.046067 -0.0341499 0)
(0.0605404 -0.0372354 0)
(0.075407 -0.0399921 0)
(0.0905551 -0.0423862 0)
(0.105873 -0.0443911 0)
(0.121252 -0.0459873 0)
(0.136585 -0.047163 0)
(0.151773 -0.0479152 0)
(0.166722 -0.0482497 0)
(0.181344 -0.0481797 0)
(0.195564 -0.0477258 0)
(0.209313 -0.0469149 0)
(0.222532 -0.0457788 0)
(-0.00219406 0.0244197 0)
(-0.0121197 0.0451895 0)
(-0.0214516 0.0511579 0)
(-0.0285603 0.049738 0)
(-0.0330073 0.0450903 0)
(-0.0350684 0.0392385 0)
(-0.0350325 0.033095 0)
(-0.0331398 0.0270194 0)
(-0.0295852 0.0211128 0)
(-0.0245231 0.0153724 0)
(-0.0180773 0.00976437 0)
(-0.0103477 0.00425025 0)
(-0.00142371 -0.0011996 0)
(0.0086126 -0.00660158 0)
(0.0196758 -0.0119535 0)
(0.0316831 -0.0172406 0)
(0.0445495 -0.0224376 0)
(0.0581847 -0.0275109 0)
(0.0724941 -0.0324199 0)
(0.0873785 -0.0371197 0)
(0.102734 -0.0415618 0)
(0.118456 -0.0456961 0)
(0.134434 -0.0494745 0)
(0.150562 -0.052852 0)
(0.16673 -0.0557892 0)
(0.182834 -0.0582536 0)
(0.198773 -0.0602215 0)
(0.214453 -0.0616779 0)
(0.229784 -0.0626175 0)
(0.244688 -0.063045 0)
(0.259092 -0.0629743 0)
(0.272936 -0.0624283 0)
(0.286169 -0.0614372 0)
(0.29875 -0.0600381 0)
(0.310648 -0.0582731 0)
(-0.00242442 0.0318341 0)
(-0.0106545 0.0539256 0)
(-0.0143898 0.0570088 0)
(-0.0139312 0.0524181 0)
(-0.010319 0.0450674 0)
(-0.00443491 0.036951 0)
(0.00322313 0.0288879 0)
(0.0123334 0.0211565 0)
(0.0226802 0.0137902 0)
(0.0341158 0.00673831 0)
(0.0465224 -6.68275e-05 0)
(0.0598192 -0.00668164 0)
(0.0739189 -0.0131422 0)
(0.0887308 -0.0194647 0)
(0.104167 -0.0256468 0)
(0.120136 -0.0316711 0)
(0.136545 -0.0375095 0)
(0.153299 -0.0431252 0)
(0.170296 -0.048474 0)
(0.187438 -0.0535076 0)
(0.20462 -0.0581755 0)
(0.221742 -0.0624273 0)
(0.238703 -0.0662157 0)
(0.255406 -0.0694981 0)
(0.271758 -0.0722389 0)
(0.287673 -0.0744111 0)
(0.303073 -0.0759973 0)
(0.317887 -0.0769906 0)
(0.332055 -0.0773949 0)
(0.345526 -0.0772244 0)
(0.358261 -0.0765034 0)
(0.370231 -0.0752652 0)
(0.381416 -0.0735507 0)
(0.391808 -0.0714072 0)
(0.401407 -0.0688866 0)
(-0.00243252 0.0396111 0)
(-0.00507004 0.0575121 0)
(0.002276 0.0541641 0)
(0.0150998 0.0455223 0)
(0.0301714 0.0356986 0)
(0.0462951 0.0258669 0)
(0.0630911 0.0165131 0)
(0.0803628 0.00775058 0)
(0.0980088 -0.000494 0)
(0.115993 -0.00832261 0)
(0.134282 -0.0158173 0)
(0.152818 -0.0230355 0)
(0.171544 -0.0300124 0)
(0.190398 -0.036762 0)
(0.20931 -0.0432808 0)
(0.228206 -0.0495499 0)
(0.247006 -0.0555389 0)
(0.265627 -0.0612084 0)
(0.283981 -0.0665131 0)
(0.301985 -0.0714044 0)
(0.319551 -0.0758328 0)
(0.336599 -0.0797508 0)
(0.35305 -0.0831152 0)
(0.368834 -0.085889 0)
(0.383886 -0.0880438 0)
(0.398151 -0.0895608 0)
(0.411585 -0.0904321 0)
(0.424152 -0.0906609 0)
(0.435828 -0.0902618 0)
(0.446602 -0.08926 0)
(0.456469 -0.0876906 0)
(0.465439 -0.0855973 0)
(0.473527 -0.083031 0)
(0.480761 -0.0800481 0)
(0.487172 -0.0767086 0)
(0.00276852 0.0395178 0)
(0.0158379 0.0471279 0)
(0.0427791 0.0363678 0)
(0.0729087 0.0249568 0)
(0.101522 0.0144126 0)
(0.128402 0.00443383 0)
(0.154068 -0.00490775 0)
(0.178784 -0.0135906 0)
(0.202694 -0.0217271 0)
(0.225911 -0.0294431 0)
(0.248529 -0.0368166 0)
(0.270593 -0.0438888 0)
(0.292117 -0.050681 0)
(0.313091 -0.0571972 0)
(0.333491 -0.0634254 0)
(0.353277 -0.0693399 0)
(0.372402 -0.0749049 0)
(0.390811 -0.0800777 0)
(0.408449 -0.0848118 0)
(0.425258 -0.0890597 0)
(0.441186 -0.0927749 0)
(0.456183 -0.0959147 0)
(0.470207 -0.0984423 0)
(0.483224 -0.100329 0)
(0.495207 -0.101555 0)
(0.506142 -0.102113 0)
(0.516026 -0.102004 0)
(0.524864 -0.101244 0)
(0.532674 -0.0998576 0)
(0.539484 -0.0978806 0)
(0.545331 -0.0953582 0)
(0.550261 -0.0923431 0)
(0.554324 -0.0888939 0)
(0.557579 -0.0850735 0)
(0.560087 -0.0809472 0)
(0.0559653 0.00526855 0)
(0.0968908 0.00330142 0)
(0.14276 -0.00487664 0)
(0.186599 -0.0126659 0)
(0.224288 -0.0197449 0)
(0.257326 -0.0268093 0)
(0.287427 -0.0339051 0)
(0.315362 -0.0408622 0)
(0.341495 -0.047613 0)
(0.366101 -0.054158 0)
(0.389386 -0.0604981 0)
(0.411475 -0.066621 0)
(0.432437 -0.0725069 0)
(0.452304 -0.0781302 0)
(0.471087 -0.0834576 0)
(0.488781 -0.0884494 0)
(0.505371 -0.0930604 0)
(0.520835 -0.0972431 0)
(0.535147 -0.100949 0)
(0.548287 -0.104133 0)
(0.560236 -0.106751 0)
(0.570981 -0.108768 0)
(0.580519 -0.110154 0)
(0.588855 -0.11089 0)
(0.596006 -0.110967 0)
(0.601999 -0.110388 0)
(0.606869 -0.109165 0)
(0.610665 -0.107323 0)
(0.613444 -0.104899 0)
(0.615271 -0.101936 0)
(0.616217 -0.0984866 0)
(0.616361 -0.0946106 0)
(0.615782 -0.0903708 0)
(0.614564 -0.085833 0)
(0.612787 -0.0810638 0)
(0.298063 -0.0514127 0)
(0.32108 -0.0531529 0)
(0.348289 -0.0522072 0)
(0.379705 -0.0530993 0)
(0.409615 -0.0554676 0)
(0.436862 -0.0588926 0)
(0.462086 -0.063069 0)
(0.48562 -0.0676836 0)
(0.50754 -0.0724985 0)
(0.527931 -0.0773701 0)
(0.546897 -0.0822067 0)
(0.564508 -0.0869365 0)
(0.5808 -0.0914971 0)
(0.59579 -0.0958315 0)
(0.609483 -0.0998855 0)
(0.621879 -0.103606 0)
(0.632972 -0.10694 0)
(0.642758 -0.109837 0)
(0.651233 -0.112251 0)
(0.6584 -0.114138 0)
(0.664271 -0.115462 0)
(0.668865 -0.116195 0)
(0.672212 -0.116318 0)
(0.674353 -0.11582 0)
(0.675342 -0.114705 0)
(0.675239 -0.112985 0)
(0.674119 -0.110683 0)
(0.672062 -0.107833 0)
(0.669158 -0.104479 0)
(0.665499 -0.100671 0)
(0.661185 -0.0964662 0)
(0.656312 -0.0919259 0)
(0.65098 -0.087114 0)
(0.645284 -0.0820948 0)
(0.639315 -0.0769322 0)
(0.580758 -0.053141 0)
(0.58541 -0.0640387 0)
(0.59321 -0.0692527 0)
(0.605834 -0.0728723 0)
(0.620327 -0.0761805 0)
(0.634894 -0.0794231 0)
(0.64912 -0.0827665 0)
(0.662791 -0.0862658 0)
(0.675653 -0.0898644 0)
(0.687525 -0.0934793 0)
(0.698321 -0.0970391 0)
(0.707985 -0.100481 0)
(0.716473 -0.103745 0)
(0.723749 -0.106774 0)
(0.729786 -0.109512 0)
(0.734565 -0.111908 0)
(0.738077 -0.113913 0)
(0.740322 -0.115482 0)
(0.741309 -0.116576 0)
(0.741059 -0.11716 0)
(0.739605 -0.11721 0)
(0.736993 -0.116707 0)
(0.733281 -0.115645 0)
(0.728539 -0.114025 0)
(0.72285 -0.11186 0)
(0.716303 -0.109174 0)
(0.708998 -0.105998 0)
(0.70104 -0.102373 0)
(0.692539 -0.0983473 0)
(0.683605 -0.093974 0)
(0.674349 -0.0893106 0)
(0.664878 -0.0844165 0)
(0.655294 -0.0793518 0)
(0.645692 -0.0741757 0)
(0.636159 -0.0689447 0)
(0.790078 -0.0578155 0)
(0.791009 -0.0678804 0)
(0.791692 -0.0744465 0)
(0.794004 -0.0794147 0)
(0.797474 -0.0836919 0)
(0.801281 -0.0874652 0)
(0.805065 -0.0908804 0)
(0.80862 -0.0940737 0)
(0.811709 -0.0970966 0)
(0.814121 -0.0999448 0)
(0.815709 -0.102598 0)
(0.816375 -0.105031 0)
(0.816043 -0.107212 0)
(0.81466 -0.109104 0)
(0.812189 -0.110669 0)
(0.808611 -0.111872 0)
(0.803923 -0.112678 0)
(0.798139 -0.113055 0)
(0.791286 -0.112979 0)
(0.783407 -0.11243 0)
(0.77456 -0.111396 0)
(0.764814 -0.109874 0)
(0.754256 -0.107869 0)
(0.742978 -0.105395 0)
(0.731086 -0.102475 0)
(0.71869 -0.0991398 0)
(0.705906 -0.0954268 0)
(0.692851 -0.0913805 0)
(0.679642 -0.0870493 0)
(0.666393 -0.0824851 0)
(0.653213 -0.0777411 0)
(0.640202 -0.0728706 0)
(0.627455 -0.0679259 0)
(0.615051 -0.0629566 0)
(0.603063 -0.0580089 0)
(0.92161 -0.0577222 0)
(0.919102 -0.0665081 0)
(0.915423 -0.0732687 0)
(0.91173 -0.0785937 0)
(0.908172 -0.0830429 0)
(0.90444 -0.0868198 0)
(0.900337 -0.0900441 0)
(0.895765 -0.092839 0)
(0.890607 -0.0952873 0)
(0.884739 -0.097424 0)
(0.878065 -0.0992593 0)
(0.870522 -0.100792 0)
(0.86207 -0.102013 0)
(0.852685 -0.102907 0)
(0.84236 -0.103456 0)
(0.831108 -0.103639 0)
(0.818955 -0.103441 0)
(0.805946 -0.102847 0)
(0.792138 -0.101848 0)
(0.777605 -0.10044 0)
(0.762431 -0.0986255 0)
(0.746715 -0.0964126 0)
(0.730561 -0.0938175 0)
(0.714082 -0.0908631 0)
(0.697397 -0.0875784 0)
(0.680624 -0.0839979 0)
(0.663881 -0.0801606 0)
(0.647286 -0.0761087 0)
(0.630946 -0.0718867 0)
(0.614964 -0.0675397 0)
(0.599434 -0.0631124 0)
(0.584436 -0.0586481 0)
(0.570042 -0.0541877 0)
(0.556308 -0.0497689 0)
(0.543281 -0.0454257 0)
(0.976511 -0.0540911 0)
(0.970268 -0.0614557 0)
(0.962597 -0.0675154 0)
(0.954132 -0.0723659 0)
(0.945106 -0.0763237 0)
(0.935456 -0.0795722 0)
(0.925105 -0.0822136 0)
(0.91403 -0.0843468 0)
(0.902201 -0.0860554 0)
(0.88958 -0.0873918 0)
(0.876139 -0.0883839 0)
(0.861874 -0.0890471 0)
(0.846797 -0.0893884 0)
(0.830936 -0.0894096 0)
(0.81433 -0.0891089 0)
(0.797034 -0.0884837 0)
(0.779115 -0.0875322 0)
(0.760653 -0.0862546 0)
(0.741737 -0.0846546 0)
(0.722468 -0.0827397 0)
(0.702953 -0.0805218 0)
(0.683304 -0.0780176 0)
(0.663637 -0.0752484 0)
(0.644068 -0.0722399 0)
(0.624712 -0.0690216 0)
(0.605681 -0.0656255 0)
(0.587078 -0.0620861 0)
(0.569003 -0.0584385 0)
(0.55154 -0.0547183 0)
(0.534769 -0.0509601 0)
(0.518752 -0.0471968 0)
(0.503543 -0.0434594 0)
(0.489183 -0.0397761 0)
(0.475698 -0.0361718 0)
(0.463105 -0.0326683 0)
(0.954919 -0.0468464 0)
(0.945246 -0.0526087 0)
(0.933997 -0.0574649 0)
(0.921535 -0.061359 0)
(0.908087 -0.0644413 0)
(0.89372 -0.0668462 0)
(0.878462 -0.0686636 0)
(0.862359 -0.0699771 0)
(0.845454 -0.0708657 0)
(0.827789 -0.0713893 0)
(0.809404 -0.0715882 0)
(0.790356 -0.0714902 0)
(0.770711 -0.0711154 0)
(0.750541 -0.0704783 0)
(0.729929 -0.0695898 0)
(0.708963 -0.0684585 0)
(0.687739 -0.0670926 0)
(0.666358 -0.0655008 0)
(0.644925 -0.0636934 0)
(0.623547 -0.061683 0)
(0.602333 -0.0594843 0)
(0.581389 -0.0571152 0)
(0.56082 -0.0545956 0)
(0.540725 -0.0519478 0)
(0.521198 -0.0491955 0)
(0.502323 -0.0463637 0)
(0.484176 -0.0434773 0)
(0.466823 -0.0405613 0)
(0.450317 -0.0376396 0)
(0.434703 -0.0347347 0)
(0.420012 -0.0318674 0)
(0.406265 -0.0290563 0)
(0.393471 -0.0263179 0)
(0.381631 -0.0236662 0)
(0.370737 -0.0211128 0)
(0.857805 -0.0364697 0)
(0.845484 -0.0405452 0)
(0.831528 -0.0439531 0)
(0.816186 -0.0466144 0)
(0.799684 -0.0485975 0)
(0.782176 -0.0500015 0)
(0.763781 -0.0509097 0)
(0.744617 -0.0513985 0)
(0.7248 -0.0515402 0)
(0.704435 -0.0513948 0)
(0.683623 -0.0510067 0)
(0.662463 -0.0504085 0)
(0.641054 -0.0496252 0)
(0.619494 -0.0486759 0)
(0.59788 -0.0475753 0)
(0.576308 -0.046335 0)
(0.554873 -0.0449651 0)
(0.533668 -0.0434749 0)
(0.512785 -0.0418741 0)
(0.492312 -0.0401734 0)
(0.472335 -0.0383845 0)
(0.452931 -0.0365201 0)
(0.434174 -0.0345943 0)
(0.416131 -0.0326218 0)
(0.398858 -0.0306178 0)
(0.382404 -0.0285975 0)
(0.36681 -0.0265756 0)
(0.352105 -0.0245661 0)
(0.338311 -0.0225823 0)
(0.325439 -0.020636 0)
(0.313494 -0.0187378 0)
(0.302469 -0.0168967 0)
(0.292352 -0.0151205 0)
(0.283126 -0.0134153 0)
(0.274765 -0.011786 0)
(0.688672 -0.0239561 0)
(0.675171 -0.0263392 0)
(0.660144 -0.0282389 0)
(0.643828 -0.0296082 0)
(0.626476 -0.0304943 0)
(0.608306 -0.0309773 0)
(0.589505 -0.0311318 0)
(0.570245 -0.0310225 0)
(0.550679 -0.0307073 0)
(0.530941 -0.0302333 0)
(0.511144 -0.0296353 0)
(0.491391 -0.0289383 0)
(0.471773 -0.0281605 0)
(0.452372 -0.027315 0)
(0.433263 -0.0264114 0)
(0.414515 -0.0254564 0)
(0.396192 -0.0244556 0)
(0.378355 -0.0234137 0)
(0.361061 -0.0223356 0)
(0.34436 -0.0212268 0)
(0.3283 -0.0200933 0)
(0.312922 -0.0189414 0)
(0.298261 -0.0177783 0)
(0.284348 -0.016611 0)
(0.271204 -0.0154467 0)
(0.258847 -0.0142921 0)
(0.247287 -0.013154 0)
(0.236525 -0.012038 0)
(0.226561 -0.0109497 0)
(0.217385 -0.00989368 0)
(0.208984 -0.00887393 0)
(0.20134 -0.00789363 0)
(0.194431 -0.00695538 0)
(0.188231 -0.00606098 0)
(0.182712 -0.00521175 0)
(0.455539 -0.0114191 0)
(0.443438 -0.0123162 0)
(0.43023 -0.012937 0)
(0.416168 -0.0132796 0)
(0.401509 -0.0133886 0)
(0.386478 -0.013322 0)
(0.371257 -0.0131284 0)
(0.355997 -0.0128442 0)
(0.340818 -0.0124978 0)
(0.325814 -0.0121106 0)
(0.311058 -0.011697 0)
(0.296606 -0.0112656 0)
(0.282505 -0.0108221 0)
(0.268793 -0.0103698 0)
(0.255501 -0.00991055 0)
(0.242658 -0.00944551 0)
(0.230289 -0.00897536 0)
(0.218416 -0.00850106 0)
(0.20706 -0.00802377 0)
(0.196238 -0.00754511 0)
(0.185964 -0.0070668 0)
(0.176249 -0.00659092 0)
(0.167103 -0.00611948 0)
(0.158529 -0.00565464 0)
(0.150529 -0.00519834 0)
(0.143099 -0.00475256 0)
(0.136235 -0.00431895 0)
(0.129928 -0.00389909 0)
(0.124165 -0.0034942 0)
(0.118932 -0.00310542 0)
(0.114213 -0.00273344 0)
(0.10999 -0.00237891 0)
(0.106242 -0.00204209 0)
(0.102949 -0.00172319 0)
(0.100089 -0.00142212 0)
(0.17189 -0.00168628 0)
(0.165528 -0.00172308 0)
(0.158797 -0.0017082 0)
(0.151854 -0.00165224 0)
(0.14484 -0.00157399 0)
(0.137861 -0.00148868 0)
(0.130991 -0.00140332 0)
(0.12428 -0.00131997 0)
(0.11776 -0.00123931 0)
(0.111454 -0.00116167 0)
(0.105374 -0.00108713 0)
(0.0995292 -0.00101579 0)
(0.0939232 -0.000947755 0)
(0.088559 -0.000882973 0)
(0.0834385 -0.0008211 0)
(0.0785627 -0.000761608 0)
(0.0739327 -0.000704014 0)
(0.0695492 -0.000647998 0)
(0.0654128 -0.000593467 0)
(0.0615233 -0.000540485 0)
(0.05788 -0.000489238 0)
(0.0544812 -0.000439915 0)
(0.0513243 -0.000392704 0)
(0.0484059 -0.000347709 0)
(0.0457213 -0.000305001 0)
(0.0432651 -0.000264571 0)
(0.0410312 -0.000226412 0)
(0.0390124 -0.000190467 0)
(0.0372013 -0.000156708 0)
(0.0355897 -0.000125068 0)
(0.034169 -9.55085e-05 0)
(0.0329307 -6.79436e-05 0)
(0.0318657 -4.23165e-05 0)
(0.0309649 -1.85181e-05 0)
(0.0302195 3.52451e-06 0)
(0.00944503 -0.00089302 0)
(0.0135758 -0.000859184 0)
(0.0175498 -0.000817334 0)
(0.0213381 -0.000769173 0)
(0.0249176 -0.000716416 0)
(0.0282713 -0.00066067 0)
(0.0313876 -0.000603432 0)
(0.03426 -0.000546007 0)
(0.036887 -0.000489536 0)
(0.039271 -0.00043494 0)
(0.0425331 -0.00792664 0)
(0.0515501 -0.007662 0)
(0.060234 -0.00733972 0)
(0.0685329 -0.00697023 0)
(0.0764046 -0.00656405 0)
(0.0838166 -0.00613144 0)
(0.0907461 -0.00568214 0)
(0.0971792 -0.0052251 0)
(0.10311 -0.00476838 0)
(0.108541 -0.004319 0)
(0.0917869 -0.0187545 0)
(0.103437 -0.0181302 0)
(0.114637 -0.017387 0)
(0.125334 -0.0165458 0)
(0.135484 -0.0156273 0)
(0.145054 -0.014652 0)
(0.154021 -0.0136394 0)
(0.162372 -0.0126076 0)
(0.170101 -0.0115731 0)
(0.177212 -0.0105505 0)
(0.156853 -0.0314902 0)
(0.169366 -0.0303937 0)
(0.181329 -0.0291229 0)
(0.192701 -0.0277089 0)
(0.203452 -0.0261828 0)
(0.21356 -0.0245748 0)
(0.223011 -0.0229136 0)
(0.231802 -0.0212258 0)
(0.239934 -0.0195359 0)
(0.247416 -0.0178653 0)
(0.235174 -0.0443535 0)
(0.2472 -0.0426775 0)
(0.258581 -0.040791 0)
(0.269299 -0.0387344 0)
(0.279341 -0.0365477 0)
(0.288705 -0.0342694 0)
(0.297394 -0.0319357 0)
(0.305418 -0.0295801 0)
(0.312791 -0.0272327 0)
(0.319534 -0.0249203 0)
(0.321842 -0.0561881 0)
(0.332321 -0.0538312 0)
(0.342081 -0.0512514 0)
(0.351128 -0.0484976 0)
(0.359473 -0.0456171 0)
(0.367133 -0.0426547 0)
(0.37413 -0.0396523 0)
(0.38049 -0.0366479 0)
(0.386242 -0.0336754 0)
(0.391417 -0.0307644 0)
(0.410223 -0.0660439 0)
(0.418273 -0.0629355 0)
(0.425579 -0.0596178 0)
(0.43217 -0.0561459 0)
(0.438079 -0.0525723 0)
(0.443343 -0.0489462 0)
(0.448 -0.0453125 0)
(0.45209 -0.0417115 0)
(0.455653 -0.0381786 0)
(0.45873 -0.0347441 0)
(0.492799 -0.0730746 0)
(0.497685 -0.0692082 0)
(0.501879 -0.0651706 0)
(0.505428 -0.0610204 0)
(0.508384 -0.0568125 0)
(0.510798 -0.0525975 0)
(0.512719 -0.0484206 0)
(0.514195 -0.0443218 0)
(0.515275 -0.0403355 0)
(0.516001 -0.0364905 0)
(0.561912 -0.0765807 0)
(0.563119 -0.0720389 0)
(0.563774 -0.0673839 0)
(0.563939 -0.0626743 0)
(0.563675 -0.0579641 0)
(0.563041 -0.053302 0)
(0.562091 -0.0487307 0)
(0.560875 -0.0442872 0)
(0.559439 -0.0400024 0)
(0.557824 -0.0359015 0)
(0.610532 -0.0761287 0)
(0.607878 -0.071091 0)
(0.604897 -0.0660103 0)
(0.601658 -0.0609413 0)
(0.598224 -0.0559336 0)
(0.59465 -0.0510309 0)
(0.590987 -0.0462707 0)
(0.58728 -0.0416845 0)
(0.583565 -0.0372978 0)
(0.579874 -0.0331307 0)
(0.633158 -0.0716874 0)
(0.626893 -0.066418 0)
(0.62059 -0.0611772 0)
(0.614312 -0.0560127 0)
(0.608113 -0.0509667 0)
(0.60204 -0.0460754 0)
(0.59613 -0.0413688 0)
(0.590414 -0.0368715 0)
(0.584914 -0.0326024 0)
(0.579648 -0.0285754 0)
(0.626774 -0.063712 0)
(0.617604 -0.0585264 0)
(0.608708 -0.0534315 0)
(0.600132 -0.0484657 0)
(0.591915 -0.0436617 0)
(0.584084 -0.0390466 0)
(0.57666 -0.0346424 0)
(0.569653 -0.0304656 0)
(0.563069 -0.0265284 0)
(0.556905 -0.0228386 0)
(0.591549 -0.0531253 0)
(0.580558 -0.0483431 0)
(0.570125 -0.043695 0)
(0.560276 -0.0392087 0)
(0.551026 -0.034907 0)
(0.542382 -0.0308077 0)
(0.534342 -0.0269246 0)
(0.526896 -0.0232671 0)
(0.520032 -0.0198414 0)
(0.513729 -0.01665 0)
(0.530993 -0.0411881 0)
(0.519466 -0.0370818 0)
(0.508711 -0.0331284 0)
(0.498729 -0.0293453 0)
(0.489512 -0.025746 0)
(0.481046 -0.0223406 0)
(0.473308 -0.0191358 0)
(0.466273 -0.0161355 0)
(0.459908 -0.0133412 0)
(0.454181 -0.0107521 0)
(0.451411 -0.0292842 0)
(0.440611 -0.0260344 0)
(0.430693 -0.0229312 0)
(0.421635 -0.0199835 0)
(0.413412 -0.0171978 0)
(0.405991 -0.0145783 0)
(0.399336 -0.0121268 0)
(0.39341 -0.00984382 0)
(0.388169 -0.00772794 0)
(0.383572 -0.00577671 0)
(0.360771 -0.0186672 0)
(0.351711 -0.0163364 0)
(0.343526 -0.0141258 0)
(0.336182 -0.0120389 0)
(0.329643 -0.0100775 0)
(0.323866 -0.00824235 0)
(0.31881 -0.006533 0)
(0.31443 -0.00494796 0)
(0.310683 -0.00348519 0)
(0.307524 -0.00214174 0)
(0.267241 -0.010236 0)
(0.26052 -0.008768 0)
(0.254567 -0.00738317 0)
(0.249343 -0.00608217 0)
(0.244809 -0.00486478 0)
(0.240924 -0.00373035 0)
(0.237647 -0.00267758 0)
(0.234936 -0.00170496 0)
(0.232751 -0.000810471 0)
(0.231052 7.88216e-06 0)
(0.177844 -0.00440834 0)
(0.173596 -0.00365108 0)
(0.169934 -0.00293981 0)
(0.166826 -0.00227419 0)
(0.164237 -0.0016535 0)
(0.162133 -0.001077 0)
(0.160482 -0.000543658 0)
(0.159251 -5.25395e-05 0)
(0.158406 0.000397533 0)
(0.157918 0.000807651 0)
(0.0976398 -0.00113881 0)
(0.0955783 -0.000872923 0)
(0.0938821 -0.000624252 0)
(0.0925286 -0.000392329 0)
(0.0914954 -0.000176883 0)
(0.0907606 2.25981e-05 0)
(0.0903025 0.000206438 0)
(0.0900999 0.000375194 0)
(0.0901323 0.000529081 0)
(0.0903793 0.000668556 0)
(0.0296204 2.39296e-05 0)
(0.0291588 4.27667e-05 0)
(0.0288261 6.01432e-05 0)
(0.0286138 7.61074e-05 0)
(0.0285135 9.07434e-05 0)
(0.0285173 0.000104094 0)
(0.0286171 0.000116232 0)
(0.0288053 0.000127155 0)
(0.0290745 0.000136907 0)
(0.0294173 0.000145495 0)
(0.0414181 -0.000382967 0)
(0.0433371 -0.000334153 0)
(0.0450394 -0.000288888 0)
(0.0465377 -0.000247385 0)
(0.0478463 -0.00020975 0)
(0.0489799 -0.000175962 0)
(0.0499538 -0.000145934 0)
(0.0507829 -0.000119492 0)
(0.0514821 -9.6436e-05 0)
(0.0520655 -7.65172e-05 0)
(0.0525467 -5.94838e-05 0)
(0.0529384 -4.50626e-05 0)
(0.0532522 -3.2995e-05 0)
(0.0534989 -2.30175e-05 0)
(0.0536885 -1.48898e-05 0)
(0.0538297 -8.37666e-06 0)
(0.0539304 -3.26902e-06 0)
(0.0539977 6.33245e-07 0)
(0.0540378 3.50487e-06 0)
(0.054056 5.50964e-06 0)
(0.054057 6.78309e-06 0)
(0.0540448 7.44766e-06 0)
(0.0540226 7.61025e-06 0)
(0.0539935 7.37441e-06 0)
(0.0539596 6.82738e-06 0)
(0.053923 6.04859e-06 0)
(0.053885 5.10314e-06 0)
(0.0538468 4.05047e-06 0)
(0.0538093 2.93866e-06 0)
(0.0537729 1.81189e-06 0)
(0.0537381 7.05298e-07 0)
(0.053705 -3.48274e-07 0)
(0.0536735 -1.32296e-06 0)
(0.0536435 -2.19364e-06 0)
(0.0536146 -2.94016e-06 0)
(0.11348 -0.00388287 0)
(0.117941 -0.00346483 0)
(0.121944 -0.00306866 0)
(0.125509 -0.00269713 0)
(0.128663 -0.00235211 0)
(0.131432 -0.00203466 0)
(0.133845 -0.00174515 0)
(0.135932 -0.00148334 0)
(0.13772 -0.00124853 0)
(0.139239 -0.00103965 0)
(0.140516 -0.000855329 0)
(0.141577 -0.000693999 0)
(0.142448 -0.000553971 0)
(0.143152 -0.000433481 0)
(0.143711 -0.00033075 0)
(0.144144 -0.000244016 0)
(0.144469 -0.000171572 0)
(0.144704 -0.000111782 0)
(0.144862 -6.31045e-05 0)
(0.144957 -2.4095e-05 0)
(0.145 6.57567e-06 0)
(0.145001 3.01113e-05 0)
(0.14497 4.76064e-05 0)
(0.144912 6.00636e-05 0)
(0.144835 6.83899e-05 0)
(0.144745 7.33953e-05 0)
(0.144644 7.57992e-05 0)
(0.144537 7.62337e-05 0)
(0.144427 7.52533e-05 0)
(0.144315 7.33377e-05 0)
(0.144203 7.09032e-05 0)
(0.144093 6.83051e-05 0)
(0.143983 6.58492e-05 0)
(0.143876 6.37949e-05 0)
(0.14377 6.23674e-05 0)
(0.183713 -0.00955243 0)
(0.18962 -0.00858941 0)
(0.194954 -0.00766998 0)
(0.199739 -0.00680075 0)
(0.204005 -0.0059865 0)
(0.207781 -0.00523037 0)
(0.211101 -0.00453401 0)
(0.213996 -0.00389783 0)
(0.216502 -0.00332112 0)
(0.218652 -0.00280231 0)
(0.220478 -0.0023391 0)
(0.222013 -0.00192867 0)
(0.223287 -0.00156779 0)
(0.22433 -0.00125298 0)
(0.225169 -0.000980592 0)
(0.22583 -0.000746951 0)
(0.226335 -0.00054839 0)
(0.226706 -0.000381328 0)
(0.226964 -0.000242323 0)
(0.227125 -0.000128102 0)
(0.227205 -3.55908e-05 0)
(0.227219 3.80686e-05 0)
(0.227179 9.55055e-05 0)
(0.227095 0.000139146 0)
(0.226977 0.000171208 0)
(0.226833 0.000193709 0)
(0.226669 0.000208459 0)
(0.22649 0.000217078 0)
(0.226302 0.000221 0)
(0.226107 0.000221493 0)
(0.225909 0.000219662 0)
(0.225709 0.000216476 0)
(0.225508 0.000212769 0)
(0.225308 0.000209266 0)
(0.225108 0.000206592 0)
(0.254262 -0.016233 0)
(0.260491 -0.0146547 0)
(0.266127 -0.0131434 0)
(0.271196 -0.0117094 0)
(0.275727 -0.0103604 0)
(0.279751 -0.00910148 0)
(0.2833 -0.00793579 0)
(0.286407 -0.00686452 0)
(0.289106 -0.00588718 0)
(0.291429 -0.00500194 0)
(0.293409 -0.00420583 0)
(0.295079 -0.00349498 0)
(0.296467 -0.00286482 0)
(0.297604 -0.00231032 0)
(0.298517 -0.0018261 0)
(0.299233 -0.00140662 0)
(0.299774 -0.00104628 0)
(0.300165 -0.000739536 0)
(0.300425 -0.000480986 0)
(0.300573 -0.000265422 0)
(0.300626 -8.78962e-05 0)
(0.300601 5.62403e-05 0)
(0.300509 0.000171344 0)
(0.300363 0.000261471 0)
(0.300174 0.000330367 0)
(0.299951 0.000381458 0)
(0.299702 0.000417856 0)
(0.299432 0.000442365 0)
(0.299148 0.000457497 0)
(0.298853 0.000465486 0)
(0.298552 0.000468309 0)
(0.298247 0.000467702 0)
(0.29794 0.000465185 0)
(0.297632 0.000462077 0)
(0.297324 0.00045953 0)
(0.325669 -0.022666 0)
(0.331221 -0.0204892 0)
(0.336219 -0.0184059 0)
(0.340692 -0.0164284 0)
(0.344671 -0.014566 0)
(0.348187 -0.0128252 0)
(0.351272 -0.0112096 0)
(0.353956 -0.00972074 0)
(0.356271 -0.00835789 0)
(0.358248 -0.0071188 0)
(0.359914 -0.00599974 0)
(0.3613 -0.00499585 0)
(0.362432 -0.00410141 0)
(0.363335 -0.00331001 0)
(0.364034 -0.00261482 0)
(0.364553 -0.00200871 0)
(0.364912 -0.00148446 0)
(0.365132 -0.00103486 0)
(0.365231 -0.000652803 0)
(0.365226 -0.000331427 0)
(0.365132 -6.41575e-05 0)
(0.364964 0.000155273 0)
(0.364734 0.000332809 0)
(0.364452 0.00047401 0)
(0.36413 0.000584039 0)
(0.363775 0.000667649 0)
(0.363395 0.000729188 0)
(0.362995 0.000772607 0)
(0.362583 0.000801474 0)
(0.362161 0.000818988 0)
(0.361733 0.000828003 0)
(0.361303 0.000831044 0)
(0.360871 0.000830336 0)
(0.360441 0.000827828 0)
(0.360011 0.00082522 0)
(0.396048 -0.0279403 0)
(0.400168 -0.025224 0)
(0.403809 -0.0226323 0)
(0.407007 -0.0201781 0)
(0.409792 -0.0178708 0)
(0.412197 -0.0157165 0)
(0.414253 -0.0137182 0)
(0.415988 -0.0118766 0)
(0.417432 -0.0101902 0)
(0.418611 -0.00865556 0)
(0.41955 -0.00726781 0)