/*--------------------------------*- C++ -*----------------------------------*\
| =========                 |                                                 |
| \\      /  F ield         | OpenFOAM: The Open Source CFD Toolbox           |
|  \\    /   O peration     | Version:  2406                                  |
|   \\  /    A nd           | Website:  www.openfoam.com                      |
|    \\/     M anipulation  |                                                 |
\*---------------------------------------------------------------------------*/
FoamFile
{
    version     2.0;
    format      ascii;
    arch        "LSB;label=32;scalar=64";
    class       volScalarField;
    location    "61";
    object      p;
}
// * * * * * * * * * * * * * * * * * * * * * * * * * * * * * * * * * * * * * //

dimensions      [0 2 -2 0 0 0 0];

internalField   nonuniform List<scalar> 
1964
(
0.456122
0.457034
0.457538
0.457596
0.45746
0.457222
0.456897
0.456503
0.456058
0.455577
0.455067
0.454535
0.453984
0.453418
0.452838
0.452247
0.451645
0.451034
0.450413
0.449783
0.449144
0.448494
0.447833
0.447159
0.44647
0.445762
0.445029
0.444266
0.443464
0.442609
0.441686
0.440672
0.439536
0.438232
0.436701
0.434853
0.432564
0.42965
0.425842
0.420743
0.413774
0.404095
0.390535
0.37154
0.345273
0.309859
0.264177
0.457222
0.457433
0.457613
0.457605
0.457444
0.457188
0.456857
0.456465
0.456024
0.455548
0.455042
0.454513
0.453966
0.453402
0.452824
0.452235
0.451634
0.451024
0.450406
0.449778
0.44914
0.448492
0.447833
0.447162
0.446475
0.445771
0.445043
0.444287
0.443494
0.442652
0.441746
0.440754
0.439647
0.438384
0.436907
0.435133
0.43294
0.430151
0.426497
0.421578
0.41479
0.405246
0.39167
0.372312
0.345033
0.307483
0.258427
0.458077
0.457728
0.457585
0.457529
0.457379
0.457121
0.45679
0.456405
0.455975
0.455506
0.455007
0.454483
0.453941
0.453382
0.452809
0.452223
0.451626
0.451019
0.450405
0.449783
0.449153
0.448514
0.447866
0.447207
0.446538
0.445856
0.445159
0.444443
0.443703
0.442932
0.44212
0.441252
0.440308
0.439261
0.438066
0.436657
0.434934
0.432731
0.429789
0.425688
0.419763
0.410986
0.397818
0.378044
0.348842
0.306352
0.248521
0.458714
0.458109
0.45772
0.457559
0.457372
0.457086
0.456733
0.45634
0.455912
0.455449
0.454955
0.454437
0.453902
0.453352
0.452788
0.452209
0.451617
0.451017
0.450411
0.449801
0.449186
0.448567
0.447943
0.447315
0.446684
0.446052
0.44542
0.444792
0.444168
0.443551
0.442942
0.442341
0.441749
0.44116
0.440562
0.439924
0.439184
0.438215
0.436782
0.434451
0.430461
0.423538
0.411634
0.391767
0.360064
0.310624
0.24143
0.459228
0.458503
0.45793
0.457642
0.457393
0.457069
0.456691
0.456284
0.455852
0.455391
0.4549
0.454387
0.453859
0.453318
0.452764
0.452195
0.451612
0.451021
0.450427
0.449833
0.449241
0.448651
0.448065
0.447483
0.446912
0.446357
0.445827
0.445333
0.444887
0.444504
0.444205
0.444013
0.443956
0.444068
0.444385
0.444934
0.445724
0.446711
0.447735
0.448421
0.447959
0.444823
0.436044
0.417048
0.379757
0.315661
0.222342
0.45964
0.458847
0.45815
0.457755
0.457442
0.45708
0.456673
0.456247
0.455807
0.455343
0.454852
0.45434
0.453817
0.453286
0.452743
0.452186
0.451614
0.451034
0.450454
0.449879
0.449314
0.448761
0.448221
0.447698
0.447203
0.446746
0.446344
0.446018
0.445796
0.445709
0.4458
0.446121
0.446742
0.447743
0.449226
0.451304
0.454094
0.457691
0.462111
0.467187
0.472319
0.476124
0.475123
0.463123
0.422401
0.334828
0.142771
0.45996
0.459127
0.458351
0.457877
0.457507
0.457107
0.456671
0.456225
0.455774
0.455306
0.454813
0.454301
0.453781
0.453258
0.452727
0.452181
0.45162
0.451052
0.450487
0.449933
0.449396
0.448881
0.44839
0.447932
0.447519
0.447167
0.446904
0.446761
0.446779
0.447011
0.447524
0.448402
0.449757
0.451728
0.454492
0.458265
0.463303
0.469893
0.478318
0.488792
0.501277
0.515226
0.528477
0.536656
0.52198
0.45779
0.141737
0.460196
0.45934
0.458514
0.457985
0.45757
0.457136
0.456676
0.456215
0.455754
0.455281
0.454784
0.454271
0.453754
0.453237
0.452715
0.452179
0.45163
0.451073
0.450521
0.449985
0.449475
0.448994
0.448549
0.44815
0.447813
0.44756
0.447426
0.447452
0.447694
0.448223
0.449128
0.450525
0.452567
0.455449
0.459423
0.464809
0.47201
0.481519
0.493921
0.509879
0.53005
0.554973
0.584553
0.617887
0.64935
0.672996
0.619481
0.460352
0.459482
0.458627
0.458064
0.45762
0.457162
0.456684
0.456211
0.455744
0.455266
0.454766
0.454252
0.453735
0.453222
0.452707
0.45218
0.451638
0.45109
0.450549
0.450027
0.449536
0.449081
0.448672
0.448318
0.448039
0.447863
0.447828
0.447985
0.4484
0.449157
0.450364
0.452163
0.454737
0.458326
0.463244
0.469895
0.478802
0.490632
0.506223
0.526607
0.553
0.586735
0.628938
0.680018
0.737357
0.794035
0.825604
0.460429
0.459553
0.458685
0.458106
0.457646
0.457176
0.456689
0.45621
0.455739
0.455258
0.454757
0.454242
0.453725
0.453215
0.452703
0.452181
0.451644
0.4511
0.450564
0.45005
0.449569
0.449129
0.448738
0.44841
0.448162
0.448028
0.448047
0.448275
0.448784
0.449665
0.451037
0.453054
0.455918
0.459893
0.465326
0.47267
0.482515
0.495622
0.512969
0.535786
0.565569
0.604024
0.652761
0.712619
0.781432
0.851314
0.897697
0.460429
0.459553
0.458685
0.458105
0.457646
0.457176
0.456689
0.45621
0.455739
0.455258
0.454757
0.454242
0.453726
0.453215
0.452703
0.45218
0.451644
0.4511
0.450564
0.45005
0.449569
0.449129
0.448738
0.448409
0.448162
0.448028
0.448047
0.448275
0.448784
0.449665
0.451037
0.453054
0.455918
0.459893
0.465326
0.47267
0.482515
0.495622
0.512969
0.535786
0.565569
0.604024
0.65276
0.712621
0.781432
0.851312
0.897697
0.460352
0.459482
0.458627
0.458064
0.457619
0.457161
0.456684
0.456211
0.455743
0.455265
0.454766
0.454252
0.453735
0.453222
0.452707
0.452179
0.451638
0.45109
0.450549
0.450027
0.449536
0.449082
0.448672
0.448318
0.448039
0.447863
0.447828
0.447985
0.4484
0.449157
0.450365
0.452163
0.454737
0.458326
0.463244
0.469895
0.478802
0.490632
0.506223
0.526607
0.552999
0.586735
0.628939
0.680018
0.737356
0.794039
0.825605
0.460196
0.459339
0.458514
0.457985
0.45757
0.457136
0.456676
0.456214
0.455754
0.45528
0.454784
0.454272
0.453754
0.453237
0.452714
0.452179
0.451629
0.451073
0.450521
0.449986
0.449475
0.448994
0.448549
0.44815
0.447812
0.44756
0.447426
0.447452
0.447695
0.448223
0.449128
0.450526
0.452568
0.455449
0.459423
0.464809
0.47201
0.481519
0.493922
0.509879
0.53005
0.554973
0.584553
0.617887
0.649351
0.672995
0.619481
0.45996
0.459127
0.458351
0.457876
0.457507
0.457106
0.456671
0.456225
0.455774
0.455305
0.454813
0.454301
0.453782
0.453258
0.452726
0.45218
0.45162
0.451052
0.450487
0.449934
0.449397
0.448881
0.44839
0.447932
0.447518
0.447167
0.446904
0.446761
0.44678
0.447012
0.447524
0.448403
0.449757
0.451729
0.454493
0.458265
0.463304
0.469893
0.478318
0.488792
0.501277
0.515226
0.528477
0.536658
0.521979
0.45778
0.141735
0.459639
0.458846
0.45815
0.457754
0.457442
0.45708
0.456673
0.456247
0.455806
0.455342
0.454852
0.454341
0.453818
0.453286
0.452743
0.452185
0.451613
0.451034
0.450454
0.44988
0.449315
0.448761
0.44822
0.447698
0.447203
0.446746
0.446344
0.446019
0.445796
0.445709
0.4458
0.446122
0.446742
0.447743
0.449226
0.451304
0.454095
0.457692
0.462111
0.467187
0.472319
0.476123
0.475123
0.46312
0.422399
0.33483
0.14276
0.459227
0.458502
0.45793
0.457641
0.457392
0.457069
0.456691
0.456284
0.455851
0.45539
0.4549
0.454387
0.453859
0.453318
0.452763
0.452194
0.451612
0.451022
0.450428
0.449834
0.449241
0.448651
0.448064
0.447483
0.446912
0.446357
0.445828
0.445333
0.444887
0.444505
0.444205
0.444013
0.443956
0.444068
0.444385
0.444934
0.445725
0.446711
0.447736
0.448421
0.447959
0.444823
0.436044
0.417049
0.379754
0.315655
0.222341
0.458713
0.458109
0.45772
0.457558
0.457371
0.457085
0.456733
0.45634
0.455911
0.455448
0.454955
0.454438
0.453902
0.453352
0.452787
0.452208
0.451617
0.451018
0.450412
0.449801
0.449186
0.448567
0.447943
0.447315
0.446684
0.446052
0.445421
0.444793
0.444169
0.443551
0.442942
0.442341
0.441749
0.44116
0.440562
0.439924
0.439184
0.438216
0.436782
0.434451
0.43046
0.423537
0.411633
0.391764
0.360059
0.310617
0.241418
0.458076
0.457727
0.457584
0.457528
0.457378
0.457121
0.45679
0.456405
0.455974
0.455506
0.455007
0.454483
0.453941
0.453382
0.452809
0.452223
0.451626
0.451019
0.450405
0.449783
0.449152
0.448514
0.447866
0.447208
0.446538
0.445856
0.445159
0.444443
0.443703
0.442932
0.44212
0.441252
0.440309
0.439261
0.438066
0.436658
0.434934
0.432731
0.429789
0.425688
0.419763
0.410984
0.397816
0.378041
0.348837
0.306346
0.24852
0.457221
0.457432
0.457612
0.457604
0.457444
0.457187
0.456856
0.456464
0.456024
0.455547
0.455042
0.454513
0.453965
0.453402
0.452824
0.452235
0.451634
0.451025
0.450406
0.449778
0.44914
0.448492
0.447834
0.447162
0.446476
0.445771
0.445044
0.444288
0.443495
0.442653
0.441746
0.440754
0.439647
0.438384
0.436907
0.435133
0.43294
0.430151
0.426497
0.421577
0.41479
0.405245
0.391669
0.37231
0.345032
0.307482
0.258427
0.456121
0.457033
0.457537
0.457596
0.457459
0.457221
0.456897
0.456502
0.456058
0.455577
0.455067
0.454535
0.453984
0.453417
0.452838
0.452247
0.451645
0.451034
0.450413
0.449783
0.449144
0.448494
0.447834
0.44716
0.44647
0.445762
0.44503
0.444267
0.443464
0.44261
0.441687
0.440673
0.439536
0.438232
0.436701
0.434853
0.432564
0.42965
0.425842
0.420743
0.413774
0.404094
0.390533
0.371538
0.345271
0.309856
0.264174
0.208697
0.146641
0.0843288
0.027824
-0.0201762
-0.0593597
0.19838
0.132001
0.0678541
0.0117834
-0.0352154
-0.0740672
0.174208
0.0945085
0.0263124
-0.0271695
-0.0701382
-0.10455
0.13916
0.0302674
-0.0458078
-0.09446
-0.129964
-0.155337
0.0604409
-0.0911294
-0.170598
-0.205941
-0.223853
-0.229245
-0.189298
-0.315065
-0.334624
-0.323848
-0.302193
-0.273859
-0.51834
-0.447969
-0.375027
-0.348362
-0.319928
-0.286219
-0.518344
-0.447979
-0.375035
-0.348369
-0.319934
-0.286224
-0.189293
-0.315068
-0.334633
-0.323853
-0.302195
-0.273862
0.0604283
-0.0911406
-0.170614
-0.205948
-0.223834
-0.229234
0.139154
0.0302721
-0.0457902
-0.0944348
-0.12995
-0.155356
0.174216
0.0945259
0.026331
-0.0271705
-0.0701726
-0.104599
0.198382
0.132001
0.0678424
0.0117568
-0.0352471
-0.0740743
0.208692
0.146637
0.0843255
0.027824
-0.0201708
-0.05935
-0.0909844
-0.116914
-0.138144
-0.155169
-0.168436
-0.178421
-0.185563
-0.190219
-0.192671
-0.193153
-0.19187
-0.189006
-0.184736
-0.179235
-0.172686
-0.165286
-0.157244
-0.148776
-0.1401
-0.131419
-0.122909
-0.114701
-0.106881
-0.0994857
-0.0925162
-0.0859473
-0.0797417
-0.0738594
-0.0682636
-0.0629241
-0.0578171
-0.0529248
-0.0482346
-0.0437376
-0.0394256
-0.0352917
-0.0313326
-0.0275472
-0.0239339
-0.0204911
-0.0172172
-0.0141105
-0.0111689
-0.00839002
-0.00576957
-0.00330506
-0.000957255
-0.105394
-0.129884
-0.148945
-0.163734
-0.174994
-0.183308
-0.18914
-0.192785
-0.194416
-0.194181
-0.19224
-0.188766
-0.183941
-0.177955
-0.171007
-0.163307
-0.155074
-0.146528
-0.137883
-0.12933
-0.12102
-0.113058
-0.1055
-0.0983559
-0.0916104
-0.0852296
-0.0791753
-0.0734115
-0.0679078
-0.0626403
-0.0575906
-0.0527452
-0.048095
-0.0436333
-0.0393522
-0.0352439
-0.0313065
-0.0275392
-0.0239405
-0.0205097
-0.0172459
-0.0141476
-0.0112133
-0.00844123
-0.0058258
-0.00338823
-0.00095881
-0.130974
-0.15133
-0.167664
-0.18065
-0.190444
-0.197423
-0.202052
-0.204621
-0.205257
-0.204048
-0.201089
-0.196501
-0.190441
-0.183117
-0.174786
-0.165736
-0.156264
-0.146654
-0.137155
-0.127966
-0.119226
-0.111011
-0.103342
-0.0961984
-0.0895331
-0.0832875
-0.0774021
-0.0718237
-0.0665082
-0.0614217
-0.0565396
-0.0518448
-0.0473263
-0.0429761
-0.0387907
-0.0347703
-0.0309157
-0.0272223
-0.0236859
-0.0203073
-0.0170876
-0.0140269
-0.0111256
-0.00838177
-0.00579452
-0.00337795
-0.00098065
-0.171746
-0.183551
-0.193818
-0.202601
-0.209414
-0.214389
-0.217728
-0.219434
-0.219471
-0.217822
-0.214451
-0.209312
-0.202416
-0.19389
-0.183988
-0.173062
-0.161521
-0.149783
-0.13823
-0.127183
-0.11687
-0.107424
-0.0988834
-0.0912098
-0.0843128
-0.0780762
-0.0723789
-0.0671095
-0.062175
-0.0575027
-0.0530405
-0.0487527
-0.0446168
-0.0406197
-0.0367547
-0.033019
-0.0294113
-0.0259365
-0.0226028
-0.0194124
-0.0163625
-0.0134507
-0.0106805
-0.00804327
-0.00556281
-0.00315896
-0.00111632
-0.227532
-0.227776
-0.230915
-0.233675
-0.235395
-0.23677
-0.237798
-0.237997
-0.237027
-0.234707
-0.230828
-0.225127
-0.217408
-0.207645
-0.196024
-0.182918
-0.168825
-0.154298
-0.139879
-0.126049
-0.113189
-0.101556
-0.09127
-0.0823288
-0.0746371
-0.0680401
-0.062354
-0.0573923
-0.0529836
-0.0489834
-0.0452768
-0.0417788
-0.0384294
-0.0351899
-0.0320367
-0.0289583
-0.0259511
-0.0230178
-0.0201627
-0.0173902
-0.0147093
-0.0121262
-0.00964921
-0.0072589
-0.00501628
-0.00268775
-0.00129952
-0.24873
-0.241278
-0.243863
-0.246517
-0.247837
-0.248934
-0.249892
-0.250221
-0.249561
-0.247659
-0.244181
-0.238705
-0.230862
-0.220475
-0.207634
-0.192697
-0.176237
-0.158941
-0.141512
-0.124608
-0.108789
-0.0944713
-0.0818983
-0.0711485
-0.0621652
-0.0547927
-0.0488113
-0.0439712
-0.0400231
-0.0367392
-0.0339252
-0.0314252
-0.0291209
-0.0269276
-0.0247889
-0.0226704
-0.0205549
-0.0184371
-0.01632
-0.0142117
-0.0121241
-0.010066
-0.00805225
-0.00606118
-0.00418789
-0.00210173
-0.00133426
-0.255199
-0.245474
-0.245476
-0.246988
-0.248496
-0.25009
-0.251542
-0.252508
-0.252707
-0.251811
-0.249355
-0.244787
-0.2376
-0.227474
-0.214366
-0.198573
-0.180694
-0.161502
-0.141822
-0.122462
-0.104152
-0.0874645
-0.0727734
-0.0602539
-0.0499169
-0.0416403
-0.0351986
-0.030306
-0.0266566
-0.0239545
-0.0219339
-0.0203706
-0.0190855
-0.0179434
-0.016848
-0.0157358
-0.0145694
-0.0133313
-0.0120188
-0.0106389
-0.00920555
-0.00773321
-0.00624412
-0.0047295
-0.00328217
-0.00161904
-0.00109594
-0.245366
-0.243933
-0.244825
-0.246722
-0.248752
-0.250596
-0.252097
-0.253105
-0.253437
-0.252787
-0.250666
-0.246474
-0.239622
-0.229695
-0.216548
-0.200411
-0.181872
-0.161708
-0.140779
-0.119972
-0.10012
-0.0819079
-0.0658019
-0.0520442
-0.0407088
-0.0317213
-0.0248715
-0.0198633
-0.0163619
-0.01403
-0.0125537
-0.0116602
-0.0111248
-0.0107728
-0.0104749
-0.0101425
-0.00971973
-0.0091774
-0.00850609
-0.00771072
-0.00680636
-0.00581302
-0.0047577
-0.0036546
-0.00256176
-0.00138213
-0.000641451
-0.239777
-0.240699
-0.242664
-0.245046
-0.247397
-0.249444
-0.251053
-0.252119
-0.252473
-0.251815
-0.249672
-0.245456
-0.238573
-0.228594
-0.215314
-0.198957
-0.180165
-0.159691
-0.138368
-0.117085
-0.0966979
-0.0779265
-0.0612792
-0.0470377
-0.0353118
-0.0260476
-0.0190472
-0.0140182
-0.01062
-0.00849916
-0.00732173
-0.00679207
-0.00666399
-0.00674231
-0.00688112
-0.00697772
-0.00696635
-0.00681066
-0.0064973
-0.00602977
-0.00542366
-0.00470291
-0.00389611
-0.00304113
-0.00215115
-0.0013527
-0.000172389
-0.236673
-0.237986
-0.240246
-0.242877
-0.245445
-0.247656
-0.249338
-0.250358
-0.250553
-0.249663
-0.247298
-0.242945
-0.236049
-0.226147
-0.213015
-0.196807
-0.178065
-0.157574
-0.136219
-0.114919
-0.0945597
-0.0758669
-0.0592126
-0.044882
-0.0331173
-0.0238525
-0.0168797
-0.0119087
-0.00859668
-0.00658629
-0.00553753
-0.00514941
-0.00516983
-0.00539892
-0.00568632
-0.0059262
-0.0060503
-0.00602086
-0.00582373
-0.00546248
-0.00495312
-0.00432162
-0.00359661
-0.00282919
-0.00200464
-0.00138435
0.000100347
-0.236671
-0.237984
-0.240243
-0.242868
-0.245429
-0.247637
-0.249321
-0.25035
-0.250555
-0.249674
-0.247312
-0.242958
-0.236059
-0.226151
-0.213012
-0.196799
-0.178056
-0.157566
-0.136214
-0.114918
-0.0945621
-0.0758713
-0.0592177
-0.0448879
-0.0331247
-0.0238602
-0.0168874
-0.011916
-0.00860363
-0.00659275
-0.00554355
-0.00515486
-0.00517472
-0.0054032
-0.00569003
-0.00592939
-0.00605306
-0.00602326
-0.00582586
-0.0054644
-0.00495487
-0.0043232
-0.00359818
-0.00283056
-0.00200605
-0.00138627
0.000100878
-0.239774
-0.240694
-0.242658
-0.24503
-0.247367
-0.249406
-0.25102
-0.252103
-0.252476
-0.251832
-0.249693
-0.245475
-0.238587
-0.228599
-0.21531
-0.198947
-0.180155
-0.159684
-0.138367
-0.117092
-0.0967113
-0.077945
-0.0613006
-0.0470615
-0.0353379
-0.0260747
-0.0190738
-0.0140441
-0.010645
-0.0085234
-0.00734499
-0.00681424
-0.00668474
-0.00676153
-0.00689865
-0.00699364
-0.00698069
-0.00682359
-0.00650892
-0.00604021
-0.00543293
-0.00471111
-0.00390317
-0.00304747
-0.00215633
-0.00135831
-0.000172002
-0.245368
-0.243938
-0.244824
-0.246706
-0.24872
-0.250556
-0.252062
-0.253084
-0.253434
-0.252798
-0.250682
-0.24649
-0.239634
-0.2297
-0.216546
-0.200405
-0.181868
-0.161711
-0.140792
-0.119995
-0.100154
-0.0819505
-0.0658508
-0.0520971
-0.0407639
-0.0317762
-0.0249251
-0.0199151
-0.016412
-0.0140783
-0.0126001
-0.0117042
-0.0111662
-0.010811
-0.0105099
-0.0101742
-0.00974831
-0.00920291
-0.00852875
-0.00773062
-0.00682359
-0.00582755
-0.00476974
-0.00366419
-0.00256902
-0.00138815
-0.000641819
-0.255207
-0.245486
-0.24548
-0.246978
-0.248473
-0.250059
-0.251514
-0.252492
-0.252706
-0.25182
-0.249366
-0.244796
-0.237605
-0.227472
-0.214359
-0.198563
-0.180687
-0.161504
-0.141835
-0.12249
-0.104194
-0.0875181
-0.0728348
-0.0603195
-0.0499842
-0.0417071
-0.0352641
-0.0303696
-0.0267182
-0.0240139
-0.0219909
-0.0204246
-0.0191362
-0.0179906
-0.0168915
-0.0157754
-0.0146052
-0.0133633
-0.0120472
-0.0106637
-0.00922665
-0.00775063
-0.00625803
-0.00473964
-0.00328892
-0.00162203
-0.00109827
-0.248749
-0.241293
-0.243863
-0.246507
-0.24782
-0.24891
-0.24987
-0.25021
-0.249562
-0.247666
-0.244184
-0.238704
-0.230857
-0.220467
-0.207623
-0.192683
-0.176224
-0.158933
-0.141513
-0.124622
-0.108817
-0.0945104
-0.081945
-0.0711999
-0.0622184
-0.0548464
-0.0488638
-0.0440223
-0.0400721
-0.0367863
-0.03397
-0.0314678
-0.0291608
-0.026965
-0.0248234
-0.0227022
-0.0205837
-0.0184631
-0.016343
-0.0142317
-0.0121407
-0.0100795
-0.0080626
-0.0060684
-0.00419185
-0.00210013
-0.00133971
-0.227546
-0.227796
-0.230918
-0.233657
-0.235364
-0.236737
-0.237773
-0.237986
-0.237023
-0.234701
-0.230815
-0.225111
-0.217391
-0.207629
-0.196007
-0.182897
-0.168801
-0.154274
-0.139861
-0.126039
-0.113189
-0.101564
-0.0912837
-0.0823462
-0.0746564
-0.0680597
-0.0623731
-0.0574103
-0.0530007
-0.0489996
-0.0452924
-0.0417938
-0.0384439
-0.0352038
-0.0320501
-0.0289712
-0.0259633
-0.0230291
-0.0201736
-0.0174005
-0.0147179
-0.0121325
-0.00965298
-0.00725961
-0.00501551
-0.00268122
-0.00130735
-0.171788
-0.183576
-0.193802
-0.202561
-0.209378
-0.214373
-0.217725
-0.219431
-0.219456
-0.217792
-0.214414
-0.209276
-0.202387
-0.193865
-0.183961
-0.17303
-0.161483
-0.149741
-0.13819
-0.127146
-0.116838
-0.107397
-0.0988604
-0.091189
-0.0842936
-0.0780575
-0.0723611
-0.0670921
-0.0621587
-0.0574874
-0.0530269
-0.0487405
-0.0446066
-0.0406111
-0.0367481
-0.0330143
-0.0294087
-0.0259347
-0.0226013
-0.019411
-0.0163623
-0.0134511
-0.0106808
-0.00804266
-0.00556173
-0.00315244
-0.00112582
-0.130991
-0.151296
-0.167604
-0.180606
-0.19044
-0.197444
-0.20207
-0.204613
-0.205222
-0.203996
-0.201036
-0.196456
-0.190404
-0.183084
-0.17475
-0.165693
-0.156214
-0.1466
-0.137101
-0.127914
-0.119176
-0.110964
-0.103296
-0.0961547
-0.0894909
-0.0832471
-0.0773636
-0.0717875
-0.0664744
-0.0613909
-0.0565116
-0.0518201
-0.0473045
-0.0429577
-0.0387751
-0.0347572
-0.030905
-0.0272148
-0.0236811
-0.0203049
-0.0170871
-0.0140277
-0.0111271
-0.00838292
-0.00579554
-0.00337418
-0.0009894
-0.105361
-0.129828
-0.1489
-0.163723
-0.175011
-0.183328
-0.18914
-0.192758
-0.194372
-0.194131
-0.192194
-0.188726
-0.183905
-0.177918
-0.170964
-0.163258
-0.15502
-0.146472
-0.137826
-0.129274
-0.120965
-0.113005
-0.105448
-0.0983068
-0.0915637
-0.0851855
-0.079134
-0.0733732
-0.0678727
-0.0626085
-0.0575621
-0.0527203
-0.0480733
-0.0436149
-0.0393372
-0.0352324
-0.0312983
-0.0275342
-0.0239384
-0.02051
-0.017248
-0.0141512
-0.0112177
-0.00844558
-0.00582976
-0.00338885
-0.000965177
-0.0909754
-0.11691
-0.138144
-0.155165
-0.168423
-0.1784
-0.185537
-0.190192
-0.192644
-0.193124
-0.191837
-0.188969
-0.184695
-0.179191
-0.17264
-0.165237
-0.157192
-0.148722
-0.140045
-0.131364
-0.122854
-0.114647
-0.106829
-0.099436
-0.0924692
-0.0859033
-0.0797009
-0.0738218
-0.0682295
-0.0628935
-0.05779
-0.0529013
-0.0482147
-0.0437211
-0.0394126
-0.0352821
-0.0313264
-0.027544
-0.0239336
-0.0204932
-0.0172212
-0.0141158
-0.0111751
-0.00839627
-0.00577523
-0.0033089
-0.000961341
)
;

boundaryField
{
    inlet
    {
        type            zeroGradient;
    }
    outlet
    {
        type            fixedValue;
        value           uniform 0;
    }
    upperWall
    {
        type            zeroGradient;
    }
    lowerWall
    {
        type            zeroGradient;
    }
    frontAndBack
    {
        type            empty;
    }
}


// ************************************************************************* //
