/*--------------------------------*- C++ -*----------------------------------*\
| =========                 |                                                 |
| \\      /  F ield         | OpenFOAM: The Open Source CFD Toolbox           |
|  \\    /   O peration     | Version:  2406                                  |
|   \\  /    A nd           | Website:  www.openfoam.com                      |
|    \\/     M anipulation  |                                                 |
\*---------------------------------------------------------------------------*/
FoamFile
{
    version     2.0;
    format      ascii;
    arch        "LSB;label=32;scalar=64";
    class       volVectorField;
    location    "61";
    object      U;
}
// * * * * * * * * * * * * * * * * * * * * * * * * * * * * * * * * * * * * * //

dimensions      [0 1 -1 0 0 0 0];

internalField   nonuniform List<vector> 
1964
(
(0.100064 -0.00169773 0)
(0.102136 -0.00234955 0)
(0.104541 -0.00180249 0)
(0.107115 -0.00122056 0)
(0.109191 -0.000833859 0)
(0.110759 -0.000579346 0)
(0.111996 -0.000407659 0)
(0.113001 -0.000295176 0)
(0.113824 -0.000222699 0)
(0.114505 -0.000174857 0)
(0.115078 -0.000142108 0)
(0.11557 -0.000119444 0)
(0.115997 -0.000103811 0)
(0.116374 -9.28905e-05 0)
(0.116712 -8.48186e-05 0)
(0.117021 -7.86988e-05 0)
(0.117307 -7.44692e-05 0)
(0.117577 -7.26853e-05 0)
(0.117838 -7.38167e-05 0)
(0.118097 -7.82084e-05 0)
(0.11836 -8.59383e-05 0)
(0.118638 -9.73445e-05 0)
(0.118941 -0.000113084 0)
(0.119282 -0.000134586 0)
(0.119678 -0.000163893 0)
(0.120152 -0.000203951 0)
(0.120731 -0.000258458 0)
(0.121455 -0.000332312 0)
(0.122372 -0.000431755 0)
(0.12355 -0.00056519 0)
(0.125076 -0.000743758 0)
(0.127069 -0.000982622 0)
(0.129686 -0.00130213 0)
(0.133136 -0.00172963 0)
(0.137696 -0.00230128 0)
(0.143735 -0.00306415 0)
(0.151735 -0.00407784 0)
(0.162324 -0.00541471 0)
(0.176294 -0.00715718 0)
(0.194624 -0.00938915 0)
(0.218468 -0.0121785 0)
(0.249095 -0.0155431 0)
(0.287774 -0.0194098 0)
(0.335483 -0.0235055 0)
(0.392628 -0.02736 0)
(0.458379 -0.0300451 0)
(0.530199 -0.0306028 0)
(0.276768 -0.00172795 0)
(0.275813 -0.00328599 0)
(0.275478 -0.00340753 0)
(0.275774 -0.00307005 0)
(0.276449 -0.00265873 0)
(0.277276 -0.00224908 0)
(0.278145 -0.00187527 0)
(0.279003 -0.00156073 0)
(0.279821 -0.00130782 0)
(0.280585 -0.00110733 0)
(0.28129 -0.000948332 0)
(0.281938 -0.00082195 0)
(0.282533 -0.000721535 0)
(0.283081 -0.000642292 0)
(0.283588 -0.000580355 0)
(0.284063 -0.00053281 0)
(0.28451 -0.000497607 0)
(0.284938 -0.000473985 0)
(0.285353 -0.000462036 0)
(0.285765 -0.000462845 0)
(0.286182 -0.000478032 0)
(0.286616 -0.000510239 0)
(0.287082 -0.00056303 0)
(0.287597 -0.000641718 0)
(0.288184 -0.000753456 0)
(0.288871 -0.000908288 0)
(0.289698 -0.00111949 0)
(0.290714 -0.00140508 0)
(0.291984 -0.00178877 0)
(0.293594 -0.00230236 0)
(0.295656 -0.00298776 0)
(0.29832 -0.00390079 0)
(0.301777 -0.00511479 0)
(0.306283 -0.00672619 0)
(0.312168 -0.00885964 0)
(0.319856 -0.0116743 0)
(0.329893 -0.0153675 0)
(0.342967 -0.0201755 0)
(0.359931 -0.0263638 0)
(0.381818 -0.0342035 0)
(0.409842 -0.0439206 0)
(0.445356 -0.0556117 0)
(0.489811 -0.0691278 0)
(0.54443 -0.083808 0)
(0.610255 -0.0985426 0)
(0.686925 -0.110681 0)
(0.772332 -0.117422 0)
(0.436982 -0.000933745 0)
(0.436411 -0.00204866 0)
(0.435772 -0.00242823 0)
(0.435165 -0.00248045 0)
(0.434788 -0.00242324 0)
(0.43464 -0.00229957 0)
(0.434646 -0.002131 0)
(0.434756 -0.00194759 0)
(0.434937 -0.0017701 0)
(0.435168 -0.00160702 0)
(0.43543 -0.00146056 0)
(0.435711 -0.0013309 0)
(0.436001 -0.001218 0)
(0.436295 -0.00112188 0)
(0.43659 -0.00104221 0)
(0.436886 -0.000978297 0)
(0.437184 -0.000929627 0)
(0.437483 -0.000896551 0)
(0.437788 -0.00088057 0)
(0.438103 -0.000884391 0)
(0.438433 -0.00091183 0)
(0.438788 -0.000968031 0)
(0.439177 -0.00105983 0)
(0.439615 -0.00119655 0)
(0.440121 -0.00139082 0)
(0.44072 -0.00165981 0)
(0.441443 -0.00202656 0)
(0.442332 -0.00252185 0)
(0.443444 -0.0031865 0)
(0.444851 -0.00407452 0)
(0.44665 -0.00525711 0)
(0.448965 -0.00682786 0)
(0.45196 -0.00890928 0)
(0.45585 -0.0116607 0)
(0.460912 -0.0152871 0)
(0.467505 -0.0200488 0)
(0.476093 -0.026269 0)
(0.487272 -0.034337 0)
(0.5018 -0.0446987 0)
(0.52064 -0.0578289 0)
(0.544996 -0.0741539 0)
(0.576327 -0.0939498 0)
(0.616434 -0.117086 0)
(0.667021 -0.142741 0)
(0.730773 -0.16937 0)
(0.807644 -0.19228 0)
(0.898424 -0.208094 0)
(0.577125 -0.000531331 0)
(0.576866 -0.00135131 0)
(0.576471 -0.00180124 0)
(0.575907 -0.00199121 0)
(0.575404 -0.00204949 0)
(0.575037 -0.00202822 0)
(0.57477 -0.00195123 0)
(0.574568 -0.00184358 0)
(0.57442 -0.00172623 0)
(0.574318 -0.00161094 0)
(0.574256 -0.00150288 0)
(0.574224 -0.00140415 0)
(0.574217 -0.00131626 0)
(0.574229 -0.00124066 0)
(0.574259 -0.0011786 0)
(0.574306 -0.00113067 0)
(0.574368 -0.00109753 0)
(0.574446 -0.00108039 0)
(0.57454 -0.00108194 0)
(0.574652 -0.00110616 0)
(0.574784 -0.00115878 0)
(0.574942 -0.00124711 0)
(0.575132 -0.00138097 0)
(0.575363 -0.00157309 0)
(0.575648 -0.00184073 0)
(0.576001 -0.00220672 0)
(0.576444 -0.00270182 0)
(0.577005 -0.00336662 0)
(0.577721 -0.00425516 0)
(0.578639 -0.00543841 0)
(0.579825 -0.00701007 0)
(0.581362 -0.0090927 0)
(0.583361 -0.0118468 0)
(0.585968 -0.0154808 0)
(0.589374 -0.0202641 0)
(0.593834 -0.0265409 0)
(0.599689 -0.0347454 0)
(0.607399 -0.0454148 0)
(0.617589 -0.0591928 0)
(0.631131 -0.0768228 0)
(0.649217 -0.0990702 0)
(0.673546 -0.126661 0)
(0.706346 -0.159779 0)
(0.750424 -0.198031 0)
(0.810469 -0.23905 0)
(0.886389 -0.275384 0)
(0.990201 -0.305914 0)
(0.697196 -0.000344648 0)
(0.697072 -0.000942514 0)
(0.696855 -0.00134187 0)
(0.696427 -0.00155369 0)
(0.695975 -0.00164895 0)
(0.6956 -0.0016735 0)
(0.695289 -0.00164815 0)
(0.695015 -0.00159009 0)
(0.694773 -0.00151565 0)
(0.694562 -0.00143636 0)
(0.694381 -0.00135846 0)
(0.694224 -0.00128523 0)
(0.694087 -0.00121907 0)
(0.693965 -0.00116242 0)
(0.693858 -0.00111736 0)
(0.693765 -0.00108549 0)
(0.693687 -0.00106807 0)
(0.693621 -0.00106704 0)
(0.693568 -0.00108549 0)
(0.693527 -0.00112821 0)
(0.6935 -0.00120173 0)
(0.693487 -0.00131471 0)
(0.693493 -0.00147841 0)
(0.693521 -0.0017077 0)
(0.693574 -0.00202221 0)
(0.69366 -0.0024482 0)
(0.693787 -0.00302045 0)
(0.693965 -0.00378529 0)
(0.69421 -0.00480378 0)
(0.69454 -0.00615669 0)
(0.694982 -0.00795011 0)
(0.69557 -0.0103236 0)
(0.696351 -0.0134598 0)
(0.697388 -0.0175979 0)
(0.698768 -0.023049 0)
(0.700613 -0.0302174 0)
(0.703102 -0.0396247 0)
(0.706504 -0.0519401 0)
(0.711224 -0.0680127 0)
(0.717932 -0.0889106 0)
(0.72764 -0.115918 0)
(0.742257 -0.150593 0)
(0.764137 -0.194297 0)
(0.799129 -0.248468 0)
(0.851146 -0.311703 0)
(0.930955 -0.374578 0)
(1.05886 -0.448098 0)
(0.797237 -0.000235482 0)
(0.797178 -0.00066353 0)
(0.797062 -0.000983263 0)
(0.796732 -0.0011808 0)
(0.796337 -0.00128863 0)
(0.795983 -0.00133694 0)
(0.795671 -0.00134166 0)
(0.795381 -0.00131499 0)
(0.795111 -0.00126945 0)
(0.794862 -0.00121525 0)
(0.794637 -0.00115886 0)
(0.794431 -0.00110409 0)
(0.794241 -0.00105385 0)
(0.794064 -0.00101093 0)
(0.793897 -0.000977885 0)
(0.793741 -0.000956737 0)
(0.793595 -0.000949205 0)
(0.793458 -0.000957479 0)
(0.793326 -0.000984825 0)
(0.793197 -0.00103614 0)
(0.793072 -0.00111809 0)
(0.792947 -0.00123956 0)
(0.792821 -0.00141208 0)
(0.792693 -0.00165086 0)
(0.792558 -0.00197594 0)
(0.792415 -0.00241399 0)
(0.792256 -0.00300036 0)
(0.792075 -0.00378198 0)
(0.791864 -0.00482087 0)
(0.791612 -0.00619898 0)
(0.791304 -0.00802426 0)
(0.790921 -0.010439 0)
(0.790443 -0.0136306 0)
(0.78984 -0.0178458 0)
(0.789083 -0.0234095 0)
(0.788141 -0.0307504 0)
(0.786995 -0.0404349 0)
(0.785654 -0.0532142 0)
(0.784193 -0.07009 0)
(0.782865 -0.0924088 0)
(0.782135 -0.121997 0)
(0.783495 -0.161375 0)
(0.788388 -0.213997 0)
(0.805902 -0.284597 0)
(0.833793 -0.379661 0)
(0.924609 -0.495172 0)
(1.04156 -0.68971 0)
(0.877263 -0.000161566 0)
(0.877235 -0.000462436 0)
(0.877175 -0.000703269 0)
(0.876911 -0.000867419 0)
(0.876562 -0.000966934 0)
(0.876231 -0.00101928 0)
(0.875926 -0.00103612 0)
(0.875633 -0.00102664 0)
(0.87535 -0.00100015 0)
(0.875082 -0.000964696 0)
(0.874832 -0.000925768 0)
(0.8746 -0.000886821 0)
(0.874381 -0.000850568 0)
(0.874171 -0.000819622 0)
(0.873971 -0.00079648 0)
(0.873779 -0.0007832 0)
(0.873594 -0.000781642 0)
(0.873414 -0.000793935 0)
(0.873234 -0.000823193 0)
(0.87305 -0.000873852 0)
(0.872859 -0.000952063 0)
(0.872655 -0.0010659 0)
(0.872434 -0.00122597 0)
(0.872186 -0.00144614 0)
(0.871902 -0.00174476 0)
(0.871569 -0.00214608 0)
(0.871167 -0.00268236 0)
(0.870675 -0.00339626 0)
(0.870059 -0.00434434 0)
(0.869281 -0.00560127 0)
(0.868286 -0.00726581 0)
(0.867007 -0.00946839 0)
(0.865352 -0.0123817 0)
(0.863205 -0.0162347 0)
(0.860415 -0.0213322 0)
(0.856793 -0.0280813 0)
(0.8521 -0.0370307 0)
(0.846048 -0.0489257 0)
(0.838291 -0.0647942 0)
(0.828471 -0.0860724 0)
(0.816158 -0.114838 0)
(0.801359 -0.154097 0)
(0.783268 -0.208735 0)
(0.767252 -0.285782 0)
(0.743967 -0.400609 0)
(0.794576 -0.566584 0)
(0.750972 -0.896421 0)
(0.937279 -0.0001061 0)
(0.937268 -0.000306372 0)
(0.937238 -0.000473155 0)
(0.937016 -0.000593649 0)
(0.9367 -0.000671418 0)
(0.936388 -0.000715819 0)
(0.936092 -0.000734462 0)
(0.935799 -0.000733716 0)
(0.93551 -0.000719923 0)
(0.93523 -0.000698648 0)
(0.934965 -0.00067388 0)
(0.934714 -0.000648299 0)
(0.934476 -0.000624083 0)
(0.934245 -0.00060338 0)
(0.934022 -0.000588258 0)
(0.933805 -0.000580514 0)
(0.933594 -0.00058176 0)
(0.933383 -0.000593819 0)
(0.933169 -0.000619199 0)
(0.932946 -0.000661468 0)
(0.932707 -0.000725512 0)
(0.932444 -0.000817808 0)
(0.932149 -0.000946833 0)
(0.93181 -0.0011237 0)
(0.931408 -0.00136306 0)
(0.930924 -0.00168431 0)
(0.930326 -0.00211318 0)
(0.929579 -0.00268376 0)
(0.928631 -0.00344121 0)
(0.927418 -0.00444528 0)
(0.925852 -0.00577507 0)
(0.923821 -0.00753548 0)
(0.921176 -0.00986584 0)
(0.91772 -0.012952 0)
(0.913197 -0.0170432 0)
(0.907267 -0.0224758 0)
(0.89949 -0.0297087 0)
(0.889283 -0.0393744 0)
(0.875884 -0.05236 0)
(0.858293 -0.0699247 0)
(0.835143 -0.093917 0)
(0.804693 -0.127017 0)
(0.763926 -0.173564 0)
(0.709958 -0.239549 0)
(0.629341 -0.338308 0)
(0.530399 -0.491587 0)
(0.203271 -0.713432 0)
(0.977288 -6.04457e-05 0)
(0.977285 -0.000175354 0)
(0.977272 -0.000273127 0)
(0.977074 -0.000346148 0)
(0.97678 -0.00039511 0)
(0.976481 -0.000424473 0)
(0.976191 -0.000438309 0)
(0.9759 -0.000440263 0)
(0.975607 -0.000434002 0)
(0.975321 -0.000422776 0)
(0.975047 -0.000409011 0)
(0.974786 -0.000394441 0)
(0.974535 -0.000380511 0)
(0.97429 -0.000368636 0)
(0.974052 -0.000360172 0)
(0.973819 -0.000356313 0)
(0.973589 -0.000358132 0)
(0.973359 -0.000366826 0)
(0.973122 -0.00038401 0)
(0.972871 -0.000411972 0)
(0.972599 -0.000453852 0)
(0.972296 -0.000513825 0)
(0.97195 -0.000597365 0)
(0.971545 -0.000711651 0)
(0.971061 -0.000866137 0)
(0.970469 -0.00107333 0)
(0.969733 -0.00134982 0)
(0.968804 -0.00171757 0)
(0.967618 -0.00220568 0)
(0.966092 -0.00285271 0)
(0.964116 -0.00370977 0)
(0.961543 -0.00484475 0)
(0.958181 -0.00634812 0)
(0.953775 -0.00834098 0)
(0.947986 -0.0109865 0)
(0.940365 -0.0145061 0)
(0.93031 -0.0192039 0)
(0.917014 -0.0255018 0)
(0.899384 -0.0339944 0)
(0.875932 -0.0455278 0)
(0.844585 -0.0613303 0)
(0.802481 -0.083157 0)
(0.745391 -0.113629 0)
(0.667728 -0.156032 0)
(0.559678 -0.215565 0)
(0.412673 -0.292327 0)
(0.173427 -0.363754 0)
(0.997293 -1.96329e-05 0)
(0.997293 -5.71066e-05 0)
(0.997288 -8.92803e-05 0)
(0.997101 -0.000113666 0)
(0.996817 -0.000130296 0)
(0.996525 -0.000140481 0)
(0.996238 -0.000145483 0)
(0.995948 -0.000146482 0)
(0.995654 -0.000144672 0)
(0.995365 -0.000141118 8.56605e-35)
(0.995086 -0.00013665 0)
(0.99482 -0.000131892 0)
(0.994563 -0.000127355 0)
(0.994312 -0.000123516 0)
(0.994066 -0.000120829 0)
(0.993824 -0.000119701 8.51967e-35)
(0.993585 -0.000120511 0)
(0.993345 -0.000123676 0)
(0.993096 -0.000129751 0)
(0.992831 -0.000139521 0)
(0.992542 -0.000154068 0)
(0.992218 -0.000174832 0)
(0.991846 -0.000203707 0)
(0.991408 -0.000243177 -8.46604e-35)
(0.99088 -0.000296512 0)
(0.990233 -0.000368035 0)
(0.989424 -0.000463469 0)
(0.9884 -0.000590401 0)
(0.987091 -0.000758876 0)
(0.985402 -0.000982211 0)
(0.98321 -0.00127807 0)
(0.980353 -0.00166994 0)
(0.976615 -0.00218917 0)
(0.971709 -0.00287779 0)
(0.965254 -0.00379255 0)
(0.956739 -0.00501071 0)
(0.945478 -0.00663856 0)
(0.930542 -0.00882398 0)
(0.910664 -0.0117753 0)
(0.884103 -0.0157884 0)
(0.848434 -0.0212879 0)
(0.800306 -0.0288726 -1.33528e-34)
(0.734949 -0.0393884 0)
(0.646223 -0.053888 0)
(0.524848 -0.0735936 0)
(0.366289 -0.0988239 0)
(0.138619 -0.115567 0)
(0.997293 1.97181e-05 0)
(0.997293 5.72075e-05 0)
(0.997288 8.94973e-05 0)
(0.997101 0.000114006 0)
(0.996817 0.000130761 0)
(0.996525 0.000141082 0)
(0.996238 0.000146198 0)
(0.995948 0.000147271 0)
(0.995654 0.00014554 0)
(0.995365 0.000142113 -8.56604e-35)
(0.995086 0.000137783 0)
(0.99482 0.00013311 0)
(0.994563 0.000128599 0)
(0.994312 0.000124774 0)
(0.994066 0.000122128 0)
(0.993824 0.00012107 -8.51967e-35)
(0.993586 0.000121953 0)
(0.993345 0.000125172 0)
(0.993096 0.000131281 0)
(0.992831 0.00014107 0)
(0.992542 0.000155632 0)
(0.992218 0.000176414 0)
(0.991846 0.000205311 0)
(0.991408 0.000244807 8.46603e-35)
(0.990881 0.000298165 0)
(0.990233 0.000369702 0)
(0.989424 0.000465141 0)
(0.988401 0.000592062 0)
(0.987091 0.000760514 0)
(0.985402 0.000983814 0)
(0.98321 0.00127963 0)
(0.980354 0.00167145 0)
(0.976616 0.00219063 0)
(0.97171 0.00287921 0)
(0.965255 0.00379392 0)
(0.95674 0.00501204 0)
(0.945478 0.00663983 0)
(0.930543 0.00882516 0)
(0.910665 0.0117763 0)
(0.884103 0.0157894 0)
(0.848434 0.0212888 0)
(0.800306 0.0288736 1.33528e-34)
(0.73495 0.0393894 0)
(0.646224 0.0538893 0)
(0.524848 0.0735942 0)
(0.366291 0.0988253 0)
(0.138618 0.115567 0)
(0.977288 6.05301e-05 0)
(0.977285 0.000175454 0)
(0.977272 0.000273342 0)
(0.977074 0.000346482 0)
(0.97678 0.000395569 0)
(0.976481 0.00042507 0)
(0.976191 0.000439018 0)
(0.9759 0.000441029 0)
(0.975607 0.000434831 0)
(0.975321 0.000423728 0)
(0.975047 0.000410106 0)
(0.974786 0.000395633 0)
(0.974535 0.00038175 0)
(0.974291 0.000369915 0)
(0.974052 0.000361515 0)
(0.973819 0.000357735 0)
(0.973589 0.000359623 0)
(0.973359 0.000368357 0)
(0.973122 0.000385552 0)
(0.972871 0.000413508 0)
(0.972599 0.000455376 0)
(0.972296 0.000515344 0)
(0.97195 0.000598888 0)
(0.971546 0.000713187 0)
(0.971062 0.000867691 0)
(0.97047 0.00107491 0)
(0.969734 0.00135141 0)
(0.968805 0.00171916 0)
(0.967619 0.00220726 0)
(0.966094 0.00285427 0)
(0.964117 0.00371129 0)
(0.961544 0.00484624 0)
(0.958183 0.00634957 0)
(0.953776 0.00834239 0)
(0.947988 0.0109878 0)
(0.940366 0.0145074 0)
(0.930311 0.0192052 0)
(0.917015 0.025503 0)
(0.899386 0.0339955 0)
(0.875934 0.0455288 0)
(0.844587 0.0613313 0)
(0.802483 0.083158 0)
(0.745393 0.11363 0)
(0.66773 0.156033 0)
(0.559681 0.215566 0)
(0.412675 0.292329 0)
(0.173428 0.363754 0)
(0.937279 0.000106184 0)
(0.937268 0.00030647 0)
(0.937238 0.000473368 0)
(0.937016 0.000593976 0)
(0.9367 0.000671865 0)
(0.936388 0.000716405 0)
(0.936092 0.000735163 0)
(0.935799 0.000734473 0)
(0.93551 0.000720736 0)
(0.93523 0.000699567 0)
(0.934965 0.000674911 0)
(0.934715 0.000649391 0)
(0.934476 0.000625196 0)
(0.934246 0.000604524 0)
(0.934022 0.000589467 0)
(0.933806 0.000581809 0)
(0.933594 0.000583133 0)
(0.933384 0.000595248 0)
(0.93317 0.00062066 0)
(0.932947 0.000662943 0)
(0.932707 0.000726991 0)
(0.932445 0.00081929 0)
(0.93215 0.000948317 0)
(0.931811 0.00112519 0)
(0.93141 0.00136456 0)
(0.930925 0.00168582 0)
(0.930328 0.00211469 0)
(0.929581 0.00268527 0)
(0.928633 0.00344271 0)
(0.927419 0.00444675 0)
(0.925854 0.00577653 0)
(0.923823 0.00753691 0)
(0.921178 0.00986724 0)
(0.917722 0.0129534 0)
(0.913199 0.0170445 0)
(0.90727 0.0224771 0)
(0.899492 0.02971 0)
(0.889286 0.0393756 0)
(0.875887 0.052361 0)
(0.858296 0.0699257 0)
(0.835146 0.0939178 0)
(0.804697 0.127018 0)
(0.763929 0.173565 0)
(0.709961 0.23955 0)
(0.629344 0.338309 0)
(0.530402 0.491588 0)
(0.203272 0.713435 0)
(0.877263 0.000161645 0)
(0.877235 0.000462529 0)
(0.877175 0.000703468 0)
(0.876911 0.000867727 0)
(0.876562 0.000967352 0)
(0.876231 0.00101982 0)
(0.875926 0.00103678 0)
(0.875633 0.00102738 0)
(0.87535 0.00100098 0)
(0.875082 0.000965648 0)
(0.874833 0.000926823 0)
(0.8746 0.000887923 0)
(0.874381 0.000851673 0)
(0.874172 0.000820746 0)
(0.873972 0.000797636 0)
(0.87378 0.000784404 0)
(0.873595 0.000782884 0)
(0.873415 0.000795219 0)
(0.873235 0.000824508 0)
(0.873051 0.000875202 0)
(0.87286 0.000953434 0)
(0.872657 0.00106729 0)
(0.872435 0.00122737 0)
(0.872188 0.00144755 0)
(0.871904 0.00174617 0)
(0.871571 0.00214748 0)
(0.871169 0.00268374 0)
(0.870677 0.00339763 0)
(0.870061 0.00434568 0)
(0.869283 0.0056026 0)
(0.868289 0.00726711 0)
(0.867009 0.00946969 0)
(0.865355 0.012383 0)
(0.863208 0.016236 0)
(0.860419 0.0213334 0)
(0.856797 0.0280825 0)
(0.852104 0.0370319 0)
(0.846051 0.0489268 0)
(0.838295 0.0647953 0)
(0.828475 0.0860734 0)
(0.816162 0.114838 0)
(0.801364 0.154097 0)
(0.783273 0.208736 0)
(0.767257 0.285783 0)
(0.743972 0.400611 0)
(0.794583 0.566587 0)
(0.750979 0.896423 0)
(0.797237 0.000235556 0)
(0.797178 0.000663618 0)
(0.797062 0.000983452 0)
(0.796732 0.0011811 0)
(0.796337 0.00128903 0)
(0.795983 0.00133743 0)
(0.795671 0.00134223 0)
(0.795381 0.00131562 0)
(0.795111 0.00127015 0)
(0.794863 0.00121604 0)
(0.794637 0.00115973 0)
(0.794431 0.00110503 0)
(0.794242 0.00105485 0)
(0.794064 0.00101199 0)
(0.793898 0.000978998 0)
(0.793742 0.000957865 0)
(0.793596 0.000950342 0)
(0.793459 0.000958612 0)
(0.793327 0.000985982 0)
(0.793199 0.00103732 0)
(0.793073 0.00111931 0)
(0.792948 0.0012408 0)
(0.792823 0.00141335 0)
(0.792694 0.00165213 0)
(0.79256 0.00197721 0)
(0.792417 0.00241523 0)
(0.792258 0.00300158 0)
(0.792078 0.00378317 0)
(0.791867 0.00482205 0)
(0.791615 0.00620014 0)
(0.791307 0.00802543 0)
(0.790925 0.0104402 0)
(0.790446 0.0136318 0)
(0.789844 0.017847 0)
(0.789087 0.0234107 0)
(0.788146 0.0307516 0)
(0.786999 0.040436 0)
(0.785659 0.0532153 0)
(0.784198 0.070091 0)
(0.78287 0.0924098 0)
(0.782141 0.121998 0)
(0.783501 0.161376 0)
(0.788394 0.213997 0)
(0.805909 0.284598 0)
(0.833801 0.379662 0)
(0.924615 0.495173 0)
(1.04156 0.68971 0)
(0.697196 0.000344713 0)
(0.697072 0.000942596 0)
(0.696855 0.00134204 0)
(0.696427 0.00155398 0)
(0.695975 0.00164934 0)
(0.6956 0.00167398 0)
(0.695288 0.00164874 0)
(0.695014 0.00159076 0)
(0.694773 0.00151638 0)
(0.694562 0.0014371 0)
(0.694381 0.00135919 0)
(0.694224 0.001286 0)
(0.694087 0.00121994 0)
(0.693965 0.00116338 0)
(0.693859 0.00111837 0)
(0.693766 0.00108649 0)
(0.693688 0.00106906 0)
(0.693622 0.00106801 0)
(0.693569 0.00108647 0)
(0.693529 0.00112922 0)
(0.693501 0.00120278 0)
(0.693489 0.0013158 0)
(0.693495 0.00147951 0)
(0.693523 0.00170879 0)
(0.693577 0.00202329 0)
(0.693663 0.00244924 0)
(0.69379 0.00302147 0)
(0.693968 0.00378628 0)
(0.694213 0.00480477 0)
(0.694544 0.00615768 0)
(0.694986 0.00795112 0)
(0.695574 0.0103246 0)
(0.696356 0.0134609 0)
(0.697393 0.0175989 0)
(0.698773 0.02305 0)
(0.700618 0.0302184 0)
(0.703108 0.0396257 0)
(0.706509 0.0519411 0)
(0.71123 0.0680136 0)
(0.717938 0.0889115 0)
(0.727646 0.115919 0)
(0.742264 0.150593 0)
(0.764144 0.194297 0)
(0.799136 0.248468 0)
(0.851153 0.311703 0)
(0.930963 0.374578 0)
(1.05887 0.448098 0)
(0.577125 0.000531387 0)
(0.576866 0.00135138 0)
(0.576471 0.00180138 0)
(0.575907 0.00199146 0)
(0.575404 0.0020498 0)
(0.575037 0.00202859 0)
(0.57477 0.00195169 0)
(0.574568 0.00184419 0)
(0.57442 0.00172688 0)
(0.574319 0.00161156 0)
(0.574256 0.00150346 0)
(0.574224 0.00140479 0)
(0.574217 0.001317 0)
(0.57423 0.0012415 0)
(0.57426 0.00117943 0)
(0.574307 0.00113147 0)
(0.574369 0.00109827 0)
(0.574448 0.00108116 0)
(0.574542 0.00108272 0)
(0.574653 0.00110701 0)
(0.574786 0.00115965 0)
(0.574944 0.00124803 0)
(0.575134 0.00138185 0)
(0.575366 0.00157396 0)
(0.57565 0.00184153 0)
(0.576004 0.00220751 0)
(0.576447 0.00270255 0)
(0.577008 0.00336738 0)
(0.577724 0.00425591 0)
(0.578643 0.00543922 0)
(0.579829 0.00701087 0)
(0.581366 0.00909356 0)
(0.583366 0.0118476 0)
(0.585972 0.0154817 0)
(0.589379 0.0202649 0)
(0.59384 0.0265417 0)
(0.599695 0.0347462 0)
(0.607405 0.0454156 0)
(0.617595 0.0591936 0)
(0.631138 0.0768235 0)
(0.649224 0.099071 0)
(0.673553 0.126661 0)
(0.706354 0.159779 0)
(0.750433 0.198031 0)
(0.810478 0.23905 0)
(0.886397 0.275385 0)
(0.990209 0.305914 0)
(0.436982 0.000933789 0)
(0.436411 0.00204872 0)
(0.435772 0.00242838 0)
(0.435165 0.0024807 0)
(0.434787 0.00242355 0)
(0.43464 0.0022999 0)
(0.434646 0.00213139 0)
(0.434755 0.00194811 0)
(0.434937 0.00177066 0)
(0.435168 0.00160748 0)
(0.435431 0.00146097 0)
(0.435711 0.00133141 0)
(0.436001 0.00121865 0)
(0.436295 0.00112255 0)
(0.436591 0.00104282 0)
(0.436887 0.000978821 0)
(0.437185 0.000930155 0)
(0.437484 0.000897125 0)
(0.43779 0.000881248 0)
(0.438104 0.000885121 0)
(0.438435 0.000912595 0)
(0.438789 0.000968744 0)
(0.439179 0.0010605 0)
(0.439617 0.00119713 0)
(0.440124 0.00139137 0)
(0.440722 0.00166032 0)
(0.441445 0.00202711 0)
(0.442335 0.00252242 0)
(0.443447 0.00318715 0)
(0.444855 0.0040752 0)
(0.446654 0.00525782 0)
(0.448969 0.00682856 0)
(0.451965 0.00890995 0)
(0.455855 0.0116613 0)
(0.460917 0.0152876 0)
(0.467511 0.0200493 0)
(0.476099 0.0262695 0)
(0.487277 0.0343376 0)
(0.501806 0.0446993 0)
(0.520647 0.0578296 0)
(0.545003 0.0741546 0)
(0.576334 0.0939503 0)
(0.616442 0.117086 0)
(0.667029 0.142741 0)
(0.730782 0.169369 0)
(0.807653 0.192278 0)
(0.898431 0.208092 0)
(0.276768 0.00172797 0)
(0.275813 0.003286 0)
(0.275478 0.00340763 0)
(0.275773 0.00307024 0)
(0.276448 0.002659 0)
(0.277276 0.00224936 0)
(0.278145 0.0018756 0)
(0.279003 0.00156117 0)
(0.279821 0.00130828 0)
(0.280585 0.00110766 0)
(0.28129 0.000948643 0)
(0.281938 0.000822348 0)
(0.282533 0.000722019 0)
(0.283081 0.000642721 0)
(0.283589 0.000580707 0)
(0.284063 0.000533112 0)
(0.284511 0.000497979 0)
(0.284939 0.000474428 0)
(0.285354 0.000462565 0)
(0.285766 0.000463362 0)
(0.286183 0.000478522 0)
(0.286617 0.000510632 0)
(0.287083 0.000563377 0)
(0.287598 0.000642012 0)
(0.288185 0.000753785 0)
(0.288873 0.000908638 0)
(0.289701 0.00111993 0)
(0.290717 0.00140555 0)
(0.291987 0.0017893 0)
(0.293597 0.00230286 0)
(0.29566 0.00298827 0)
(0.298323 0.00390122 0)
(0.301781 0.00511521 0)
(0.306287 0.00672654 0)
(0.312172 0.00886 0)
(0.31986 0.0116746 0)
(0.329898 0.0153679 0)
(0.342972 0.0201759 0)
(0.359936 0.0263643 0)
(0.381823 0.0342042 0)
(0.409849 0.0439212 0)
(0.445362 0.0556122 0)
(0.489819 0.0691279 0)
(0.544438 0.0838078 0)
(0.610263 0.0985417 0)
(0.686932 0.11068 0)
(0.772338 0.117419 0)
(0.100064 0.00169773 0)
(0.102136 0.00234956 0)
(0.104541 0.00180255 0)
(0.107115 0.00122066 0)
(0.109191 0.000833935 0)
(0.110758 0.000579447 0)
(0.111995 0.000407854 0)
(0.113001 0.000295299 0)
(0.113824 0.000222699 0)
(0.114505 0.000174891 0)
(0.115078 0.000142342 0)
(0.115569 0.00011972 0)
(0.115996 0.000103929 0)
(0.116374 9.27792e-05 0)
(0.116712 8.46912e-05 0)
(0.11702 7.87331e-05 0)
(0.117307 7.47644e-05 0)
(0.117577 7.31013e-05 0)
(0.117838 7.42195e-05 0)
(0.118097 7.84209e-05 0)
(0.118361 8.59687e-05 0)
(0.118639 9.72139e-05 0)
(0.118941 0.000112958 0)
(0.119282 0.000134534 0)
(0.119679 0.000164021 0)
(0.120153 0.000204214 0)
(0.120732 0.000258842 0)
(0.121456 0.000332694 0)
(0.122373 0.000432095 0)
(0.123551 0.000565397 0)
(0.125078 0.000743857 0)
(0.127071 0.000982613 0)
(0.129688 0.00130208 0)
(0.133137 0.00172958 0)
(0.137698 0.00230128 0)
(0.143737 0.00306425 0)
(0.151738 0.00407805 0)
(0.162326 0.00541508 0)
(0.176297 0.00715764 0)
(0.194628 0.00938968 0)
(0.218473 0.0121789 0)
(0.249099 0.0155434 0)
(0.28778 0.01941 0)
(0.335489 0.0235055 0)
(0.392634 0.0273601 0)
(0.458384 0.0300455 0)
(0.530203 0.0306042 0)
(0.603423 -0.0279484 0)
(0.671072 -0.0217494 0)
(0.726212 -0.0134937 0)
(0.765203 -0.00501026 0)
(0.787847 0.0028374 0)
(0.796333 0.0101711 0)
(0.861756 -0.114281 0)
(0.947319 -0.0994794 0)
(1.02145 -0.0779749 0)
(1.08084 -0.055214 0)
(1.12602 -0.0335559 0)
(1.15805 -0.0136286 0)
(0.999564 -0.205823 0)
(1.09896 -0.181265 0)
(1.18355 -0.145702 0)
(1.24948 -0.108734 0)
(1.29839 -0.0737058 0)
(1.33268 -0.0422416 0)
(1.12266 -0.305649 0)
(1.25146 -0.272041 0)
(1.34553 -0.222151 0)
(1.40317 -0.168047 0)
(1.43517 -0.115882 0)
(1.45057 -0.0701661 0)
(1.23742 -0.448603 0)
(1.35759 -0.389297 0)
(1.39019 -0.30397 0)
(1.36976 -0.214604 0)
(1.33455 -0.136768 0)
(1.30074 -0.0777065 0)
(1.22274 -0.650501 0)
(1.15206 -0.462989 0)
(0.975696 -0.282243 0)
(0.827211 -0.148121 0)
(0.726776 -0.0578738 0)
(0.661434 -0.00237019 0)
(0.761968 -0.584405 0)
(0.335666 -0.170472 0)
(-0.0137768 0.0409677 0)
(-0.0313867 0.0570541 0)
(-0.0271584 0.0471677 0)
(-0.00567043 0.0264287 0)
(0.761973 0.584408 0)
(0.335673 0.170472 0)
(-0.0137759 -0.0409692 0)
(-0.031386 -0.0570595 0)
(-0.0271504 -0.0471751 0)
(-0.0056505 -0.0264251 0)
(1.22275 0.650499 0)
(1.15207 0.46299 0)
(0.975703 0.282243 0)
(0.827221 0.148121 0)
(0.72679 0.0578755 0)
(0.66145 0.00236783 0)
(1.23742 0.448602 0)
(1.3576 0.389298 0)
(1.3902 0.303973 0)
(1.36977 0.214603 0)
(1.33456 0.136763 0)
(1.30074 0.0776975 0)
(1.12266 0.30565 0)
(1.25146 0.272039 0)
(1.34554 0.222147 0)
(1.40317 0.168037 0)
(1.43517 0.115867 0)
(1.45057 0.0701537 0)
(0.999568 0.20582 0)
(1.09896 0.18126 0)
(1.18355 0.145695 0)
(1.24949 0.108729 0)
(1.2984 0.0737057 0)
(1.33269 0.0422471 0)
(0.861761 0.114278 0)
(0.947323 0.0994786 0)
(1.02145 0.0779763 0)
(1.08085 0.0552189 0)
(1.12603 0.0335618 0)
(1.15805 0.0136303 0)
(0.603427 0.0279523 0)
(0.671075 0.0217553 0)
(0.726214 0.013499 0)
(0.765202 0.00500932 0)
(0.787843 -0.00284934 0)
(0.796327 -0.0101924 0)
(0.790101 0.0169232 0)
(0.771867 0.0225266 0)
(0.744448 0.0265306 0)
(0.710011 0.0288607 0)
(0.670325 0.0296767 0)
(0.626938 0.0292469 0)
(0.58118 0.0278897 0)
(0.534142 0.025911 0)
(0.486711 0.0235532 0)
(0.439628 0.0209825 0)
(0.393535 0.0183059 0)
(0.349006 0.0155946 0)
(0.306562 0.0129055 0)
(0.266686 0.0102961 0)
(0.229815 0.00783298 0)
(0.196312 0.00559041 0)
(0.166432 0.00364131 0)
(0.140288 0.00204398 0)
(0.117839 0.000829554 0)
(0.0988956 -6.45294e-06 0)
(0.0831468 -0.000504607 0)
(0.0702084 -0.000734877 0)
(0.0596727 -0.000782183 0)
(0.0511544 -0.000730617 0)
(0.0443196 -0.000648187 0)
(0.0388993 -0.000579998 0)
(0.034686 -0.000547005 0)
(0.0315214 -0.000552762 0)
(0.029281 -0.000589931 0)
(0.027862 -0.000648009 0)
(0.0271735 -0.000716528 0)
(0.0271335 -0.000788633 0)
(0.0276635 -0.000857462 0)
(0.028685 -0.00091583 0)
(0.0301344 -0.000964379 0)
(0.0319566 -0.00100741 0)
(0.0340975 -0.00104271 0)
(0.0365034 -0.00106905 0)
(0.0391242 -0.00108824 0)
(0.0419163 -0.00110094 0)
(0.0448403 -0.00110644 0)
(0.0478598 -0.00110451 0)
(0.0509395 -0.00109438 0)
(0.0540431 -0.00107451 0)
(0.0571498 -0.00104657 0)
(0.0601341 -0.000943051 0)
(0.063881 -0.00127326 0)
(1.18051 0.00423077 0)
(1.19441 0.0196768 0)
(1.20028 0.0327777 0)
(1.19857 0.043776 0)
(1.18958 0.0528476 0)
(1.17366 0.0601284 0)
(1.15118 0.0657792 0)
(1.12248 0.0699717 0)
(1.08793 0.0728543 0)
(1.04791 0.0745396 0)
(1.00288 0.075103 0)
(0.95338 0.074586 0)
(0.900025 0.0730069 0)
(0.843566 0.0703813 0)
(0.784876 0.0667483 0)
(0.72495 0.062193 0)
(0.664877 0.0568609 0)
(0.605788 0.0509577 0)
(0.548794 0.0447355 0)
(0.494916 0.0384663 0)
(0.445014 0.0324096 0)
(0.399732 0.0267813 0)
(0.359467 0.0217305 0)
(0.324357 0.0173295 0)
(0.294308 0.0135801 0)
(0.26904 0.0104313 0)
(0.248147 0.0078033 0)
(0.23116 0.00560806 0)
(0.217596 0.00376421 0)
(0.206993 0.00220377 0)
(0.19893 0.000873515 0)
(0.193035 -0.000265855 0)
(0.188987 -0.00124349 0)
(0.186503 -0.00208612 0)
(0.185382 -0.0028159 0)
(0.185404 -0.00344089 0)
(0.186359 -0.00395558 0)
(0.188081 -0.0043657 0)
(0.190432 -0.00469241 0)
(0.193296 -0.00494893 0)
(0.196567 -0.0051412 0)
(0.200149 -0.00527415 0)
(0.203958 -0.0053487 0)
(0.207916 -0.00537206 0)
(0.212006 -0.00533163 0)
(0.215823 -0.00524324 0)
(0.221208 -0.00512208 0)
(1.35512 -0.0156545 0)
(1.36912 0.00614466 0)
(1.37787 0.0242716 0)
(1.38258 0.0397736 0)
(1.38366 0.0532894 0)
(1.38133 0.0652382 0)
(1.37565 0.0759185 0)
(1.36645 0.0855104 0)
(1.35345 0.0940992 0)
(1.33628 0.101705 0)
(1.31459 0.108288 0)
(1.28806 0.11374 0)
(1.2565 0.117897 0)
(1.21984 0.120562 0)
(1.17824 0.121546 0)
(1.13208 0.120709 0)
(1.08197 0.117998 0)
(1.02876 0.113468 0)
(0.973483 0.107284 0)
(0.917288 0.0997124 0)
(0.86137 0.0910898 0)
(0.80688 0.081792 0)
(0.754853 0.0721966 0)
(0.706144 0.0626507 0)
(0.661391 0.053447 0)
(0.621002 0.0448089 0)
(0.585165 0.036887 0)
(0.553873 0.0297626 0)
(0.526968 0.0234587 0)
(0.504176 0.0179536 0)
(0.485157 0.0131954 0)
(0.469531 0.00911568 0)
(0.456907 0.00563936 0)
(0.446909 0.00268981 0)
(0.439158 0.000197658 0)
(0.433327 -0.00189328 0)
(0.429126 -0.00363564 0)
(0.426362 -0.0050735 0)
(0.424781 -0.00623981 0)
(0.424157 -0.00716018 0)
(0.424296 -0.00786127 0)
(0.425036 -0.00837416 0)
(0.426234 -0.00871952 0)
(0.427785 -0.0089361 0)
(0.42959 -0.00898486 0)
(0.431432 -0.00909807 0)
(0.434196 -0.00856092 0)
(1.45629 -0.0331765 0)
(1.45773 -0.00366726 0)
(1.45763 0.0203837 0)
(1.45669 0.0402494 0)
(1.45497 0.0567786 0)
(1.45258 0.0708548 0)
(1.44951 0.0832711 0)
(1.44559 0.0945831 0)
(1.44055 0.105138 0)
(1.43404 0.115137 0)
(1.42565 0.124645 0)
(1.41488 0.133587 0)
(1.40123 0.141752 0)
(1.38426 0.148824 0)
(1.36361 0.15443 0)
(1.33906 0.1582 0)
(1.31057 0.159822 0)
(1.2783 0.159096 0)
(1.24264 0.155957 0)
(1.20414 0.150489 0)
(1.16351 0.142914 0)
(1.1216 0.133573 0)
(1.07928 0.122882 0)
(1.03742 0.111296 0)
(0.996815 0.0992664 0)
(0.958155 0.0872044 0)
(0.921972 0.0754594 0)
(0.888646 0.0643035 0)
(0.858398 0.053929 0)
(0.831311 0.0444537 0)
(0.807347 0.035932 0)
(0.786379 0.0283691 0)
(0.768212 0.0217339 0)
(0.752611 0.0159723 0)
(0.739318 0.0110168 0)
(0.728068 0.00679327 0)
(0.718605 0.00322287 0)
(0.710645 0.000231649 0)
(0.703974 -0.00224091 0)
(0.698407 -0.00425265 0)
(0.693794 -0.00585523 0)
(0.689974 -0.00709668 0)
(0.68678 -0.0080132 0)
(0.684133 -0.00867171 0)