/*--------------------------------*- C++ -*----------------------------------*\
| =========                 |                                                 |
| \\      /  F ield         | OpenFOAM: The Open Source CFD Toolbox           |
|  \\    /   O peration     | Version:  2406                                  |
|   \\  /    A nd           | Website:  www.openfoam.com                      |
|    \\/     M anipulation  |                                                 |
\*---------------------------------------------------------------------------*/
FoamFile
{
    version     2.0;
    format      ascii;
    arch        "LSB;label=32;scalar=64";
    class       volScalarField;
    location    "80";
    object      p;
}
// * * * * * * * * * * * * * * * * * * * * * * * * * * * * * * * * * * * * * //

dimensions      [0 2 -2 0 0 0 0];

internalField   nonuniform List<scalar> 
2000
(
0.125319
0.1255
0.125163
0.124457
0.123581
0.1226
0.121541
0.12043
0.119283
0.11811
0.12653
0.125916
0.125217
0.124444
0.123555
0.122563
0.121503
0.120396
0.119254
0.118086
0.127321
0.126164
0.12517
0.124374
0.123506
0.122515
0.121452
0.120351
0.119217
0.118055
0.127857
0.126465
0.125244
0.124366
0.123482
0.122475
0.1214
0.120297
0.119168
0.118012
0.12828
0.12678
0.125391
0.124407
0.123482
0.122452
0.121358
0.120246
0.119117
0.117964
0.128612
0.127054
0.12555
0.124476
0.123505
0.122449
0.121334
0.120208
0.119074
0.11792
0.128867
0.127274
0.125698
0.124556
0.123542
0.122459
0.121323
0.120183
0.119041
0.117884
0.129052
0.12744
0.125819
0.124629
0.123581
0.122475
0.121321
0.120167
0.119018
0.117857
0.129174
0.12755
0.125903
0.124684
0.123613
0.122489
0.121323
0.120159
0.119003
0.117839
0.129234
0.127606
0.125946
0.124713
0.12363
0.122498
0.121324
0.120156
0.118997
0.117831
0.129234
0.127606
0.125946
0.124713
0.12363
0.122498
0.121324
0.120156
0.118997
0.117831
0.129174
0.12755
0.125903
0.124684
0.123613
0.122489
0.121323
0.120159
0.119003
0.117839
0.129052
0.12744
0.125819
0.124629
0.123581
0.122475
0.121321
0.120167
0.119018
0.117857
0.128867
0.127274
0.125698
0.124556
0.123543
0.122459
0.121323
0.120182
0.11904
0.117884
0.128612
0.127054
0.12555
0.124476
0.123505
0.122449
0.121334
0.120208
0.119074
0.11792
0.12828
0.12678
0.125391
0.124407
0.123482
0.122452
0.121358
0.120246
0.119117
0.117964
0.127857
0.126465
0.125244
0.124366
0.123482
0.122475
0.1214
0.120297
0.119168
0.118012
0.127321
0.126164
0.12517
0.124374
0.123506
0.122515
0.121452
0.120351
0.119217
0.118055
0.12653
0.125916
0.125217
0.124444
0.123555
0.122563
0.121503
0.120396
0.119254
0.118086
0.125319
0.1255
0.125163
0.124457
0.123581
0.1226
0.121541
0.12043
0.119283
0.11811
0.116917
0.115709
0.114489
0.113258
0.11202
0.110774
0.109522
0.108265
0.107003
0.105737
0.104467
0.103194
0.101918
0.100639
0.0993573
0.0980733
0.0967872
0.095499
0.0942089
0.092917
0.0916235
0.0903284
0.0890318
0.0877338
0.0864345
0.0851339
0.0838322
0.0825293
0.0812253
0.0799204
0.0786144
0.0773076
0.0759998
0.0746912
0.0733818
0.116897
0.115692
0.114474
0.113246
0.112009
0.110764
0.109513
0.108257
0.106996
0.105731
0.104461
0.103189
0.101913
0.100634
0.099353
0.0980693
0.0967834
0.0954954
0.0942055
0.0929138
0.0916205
0.0903255
0.0890291
0.0877312
0.086432
0.0851316
0.0838299
0.0825271
0.0812233
0.0799184
0.0786125
0.0773057
0.0759981
0.0746896
0.0733802
0.116871
0.115669
0.114455
0.113229
0.111994
0.110752
0.109502
0.108247
0.106987
0.105723
0.104454
0.103182
0.101907
0.100629
0.0993483
0.098065
0.0967794
0.0954917
0.094202
0.0929106
0.0916174
0.0903227
0.0890264
0.0877287
0.0864296
0.0851293
0.0838278
0.0825251
0.0812213
0.0799165
0.0786107
0.077304
0.0759964
0.074688
0.0733787
0.116833
0.115637
0.114427
0.113205
0.111974
0.110733
0.109486
0.108233
0.106975
0.105712
0.104445
0.103174
0.1019
0.100622
0.0993422
0.0980594
0.0967744
0.0954872
0.094198
0.0929069
0.091614
0.0903195
0.0890234
0.0877259
0.086427
0.0851268
0.0838254
0.0825229
0.0812192
0.0799146
0.0786089
0.0773023
0.0759948
0.0746864
0.0733772
0.116788
0.115596
0.114391
0.113174
0.111946
0.110709
0.109464
0.108214
0.106958
0.105698
0.104433
0.103163
0.10189
0.100613
0.0993337
0.0980517
0.0967674
0.0954809
0.0941924
0.0929018
0.0916094
0.0903153
0.0890195
0.0877222
0.0864235
0.0851235
0.0838223
0.08252
0.0812165
0.079912
0.0786065
0.0773001
0.0759927
0.0746845
0.0733754
0.116746
0.115556
0.114354
0.113141
0.111917
0.110682
0.10944
0.108192
0.106939
0.105681
0.104418
0.10315
0.101878
0.100602
0.0993238
0.0980426
0.0967592
0.0954736
0.0941858
0.092896
0.0916041
0.0903103
0.0890149
0.0877178
0.0864193
0.0851195
0.0838186
0.0825165
0.0812133
0.079909
0.0786037
0.0772975
0.0759903
0.0746821
0.0733731
0.116709
0.11552
0.114321
0.113111
0.111889
0.110657
0.109417
0.108171
0.106921
0.105665
0.104404
0.103138
0.101867
0.100592
0.099314
0.0980335
0.0967508
0.095466
0.0941791
0.09289
0.0915987
0.0903054
0.0890102
0.0877134
0.0864151
0.0851154
0.0838147
0.0825128
0.0812099
0.0799059
0.0786008
0.0772948
0.0759878
0.0746798
0.0733709
0.11668
0.115492
0.114294
0.113086
0.111867
0.110636
0.109398
0.108154
0.106905
0.105651
0.104392
0.103127
0.101857
0.100583
0.0993056
0.0980256
0.0967435
0.0954594
0.0941732
0.0928848
0.0915941
0.0903012
0.0890063
0.0877096
0.0864113
0.0851118
0.0838112
0.0825095
0.0812068
0.0799031
0.0785983
0.0772924
0.0759856
0.0746777
0.0733689
0.116661
0.115472
0.114275
0.113068
0.11185
0.110622
0.109384
0.108141
0.106893
0.105641
0.104383
0.103119
0.10185
0.100577
0.0992996
0.0980199
0.0967382
0.0954546
0.0941689
0.092881
0.0915907
0.0902981
0.0890034
0.0877068
0.0864086
0.0851092
0.0838087
0.0825071
0.0812045
0.079901
0.0785963
0.0772907
0.0759839
0.0746762
0.0733674
0.116651
0.115462
0.114265
0.113059
0.111842
0.110614
0.109377
0.108134
0.106887
0.105635
0.104378
0.103115
0.101847
0.100573
0.0992964
0.0980169
0.0967354
0.095452
0.0941666
0.0928789
0.0915889
0.0902965
0.0890019
0.0877053
0.0864072
0.0851078
0.0838073
0.0825058
0.0812033
0.0798998
0.0785953
0.0772897
0.0759831
0.0746753
0.0733666
0.116651
0.115462
0.114265
0.113059
0.111842
0.110614
0.109377
0.108134
0.106887
0.105635
0.104378
0.103115
0.101847
0.100573
0.0992964
0.0980169
0.0967354
0.095452
0.0941666
0.0928789
0.0915889
0.0902965
0.0890018
0.0877053
0.0864072
0.0851078
0.0838073
0.0825058
0.0812033
0.0798999
0.0785953
0.0772897
0.075983
0.0746753
0.0733666
0.116661
0.115472
0.114275
0.113068
0.11185
0.110622
0.109384
0.108141
0.106893
0.105641
0.104383
0.103119
0.10185
0.100577
0.0992996
0.0980199
0.0967382
0.0954546
0.0941689
0.092881
0.0915906
0.090298
0.0890033
0.0877067
0.0864086
0.0851092
0.0838087
0.0825071
0.0812045
0.079901
0.0785963
0.0772906
0.0759839
0.0746761
0.0733674
0.11668
0.115492
0.114294
0.113086
0.111866
0.110636
0.109398
0.108154
0.106905
0.105651
0.104392
0.103127
0.101857
0.100583
0.0993057
0.0980257
0.0967436
0.0954595
0.0941732
0.0928848
0.091594
0.0903011
0.0890062
0.0877095
0.0864113
0.0851118
0.0838112
0.0825095
0.0812068
0.0799031
0.0785982
0.0772924
0.0759855
0.0746776
0.0733688
0.116709
0.11552
0.114321
0.113111
0.111889
0.110657
0.109417
0.108172
0.106921
0.105665
0.104404
0.103138
0.101867
0.100592
0.0993141
0.0980336
0.0967509
0.0954661
0.0941791
0.0928899
0.0915987
0.0903053
0.0890101
0.0877133
0.086415
0.0851154
0.0838147
0.0825128
0.0812098
0.0799058
0.0786008
0.0772947
0.0759877
0.0746797
0.0733708
0.116746
0.115556
0.114354
0.113141
0.111917
0.110682
0.109441
0.108193
0.106939
0.105681
0.104418
0.10315
0.101878
0.100602
0.0993239
0.0980427
0.0967592
0.0954736
0.0941858
0.0928959
0.091604
0.0903103
0.0890148
0.0877177
0.0864193
0.0851195
0.0838185
0.0825164
0.0812132
0.079909
0.0786037
0.0772974
0.0759902
0.0746821
0.0733731
0.116788
0.115596
0.114391
0.113174
0.111946
0.110709
0.109465
0.108214
0.106958
0.105698
0.104432
0.103163
0.10189
0.100613
0.0993337
0.0980517
0.0967674
0.0954809
0.0941923
0.0929018
0.0916094
0.0903152
0.0890194
0.0877221
0.0864235
0.0851235
0.0838223
0.0825199
0.0812165
0.079912
0.0786065
0.0773
0.0759926
0.0746844
0.0733753
0.116833
0.115637
0.114427
0.113205
0.111974
0.110733
0.109486
0.108233
0.106975
0.105712
0.104445
0.103174
0.1019
0.100622
0.0993422
0.0980594
0.0967744
0.0954871
0.0941979
0.0929068
0.091614
0.0903195
0.0890234
0.0877259
0.086427
0.0851268
0.0838254
0.0825228
0.0812192
0.0799145
0.0786088
0.0773022
0.0759947
0.0746864
0.0733772
0.116871
0.115669
0.114455
0.113229
0.111994
0.110752
0.109502
0.108247
0.106987
0.105723
0.104454
0.103182
0.101907
0.100629
0.0993482
0.0980649
0.0967793
0.0954916
0.094202
0.0929106
0.0916174
0.0903227
0.0890264
0.0877287
0.0864296
0.0851292
0.0838277
0.082525
0.0812212
0.0799164
0.0786107
0.077304
0.0759964
0.0746879
0.0733786
0.116897
0.115692
0.114474
0.113246
0.112009
0.110764
0.109513
0.108257
0.106996
0.105731
0.104461
0.103189
0.101913
0.100634
0.099353
0.0980693
0.0967833
0.0954954
0.0942055
0.0929138
0.0916205
0.0903255
0.0890291
0.0877312
0.086432
0.0851315
0.0838298
0.0825271
0.0812232
0.0799183
0.0786125
0.0773057
0.075998
0.0746895
0.0733801
0.116917
0.115709
0.114489
0.113258
0.11202
0.110774
0.109522
0.108265
0.107003
0.105737
0.104467
0.103194
0.101918
0.100639
0.0993573
0.0980733
0.0967872
0.095499
0.0942089
0.092917
0.0916235
0.0903283
0.0890317
0.0877337
0.0864344
0.0851339
0.0838321
0.0825292
0.0812253
0.0799203
0.0786144
0.0773075
0.0759998
0.0746912
0.0733818
0.0720717
0.0707607
0.0694491
0.0681367
0.0668237
0.0655101
0.0641959
0.062881
0.0615656
0.0602496
0.0720701
0.0707592
0.0694476
0.0681353
0.0668224
0.0655088
0.0641946
0.0628798
0.0615644
0.0602485
0.0720686
0.0707578
0.0694463
0.068134
0.0668211
0.0655076
0.0641934
0.0628786
0.0615633
0.0602474
0.0720672
0.0707565
0.069445
0.0681328
0.0668199
0.0655064
0.0641923
0.0628776
0.0615623
0.0602464
0.0720654
0.0707548
0.0694433
0.0681312
0.0668184
0.065505
0.0641909
0.0628762
0.061561
0.0602452
0.0720633
0.0707527
0.0694414
0.0681293
0.0668166
0.0655032
0.0641892
0.0628747
0.0615595
0.0602438
0.0720611
0.0707506
0.0694393
0.0681273
0.0668147
0.0655014
0.0641875
0.062873
0.0615579
0.0602423
0.0720592
0.0707487
0.0694374
0.0681255
0.0668129
0.0654997
0.0641859
0.0628715
0.0615565
0.060241
0.0720578
0.0707473
0.0694361
0.0681241
0.0668116
0.0654984
0.0641847
0.0628703
0.0615554
0.0602399
0.072057
0.0707465
0.0694353
0.0681234
0.0668109
0.0654977
0.064184
0.0628697
0.0615548
0.0602394
0.072057
0.0707465
0.0694353
0.0681234
0.0668109
0.0654977
0.064184
0.0628697
0.0615548
0.0602394
0.0720577
0.0707472
0.069436
0.0681241
0.0668116
0.0654984
0.0641846
0.0628703
0.0615554
0.0602399
0.0720591
0.0707486
0.0694374
0.0681255
0.0668129
0.0654997
0.0641858
0.0628714
0.0615565
0.0602409
0.072061
0.0707505
0.0694392
0.0681272
0.0668146
0.0655013
0.0641874
0.0628729
0.0615579
0.0602422
0.0720632
0.0707526
0.0694413
0.0681292
0.0668165
0.0655032
0.0641892
0.0628746
0.0615594
0.0602437
0.0720654
0.0707547
0.0694432
0.0681311
0.0668183
0.0655049
0.0641908
0.0628761
0.0615609
0.0602451
0.0720672
0.0707564
0.0694449
0.0681327
0.0668198
0.0655063
0.0641922
0.0628775
0.0615622
0.0602463
0.0720686
0.0707577
0.0694462
0.0681339
0.066821
0.0655075
0.0641933
0.0628785
0.0615632
0.0602473
0.07207
0.0707591
0.0694475
0.0681352
0.0668223
0.0655087
0.0641945
0.0628797
0.0615643
0.0602484
0.0720716
0.0707606
0.069449
0.0681366
0.0668236
0.06551
0.0641957
0.0628809
0.0615655
0.0602495
0.0589332
0.0576162
0.0562987
0.0549807
0.0536623
0.0523434
0.0510241
0.0497044
0.0483843
0.0470637
0.0457428
0.0444216
0.0430999
0.0417779
0.0404556
0.039133
0.03781
0.0364867
0.0351631
0.0338392
0.0325151
0.0311906
0.0298659
0.0285409
0.0272157
0.0258902
0.0245645
0.0232385
0.0219123
0.0205859
0.0192592
0.0179324
0.0166053
0.015278
0.0139505
0.058932
0.0576151
0.0562976
0.0549797
0.0536613
0.0523425
0.0510232
0.0497035
0.0483834
0.0470629
0.045742
0.0444207
0.0430991
0.0417772
0.0404549
0.0391322
0.0378093
0.036486
0.0351624
0.0338386
0.0325144
0.03119
0.0298653
0.0285403
0.0272151
0.0258896
0.0245639
0.023238
0.0219118
0.0205854
0.0192587
0.0179319
0.0166048
0.0152775
0.01395
0.058931
0.0576141
0.0562967
0.0549788
0.0536604
0.0523416
0.0510223
0.0497027
0.0483826
0.0470621
0.0457412
0.04442
0.0430984
0.0417765
0.0404542
0.0391316
0.0378086
0.0364854
0.0351618
0.033838
0.0325138
0.0311894
0.0298647
0.0285398
0.0272146
0.0258891
0.0245634
0.0232375
0.0219113
0.0205849
0.0192583
0.0179314
0.0166044
0.0152771
0.0139496
0.0589301
0.0576132
0.0562958
0.0549779
0.0536596
0.0523408
0.0510216
0.0497019
0.0483819
0.0470614
0.0457406
0.0444193
0.0430978
0.0417758
0.0404536
0.039131
0.0378081
0.0364848
0.0351613
0.0338375
0.0325134
0.031189
0.0298643
0.0285393
0.0272141
0.0258887
0.024563
0.0232371
0.0219109
0.0205845
0.0192579
0.017931
0.016604
0.0152767
0.0139493
0.0589289
0.0576121
0.0562947
0.0549769
0.0536586
0.0523399
0.0510207
0.049701
0.048381
0.0470606
0.0457398
0.0444186
0.043097
0.0417751
0.0404529
0.0391303
0.0378074
0.0364842
0.0351607
0.0338369
0.0325128
0.0311884
0.0298637
0.0285388
0.0272136
0.0258882
0.0245625
0.0232366
0.0219104
0.0205841
0.0192574
0.0179306
0.0166036
0.0152764
0.0139489
0.0589276
0.0576108
0.0562935
0.0549757
0.0536575
0.0523388
0.0510196
0.0497
0.04838
0.0470596
0.0457388
0.0444177
0.0430961
0.0417743
0.040452
0.0391295
0.0378066
0.0364835
0.03516
0.0338362
0.0325121
0.0311877
0.0298631
0.0285382
0.027213
0.0258876
0.0245619
0.023236
0.0219099
0.0205835
0.0192569
0.0179301
0.0166031
0.0152759
0.0139485
0.0589261
0.0576094
0.0562922
0.0549745
0.0536562
0.0523376
0.0510184
0.0496989
0.0483789
0.0470585
0.0457378
0.0444167
0.0430952
0.0417733
0.0404512
0.0391287
0.0378058
0.0364827
0.0351592
0.0338354
0.0325114
0.031187
0.0298624
0.0285375
0.0272124
0.025887
0.0245613
0.0232354
0.0219093
0.020583
0.0192564
0.0179296
0.0166026
0.0152754
0.013948
0.0589248
0.0576082
0.056291
0.0549733
0.0536551
0.0523365
0.0510174
0.0496978
0.0483779
0.0470576
0.0457368
0.0444158
0.0430943
0.0417725
0.0404503
0.0391279
0.037805
0.0364819
0.0351585
0.0338347
0.0325107
0.0311864
0.0298618
0.0285369
0.0272118
0.0258864
0.0245607
0.0232349
0.0219088
0.0205824
0.0192559
0.0179291
0.0166021
0.0152749
0.0139476
0.0589239
0.0576073
0.0562901
0.0549725
0.0536543
0.0523357
0.0510166
0.0496971
0.0483771
0.0470568
0.0457361
0.044415
0.0430936
0.0417718
0.0404497
0.0391272
0.0378045
0.0364813
0.0351579
0.0338342
0.0325102
0.0311858
0.0298613
0.0285364
0.0272113
0.0258859
0.0245603
0.0232344
0.0219083
0.020582
0.0192554
0.0179287
0.0166017
0.0152746
0.0139472
0.0589233
0.0576068
0.0562896
0.054972
0.0536538
0.0523352
0.0510161
0.0496966
0.0483767
0.0470564
0.0457357
0.0444146
0.0430932
0.0417715
0.0404494
0.0391269
0.0378041
0.036481
0.0351576
0.0338339
0.0325099
0.0311855
0.029861
0.0285361
0.027211
0.0258856
0.02456
0.0232341
0.0219081
0.0205817
0.0192552
0.0179285
0.0166015
0.0152743
0.013947
0.0589233
0.0576067
0.0562896
0.054972
0.0536538
0.0523352
0.0510161
0.0496966
0.0483767
0.0470564
0.0457357
0.0444146
0.0430932
0.0417714
0.0404493
0.0391269
0.0378041
0.036481
0.0351576
0.0338339
0.0325098
0.0311855
0.0298609
0.0285361
0.027211
0.0258856
0.02456
0.0232341
0.021908
0.0205817
0.0192552
0.0179284
0.0166015
0.0152743
0.0139469
0.0589238
0.0576072
0.0562901
0.0549724
0.0536542
0.0523356
0.0510165
0.049697
0.0483771
0.0470568
0.0457361
0.044415
0.0430936
0.0417718
0.0404497
0.0391272
0.0378044
0.0364813
0.0351578
0.0338341
0.0325101
0.0311858
0.0298612
0.0285363
0.0272112
0.0258858
0.0245602
0.0232343
0.0219082
0.0205819
0.0192554
0.0179286
0.0166016
0.0152745
0.0139471
0.0589248
0.0576081
0.0562909
0.0549732
0.053655
0.0523364
0.0510173
0.0496978
0.0483778
0.0470575
0.0457368
0.0444157
0.0430942
0.0417724
0.0404503
0.0391278
0.037805
0.0364818
0.0351584
0.0338346
0.0325106
0.0311862
0.0298616
0.0285368
0.0272116
0.0258862
0.0245606
0.0232347
0.0219086
0.0205823
0.0192557
0.017929
0.016602
0.0152748
0.0139474
0.0589261
0.0576093
0.0562921
0.0549744
0.0536561
0.0523375
0.0510183
0.0496988
0.0483788
0.0470584
0.0457377
0.0444166
0.0430951
0.0417732
0.040451
0.0391285
0.0378057
0.0364825
0.0351591
0.0338353
0.0325112
0.0311869
0.0298623
0.0285374
0.0272122
0.0258868
0.0245612
0.0232353
0.0219091
0.0205828
0.0192562
0.0179294
0.0166024
0.0152752
0.0139478
0.0589275
0.0576107
0.0562934
0.0549756
0.0536573
0.0523386
0.0510195
0.0496999
0.0483799
0.0470595
0.0457387
0.0444175
0.043096
0.0417741
0.0404519
0.0391294
0.0378065
0.0364833
0.0351598
0.033836
0.0325119
0.0311876
0.0298629
0.028538
0.0272128
0.0258874
0.0245617
0.0232358
0.0219097
0.0205833
0.0192567
0.0179299
0.0166029
0.0152757
0.0139483
0.0589288
0.057612
0.0562946
0.0549768
0.0536585
0.0523397
0.0510205
0.0497009
0.0483809
0.0470604
0.0457396
0.0444184
0.0430969
0.041775
0.0404527
0.0391301
0.0378072
0.036484
0.0351605
0.0338367
0.0325126
0.0311882
0.0298635
0.0285386
0.0272134
0.025888
0.0245623
0.0232364
0.0219102
0.0205838
0.0192572
0.0179304
0.0166034
0.0152761
0.0139487
0.05893
0.0576131
0.0562957
0.0549778
0.0536595
0.0523407
0.0510214
0.0497018
0.0483817
0.0470613
0.0457404
0.0444192
0.0430976
0.0417757
0.0404534
0.0391308
0.0378079
0.0364847
0.0351611
0.0338373
0.0325132
0.0311888
0.0298641
0.0285391
0.0272139
0.0258885
0.0245628
0.0232368
0.0219107
0.0205843
0.0192576
0.0179308
0.0166038
0.0152765
0.0139491
0.0589309
0.057614
0.0562965
0.0549786
0.0536603
0.0523415
0.0510222
0.0497025
0.0483824
0.0470619
0.0457411
0.0444198
0.0430982
0.0417763
0.040454
0.0391314
0.0378084
0.0364852
0.0351616
0.0338378
0.0325136
0.0311892
0.0298645
0.0285396
0.0272144
0.0258889
0.0245632
0.0232372
0.0219111
0.0205847
0.019258
0.0179312
0.0166041
0.0152769
0.0139494
0.0589319
0.057615
0.0562975
0.0549796
0.0536612
0.0523423
0.051023
0.0497033
0.0483832
0.0470627
0.0457418
0.0444206
0.043099
0.041777
0.0404547
0.039132
0.0378091
0.0364858
0.0351622
0.0338384
0.0325142
0.0311898
0.0298651
0.0285401
0.0272149
0.0258894
0.0245637
0.0232377
0.0219115
0.0205851
0.0192585
0.0179316
0.0166046
0.0152773
0.0139498
0.0589331
0.0576161
0.0562986
0.0549806
0.0536622
0.0523433
0.051024
0.0497043
0.0483841
0.0470636
0.0457427
0.0444214
0.0430998
0.0417778
0.0404554
0.0391328
0.0378098
0.0364865
0.0351629
0.0338391
0.0325149
0.0311904
0.0298657
0.0285407
0.0272155
0.02589
0.0245643
0.0232383
0.0219121
0.0205857
0.019259
0.0179321
0.0166051
0.0152778
0.0139503
0.0126228
0.0112949
0.00996686
0.0086386
0.00731015
0.00598153
0.00465272
0.00332374
0.00199455
0.000665325
0.0126224
0.0112945
0.00996642
0.00863817
0.00730974
0.00598112
0.00465232
0.00332341
0.00199413
0.000665322
0.012622
0.0112941
0.00996604
0.0086378
0.00730939
0.00598079
0.00465199
0.00332316
0.00199372
0.000665497
0.0126216
0.0112938
0.00996575
0.00863754
0.00730914
0.00598057
0.00465179
0.00332299
0.00199349
0.000665557
0.0126213
0.0112934
0.00996544
0.00863724
0.00730888
0.00598034
0.0046516
0.00332281
0.00199338
0.00066529
0.0126209
0.0112931
0.00996508
0.00863692
0.00730859
0.00598009
0.00465141
0.00332267
0.0019934
0.000664688
0.0126204
0.0112926
0.00996468
0.00863656
0.00730828
0.00597983
0.00465123
0.00332251
0.00199356
0.000663827
0.01262
0.0112922
0.0099643
0.00863622
0.00730798
0.00597958
0.00465107
0.00332239
0.00199379
0.000662904
0.0126196
0.0112919
0.009964
0.00863594
0.00730773
0.00597938
0.00465095
0.00332229
0.00199401
0.000662142
0.0126194
0.0112917
0.00996382
0.00863577
0.00730759
0.00597926
0.00465087
0.00332223
0.00199414
0.000661723
0.0126194
0.0112917
0.00996379
0.00863574
0.00730756
0.00597923
0.00465085
0.00332223
0.00199411
0.000661758
0.0126195
0.0112918
0.00996391
0.00863585
0.00730765
0.00597931
0.00465089
0.00332225
0.00199397
0.000662237
0.0126198
0.0112921
0.00996417
0.00863608
0.00730785
0.00597947
0.00465098
0.00332234
0.00199373
0.000663049
0.0126202
0.0112925
0.00996451
0.00863639
0.00730812
0.00597969
0.00465112
0.00332244
0.00199349
0.000663997
0.0126207
0.0112929
0.00996488
0.00863673
0.00730841
0.00597994
0.00465129
0.00332258
0.00199333
0.00066486
0.0126211
0.0112932
0.00996522
0.00863704
0.00730869
0.00598018
0.00465146
0.00332273
0.00199329
0.000665439
0.0126214
0.0112936
0.00996554
0.00863734
0.00730896
0.00598041
0.00465167
0.00332289
0.00199342
0.000665669
0.0126217
0.0112939
0.00996583
0.00863761
0.00730921
0.00598064
0.00465185
0.00332307
0.00199365
0.000665564
0.0126221
0.0112943
0.00996622
0.00863798
0.00730957
0.00598097
0.0046522
0.00332333
0.00199407
0.000665342
0.0126226
0.0112947
0.00996667
0.00863842
0.00731
0.00598139
0.00465261
0.00332366
0.0019945
0.000665323
)
;

boundaryField
{
    inlet
    {
        type            zeroGradient;
    }
    outlet
    {
        type            fixedValue;
        value           uniform 0;
    }
    upperWall
    {
        type            zeroGradient;
    }
    lowerWall
    {
        type            zeroGradient;
    }
    frontAndBack
    {
        type            empty;
    }
}


// ************************************************************************* //
