/*--------------------------------*- C++ -*----------------------------------*\
| =========                 |                                                 |
| \\      /  F ield         | OpenFOAM: The Open Source CFD Toolbox           |
|  \\    /   O peration     | Version:  2406                                  |
|   \\  /    A nd           | Website:  www.openfoam.com                      |
|    \\/     M anipulation  |                                                 |
\*---------------------------------------------------------------------------*/
FoamFile
{
    version     2.0;
    format      ascii;
    arch        "LSB;label=32;scalar=64";
    class       surfaceScalarField;
    location    "80";
    object      phi;
}
// * * * * * * * * * * * * * * * * * * * * * * * * * * * * * * * * * * * * * //

dimensions      [0 3 -1 0 0 0 0];

oriented        oriented;

internalField   nonuniform List<scalar> 
3880
(
0.00996107
-0.000211066
0.0101965
-0.000235407
0.0103745
-0.000178031
0.0105047
-0.000130217
0.0106021
-9.73621e-05
0.0106756
-7.35061e-05
0.0107316
-5.59718e-05
0.0107751
-4.34794e-05
0.0108097
-3.46859e-05
-2.83547e-05
0.0108381
0.0276509
-0.000111958
0.0276289
-0.000213433
0.0276665
-0.000215636
0.0277292
-0.000192878
0.0278002
-0.00016836
0.0278707
-0.000143979
0.027936
-0.000121278
0.0279945
-0.00010198
0.0280462
-8.6366e-05
-7.38155e-05
0.0280916
0.0436975
-5.94606e-05
0.0436287
-0.000144645
0.0435858
-0.000172699
0.0435667
-0.000173757
0.0435653
-0.000166975
0.0435772
-0.000155885
0.0435978
-0.000141869
0.0436231
-0.000127266
0.0436504
-0.000113661
-0.000101501
0.0436781
0.0577265
-3.59138e-05
0.0576777
-9.58989e-05
0.0576323
-0.000127294
0.0575967
-0.000138133
0.0575699
-0.000140163
0.0575514
-0.000137405
0.0575404
-0.000130885
0.0575354
-0.000122223
0.0575347
-0.000113011
-0.000104051
0.0575373
0.0697374
-2.33188e-05
0.0697067
-6.52126e-05
0.069672
-9.26127e-05
0.0696399
-0.000106034
0.0696113
-0.0001115
0.0695864
-0.000112466
0.0695655
-0.000109993
0.0695484
-0.000105147
0.0695346
-9.91782e-05
-9.29103e-05
0.0695234
0.0797424
-1.56731e-05
0.0797221
-4.49319e-05
0.0796959
-6.6456e-05
0.0796689
-7.90269e-05
0.0796428
-8.53643e-05
0.0796182
-8.78342e-05
0.0795956
-8.741e-05
0.0795753
-8.48391e-05
0.0795571
-8.10262e-05
-7.66791e-05
0.0795409
0.0877448
-1.04522e-05
0.0877302
-3.03248e-05
0.0877097
-4.59366e-05
0.0876867
-5.60533e-05
0.0876631
-6.17777e-05
0.0876398
-6.45072e-05
0.0876174
-6.49873e-05
0.0875963
-6.37511e-05
0.0875767
-6.14165e-05
-5.85162e-05
0.0875585
0.093746
-6.46017e-06
0.0937345
-1.88519e-05
0.0937176
-2.89527e-05
0.0936974
-3.59103e-05
0.0936758
-4.01265e-05
0.0936536
-4.23325e-05
0.0936316
-4.30039e-05
0.0936104
-4.2491e-05
0.0935901
-4.11803e-05
-3.94196e-05
0.093571
0.0977466
-3.09558e-06
0.0977368
-9.05766e-06
0.0977219
-1.40104e-05
0.0977035
-1.75335e-05
0.0976832
-1.97482e-05
0.0976618
-2.09605e-05
0.0976402
-2.13968e-05
0.0976189
-2.12313e-05
0.0975984
-2.065e-05
-1.98226e-05
0.0975788
0.0997469
1.50433e-10
0.0997378
4.94088e-10
0.0997238
3.68744e-10
0.0997063
6.36113e-10
0.0996866
1.22009e-09
0.0996656
1.10093e-09
0.0996442
3.64469e-10
0.099623
6.91189e-11
0.0996023
6.63762e-10
1.37609e-09
0.0995825
0.0997469
3.09563e-06
0.0997378
9.05782e-06
0.0997238
1.40119e-05
0.0997063
1.75356e-05
0.0996866
1.97495e-05
0.0996656
2.09615e-05
0.0996442
2.13982e-05
0.099623
2.1233e-05
0.0996023
2.06517e-05
1.98242e-05
0.0995825
0.0977466
6.46055e-06
0.0977368
1.88528e-05
0.0977219
2.89536e-05
0.0977035
3.59117e-05
0.0976832
4.01284e-05
0.0976618
4.23342e-05
0.0976402
4.30049e-05
0.0976189
4.24917e-05
0.0975984
4.11818e-05
3.94221e-05
0.0975788
0.093746
1.04524e-05
0.0937345
3.03253e-05
0.0937176
4.59381e-05
0.0936974
5.60547e-05
0.0936758
6.17789e-05
0.0936536
6.45089e-05
0.0936316
6.49892e-05
0.0936104
6.37528e-05
0.0935901
6.14178e-05
5.85173e-05
0.093571
0.0877448
1.56734e-05
0.0877302
4.49325e-05
0.0877097
6.64569e-05
0.0876867
7.90283e-05
0.0876631
8.53659e-05
0.0876398
8.78361e-05
0.0876174
8.74121e-05
0.0875963
8.48407e-05
0.0875767
8.10272e-05
7.668e-05
0.0875585
0.0797424
2.33191e-05
0.0797221
6.52136e-05
0.0796959
9.26137e-05
0.0796689
0.000106035
0.0796428
0.000111502
0.0796182
0.000112468
0.0795956
0.000109995
0.0795753
0.000105149
0.0795571
9.91792e-05
9.2911e-05
0.0795409
0.0697374
3.59141e-05
0.0697067
9.58994e-05
0.069672
0.000127296
0.0696399
0.000138134
0.0696113
0.000140165
0.0695864
0.000137407
0.0695655
0.000130888
0.0695484
0.000122226
0.0695346
0.000113012
0.000104052
0.0695234
0.0577265
5.94611e-05
0.0576777
0.000144647
0.0576323
0.0001727
0.0575967
0.000173759
0.0575699
0.000166977
0.0575514
0.000155887
0.0575404
0.000141871
0.0575354
0.000127268
0.0575347
0.000113662
0.000101502
0.0575373
0.0436975
0.000111959
0.0436287
0.000213434
0.0435858
0.000215638
0.0435667
0.00019288
0.0435653
0.000168361
0.0435772
0.000143981
0.0435978
0.000121281
0.0436231
0.000101983
0.0436504
8.63679e-05
7.38162e-05
0.0436781
0.0276509
0.000211067
0.0276289
0.000235408
0.0276665
0.000178032
0.0277292
0.000130218
0.0278002
9.73639e-05
0.0278707
7.35082e-05
0.027936
5.5974e-05
0.0279945
4.34808e-05
0.0280462
3.46867e-05
2.83562e-05
0.0280916
0.00996107
0.0101965
0.0103745
0.0105047
0.0106021
0.0106756
0.0107316
0.0107751
0.0108097
0.0108381
0.0108617
-2.36338e-05
0.0108818
-2.00168e-05
0.010899
-1.71952e-05
0.0109139
-1.49593e-05
0.0109271
-1.31558e-05
0.0109387
-1.16729e-05
0.0109492
-1.04336e-05
0.0109586
-9.38769e-06
0.0109671
-8.50146e-06
0.0109748
-7.74849e-06
0.0109819
-7.10505e-06
0.0109885
-6.54924e-06
0.0109945
-6.0629e-06
0.0110002
-5.63217e-06
0.0110054
-5.24752e-06
0.0110103
-4.90268e-06
0.0110149
-4.59314e-06
0.0110192
-4.31538e-06
0.0110233
-4.06599e-06
0.0110271
-3.84144e-06
0.0110308
-3.63836e-06
0.0110342
-3.45331e-06
0.0110375
-3.28343e-06
0.0110406
-3.12623e-06
0.0110436
-2.97992e-06
0.0110465
-2.84322e-06
0.0110492
-2.7153e-06
0.0110518
-2.59567e-06
0.0110543
-2.48395e-06
0.0110566
-2.37981e-06
0.0110589
-2.28287e-06
0.0110611
-2.19257e-06
0.0110632
-2.10835e-06
0.0110652
-2.02949e-06
-1.95537e-06
0.0110672
0.0281316
-6.36275e-05
0.0281669
-5.52906e-05
0.0281982
-4.84437e-05
0.028226
-4.27993e-05
0.028251
-3.81093e-05
0.0282734
-3.41643e-05
0.0282938
-3.08048e-05
0.0283124
-2.79215e-05
0.0283293
-2.54412e-05
0.0283449
-2.33064e-05
0.0283592
-2.14638e-05
0.0283725
-1.98614e-05
0.0283849
-1.84517e-05
0.0283965
-1.71974e-05
0.0284073
-1.60717e-05
0.0284175
-1.50567e-05
0.028427
-1.41408e-05
0.028436
-1.33144e-05
0.0284445
-1.25691e-05
0.0284526
-1.18958e-05
0.0284602
-1.12849e-05
0.0284675
-1.07275e-05
0.0284744
-1.0215e-05
0.028481
-9.74053e-06
0.0284874
-9.29862e-06
0.0284934
-8.88538e-06
0.0284992
-8.49823e-06
0.0285047
-8.13543e-06
0.02851
-7.79584e-06
0.0285151
-7.47832e-06
0.02852
-7.18178e-06
0.0285247
-6.9048e-06
0.0285293
-6.64576e-06
0.0285337
-6.40286e-06
-6.17423e-06
0.0285379
0.0437052
-9.07474e-05
0.0437312
-8.12987e-05
0.0437558
-7.30694e-05
0.043779
-6.59531e-05
0.0438007
-5.98054e-05
0.043821
-5.44642e-05
0.04384
-4.97856e-05
0.0438577
-4.56668e-05
0.0438743
-4.20418e-05
0.0438899
-3.88608e-05
0.0439045
-3.60722e-05
0.0439182
-3.36171e-05
0.0439312
-3.1435e-05
0.0439435
-2.94738e-05
0.0439551
-2.76954e-05
0.0439661
-2.60753e-05
0.0439766
-2.45987e-05
0.0439865
-2.32551e-05
0.043996
-2.20345e-05
0.044005
-2.09254e-05
0.0440137
-1.99144e-05
0.0440219
-1.89876e-05
0.0440298
-1.81323e-05
0.0440374
-1.73371e-05
0.0440447
-1.65935e-05
0.0440517
-1.58954e-05
0.0440585
-1.52388e-05
0.044065
-1.46211e-05
0.0440712
-1.40407e-05
0.0440772
-1.34961e-05
0.044083
-1.29857e-05
0.0440886
-1.25072e-05
0.044094
-1.20583e-05
0.0440993
-1.1636e-05
-1.12375e-05
0.0441043
0.0575421
-9.55969e-05
0.0575486
-8.77489e-05
0.0575561
-8.05922e-05
0.0575643
-7.41693e-05
0.057573
-6.84494e-05
0.0575819
-6.33449e-05
0.0575908
-5.87572e-05
0.0575998
-5.46167e-05
0.0576086
-5.08888e-05
0.0576173
-4.75538e-05
0.0576258
-4.45847e-05
0.0576342
-4.19377e-05
0.0576423
-3.9558e-05
0.0576502
-3.73931e-05
0.0576579
-3.54034e-05
0.0576654
-3.35652e-05
0.0576727
-3.18672e-05
0.0576797
-3.03042e-05
0.0576866
-2.88706e-05
0.0576932
-2.75579e-05
0.0576996
-2.63536e-05
0.0577059
-2.52428e-05
0.057712
-2.42108e-05
0.0577179
-2.32447e-05
0.0577236
-2.23346e-05
0.0577292
-2.1474e-05
0.0577346
-2.0659e-05
0.0577399
-1.98875e-05
0.057745
-1.91584e-05
0.05775
-1.84707e-05
0.0577548
-1.7823e-05
0.0577595
-1.7213e-05
0.0577641
-1.6638e-05
0.0577685
-1.60947e-05
-1.55797e-05
0.0577729
0.0695145
-8.67006e-05
0.0695075
-8.07203e-05
0.069502
-7.51088e-05
0.0694978
-6.99658e-05
0.0694947
-6.53163e-05
0.0694924
-6.11159e-05
0.069491
-5.72941e-05
0.0694902
-5.37978e-05
0.0694899
-5.06076e-05
0.0694901
-4.77218e-05
0.0694906
-4.51319e-05
0.0694915
-4.28109e-05
0.0694926
-4.07143e-05
0.069494
-3.8794e-05
0.0694956
-3.7012e-05
0.0694974
-3.53454e-05
0.0694993
-3.37864e-05
0.0695014
-3.23349e-05
0.0695035
-3.09918e-05
0.0695057
-2.97538e-05
0.069508
-2.86123e-05
0.0695103
-2.75545e-05
0.0695126
-2.6566e-05
0.069515
-2.56336e-05
0.0695174
-2.47476e-05
0.0695199
-2.39017e-05
0.0695223
-2.3093e-05
0.0695247
-2.23211e-05
0.0695271
-2.15864e-05
0.0695296
-2.08891e-05
0.069532
-2.02287e-05
0.0695344
-1.96039e-05
0.0695367
-1.90118e-05
0.0695391
-1.84496e-05
-1.79135e-05
0.0695414
0.0795264
-7.21693e-05
0.0795133
-6.76904e-05
0.0795016
-6.33951e-05
0.0794911
-5.94036e-05
0.0794815
-5.57696e-05
0.0794729
-5.24763e-05
0.079465
-4.94711e-05
0.079458
-4.67099e-05
0.0794515
-4.41784e-05
0.0794457
-4.18811e-05
0.0794404
-3.98202e-05
0.0794356
-3.79795e-05
0.0794312
-3.63242e-05
0.0794272
-3.48119e-05
0.0794236
-3.34058e-05
0.0794203
-3.20833e-05
0.0794174
-3.08366e-05
0.0794147
-2.96675e-05
0.0794123
-2.85803e-05
0.0794101
-2.7576e-05
0.0794081
-2.66499e-05
0.0794064
-2.57917e-05
0.0794048
-2.49887e-05
0.0794034
-2.42281e-05
0.0794022
-2.35e-05
0.0794011
-2.27986e-05
0.0794001
-2.21217e-05
0.0793992
-2.14699e-05
0.0793985
-2.0845e-05
0.0793978
-2.02486e-05
0.0793973
-1.96814e-05
0.0793968
-1.91427e-05
0.0793965
-1.86305e-05
0.0793962
-1.81418e-05
-1.76735e-05
0.0793959
0.0875417
-5.53688e-05
0.0875262
-5.21538e-05
0.0875118
-4.90107e-05
0.0874984
-4.60528e-05
0.087486
-4.33409e-05
0.0874744
-4.08769e-05
0.0874636
-3.86266e-05
0.0874534
-3.6556e-05
0.0874439
-3.46539e-05
0.0874349
-3.29266e-05
0.0874265
-3.13802e-05
0.0874185
-3.00071e-05
0.087411
-2.87823e-05
0.0874038
-2.7672e-05
0.0873971
-2.66444e-05
0.0873907
-2.56783e-05
0.0873846
-2.47657e-05
0.0873788
-2.39074e-05
0.0873734
-2.31085e-05
0.0873682
-2.23718e-05
0.0873632
-2.16955e-05
0.0873585
-2.10723e-05
0.087354
-2.04916e-05
0.0873497
-1.99422e-05
0.0873456
-1.9415e-05
0.0873417
-1.89041e-05
0.087338
-1.84074e-05
0.0873345
-1.79257e-05
0.0873311
-1.74614e-05
0.0873279
-1.70165e-05
0.0873248
-1.65927e-05
0.0873218
-1.61897e-05
0.087319
-1.58061e-05
0.0873163
-1.54394e-05
-1.50868e-05
0.0873137
0.0935531
-3.74337e-05
0.0935363
-3.53565e-05
0.0935206
-3.32923e-05
0.0935059
-3.13283e-05
0.093492
-2.95163e-05
0.093479
-2.78655e-05
0.0934667
-2.63559e-05
0.0934551
-2.49648e-05
0.0934442
-2.36837e-05
0.0934338
-2.25183e-05
0.0934239
-2.14757e-05
0.0934144
-2.05534e-05
0.0934054
-1.97362e-05
0.0933967
-1.9001e-05
0.0933884
-1.83245e-05
0.0933804
-1.76903e-05
0.0933727
-1.70912e-05
0.0933653
-1.65275e-05
0.0933582
-1.6003e-05
0.0933514
-1.55207e-05
0.0933448
-1.50804e-05
0.0933384
-1.46778e-05
0.0933322
-1.43054e-05
0.0933262
-1.39549e-05
0.0933204
-1.3619e-05
0.0933148
-1.32928e-05
0.0933094
-1.29745e-05
0.0933041
-1.26643e-05
0.093299
-1.23642e-05
0.0932941
-1.20763e-05
0.0932893
-1.1802e-05
0.0932846
-1.15416e-05
0.0932801
-1.12941e-05
0.0932757
-1.10577e-05
-1.08302e-05
0.0932715
0.0975602
-1.88639e-05
0.0975427
-1.78453e-05
0.0975263
-1.68228e-05
0.0975108
-1.58433e-05
0.0974962
-1.49352e-05
0.0974824
-1.41054e-05
0.0974694
-1.33457e-05
0.0974571
-1.26451e-05
0.0974454
-1.19992e-05
0.0974343
-1.14107e-05
0.0974237
-1.08837e-05
0.0974136
-1.04178e-05
0.0974039
-1.0006e-05
0.0973945
-9.63722e-06
0.0973855
-9.29936e-06
0.0973768
-8.98361e-06
0.0973683
-8.68575e-06
0.0973602
-8.40548e-06
0.0973524
-8.14473e-06
0.0973447
-7.90526e-06
0.0973374
-7.68731e-06
0.0973302
-7.48894e-06
0.0973232
-7.30649e-06
0.0973164
-7.13565e-06
0.0973097
-6.97241e-06
0.0973032
-6.81404e-06
0.0972969
-6.65929e-06
0.0972908
-6.50823e-06
0.0972848
-6.36183e-06
0.0972789
-6.22124e-06
0.0972732
-6.08734e-06
0.0972676
-5.96038e-06
0.0972621
-5.83993e-06
0.0972568
-5.72505e-06
-5.61452e-06
0.0972516
0.0995636
1.08826e-09
0.0995458
-3.70326e-10
0.099529
-1.74567e-09
0.0995131
-1.50479e-09
0.0994982
3.85017e-10
0.0994841
2.33206e-09
0.0994707
2.73072e-09
0.0994581
1.37909e-09
0.0994461
-6.32021e-10
0.0994347
-1.96394e-09
0.0994238
-1.81964e-09
0.0994134
-4.18391e-10
0.0994034
1.39368e-09
0.0993938
2.84506e-09
0.0993845
3.41627e-09
0.0993755
3.11856e-09
0.0993668
2.32489e-09
0.0993584
1.48513e-09
0.0993502
1.06054e-09
0.0993423
1.22551e-09
0.0993346
1.96874e-09
0.0993271
3.09107e-09
0.0993198
4.29459e-09
0.0993127
5.36424e-09
0.0993057
6.12794e-09
0.0992989
6.59322e-09
0.0992922
6.84317e-09
0.0992857
7.02041e-09
0.0992793
7.29085e-09
0.0992731
7.7394e-09
0.099267
8.435e-09
0.099261
9.34779e-09
0.0992552
1.04357e-08
0.0992494
1.16309e-08
1.28606e-08
0.0992438
0.0995636
1.88649e-05
0.0995458
1.78447e-05
0.099529
1.68208e-05
0.0995131
1.58416e-05
0.0994982
1.49358e-05
0.0994841
1.41086e-05
0.0994707
1.33498e-05
0.0994581
1.26474e-05
0.0994461
1.19984e-05
0.0994347
1.1408e-05
0.0994238
1.08811e-05
0.0994134
1.04175e-05
0.0994034
1.00088e-05
0.0993938
9.64232e-06
0.0993845
9.30537e-06
0.0993755
8.98912e-06
0.0993668
8.68995e-06
0.0993584
8.40846e-06
0.0993502
8.14718e-06
0.0993423
7.90822e-06
0.0993346
7.69169e-06
0.0993271
7.4953e-06
0.0993198
7.31497e-06
0.0993127
7.14595e-06
0.0993057
6.9841e-06
0.0992989
6.82663e-06
0.0992922
6.67247e-06
0.0992857
6.52195e-06
0.0992793
6.37623e-06
0.0992731
6.23665e-06
0.099267
6.10415e-06
0.099261
5.97895e-06
0.0992552
5.86056e-06
0.0992495
5.74792e-06
5.63971e-06
0.0992438
0.0975602
3.74357e-05
0.0975427
3.53562e-05
0.0975263
3.32899e-05
0.0975108
3.13263e-05
0.0974962
2.95171e-05
0.0974824
2.78688e-05
0.0974694
2.63595e-05
0.0974571
2.49662e-05
0.0974454
2.36826e-05
0.0974343
2.25162e-05
0.0974237
2.14744e-05
0.0974136
2.05543e-05
0.0974039
1.97395e-05
0.0973945
1.90056e-05
0.0973855
1.83293e-05
0.0973768
1.76945e-05
0.0973683
1.70945e-05
0.0973602
1.65302e-05
0.0973524
1.60058e-05
0.0973447
1.55245e-05
0.0973374
1.50856e-05
0.0973302
1.46845e-05
0.0973232
1.43136e-05
0.0973164
1.39643e-05
0.0973097
1.36294e-05
0.0973032
1.3304e-05
0.0972969
1.29864e-05
0.0972908
1.2677e-05
0.0972848
1.2378e-05
0.0972789
1.20913e-05
0.0972732
1.18184e-05
0.0972676
1.15596e-05
0.0972622
1.13139e-05
0.0972568
1.10794e-05
1.08539e-05
0.0972516
0.0935531
5.53697e-05
0.0935363
5.21542e-05
0.0935206
4.90105e-05
0.0935059
4.60527e-05
0.093492
4.33417e-05
0.093479
4.08783e-05
0.0934667
3.86277e-05
0.0934551
3.65563e-05
0.0934442
3.46537e-05
0.0934338
3.29267e-05
0.0934239
3.13813e-05
0.0934144
3.00093e-05
0.0934054
2.87852e-05
0.0933967
2.76749e-05
0.0933884
2.6647e-05
0.0933804
2.56807e-05
0.0933727
2.47681e-05
0.0933653
2.39106e-05
0.0933582
2.31126e-05
0.0933514
2.23771e-05
0.0933448
2.17016e-05
0.0933384
2.1079e-05
0.0933322
2.04988e-05
0.0933262
1.99498e-05
0.0933204
1.94231e-05
0.0933148
1.89131e-05
0.0933094
1.84175e-05
0.0933041
1.79372e-05
0.093299
1.74742e-05
0.0932941
1.70308e-05
0.0932893
1.66084e-05
0.0932846
1.62067e-05
0.0932801
1.58245e-05
0.0932758
1.54592e-05
1.5108e-05
0.0932715
0.0875417
7.21702e-05
0.0875262
6.76911e-05
0.0875118
6.33959e-05
0.0874984
5.94049e-05
0.087486
5.57708e-05
0.0874744
5.24766e-05
0.0874636
4.94704e-05
0.0874534
4.67092e-05
0.0874439
4.41789e-05
0.0874349
4.18834e-05
0.0874265
3.98236e-05
0.0874185
3.79828e-05
0.087411
3.63264e-05
0.0874038
3.48127e-05
0.0873971
3.34059e-05
0.0873907
3.2084e-05
0.0873846
3.08388e-05
0.0873788
2.96715e-05
0.0873734
2.85859e-05
0.0873682
2.75825e-05
0.0873632
2.66565e-05
0.0873585
2.57979e-05
0.087354
2.49943e-05
0.0873497
2.42334e-05
0.0873456
2.35057e-05
0.0873417
2.28054e-05
0.087338
2.213e-05
0.0873345
2.14799e-05
0.0873311
2.08566e-05
0.0873279
2.02618e-05
0.0873248
1.96958e-05
0.0873218
1.91581e-05
0.087319
1.86467e-05
0.0873163
1.81589e-05
1.76914e-05
0.0873137
0.0795264
8.67014e-05
0.0795133
8.0722e-05
0.0795016
7.51113e-05
0.0794911
6.9968e-05
0.0794815
6.53167e-05
0.0794729
6.11144e-05
0.079465
5.7292e-05
0.079458
5.37974e-05
0.0794515
5.06101e-05
0.0794457
4.77263e-05
0.0794404
4.51366e-05
0.0794355
4.28139e-05
0.0794312
4.07148e-05
0.0794272
3.87929e-05
0.0794236
3.70107e-05
0.0794203
3.53457e-05
0.0794174
3.37891e-05
0.0794147
3.23399e-05
0.0794123
3.09982e-05
0.0794101
2.97604e-05
0.0794081
2.86182e-05
0.0794064
2.75593e-05
0.0794048
2.65698e-05
0.0794034
2.56371e-05
0.0794022
2.47515e-05
0.0794011
2.39067e-05
0.0794001
2.30997e-05
0.0793992
2.23295e-05
0.0793985
2.15963e-05
0.0793979
2.09003e-05
0.0793973
2.02409e-05
0.0793969
1.96166e-05
0.0793965
1.9025e-05
0.0793962
1.84631e-05
1.79275e-05
0.0793959
0.0695145
9.55974e-05
0.0695075
8.77513e-05
0.069502
8.05964e-05
0.0694978
7.41726e-05
0.0694947
6.84492e-05
0.0694924
6.33416e-05
0.069491
5.87542e-05
0.0694902
5.46172e-05
0.0694899
5.08932e-05
0.0694901
4.75599e-05
0.0694906
4.45895e-05
0.0694915
4.19393e-05
0.0694926
3.95566e-05
0.069494
3.73906e-05
0.0694956
3.54019e-05
0.0694974
3.35662e-05
0.0694993
3.1871e-05
0.0695014
3.03097e-05
0.0695035
2.88767e-05
0.0695057
2.75634e-05
0.069508
2.63577e-05
0.0695103
2.52457e-05
0.0695126
2.42129e-05
0.069515
2.32468e-05
0.0695174
2.23374e-05
0.0695199
2.1478e-05
0.0695223
2.06643e-05
0.0695247
1.98942e-05
0.0695272
1.91663e-05
0.0695296
1.84794e-05
0.069532
1.78321e-05
0.0695344
1.72223e-05
0.0695368
1.66474e-05
0.0695391
1.61042e-05
1.55894e-05
0.0695415
0.0575421
9.07494e-05
0.0575486
8.13023e-05
0.0575561
7.30736e-05
0.0575643
6.5955e-05
0.057573
5.98039e-05
0.0575818
5.4461e-05
0.0575908
4.9784e-05
0.0575998
4.56687e-05
0.0576086
4.20466e-05
0.0576173
3.88659e-05
0.0576258
3.60751e-05
0.0576341
3.36171e-05
0.0576423
3.14331e-05
0.0576502
2.94719e-05
0.0576579
2.76951e-05
0.0576654
2.60772e-05
0.0576727
2.46022e-05
0.0576797
2.32594e-05
0.0576866
2.20387e-05
0.0576932
2.09287e-05
0.0576996
1.99168e-05
0.0577059
1.89894e-05
0.057712
1.81338e-05
0.0577179
1.73388e-05
0.0577236
1.65957e-05
0.0577292
1.58983e-05
0.0577346
1.52425e-05
0.0577399
1.46255e-05
0.057745
1.40457e-05
0.05775
1.35015e-05
0.0577548
1.29912e-05
0.0577595
1.25129e-05
0.0577641
1.2064e-05
0.0577686
1.16419e-05
1.12436e-05
0.0577729
0.0437052
6.3629e-05
0.0437312
5.52946e-05
0.0437558
4.84481e-05
0.043779
4.28008e-05
0.0438007
3.81071e-05
0.043821
3.41612e-05
0.04384
3.0804e-05
0.0438577
2.79241e-05
0.0438743
2.54452e-05
0.0438899
2.33095e-05
0.0439045
2.14648e-05
0.0439182
1.98606e-05
0.0439312
1.84505e-05
0.0439435
1.71971e-05
0.0439551
1.60726e-05
0.0439661
1.50587e-05
0.0439766
1.41431e-05
0.0439865
1.33166e-05
0.043996
1.25709e-05
0.044005
1.18971e-05
0.0440137
1.12861e-05
0.0440219
1.07287e-05
0.0440298
1.02164e-05
0.0440374
9.74219e-06
0.0440447
9.30041e-06
0.0440517
8.88725e-06
0.0440585
8.5001e-06
0.044065
8.13735e-06
0.0440712
7.79779e-06
0.0440772
7.48045e-06
0.0440831
7.18409e-06
0.0440887
6.90738e-06
0.0440941
6.64858e-06
0.0440993
6.40594e-06
6.1775e-06
0.0441044
0.0281316
2.36363e-05
0.0281669
2.00192e-05
0.0281982
1.71962e-05
0.028226
1.49587e-05
0.028251
1.31545e-05
0.0282734
1.16723e-05
0.0282938
1.04343e-05
0.0283124
9.38929e-06
0.0283293
8.50302e-06
0.0283449
7.74932e-06
0.0283592
7.10504e-06
0.0283725
6.54894e-06
0.0283849
6.06277e-06
0.0283965
5.63249e-06
0.0284073
5.24823e-06
0.0284175
4.90352e-06
0.028427
4.59395e-06
0.028436
4.31606e-06
0.0284445
4.06657e-06
0.0284526
3.84206e-06
0.0284602
3.63902e-06
0.0284675
3.45408e-06
0.0284744
3.28421e-06
0.028481
3.12697e-06
0.0284874
2.98054e-06
0.0284934
2.84369e-06
0.0284992
2.71566e-06
0.0285047
2.59598e-06
0.0285101
2.48431e-06
0.0285152
2.38029e-06
0.0285201
2.28349e-06
0.0285248
2.19337e-06
0.0285293
2.10928e-06
0.0285337
2.03053e-06
1.95643e-06
0.0285379
0.0108617
0.0108818
0.010899
0.0109139
0.0109271
0.0109387
0.0109492
0.0109586
0.0109671
0.0109748
0.0109819
0.0109885
0.0109945
0.0110002
0.0110054
0.0110103
0.0110149
0.0110192
0.0110233
0.0110271
0.0110308
0.0110342
0.0110375
0.0110406
0.0110436
0.0110465
0.0110492
0.0110518
0.0110543
0.0110566
0.0110589
0.0110611
0.0110632
0.0110653
0.0110672
0.0110691
-1.88531e-06
0.0110709
-1.81881e-06
0.0110727
-1.75543e-06
0.0110744
-1.69491e-06
0.011076
-1.63706e-06
0.0110776
-1.5818e-06
0.0110791
-1.52908e-06
0.0110806
-1.4789e-06
0.011082
-1.43119e-06
-1.38591e-06
0.0110834
0.0285419
-5.95814e-06
0.0285459
-5.75303e-06
0.0285497
-5.55765e-06
0.0285534
-5.37107e-06
0.0285569
-5.19266e-06
0.0285604
-5.02208e-06
0.0285637
-4.85908e-06
0.0285669
-4.70357e-06
0.02857
-4.5554e-06
-4.41439e-06
0.0285731
0.0441092
-1.086e-05
0.044114
-1.05009e-05
0.0441186
-1.01582e-05
0.044123
-9.83048e-06
0.0441274
-9.51663e-06
0.0441316
-9.21604e-06
0.0441356
-8.92832e-06
0.0441396
-8.65323e-06
0.0441434
-8.39053e-06
-8.13987e-06
0.0441471
0.0577771
-1.50897e-05
0.0577812
-1.46218e-05
0.0577853
-1.41737e-05
0.0577892
-1.37437e-05
0.057793
-1.33307e-05
0.0577967
-1.29339e-05
0.0578003
-1.2553e-05
0.0578039
-1.21877e-05
0.0578073
-1.18378e-05
-1.15028e-05
0.0578107
0.0695437
-1.74006e-05
0.069546
-1.69079e-05
0.0695483
-1.64334e-05
0.0695505
-1.59757e-05
0.0695527
-1.5534e-05
0.0695549
-1.51077e-05
0.069557
-1.46969e-05
0.0695591
-1.43014e-05
0.0695612
-1.3921e-05
-1.35554e-05
0.0695633
0.0793957
-1.72225e-05
0.0793956
-1.67864e-05
0.0793955
-1.63635e-05
0.0793955
-1.59529e-05
0.0793955
-1.55542e-05
0.0793956
-1.51674e-05
0.0793957
-1.4793e-05
0.0793958
-1.4431e-05
0.079396
-1.40814e-05
-1.3744e-05
0.0793962
0.0873112
-1.47456e-05
0.0873089
-1.44135e-05
0.0873066
-1.40893e-05
0.0873044
-1.37725e-05
0.0873023
-1.34629e-05
0.0873003
-1.31612e-05
0.0872984
-1.28677e-05
0.0872965
-1.25829e-05
0.0872948
-1.23069e-05
-1.20397e-05
0.087293
0.0932673
-1.06093e-05
0.0932633
-1.03935e-05
0.0932594
-1.01818e-05
0.0932556
-9.97362e-06
0.0932519
-9.76929e-06
0.0932483
-9.56924e-06
0.0932448
-9.37402e-06
0.0932414
-9.18406e-06
0.0932381
-8.99956e-06
-8.82047e-06
0.0932349
0.0972465
-5.50716e-06
0.0972415
-5.402e-06
0.0972366
-5.2985e-06
0.0972319
-5.19645e-06
0.0972272
-5.09596e-06
0.0972226
-4.99733e-06
0.0972181
-4.90087e-06
0.0972138
-4.80687e-06
0.0972095
-4.71542e-06
-4.62651e-06
0.0972053
0.0992383
1.40858e-08
0.0992329
1.52618e-08
0.0992276
1.63882e-08
0.0992224
1.74621e-08
0.0992172
1.85026e-08
0.0992122
1.95354e-08
0.0992073
2.05815e-08
0.0992025
2.16753e-08
0.0991977
2.2831e-08
2.40735e-08
0.0991931
0.0992383
5.53466e-06
0.0992329
5.43177e-06
0.0992276
5.33046e-06
0.0992224
5.23054e-06
0.0992173
5.13213e-06
0.0992122
5.03557e-06
0.0992073
4.94123e-06
0.0992025
4.84941e-06
0.0991977
4.76027e-06
4.67382e-06
0.0991931
0.0972465
1.0635e-05
0.0972415
1.04212e-05
0.0972366
1.02115e-05
0.0972319
1.00053e-05
0.0972272
9.80302e-06
0.0972226
9.60502e-06
0.0972182
9.41192e-06
0.0972138
9.22414e-06
0.0972095
9.04193e-06
8.86523e-06
0.0972053
0.0932674
1.47683e-05
0.0932634
1.44379e-05
0.0932594
1.41154e-05
0.0932557
1.38004e-05
0.093252
1.34928e-05
0.0932484
1.31931e-05
0.0932449
1.29017e-05
0.0932415
1.26191e-05
0.0932382
1.23453e-05
1.20803e-05
0.093235
0.0873113
1.72414e-05
0.0873089
1.68065e-05
0.0873066
1.63851e-05
0.0873044
1.59761e-05
0.0873024
1.55792e-05
0.0873004
1.51945e-05
0.0872984
1.4822e-05
0.0872966
1.4462e-05
0.0872948
1.41145e-05
1.37791e-05
0.0872931
0.0793958
1.74151e-05
0.0793956
1.69234e-05
0.0793956
1.64501e-05
0.0793956
1.59938e-05
0.0793956
1.55536e-05
0.0793957
1.51292e-05
0.0793958
1.47201e-05
0.0793959
1.43263e-05
0.0793961
1.39476e-05
1.35835e-05
0.0793963
0.0695438
1.50998e-05
0.0695461
1.46326e-05
0.0695483
1.41855e-05
0.0695506
1.37567e-05
0.0695528
1.33449e-05
0.069555
1.29495e-05
0.0695571
1.25699e-05
0.0695592
1.22059e-05
0.0695613
1.18571e-05
1.15231e-05
0.0695634
0.0577772
1.08663e-05
0.0577813
1.05077e-05
0.0577853
1.01656e-05
0.0577892
9.83858e-06
0.057793
9.52551e-06
0.0577968
9.2257e-06
0.0578004
8.93878e-06
0.0578039
8.66444e-06
0.0578074
8.40246e-06
8.15245e-06
0.0578108
0.0441093
5.9616e-06
0.044114
5.75661e-06
0.0441186
5.56139e-06
0.0441231
5.37496e-06
0.0441274
5.19679e-06
0.0441316
5.02644e-06
0.0441357
4.8638e-06
0.0441397
4.70864e-06
0.0441435
4.56089e-06
4.42028e-06
0.0441472
0.028542
1.88636e-06
0.0285459
1.81981e-06
0.0285497
1.7564e-06
0.0285534
1.69584e-06
0.028557
1.638e-06
0.0285604
1.58279e-06
0.0285637
1.53017e-06
0.028567
1.48012e-06
0.0285701
1.43258e-06
1.38747e-06
0.0285731
0.0110691
0.0110709
0.0110727
0.0110744
0.011076
0.0110776
0.0110791
0.0110806
0.011082
0.0110834
0.0110847
-1.34292e-06
0.011086
-1.30211e-06
0.0110873
-1.26326e-06
0.0110885
-1.22623e-06
0.0110897
-1.19078e-06
0.0110909
-1.15678e-06
0.011092
-1.12405e-06
0.0110931
-1.09252e-06
0.0110942
-1.06206e-06
0.0110952
-1.03267e-06
0.0110962
-1.00428e-06
0.0110972
-9.76907e-07
0.0110981
-9.50507e-07
0.011099
-9.25107e-07
0.0110999
-9.0065e-07
0.0111008
-8.77148e-07
0.0111017
-8.54524e-07
0.0111025
-8.32774e-07
0.0111033
-8.11803e-07
0.0111041
-7.916e-07
0.0111049
-7.7207e-07
0.0111056
-7.53203e-07
0.0111064
-7.34918e-07
0.0111071
-7.17217e-07
0.0111078
-7.00033e-07
0.0111085
-6.83386e-07
0.0111091
-6.67219e-07
0.0111098
-6.51566e-07
0.0111104
-6.36377e-07
0.0111111
-6.21693e-07
0.0111117
-6.07464e-07
0.0111123
-5.93738e-07
0.0111128
-5.80468e-07
0.0111134
-5.67708e-07
-5.55423e-07
0.011114
0.028576
-4.28024e-06
0.0285788
-4.15258e-06
0.0285816
-4.03092e-06
0.0285843
-3.91475e-06
0.0285869
-3.80356e-06
0.0285895
-3.69685e-06
0.0285919
-3.59417e-06
0.0285943
-3.4952e-06
0.0285967
-3.39966e-06
0.0285989
-3.30738e-06
0.0286012
-3.21823e-06
0.0286033
-3.13216e-06
0.0286054
-3.04909e-06
0.0286075
-2.96901e-06
0.0286094
-2.89184e-06
0.0286114
-2.81752e-06
0.0286133
-2.74593e-06
0.0286151
-2.67695e-06
0.0286169
-2.61043e-06
0.0286187
-2.54623e-06
0.0286204
-2.48417e-06
0.0286221
-2.42413e-06
0.0286237
-2.36597e-06
0.0286253
-2.30957e-06
0.0286268
-2.25485e-06
0.0286283
-2.20174e-06
0.0286298
-2.15018e-06
0.0286313
-2.10015e-06
0.0286327
-2.05161e-06
0.0286341
-2.00455e-06
0.0286354
-1.95897e-06
0.0286368
-1.91486e-06
0.028638
-1.87222e-06
0.0286393
-1.83109e-06
-1.79149e-06
0.0286405
0.0441508
-7.90078e-06
0.0441543
-7.67263e-06
0.0441577
-7.45466e-06
0.044161
-7.24607e-06
0.0441643
-7.04602e-06
0.0441674
-6.85373e-06
0.0441705
-6.66852e-06
0.0441735
-6.48983e-06
0.0441764
-6.31722e-06
0.0441793
-6.15039e-06
0.044182
-5.98912e-06
0.0441847
-5.83326e-06
0.0441874
-5.6827e-06
0.0441899
-5.53734e-06
0.0441924
-5.39705e-06
0.0441949
-5.26168e-06
0.0441973
-5.13105e-06
0.0441996
-5.00493e-06
0.0442019
-4.8831e-06
0.0442041
-4.76531e-06
0.0442063
-4.6513e-06
0.0442084
-4.54085e-06
0.0442104
-4.43375e-06
0.0442125
-4.32982e-06
0.0442144
-4.2289e-06
0.0442164
-4.13088e-06
0.0442183
-4.03567e-06
0.0442201
-3.9432e-06
0.0442219
-3.85341e-06
0.0442237
-3.76627e-06
0.0442254
-3.68175e-06
0.0442271
-3.59985e-06
0.0442287
-3.52055e-06
0.0442303
-3.4439e-06
-3.36995e-06
0.0442319
0.057814
-1.11821e-05
0.0578172
-1.0875e-05
0.0578203
-1.05807e-05
0.0578233
-1.02981e-05
0.0578263
-1.00263e-05
0.0578292
-9.76435e-06
0.0578321
-9.51152e-06
0.0578348
-9.26713e-06
0.0578376
-9.03067e-06
0.0578402
-8.80176e-06
0.0578428
-8.58013e-06
0.0578453
-8.36558e-06
0.0578478
-8.15795e-06
0.0578502
-7.95709e-06
0.0578526
-7.76281e-06
0.0578549
-7.57492e-06
0.0578572
-7.39318e-06
0.0578594
-7.21732e-06
0.0578615
-7.04704e-06
0.0578637
-6.88205e-06
0.0578657
-6.72206e-06
0.0578678
-6.56679e-06
0.0578697
-6.416e-06
0.0578717
-6.26945e-06
0.0578736
-6.12699e-06
0.0578754
-5.98845e-06
0.0578772
-5.85372e-06
0.057879
-5.72269e-06
0.0578808
-5.59531e-06
0.0578825
-5.47151e-06
0.0578841
-5.35124e-06
0.0578858
-5.2345e-06
0.0578874
-5.12127e-06
0.057889
-5.0116e-06
-4.90555e-06
0.0578905
0.0695653
-1.3204e-05
0.0695673
-1.28661e-05
0.0695693
-1.25408e-05
0.0695712
-1.22272e-05
0.0695731
-1.19244e-05
0.069575
-1.16316e-05
0.0695768
-1.13479e-05
0.0695786
-1.10729e-05
0.0695804
-1.0806e-05
0.0695821
-1.0547e-05
0.0695838
-1.02956e-05
0.0695855
-1.00516e-05
0.0695872
-9.81494e-06
0.0695888
-9.58536e-06
0.0695904
-9.36271e-06
0.069592
-9.14677e-06
0.0695935
-8.9373e-06
0.069595
-8.73402e-06
0.0695965
-8.53664e-06
0.069598
-8.34488e-06
0.0695994
-8.15845e-06
0.0696008
-7.97708e-06
0.0696022
-7.80056e-06
0.0696036
-7.62866e-06
0.0696049
-7.46123e-06
0.0696062
-7.29811e-06
0.0696075
-7.1392e-06
0.0696088
-6.98439e-06
0.06961
-6.83362e-06
0.0696112
-6.68682e-06
0.0696124
-6.54395e-06
0.0696136
-6.40499e-06
0.0696147
-6.26994e-06
0.0696159
-6.13885e-06
-6.01179e-06
0.069617
0.0793964
-1.34184e-05
0.0793966
-1.31039e-05
0.0793969
-1.27997e-05
0.0793972
-1.2505e-05
0.0793975
-1.2219e-05
0.0793978
-1.19411e-05
0.0793981
-1.16708e-05
0.0793984
-1.14076e-05
0.0793988
-1.11513e-05
0.0793991
-1.09017e-05
0.0793995
-1.06587e-05
0.0793999
-1.04221e-05
0.0794002
-1.01919e-05
0.0794006
-9.96796e-06
0.079401
-9.75008e-06
0.0794014
-9.53808e-06
0.0794018
-9.33174e-06
0.0794022
-9.13082e-06
0.0794026
-8.93509e-06
0.079403
-8.74429e-06
0.0794034
-8.55821e-06
0.0794038
-8.37666e-06
0.0794042
-8.19945e-06
0.0794046
-8.02644e-06
0.079405
-7.8575e-06
0.0794054
-7.69254e-06
0.0794058
-7.53147e-06
0.0794061
-7.37423e-06
0.0794065
-7.22076e-06
0.0794069
-7.07101e-06
0.0794073
-6.92496e-06
0.0794077
-6.78258e-06
0.0794081
-6.6439e-06
0.0794084
-6.50898e-06
-6.3779e-06
0.0794088
0.0872914
-1.17808e-05
0.0872898
-1.15296e-05
0.0872883
-1.12856e-05
0.0872869
-1.1048e-05
0.0872855
-1.08163e-05
0.0872841
-1.059e-05
0.0872828
-1.03688e-05
0.0872816
-1.01524e-05
0.0872803
-9.94091e-06
0.0872792
-9.73414e-06
0.087278
-9.53214e-06
0.087277
-9.33487e-06
0.0872759
-9.14231e-06
0.0872749
-8.95438e-06
0.0872739
-8.77094e-06
0.087273
-8.59185e-06
0.0872721
-8.41692e-06
0.0872712
-8.24598e-06
0.0872703
-8.07884e-06
0.0872695
-7.91534e-06