/*--------------------------------*- C++ -*----------------------------------*\
| =========                 |                                                 |
| \\      /  F ield         | OpenFOAM: The Open Source CFD Toolbox           |
|  \\    /   O peration     | Version:  2406                                  |
|   \\  /    A nd           | Website:  www.openfoam.com                      |
|    \\/     M anipulation  |                                                 |
\*---------------------------------------------------------------------------*/
FoamFile
{
    version     2.0;
    format      ascii;
    arch        "LSB;label=32;scalar=64";
    class       volVectorField;
    location    "80";
    object      U;
}
// * * * * * * * * * * * * * * * * * * * * * * * * * * * * * * * * * * * * * //

dimensions      [0 1 -1 0 0 0 0];

internalField   nonuniform List<vector> 
2000
(
(0.0990058 -0.00124689 0)
(0.100927 -0.0014403 0)
(0.102842 -0.000917668 0)
(0.104439 -0.000538499 0)
(0.105588 -0.00034181 0)
(0.106425 -0.000226404 0)
(0.107061 -0.000152358 0)
(0.107552 -0.000107275 0)
(0.107939 -8.04603e-05 0)
(0.10825 -6.33957e-05 0)
(0.276492 -0.00156652 0)
(0.27615 -0.00269447 0)
(0.27642 -0.00250423 0)
(0.276947 -0.00203161 0)
(0.277625 -0.00161437 0)
(0.278352 -0.00127228 0)
(0.279044 -0.000997454 0)
(0.279667 -0.000788453 0)
(0.280217 -0.00063502 0)
(0.280702 -0.000521824 0)
(0.436751 -0.000829953 0)
(0.436429 -0.00174408 0)
(0.436124 -0.00196761 0)
(0.435762 -0.00191332 0)
(0.435604 -0.00178681 0)
(0.435668 -0.00162243 0)
(0.435855 -0.00143628 0)
(0.436096 -0.00125425 0)
(0.436363 -0.00109232 0)
(0.436641 -0.000953333 0)
(0.57693 -0.000450712 0)
(0.576828 -0.00112265 0)
(0.576636 -0.00144724 0)
(0.576194 -0.00154713 0)
(0.575801 -0.00154999 0)
(0.575568 -0.00149875 0)
(0.575439 -0.00140836 0)
(0.575368 -0.0012987 0)
(0.575341 -0.00118699 0)
(0.575352 -0.00108117 0)
(0.697023 -0.000284136 0)
(0.697025 -0.000768544 0)
(0.696973 -0.00106704 0)
(0.696628 -0.00120321 0)
(0.696246 -0.00125114 0)
(0.695961 -0.00124969 0)
(0.695745 -0.0012117 0)
(0.695563 -0.00114995 0)
(0.695408 -0.0010781 0)
(0.695282 -0.00100465 0)
(0.79708 -0.00019026 0)
(0.797128 -0.00053281 0)
(0.797157 -0.000774252 0)
(0.796898 -0.000909146 0)
(0.79656 -0.000974057 0)
(0.796284 -0.000996004 0)
(0.796059 -0.000985797 0)
(0.795852 -0.00095238 0)
(0.795658 -0.00090616 0)
(0.795485 -0.000854909 0)
(0.877117 -0.000128543 0)
(0.877185 -0.000366649 0)
(0.877257 -0.000548923 0)
(0.877055 -0.00066408 0)
(0.876757 -0.00072793 0)
(0.876499 -0.000757035 0)
(0.876278 -0.000759892 0)
(0.876067 -0.000743073 0)
(0.875863 -0.000714055 0)
(0.875672 -0.000679002 0)
(0.93714 -8.35251e-05 0)
(0.937217 -0.000240709 0)
(0.937311 -0.000366927 0)
(0.937146 -0.00045266 0)
(0.936877 -0.000504142 0)
(0.936634 -0.000530645 0)
(0.93642 -0.000537979 0)
(0.93621 -0.000530655 0)
(0.936002 -0.000513627 0)
(0.935803 -0.000491198 0)
(0.977153 -4.72832e-05 0)
(0.977234 -0.000136993 0)
(0.977341 -0.00021093 0)
(0.977197 -0.000263265 0)
(0.976946 -0.000296203 0)
(0.976714 -0.000314276 0)
(0.976505 -0.000320722 0)
(0.976297 -0.000318148 0)
(0.976087 -0.000309386 0)
(0.975884 -0.000296968 0)
(0.99716 -1.53295e-05 0)
(0.997242 -4.45128e-05 0)
(0.997354 -6.88446e-05 0)
(0.997219 -8.63989e-05 0)
(0.996978 -9.76945e-05 0)
(0.996751 -0.000104068 0)
(0.996545 -0.000106545 0)
(0.996338 -0.000105978 0)
(0.996127 -0.000103291 0)
(0.995922 -9.93232e-05 0)
(0.99716 1.53313e-05 0)
(0.997242 4.45182e-05 0)
(0.997354 6.88562e-05 0)
(0.997219 8.64161e-05 0)
(0.996978 9.7713e-05 0)
(0.996751 0.000104085 0)
(0.996545 0.000106558 0)
(0.996338 0.000105989 0)
(0.996127 0.000103308 0)
(0.995922 9.93458e-05 0)
(0.977153 4.72853e-05 0)
(0.977234 0.000136999 0)
(0.977341 0.00021094 0)
(0.977197 0.000263281 0)
(0.976946 0.000296221 0)
(0.976714 0.00031429 0)
(0.976505 0.00032073 0)
(0.976297 0.000318155 0)
(0.976087 0.0003094 0)
(0.975884 0.000296991 0)
(0.93714 8.35278e-05 0)
(0.937217 0.000240717 0)
(0.937311 0.000366942 0)
(0.937146 0.000452676 0)
(0.936877 0.000504157 0)
(0.936634 0.00053066 0)
(0.93642 0.000537994 0)
(0.93621 0.000530667 0)
(0.936002 0.000513639 0)
(0.935803 0.000491213 0)
(0.877117 0.000128545 0)
(0.877185 0.000366655 0)
(0.877257 0.000548932 0)
(0.877055 0.000664091 0)
(0.876757 0.000727945 0)
(0.876499 0.000757054 0)
(0.876278 0.000759913 0)
(0.876067 0.000743091 0)
(0.875863 0.00071407 0)
(0.875672 0.000679016 0)
(0.79708 0.000190263 0)
(0.797128 0.000532818 0)
(0.797157 0.000774264 0)
(0.796898 0.000909157 0)
(0.79656 0.000974071 0)
(0.796284 0.000996025 0)
(0.796059 0.00098582 0)
(0.795852 0.000952398 0)
(0.795658 0.000906168 0)
(0.795485 0.000854912 0)
(0.697023 0.000284139 0)
(0.697025 0.000768552 0)
(0.696973 0.00106705 0)
(0.696628 0.00120322 0)
(0.696246 0.00125116 0)
(0.695961 0.00124971 0)
(0.695745 0.00121173 0)
(0.695563 0.00114997 0)
(0.695408 0.00107811 0)
(0.695282 0.00100466 0)
(0.57693 0.000450715 0)
(0.576828 0.00112266 0)
(0.576636 0.00144725 0)
(0.576194 0.00154715 0)
(0.575801 0.00155001 0)
(0.575568 0.00149877 0)
(0.575439 0.00140839 0)
(0.575368 0.00129872 0)
(0.575341 0.001187 0)
(0.575352 0.00108118 0)
(0.436751 0.000829957 0)
(0.436429 0.00174409 0)
(0.436124 0.00196763 0)
(0.435762 0.00191334 0)
(0.435604 0.00178683 0)
(0.435668 0.00162245 0)
(0.435855 0.00143631 0)
(0.436096 0.00125428 0)
(0.436363 0.00109234 0)
(0.436641 0.00095334 0)
(0.276492 0.00156653 0)
(0.27615 0.00269448 0)
(0.27642 0.00250425 0)
(0.276947 0.00203163 0)
(0.277625 0.00161439 0)
(0.278352 0.0012723 0)
(0.279044 0.000997482 0)
(0.279667 0.000788484 0)
(0.280217 0.00063504 0)
(0.280701 0.000521835 0)
(0.0990058 0.00124689 0)
(0.100927 0.0014403 0)
(0.102842 0.000917676 0)
(0.104439 0.000538509 0)
(0.105588 0.00034182 0)
(0.106425 0.000226419 0)
(0.107061 0.000152372 0)
(0.107552 0.000107278 0)
(0.107939 8.04601e-05 0)
(0.10825 6.34076e-05 0)
(0.108508 -5.15782e-05 0)
(0.108724 -4.30124e-05 0)
(0.108909 -3.66208e-05 0)
(0.109069 -3.16906e-05 0)
(0.109208 -2.77741e-05 0)
(0.109332 -2.45996e-05 0)
(0.109442 -2.19818e-05 0)
(0.109541 -1.97828e-05 0)
(0.10963 -1.79076e-05 0)
(0.109711 -1.6303e-05 0)
(0.109785 -1.49369e-05 0)
(0.109853 -1.37758e-05 0)
(0.109916 -1.27803e-05 0)
(0.109974 -1.1906e-05 0)
(0.110029 -1.11171e-05 0)
(0.110079 -1.03925e-05 0)
(0.110127 -9.72522e-06 0)
(0.110171 -9.11832e-06 0)
(0.110213 -8.5756e-06 0)
(0.110253 -8.09653e-06 0)
(0.11029 -7.67498e-06 0)
(0.110325 -7.29898e-06 0)
(0.110359 -6.95612e-06 0)
(0.110391 -6.63485e-06 0)
(0.110422 -6.32817e-06 0)
(0.110451 -6.0333e-06 0)
(0.110478 -5.75094e-06 0)
(0.110505 -5.48399e-06 0)
(0.11053 -5.23531e-06 0)
(0.110555 -5.00678e-06 0)
(0.110578 -4.79865e-06 0)
(0.1106 -4.6091e-06 0)
(0.110622 -4.43556e-06 0)
(0.110643 -4.27432e-06 0)
(0.110662 -4.12242e-06 0)
(0.281128 -0.000436247 0)
(0.281503 -0.000370148 0)
(0.281834 -0.000318354 0)
(0.282128 -0.000277228 0)
(0.282391 -0.000244026 0)
(0.282627 -0.000216719 0)
(0.282841 -0.000193893 0)
(0.283035 -0.000174622 0)
(0.283212 -0.000158276 0)
(0.283374 -0.000144365 0)
(0.283523 -0.000132456 0)
(0.283661 -0.000122158 0)
(0.283789 -0.000113144 0)
(0.283909 -0.000105167 0)
(0.284021 -9.80467e-05 0)
(0.284125 -9.16617e-05 0)
(0.284224 -8.59245e-05 0)
(0.284316 -8.07648e-05 0)
(0.284404 -7.61215e-05 0)
(0.284486 -7.19338e-05 0)
(0.284565 -6.81426e-05 0)
(0.284639 -6.46906e-05 0)
(0.28471 -6.15246e-05 0)
(0.284778 -5.85998e-05 0)
(0.284843 -5.58798e-05 0)
(0.284904 -5.33388e-05 0)
(0.284964 -5.09594e-05 0)
(0.28502 -4.87306e-05 0)
(0.285074 -4.66459e-05 0)
(0.285126 -4.46993e-05 0)
(0.285176 -4.2885e-05 0)
(0.285224 -4.11943e-05 0)
(0.285271 -3.96172e-05 0)
(0.285315 -3.81418e-05 0)
(0.285358 -3.67555e-05 0)
(0.436917 -0.000834845 0)
(0.437184 -0.000734143 0)
(0.437438 -0.000649024 0)
(0.437677 -0.000577341 0)
(0.437901 -0.000516829 0)
(0.438111 -0.000465322 0)
(0.438308 -0.000421058 0)
(0.438491 -0.000382786 0)
(0.438663 -0.000349649 0)
(0.438823 -0.000320967 0)
(0.438974 -0.000296095 0)
(0.439115 -0.000274387 0)
(0.439249 -0.000255247 0)
(0.439375 -0.000238189 0)
(0.439494 -0.000222861 0)
(0.439608 -0.000209023 0)
(0.439715 -0.000196511 0)
(0.439817 -0.000185198 0)
(0.439914 -0.000174969 0)
(0.440006 -0.000165705 0)
(0.440094 -0.000157287 0)
(0.440179 -0.000149596 0)
(0.44026 -0.000142526 0)
(0.440337 -0.000135983 0)
(0.440411 -0.000129892 0)
(0.440483 -0.000124199 0)
(0.440552 -0.000118863 0)
(0.440618 -0.000113858 0)
(0.440681 -0.000109165 0)
(0.440743 -0.000104768 0)
(0.440802 -0.000100654 0)
(0.440859 -9.68049e-05 0)
(0.440914 -9.32016e-05 0)
(0.440967 -8.98213e-05 0)
(0.441019 -8.66403e-05 0)
(0.575391 -0.000983317 0)
(0.57545 -0.000894025 0)
(0.575521 -0.000813754 0)
(0.5756 -0.000742536 0)
(0.575685 -0.000679702 0)
(0.575773 -0.000624107 0)
(0.575863 -0.000574599 0)
(0.575953 -0.000530362 0)
(0.576042 -0.000490927 0)
(0.57613 -0.000455949 0)
(0.576216 -0.000425015 0)
(0.5763 -0.000397579 0)
(0.576383 -0.000373033 0)
(0.576463 -0.000350836 0)
(0.576541 -0.000330588 0)
(0.576617 -0.000312041 0)
(0.576691 -0.00029505 0)
(0.576762 -0.000279523 0)
(0.576832 -0.000265363 0)
(0.576899 -0.000252451 0)
(0.576965 -0.000240643 0)
(0.577028 -0.000229787 0)
(0.57709 -0.000219741 0)
(0.57715 -0.000210379 0)
(0.577208 -0.000201608 0)
(0.577264 -0.000193359 0)
(0.577319 -0.000185589 0)
(0.577373 -0.000178268 0)
(0.577425 -0.000171377 0)
(0.577475 -0.000164897 0)
(0.577524 -0.000158809 0)
(0.577572 -0.000153091 0)
(0.577618 -0.000147713 0)
(0.577663 -0.000142645 0)
(0.577707 -0.000137855 0)
(0.695183 -0.000933108 0)
(0.695105 -0.000865051 0)
(0.695044 -0.000801745 0)
(0.694996 -0.000744045 0)
(0.69496 -0.000692037 0)
(0.694933 -0.00064513 0)
(0.694915 -0.000602521 0)
(0.694904 -0.000563643 0)
(0.694899 -0.00052828 0)
(0.694899 -0.00049637 0)
(0.694902 -0.000467765 0)
(0.69491 -0.00044212 0)
(0.69492 -0.000418935 0)
(0.694933 -0.000397708 0)
(0.694948 -0.000378055 0)
(0.694965 -0.000359756 0)
(0.694983 -0.000342728 0)
(0.695003 -0.000326953 0)
(0.695024 -0.000312412 0)
(0.695046 -0.000299041 0)
(0.695068 -0.00028673 0)
(0.695091 -0.000275334 0)
(0.695114 -0.000264702 0)
(0.695138 -0.000254705 0)
(0.695162 -0.000245245 0)
(0.695186 -0.000236258 0)
(0.695211 -0.000227713 0)
(0.695235 -0.000219597 0)
(0.695259 -0.000211904 0)
(0.695284 -0.000204629 0)
(0.695308 -0.000197758 0)
(0.695332 -0.000191271 0)
(0.695356 -0.000185139 0)
(0.695379 -0.000179328 0)
(0.695403 -0.000173804 0)
(0.795331 -0.000802583 0)
(0.795194 -0.0007512 0)
(0.795071 -0.000702311 0)
(0.79496 -0.000657097 0)
(0.79486 -0.000616016 0)
(0.79477 -0.000578797 0)
(0.794687 -0.000544829 0)
(0.794613 -0.000513631 0)
(0.794546 -0.000485052 0)
(0.794485 -0.000459127 0)
(0.794429 -0.000435845 0)
(0.794378 -0.000414993 0)
(0.794333 -0.000396169 0)
(0.794291 -0.000378909 0)
(0.794253 -0.000362834 0)
(0.794219 -0.000347722 0)
(0.794188 -0.000333501 0)
(0.79416 -0.000320195 0)
(0.794134 -0.000307837 0)
(0.794111 -0.000296423 0)
(0.794091 -0.000285886 0)
(0.794072 -0.000276105 0)
(0.794056 -0.000266941 0)
(0.794041 -0.000258263 0)
(0.794027 -0.000249971 0)
(0.794016 -0.000242008 0)
(0.794005 -0.000234353 0)
(0.793996 -0.000227011 0)
(0.793988 -0.000219993 0)
(0.793981 -0.000213314 0)
(0.793975 -0.000206974 0)
(0.79397 -0.000200959 0)
(0.793966 -0.000195248 0)
(0.793963 -0.000189807 0)
(0.79396 -0.000184602 0)
(0.875497 -0.000641491 0)
(0.875336 -0.000603522 0)
(0.875187 -0.000566637 0)
(0.875049 -0.000532071 0)
(0.87492 -0.000500459 0)
(0.8748 -0.000471765 0)
(0.874688 -0.000445563 0)
(0.874583 -0.000421462 0)
(0.874485 -0.000399334 0)
(0.874393 -0.000379246 0)
(0.874306 -0.000361256 0)
(0.874224 -0.000345251 0)
(0.874146 -0.000330929 0)
(0.874073 -0.000317897 0)
(0.874004 -0.000305798 0)
(0.873938 -0.000294407 0)
(0.873876 -0.000283641 0)
(0.873816 -0.000273523 0)
(0.87376 -0.000264106 0)
(0.873707 -0.000255415 0)
(0.873656 -0.00024742 0)
(0.873608 -0.000240031 0)
(0.873562 -0.000233125 0)
(0.873518 -0.000226578 0)
(0.873476 -0.000220291 0)
(0.873436 -0.000214203 0)
(0.873398 -0.000208297 0)
(0.873362 -0.000202581 0)
(0.873327 -0.000197081 0)
(0.873294 -0.000191819 0)
(0.873263 -0.000186808 0)
(0.873233 -0.000182045 0)
(0.873204 -0.000177511 0)
(0.873176 -0.000173179 0)
(0.87315 -0.000169015 0)
(0.935617 -0.0004661 0)
(0.935444 -0.000439975 0)
(0.935282 -0.000414113 0)
(0.93513 -0.000389576 0)
(0.934987 -0.000366974 0)
(0.934853 -0.000346393 0)
(0.934727 -0.000327575 0)
(0.934608 -0.000310233 0)
(0.934495 -0.00029427 0)
(0.934388 -0.000279757 0)
(0.934287 -0.000266776 0)
(0.93419 -0.000255289 0)
(0.934098 -0.000245098 0)
(0.93401 -0.000235907 0)
(0.933925 -0.000227431 0)
(0.933843 -0.000219471 0)
(0.933765 -0.000211947 0)
(0.93369 -0.000204866 0)
(0.933617 -0.000198278 0)
(0.933547 -0.000192218 0)
(0.93348 -0.000186679 0)
(0.933415 -0.000181604 0)
(0.933352 -0.000176897 0)
(0.933292 -0.000172456 0)
(0.933233 -0.000168193 0)
(0.933176 -0.000164052 0)
(0.93312 -0.00016001 0)
(0.933067 -0.000156076 0)
(0.933015 -0.000152273 0)
(0.932965 -0.000148626 0)
(0.932916 -0.00014515 0)
(0.932869 -0.00014185 0)
(0.932823 -0.000138712 0)
(0.932779 -0.000135714 0)
(0.932736 -0.000132828 0)
(0.975692 -0.00028259 0)
(0.975512 -0.000267318 0)
(0.975342 -0.000251994 0)
(0.975183 -0.000237322 0)
(0.975032 -0.000223727 0)
(0.974891 -0.000211307 0)
(0.974757 -0.000199929 0)
(0.974631 -0.000189424 0)
(0.974511 -0.000179731 0)
(0.974397 -0.0001709 0)
(0.974289 -0.000162996 0)
(0.974185 -0.000156016 0)
(0.974086 -0.000149854 0)
(0.973991 -0.000144332 0)
(0.973899 -0.000139268 0)
(0.97381 -0.000134528 0)
(0.973725 -0.00013005 0)
(0.973642 -0.000125834 0)
(0.973562 -0.000121911 0)
(0.973485 -0.000118311 0)
(0.97341 -0.000115037 0)
(0.973337 -0.000112058 0)
(0.973266 -0.000109318 0)
(0.973197 -0.000106751 0)
(0.97313 -0.000104294 0)
(0.973064 -0.000101909 0)
(0.973 -9.95751e-05 0)
(0.972938 -9.72968e-05 0)
(0.972877 -9.50888e-05 0)
(0.972818 -9.29694e-05 0)
(0.97276 -9.09519e-05 0)
(0.972704 -8.90402e-05 0)
(0.972648 -8.72276e-05 0)
(0.972594 -8.54996e-05 0)
(0.972542 -8.38377e-05 0)
(0.995728 -9.46491e-05 0)
(0.995544 -8.96368e-05 0)
(0.995371 -8.45734e-05 0)
(0.995208 -7.96954e-05 0)
(0.995054 -7.51514e-05 0)
(0.994909 -7.0988e-05 0)
(0.994772 -6.71752e-05 0)
(0.994642 -6.36601e-05 0)
(0.994519 -6.04174e-05 0)
(0.994402 -5.74566e-05 0)
(0.994291 -5.47979e-05 0)
(0.994185 -5.2444e-05 0)
(0.994083 -5.03661e-05 0)
(0.993985 -4.85101e-05 0)
(0.99389 -4.68166e-05 0)
(0.993799 -4.52388e-05 0)
(0.99371 -4.37519e-05 0)
(0.993625 -4.23522e-05 0)
(0.993542 -4.10482e-05 0)
(0.993462 -3.98492e-05 0)
(0.993384 -3.87579e-05 0)
(0.993308 -3.77661e-05 0)
(0.993234 -3.68567e-05 0)
(0.993162 -3.60083e-05 0)
(0.993092 -3.52004e-05 0)
(0.993023 -3.44182e-05 0)
(0.992955 -3.36542e-05 0)
(0.992889 -3.29079e-05 0)
(0.992825 -3.21837e-05 0)
(0.992762 -3.14873e-05 0)
(0.9927 -3.08235e-05 0)
(0.99264 -3.01939e-05 0)
(0.992581 -2.95968e-05 0)
(0.992523 -2.90276e-05 0)
(0.992466 -2.84802e-05 0)
(0.995728 9.46638e-05 0)
(0.995544 8.96267e-05 0)
(0.995371 8.45408e-05 0)
(0.995208 7.96671e-05 0)
(0.995054 7.5156e-05 0)
(0.994909 7.10292e-05 0)
(0.994772 6.72281e-05 0)
(0.994642 6.36913e-05 0)
(0.994519 6.04109e-05 0)
(0.994402 5.7423e-05 0)
(0.994291 5.47637e-05 0)
(0.994185 5.24342e-05 0)
(0.994083 5.03907e-05 0)
(0.993985 4.85634e-05 0)
(0.99389 4.68826e-05 0)
(0.993799 4.53003e-05 0)
(0.99371 4.37986e-05 0)
(0.993625 4.2383e-05 0)
(0.993542 4.10702e-05 0)
(0.993462 3.98741e-05 0)
(0.993384 3.8797e-05 0)
(0.993308 3.78273e-05 0)
(0.993234 3.69422e-05 0)
(0.993162 3.61154e-05 0)
(0.993092 3.53236e-05 0)
(0.993023 3.45512e-05 0)
(0.992955 3.37925e-05 0)
(0.992889 3.30497e-05 0)
(0.992825 3.23302e-05 0)
(0.992762 3.1642e-05 0)
(0.9927 3.0991e-05 0)
(0.99264 3.0379e-05 0)
(0.992581 2.98033e-05 0)
(0.992523 2.92582e-05 0)
(0.992466 2.87359e-05 0)
(0.975692 0.000282609 0)
(0.975512 0.000267317 0)
(0.975342 0.000251974 0)
(0.975183 0.000237305 0)
(0.975032 0.000223736 0)
(0.974891 0.000211342 0)
(0.974757 0.000199969 0)
(0.974631 0.000189442 0)
(0.974511 0.000179719 0)
(0.974397 0.000170869 0)
(0.974289 0.000162971 0)
(0.974185 0.000156017 0)
(0.974086 0.000149885 0)
(0.973991 0.000144385 0)
(0.973899 0.000139328 0)
(0.97381 0.000134581 0)
(0.973725 0.000130089 0)
(0.973642 0.000125861 0)
(0.973562 0.000121934 0)
(0.973485 0.00011834 0)
(0.97341 0.000115081 0)
(0.973337 0.000112122 0)
(0.973266 0.000109402 0)
(0.973197 0.000106852 0)
(0.97313 0.000104408 0)
(0.973064 0.000102031 0)
(0.973 9.9704e-05 0)
(0.972938 9.74314e-05 0)
(0.972877 9.52305e-05 0)
(0.972818 9.31212e-05 0)
(0.97276 9.11174e-05 0)
(0.972704 8.92226e-05 0)
(0.972648 8.74298e-05 0)
(0.972595 8.57233e-05 0)
(0.972542 8.40839e-05 0)
(0.935617 0.000466113 0)
(0.935444 0.000439975 0)
(0.935282 0.0004141 0)
(0.93513 0.000389566 0)
(0.934987 0.000366983 0)
(0.934853 0.000346418 0)
(0.934727 0.000327598 0)
(0.934608 0.000310238 0)
(0.934495 0.000294259 0)
(0.934388 0.000279742 0)
(0.934287 0.000266774 0)
(0.93419 0.000255307 0)
(0.934098 0.000245133 0)
(0.93401 0.00023595 0)
(0.933925 0.000227473 0)
(0.933843 0.000219506 0)
(0.933765 0.000211975 0)
(0.93369 0.000204892 0)
(0.933617 0.000198309 0)
(0.933547 0.00019226 0)
(0.93348 0.000186734 0)
(0.933415 0.000181671 0)
(0.933352 0.000176976 0)
(0.933292 0.000172544 0)
(0.933233 0.000168289 0)
(0.933176 0.000164155 0)
(0.93312 0.000160122 0)
(0.933067 0.000156198 0)
(0.933015 0.000152406 0)
(0.932965 0.000148772 0)
(0.932916 0.000145311 0)
(0.932869 0.000142026 0)
(0.932824 0.000138905 0)
(0.932779 0.000135924 0)
(0.932736 0.000133055 0)
(0.875497 0.000641501 0)
(0.875336 0.000603524 0)
(0.875187 0.000566635 0)
(0.875049 0.000532075 0)
(0.87492 0.000500472 0)
(0.8748 0.000471777 0)
(0.874688 0.000445567 0)
(0.874583 0.000421458 0)
(0.874485 0.000399332 0)
(0.874393 0.000379256 0)
(0.874306 0.000361279 0)
(0.874224 0.000345282 0)
(0.874146 0.000330959 0)
(0.874073 0.000317918 0)
(0.874004 0.000305811 0)
(0.873938 0.000294418 0)
(0.873875 0.00028366 0)
(0.873816 0.000273555 0)
(0.87376 0.000264153 0)
(0.873707 0.000255476 0)
(0.873656 0.000247488 0)
(0.873608 0.0002401 0)
(0.873562 0.000233193 0)
(0.873518 0.000226645 0)
(0.873476 0.00022036 0)
(0.873436 0.000214281 0)
(0.873398 0.000208386 0)
(0.873362 0.000202686 0)
(0.873328 0.000197202 0)
(0.873294 0.000191957 0)
(0.873263 0.000186961 0)
(0.873233 0.00018221 0)
(0.873204 0.000177688 0)
(0.873176 0.000173366 0)
(0.87315 0.000169214 0)
(0.795331 0.000802587 0)
(0.795194 0.00075121 0)
(0.795071 0.000702329 0)
(0.79496 0.000657119 0)
(0.79486 0.000616029 0)
(0.794769 0.000578791 0)
(0.794687 0.000544811 0)
(0.794613 0.000513621 0)
(0.794546 0.000485065 0)
(0.794485 0.000459165 0)
(0.794429 0.000435893 0)
(0.794378 0.000415031 0)
(0.794332 0.000396184 0)
(0.794291 0.000378903 0)
(0.794253 0.000362821 0)
(0.794218 0.000347719 0)
(0.794188 0.000333521 0)
(0.79416 0.00032024 0)
(0.794134 0.000307903 0)
(0.794111 0.000296497 0)
(0.794091 0.000285956 0)
(0.794072 0.000276165 0)
(0.794056 0.00026699 0)
(0.794041 0.000258305 0)
(0.794027 0.000250015 0)
(0.794016 0.000242062 0)
(0.794005 0.000234423 0)
(0.793996 0.000227099 0)
(0.793988 0.000220102 0)
(0.793982 0.000213439 0)
(0.793976 0.000207111 0)
(0.793971 0.000201105 0)
(0.793966 0.0001954 0)
(0.793963 0.000189963 0)
(0.79396 0.000184764 0)
(0.695183 0.000933115 0)
(0.695105 0.000865071 0)
(0.695044 0.000801779 0)
(0.694996 0.000744075 0)
(0.69496 0.000692039 0)
(0.694933 0.000645102 0)
(0.694915 0.000602488 0)
(0.694904 0.000563638 0)
(0.694899 0.000528316 0)
(0.694899 0.000496431 0)
(0.694902 0.000467822 0)
(0.69491 0.000442148 0)
(0.69492 0.000418929 0)
(0.694933 0.000397681 0)
(0.694948 0.000378031 0)
(0.694965 0.000359755 0)
(0.694983 0.000342759 0)
(0.695003 0.000327011 0)
(0.695024 0.000312483 0)
(0.695046 0.000299111 0)
(0.695068 0.000286787 0)
(0.695091 0.000275374 0)
(0.695114 0.00026473 0)
(0.695138 0.000254727 0)
(0.695162 0.000245271 0)
(0.695186 0.000236297 0)
(0.695211 0.00022777 0)
(0.695235 0.000219672 0)
(0.695259 0.000211996 0)
(0.695284 0.000204733 0)
(0.695308 0.00019787 0)
(0.695332 0.000191386 0)
(0.695356 0.000185255 0)
(0.695379 0.000179445 0)
(0.695403 0.000173922 0)
(0.575391 0.00098333 0)
(0.57545 0.00089406 0)
(0.575521 0.000813802 0)
(0.5756 0.000742563 0)
(0.575685 0.000679688 0)
(0.575773 0.000624065 0)
(0.575863 0.00057457 0)
(0.575953 0.000530378 0)
(0.576042 0.000490984 0)
(0.57613 0.000456016 0)
(0.576216 0.000425058 0)
(0.5763 0.000397583 0)
(0.576383 0.000373008 0)
(0.576463 0.000350806 0)
(0.576541 0.000330576 0)
(0.576617 0.000312057 0)
(0.576691 0.000295094 0)
(0.576762 0.000279581 0)
(0.576832 0.000265421 0)
(0.576899 0.000252498 0)
(0.576965 0.000240675 0)
(0.577028 0.000229807 0)
(0.57709 0.000219753 0)
(0.57715 0.000210393 0)
(0.577208 0.000201629 0)
(0.577264 0.000193393 0)
(0.577319 0.000185636 0)
(0.577373 0.000178327 0)
(0.577425 0.000171445 0)
(0.577475 0.000164971 0)
(0.577524 0.000158885 0)
(0.577572 0.000153167 0)
(0.577619 0.000147788 0)
(0.577664 0.00014272 0)
(0.577708 0.000137931 0)
(0.436917 0.000834862 0)
(0.437184 0.000734185 0)
(0.437438 0.000649072 0)
(0.437677 0.000577358 0)
(0.437901 0.000516803 0)
(0.438111 0.000465285 0)
(0.438308 0.000421048 0)
(0.438491 0.000382818 0)
(0.438663 0.000349703 0)
(0.438823 0.000321011 0)
(0.438974 0.000296108 0)
(0.439115 0.000274372 0)
(0.439249 0.000255223 0)
(0.439375 0.000238177 0)
(0.439494 0.000222871 0)
(0.439608 0.000209052 0)
(0.439715 0.000196549 0)
(0.439817 0.000185235 0)
(0.439914 0.000174996 0)
(0.440006 0.000165723 0)
(0.440094 0.000157297 0)
(0.440179 0.000149605 0)
(0.44026 0.000142537 0)
(0.440337 0.000136 0)
(0.440412 0.000129916 0)
(0.440483 0.000124228 0)
(0.440552 0.000118896 0)
(0.440618 0.000113893 0)
(0.440682 0.0001092 0)
(0.440743 0.000104804 0)
(0.440802 0.000100689 0)
(0.440859 9.68413e-05 0)
(0.440914 9.32391e-05 0)
(0.440967 8.98613e-05 0)
(0.441019 8.66831e-05 0)
(0.281127 0.000436268 0)
(0.281502 0.000370186 0)
(0.281834 0.000318386 0)
(0.282128 0.00027723 0)
(0.282391 0.000244003 0)
(0.282627 0.000216699 0)
(0.282841 0.000193898 0)
(0.283035 0.000174648 0)
(0.283212 0.000158305 0)
(0.283374 0.00014438 0)
(0.283523 0.000132454 0)
(0.283661 0.000122149 0)
(0.283789 0.00011314 0)
(0.283909 0.000105172 0)
(0.284021 9.80609e-05 0)
(0.284125 9.16787e-05 0)
(0.284224 8.59387e-05 0)
(0.284316 8.07746e-05 0)
(0.284404 7.61279e-05 0)
(0.284487 7.194e-05 0)
(0.284565 6.81511e-05 0)
(0.284639 6.47021e-05 0)
(0.28471 6.15387e-05 0)
(0.284778 5.86144e-05 0)
(0.284843 5.58935e-05 0)
(0.284905 5.33501e-05 0)
(0.284964 5.09684e-05 0)
(0.28502 4.8738e-05 0)
(0.285074 4.66532e-05 0)
(0.285127 4.47079e-05 0)
(0.285176 4.28959e-05 0)
(0.285225 4.1208e-05 0)
(0.285271 3.96338e-05 0)
(0.285315 3.81604e-05 0)
(0.285358 3.67756e-05 0)
(0.108507 5.15981e-05 0)
(0.108724 4.30211e-05 0)
(0.108909 3.66125e-05 0)
(0.109069 3.16799e-05 0)
(0.109208 2.77756e-05 0)
(0.109332 2.46126e-05 0)
(0.109442 2.19943e-05 0)
(0.109541 1.97845e-05 0)
(0.10963 1.78996e-05 0)
(0.109711 1.62934e-05 0)
(0.109785 1.49333e-05 0)
(0.109853 1.37817e-05 0)
(0.109916 1.27923e-05 0)
(0.109974 1.1919e-05 0)
(0.110029 1.11263e-05 0)
(0.110079 1.03954e-05 0)
(0.110127 9.72275e-06 0)
(0.110171 9.11286e-06 0)
(0.110213 8.57003e-06 0)
(0.110253 8.09364e-06 0)
(0.11029 7.67564e-06 0)
(0.110325 7.30362e-06 0)
(0.110359 6.96327e-06 0)
(0.110391 6.64315e-06 0)
(0.110422 6.33566e-06 0)
(0.110451 6.03874e-06 0)
(0.110479 5.75351e-06 0)
(0.110505 5.48381e-06 0)
(0.11053 5.23287e-06 0)
(0.110555 5.00334e-06 0)
(0.110578 4.79509e-06 0)
(0.1106 4.60677e-06 0)
(0.110622 4.43476e-06 0)
(0.110643 4.27566e-06 0)
(0.110663 4.12533e-06 0)
(0.110682 -3.97697e-06 0)
(0.1107 -3.83652e-06 0)
(0.110718 -3.70014e-06 0)
(0.110735 -3.56805e-06 0)
(0.110752 -3.44068e-06 0)
(0.110768 -3.3189e-06 0)
(0.110784 -3.20328e-06 0)
(0.110799 -3.09439e-06 0)
(0.110813 -2.99215e-06 0)
(0.110827 -2.89647e-06 0)
(0.285399 -3.54465e-05 0)
(0.285439 -3.42043e-05 0)
(0.285478 -3.30207e-05 0)
(0.285516 -3.189e-05 0)
(0.285552 -3.08084e-05 0)
(0.285587 -2.97745e-05 0)
(0.28562 -2.87871e-05 0)
(0.285653 -2.78465e-05 0)
(0.285685 -2.69517e-05 0)
(0.285716 -2.61021e-05 0)
(0.441068 -8.3635e-05 0)
(0.441117 -8.07842e-05 0)
(0.441163 -7.80697e-05 0)
(0.441209 -7.54777e-05 0)
(0.441252 -7.29986e-05 0)
(0.441295 -7.06263e-05 0)
(0.441336 -6.83575e-05 0)
(0.441376 -6.61903e-05 0)
(0.441415 -6.41229e-05 0)
(0.441453 -6.21532e-05 0)
(0.57775 -0.000133312 0)
(0.577792 -0.000128988 0)
(0.577833 -0.000124861 0)
(0.577872 -0.000120911 0)
(0.577911 -0.000117127 0)
(0.577949 -0.000113501 0)
(0.577985 -0.000110026 0)
(0.578021 -0.000106699 0)
(0.578056 -0.000103518 0)
(0.57809 -0.000100477 0)
(0.695426 -0.000168534 0)
(0.695449 -0.000163489 0)
(0.695472 -0.000158648 0)
(0.695494 -0.000153994 0)
(0.695516 -0.000149516 0)
(0.695538 -0.000145209 0)
(0.69556 -0.000141067 0)
(0.695581 -0.000137089 0)
(0.695602 -0.000133272 0)
(0.695623 -0.00012961 0)
(0.793958 -0.000179602 0)
(0.793957 -0.000174782 0)
(0.793956 -0.000170122 0)
(0.793955 -0.000165611 0)
(0.793955 -0.000161245 0)
(0.793956 -0.000157022 0)
(0.793956 -0.000152943 0)
(0.793957 -0.000149008 0)
(0.793959 -0.000145217 0)
(0.793961 -0.000141565 0)
(0.873124 -0.000164992 0)
(0.8731 -0.000161084 0)
(0.873077 -0.000157277 0)
(0.873055 -0.000153565 0)
(0.873033 -0.000149947 0)
(0.873013 -0.000146426 0)
(0.872993 -0.000143008 0)
(0.872974 -0.000139697 0)
(0.872956 -0.000136493 0)
(0.872939 -0.000133396 0)
(0.932694 -0.000130029 0)
(0.932653 -0.000127295 0)
(0.932613 -0.000124616 0)
(0.932575 -0.000121985 0)
(0.932537 -0.000119405 0)
(0.932501 -0.000116882 0)
(0.932466 -0.000114422 0)
(0.932431 -0.000112031 0)
(0.932398 -0.00010971 0)
(0.932365 -0.00010746 0)
(0.97249 -8.22236e-05 0)
(0.97244 -8.0643e-05 0)
(0.97239 -7.90871e-05 0)
(0.972342 -7.7553e-05 0)
(0.972295 -7.60422e-05 0)
(0.972249 -7.45593e-05 0)
(0.972203 -7.31093e-05 0)
(0.972159 -7.16965e-05 0)
(0.972116 -7.03232e-05 0)
(0.972073 -6.89892e-05 0)
(0.99241 -2.79484e-05 0)
(0.992356 -2.74272e-05 0)
(0.992302 -2.69136e-05 0)
(0.992249 -2.64063e-05 0)
(0.992198 -2.5906e-05 0)
(0.992147 -2.54142e-05 0)
(0.992097 -2.49325e-05 0)
(0.992049 -2.44625e-05 0)
(0.992001 -2.40047e-05 0)
(0.991954 -2.35591e-05 0)
(0.99241 2.82294e-05 0)
(0.992356 2.77326e-05 0)
(0.992302 2.72422e-05 0)
(0.99225 2.6757e-05 0)
(0.992198 2.62777e-05 0)
(0.992147 2.58063e-05 0)
(0.992097 2.53452e-05 0)
(0.992049 2.48964e-05 0)
(0.992001 2.44612e-05 0)
(0.991954 2.40398e-05 0)
(0.97249 8.24924e-05 0)
(0.97244 8.09341e-05 0)
(0.972391 7.93998e-05 0)
(0.972342 7.78867e-05 0)
(0.972295 7.63964e-05 0)
(0.972249 7.49339e-05 0)
(0.972204 7.35046e-05 0)
(0.972159 7.21134e-05 0)
(0.972116 7.07628e-05 0)
(0.972074 6.94529e-05 0)
(0.932694 0.000130274 0)
(0.932653 0.000127559 0)
(0.932614 0.000124898 0)
(0.932575 0.000122286 0)
(0.932538 0.000119727 0)
(0.932501 0.000117224 0)
(0.932466 0.000114785 0)
(0.932432 0.000112415 0)
(0.932398 0.000110117 0)
(0.932365 0.00010789 0)
(0.873125 0.000165202 0)
(0.8731 0.000161308 0)
(0.873077 0.000157516 0)
(0.873055 0.000153821 0)
(0.873034 0.000150222 0)
(0.873013 0.000146722 0)
(0.872994 0.000143325 0)
(0.872975 0.000140035 0)
(0.872957 0.000136854 0)
(0.87294 0.000133778 0)
(0.793958 0.00017977 0)
(0.793957 0.000174959 0)
(0.793956 0.000170311 0)
(0.793956 0.000165816 0)
(0.793956 0.000161468 0)
(0.793956 0.000157264 0)
(0.793957 0.000153205 0)
(0.793958 0.00014929 0)
(0.79396 0.000145518 0)
(0.793961 0.000141884 0)
(0.695426 0.000168655 0)
(0.695449 0.000163618 0)
(0.695472 0.000158787 0)
(0.695495 0.000154146 0)
(0.695517 0.000149684 0)
(0.695539 0.000145393 0)
(0.69556 0.000141268 0)
(0.695582 0.000137307 0)
(0.695603 0.000133504 0)
(0.695624 0.000129855 0)
(0.577751 0.000133392 0)
(0.577792 0.000129074 0)
(0.577833 0.000124955 0)
(0.577873 0.000121015 0)
(0.577912 0.000117242 0)
(0.577949 0.000113627 0)
(0.577986 0.000110163 0)
(0.578022 0.000106847 0)
(0.578057 0.000103674 0)
(0.578091 0.000100642 0)
(0.441069 8.36817e-05 0)
(0.441117 8.08346e-05 0)
(0.441164 7.81246e-05 0)
(0.441209 7.55368e-05 0)
(0.441253 7.30626e-05 0)
(0.441296 7.06948e-05 0)
(0.441337 6.8431e-05 0)
(0.441377 6.62682e-05 0)
(0.441416 6.42058e-05 0)
(0.441454 6.22404e-05 0)
(0.2854 3.5467e-05 0)
(0.28544 3.4225e-05 0)
(0.285478 3.3041e-05 0)
(0.285516 3.19103e-05 0)
(0.285552 3.0829e-05 0)
(0.285587 2.9796e-05 0)
(0.285621 2.88102e-05 0)
(0.285654 2.78719e-05 0)
(0.285685 2.69797e-05 0)
(0.285716 2.61331e-05 0)
(0.110682 3.98128e-06 0)
(0.1107 3.84122e-06 0)
(0.110718 3.70487e-06 0)
(0.110735 3.57194e-06 0)
(0.110752 3.4437e-06 0)
(0.110768 3.32067e-06 0)
(0.110784 3.20428e-06 0)
(0.110799 3.0946e-06 0)
(0.110813 2.99234e-06 0)
(0.110827 2.89668e-06 0)
(0.110841 -2.80659e-06 0)
(0.110854 -2.72199e-06 0)
(0.110867 -2.64163e-06 0)
(0.110879 -2.56495e-06 0)
(0.110891 -2.49109e-06 0)
(0.110903 -2.41977e-06 0)
(0.110915 -2.35047e-06 0)
(0.110926 -2.28326e-06 0)
(0.110936 -2.21794e-06 0)
(0.110947 -2.15477e-06 0)
(0.110957 -2.09368e-06 0)
(0.110967 -2.03499e-06 0)
(0.110977 -1.97857e-06 0)
(0.110986 -1.92465e-06 0)
(0.110995 -1.87299e-06 0)
(0.111004 -1.82369e-06 0)
(0.111013 -1.77641e-06 0)
(0.111021 -1.73118e-06 0)
(0.111029 -1.6876e-06 0)
(0.111037 -1.64569e-06 0)
(0.111045 -1.60509e-06 0)
(0.111053 -1.56586e-06 0)
(0.11106 -1.52769e-06 0)
(0.111067 -1.49073e-06 0)
(0.111074 -1.45472e-06 0)
(0.111081 -1.41988e-06 0)
(0.111088 -1.38598e-06 0)
(0.111095 -1.35326e-06 0)
(0.111101 -1.32152e-06 0)
(0.111107 -1.29101e-06 0)
(0.111114 -1.26149e-06 0)
(0.11112 -1.23322e-06 0)
(0.111125 -1.20597e-06 0)
(0.111131 -1.18002e-06 0)
(0.111137 -1.15516e-06 0)
(0.285746 -2.52956e-05 0)
(0.285774 -2.45296e-05 0)
(0.285803 -2.38008e-05 0)
(0.28583 -2.31058e-05 0)
(0.285856 -2.24409e-05 0)
(0.285882 -2.1803e-05 0)
(0.285907 -2.1189e-05 0)
(0.285931 -2.0597e-05 0)
(0.285955 -2.00254e-05 0)
(0.285978 -1.94733e-05 0)
(0.286001 -1.894e-05 0)
(0.286022 -1.84255e-05 0)
(0.286044 -1.79294e-05 0)
(0.286064 -1.74517e-05 0)
(0.286085 -1.69919e-05 0)
(0.286104 -1.65498e-05 0)
(0.286123 -1.61245e-05 0)
(0.286142 -1.57152e-05 0)