/*--------------------------------*- C++ -*----------------------------------*\
| =========                 |                                                 |
| \\      /  F ield         | OpenFOAM: The Open Source CFD Toolbox           |
|  \\    /   O peration     | Version:  2406                                  |
|   \\  /    A nd           | Website:  www.openfoam.com                      |
|    \\/     M anipulation  |                                                 |
\*---------------------------------------------------------------------------*/
FoamFile
{
    version     2.0;
    format      ascii;
    arch        "LSB;label=32;scalar=64";
    class       volScalarField;
    location    "126";
    object      p;
}
// * * * * * * * * * * * * * * * * * * * * * * * * * * * * * * * * * * * * * //

dimensions      [0 2 -2 0 0 0 0];

internalField   nonuniform List<scalar> 
1916
(
15.8957
15.8825
15.8677
15.8529
15.8376
15.822
15.8062
15.7903
15.7744
15.7583
15.7423
15.7263
15.7102
15.6941
15.678
15.6619
15.6458
15.6297
15.6136
15.5975
15.5814
15.5653
15.5493
15.5333
15.5173
15.5015
15.4857
15.47
15.4546
15.4393
15.4244
15.41
15.3961
15.3829
15.3708
15.36
15.3508
15.3438
15.3394
15.3381
15.3405
15.3468
15.3571
15.371
15.3881
15.4078
15.4232
15.9007
15.8841
15.8677
15.8528
15.8376
15.8219
15.8061
15.7902
15.7743
15.7583
15.7423
15.7262
15.7102
15.6941
15.678
15.6619
15.6458
15.6297
15.6136
15.5975
15.5814
15.5653
15.5493
15.5333
15.5174
15.5015
15.4858
15.4702
15.4548
15.4396
15.4248
15.4105
15.3967
15.3838
15.3721
15.3617
15.3532
15.347
15.3438
15.3441
15.3485
15.3574
15.3706
15.3875
15.407
15.4292
15.4466
15.9034
15.8849
15.8675
15.8526
15.8375
15.8218
15.806
15.7901
15.7742
15.7582
15.7422
15.7262
15.7101
15.694
15.6779
15.6618
15.6457
15.6296
15.6135
15.5975
15.5814
15.5653
15.5493
15.5333
15.5173
15.5014
15.4856
15.47
15.4545
15.4392
15.4243
15.4098
15.3959
15.3828
15.3707
15.36
15.3512
15.3447
15.3413
15.3418
15.3468
15.3571
15.3727
15.3928
15.4157
15.4423
15.4605
15.9048
15.8856
15.8675
15.8525
15.8374
15.8218
15.8059
15.79
15.7741
15.7582
15.7421
15.7261
15.7101
15.694
15.6779
15.6618
15.6457
15.6296
15.6135
15.5974
15.5813
15.5652
15.5491
15.533
15.517
15.501
15.485
15.4692
15.4534
15.4378
15.4224
15.4072
15.3924
15.3781
15.3646
15.352
15.3407
15.3314
15.3245
15.321
15.3219
15.3283
15.3409
15.3596
15.382
15.4091
15.4165
15.9059
15.8864
15.8677
15.8524
15.8374
15.8217
15.8058
15.7899
15.774
15.7581
15.7421
15.726
15.71
15.6939
15.6778
15.6617
15.6456
15.6295
15.6134
15.5972
15.5811
15.5649
15.5487
15.5326
15.5164
15.5002
15.484
15.4677
15.4515
15.4352
15.4188
15.4025
15.386
15.3696
15.3531
15.3367
15.3204
15.3045
15.2892
15.2752
15.2633
15.2546
15.2502
15.2508
15.2534
15.2571
15.2117
15.9068
15.887
15.8679
15.8525
15.8374
15.8217
15.8057
15.7898
15.7739
15.758
15.742
15.7259
15.7099
15.6938
15.6777
15.6616
15.6455
15.6294
15.6132
15.597
15.5808
15.5646
15.5483
15.532
15.5156
15.4991
15.4825
15.4658
15.4488
15.4316
15.414
15.396
15.3772
15.3576
15.3369
15.3148
15.2907
15.2643
15.2349
15.2019
15.1646
15.1222
15.0734
15.0167
14.9425
14.8347
14.5673
15.9074
15.8875
15.8681
15.8525
15.8375
15.8217
15.8057
15.7897
15.7738
15.7579
15.7419
15.7259
15.7098
15.6937
15.6776
15.6615
15.6454
15.6292
15.613
15.5968
15.5805
15.5642
15.5478
15.5313
15.5147
15.4979
15.4809
15.4636
15.4459
15.4276
15.4085
15.3885
15.3671
15.3438
15.318
15.2888
15.2549
15.2148
15.1662
15.1059
15.0293
14.9295
14.7956
14.611
14.3333
13.8841
12.6593
15.9078
15.8879
15.8683
15.8526
15.8375
15.8217
15.8056
15.7897
15.7738
15.7578
15.7418
15.7258
15.7097
15.6937
15.6776
15.6614
15.6453
15.6291
15.6128
15.5966
15.5802
15.5638
15.5473
15.5307
15.5138
15.4967
15.4793
15.4615
15.443
15.4237
15.4032
15.3813
15.3572
15.3302
15.2992
15.2628
15.2187
15.1639
15.0939
15.0019
14.877
14.7012
14.44
14.0248
13.2574
11.6428
6.71396
15.9081
15.8882
15.8685
15.8527
15.8375
15.8217
15.8056
15.7896
15.7737
15.7578
15.7418
15.7257
15.7097
15.6936
15.6775
15.6613
15.6452
15.629
15.6127
15.5964
15.58
15.5635
15.5469
15.5301
15.5131
15.4958
15.4781
15.4598
15.4407
15.4206
15.399
15.3755
15.3492
15.3192
15.2841
15.2416
15.189
15.1217
15.0332
14.9132
14.7452
14.501
14.1287
13.5298
12.4858
10.6217
7.15633
15.9082
15.8883
15.8685
15.8527
15.8376
15.8217
15.8056
15.7896
15.7737
15.7577
15.7417
15.7257
15.7096
15.6935
15.6774
15.6613
15.6451
15.6289
15.6126
15.5963
15.5799
15.5633
15.5467
15.5298
15.5127
15.4953
15.4774
15.4588
15.4394
15.4188
15.3966
15.3722
15.3448
15.3131
15.2755
15.2297
15.1721
15.0977
14.9985
14.8625
14.6703
14.3899
13.967
13.3103
12.2664
10.6094
8.09241
15.9082
15.8883
15.8685
15.8527
15.8375
15.8217
15.8056
15.7896
15.7737
15.7577
15.7417
15.7257
15.7096
15.6935
15.6774
15.6613
15.6451
15.6289
15.6126
15.5963
15.5798
15.5633
15.5466
15.5298
15.5127
15.4952
15.4773
15.4587
15.4393
15.4187
15.3965
15.3721
15.3446
15.313
15.2754
15.2295
15.1719
15.0973
14.9981
14.8619
14.6694
14.3886
13.9648
13.3066
12.2597
10.5972
8.07148
15.9081
15.8881
15.8684
15.8526
15.8375
15.8217
15.8056
15.7896
15.7737
15.7577
15.7417
15.7257
15.7096
15.6935
15.6774
15.6613
15.6451
15.6289
15.6126
15.5963
15.5799
15.5634
15.5468
15.53
15.513
15.4957
15.4779
15.4596
15.4405
15.4203
15.3987
15.3751
15.3488
15.3188
15.2835
15.241
15.1882
15.1207
15.0319
14.9115
14.7428
14.4974
14.123
13.5198
12.4665
10.5821
7.07205
15.9078
15.8879
15.8683
15.8526
15.8375
15.8217
15.8056
15.7896
15.7737
15.7578
15.7418
15.7257
15.7097
15.6936
15.6775
15.6613
15.6452
15.629
15.6127
15.5964
15.5801
15.5637
15.5471
15.5305
15.5136
15.4965
15.479
15.4611
15.4426
15.4233
15.4028
15.3807
15.3565
15.3294
15.2984
15.2618
15.2175
15.1624
15.0921
14.9995
14.8738
14.6965
14.433
14.0134
13.2358
11.5958
6.56395
15.9073
15.8875
15.8681
15.8525
15.8374
15.8216
15.8056
15.7897
15.7738
15.7578
15.7418
15.7258
15.7097
15.6936
15.6775
15.6614
15.6453
15.6291
15.6129
15.5966
15.5803
15.564
15.5476
15.531
15.5144
15.4976
15.4805
15.4631
15.4454
15.427
15.4079
15.3878
15.3663
15.3428
15.3169
15.2875
15.2534
15.2131
15.1641
15.1032
15.0258
14.925
14.7895
14.6024
14.3207
13.8654
12.6155
15.9067
15.8869
15.8678
15.8524
15.8374
15.8216
15.8057
15.7898
15.7739
15.7579
15.7419
15.7259
15.7098
15.6937
15.6776
15.6615
15.6454
15.6292
15.613
15.5968
15.5806
15.5643
15.548
15.5317
15.5152
15.4987
15.4821
15.4653
15.4483
15.431
15.4133
15.3951
15.3763
15.3566
15.3357
15.3133
15.2891
15.2624
15.2327
15.1993
15.1614
15.1183
15.0687
15.0109
14.9351
14.8251
14.5517
15.9059
15.8863
15.8676
15.8524
15.8374
15.8216
15.8057
15.7898
15.7739
15.758
15.742
15.7259
15.7099
15.6938
15.6777
15.6616
15.6454
15.6293
15.6132
15.597
15.5808
15.5646
15.5484
15.5322
15.516
15.4997
15.4835
15.4672
15.4508
15.4344
15.418
15.4015
15.385
15.3684
15.3518
15.3352
15.3187
15.3025
15.287
15.2727
15.2605
15.2513
15.2466
15.2468
15.249
15.2524
15.2056
15.9048
15.8856
15.8674
15.8524
15.8374
15.8217
15.8058
15.7899
15.774
15.7581
15.7421
15.726
15.7099
15.6939
15.6778
15.6616
15.6455
15.6294
15.6133
15.5971
15.581
15.5649
15.5487
15.5326
15.5165
15.5005
15.4845
15.4685
15.4527
15.437
15.4215
15.4062
15.3913
15.3769
15.3632
15.3505
15.339
15.3294
15.3224
15.3186
15.3193
15.3255
15.338
15.3566
15.3791
15.4062
15.4133
15.9033
15.8848
15.8675
15.8525
15.8374
15.8218
15.8059
15.79
15.7741
15.7581
15.7421
15.7261
15.71
15.6939
15.6778
15.6617
15.6456
15.6294
15.6133
15.5972
15.5811
15.565
15.5489
15.5329
15.5169
15.5009
15.4851
15.4693
15.4538
15.4385
15.4234
15.4088
15.3948
15.3816
15.3693
15.3585
15.3495
15.3429
15.3393
15.3396
15.3445
15.3547
15.3702
15.3903
15.4133
15.44
15.4581
15.9007
15.884
15.8677
15.8527
15.8375
15.8218
15.806
15.7901
15.7742
15.7582
15.7422
15.7261
15.71
15.6939
15.6778
15.6617
15.6456
15.6295
15.6134
15.5972
15.5811
15.565
15.549
15.5329
15.517
15.501
15.4852
15.4696
15.4541
15.4388
15.4239
15.4095
15.3956
15.3826
15.3707
15.3602
15.3515
15.3452
15.3418
15.342
15.3463
15.355
15.3683
15.3851
15.4046
15.4269
15.4444
15.8957
15.8824
15.8677
15.8528
15.8376
15.8219
15.8061
15.7902
15.7743
15.7583
15.7422
15.7262
15.7101
15.694
15.6779
15.6617
15.6456
15.6295
15.6134
15.5972
15.5811
15.565
15.5489
15.5329
15.5169
15.501
15.4851
15.4694
15.4539
15.4386
15.4236
15.409
15.395
15.3817
15.3695
15.3585
15.3492
15.342
15.3375
15.3361
15.3383
15.3445
15.3547
15.3686
15.3857
15.4054
15.4209
-3.2127
-3.41468
-2.26952
-2.38728
-2.90716
-3.26836
1.86735
-0.671718
-1.38222
-1.96536
-2.59945
-3.03809
4.23102
0.816323
-0.896082
-1.74162
-2.43588
-2.95732
4.18793
0.74064
-1.01006
-1.90699
-2.67457
-3.28737
1.68817
-0.939566
-1.73892
-2.44962
-3.26994
-3.95592
-3.62264
-3.90189
-2.7898
-3.03812
-3.79768
-4.50549
-2.4945
-2.50166
-2.50058
-2.48806
-2.4665
-2.43747
-2.40199
-2.36099
-2.31538
-2.26609
-2.21399
-2.15991
-2.1046
-2.04868
-1.99269
-1.93708
-1.88214
-1.82812
-1.77512
-1.72319
-1.67229
-1.62231
-1.5731
-1.52448
-1.4762
-1.42804
-1.37973
-1.33102
-1.28162
-1.23129
-1.17975
-1.12674
-1.072
-1.01524
-0.956192
-0.894559
-0.830034
-0.762297
-0.691039
-0.615975
-0.536874
-0.453707
-0.367079
-0.278014
-0.186065
-0.0917277
-0.0154148
-2.48419
-2.4914
-2.49014
-2.47805
-2.45773
-2.43023
-2.3962
-2.35645
-2.31189
-2.26344
-2.21202
-2.15848
-2.10357
-2.04796
-1.99219
-1.93672
-1.88187
-1.82786
-1.77484
-1.72285
-1.67185
-1.62177
-1.57244
-1.52369
-1.47531
-1.42704
-1.37864
-1.32985
-1.28041
-1.23006
-1.17852
-1.12555
-1.07087
-1.01423
-0.955346
-0.893943
-0.829736
-0.762436
-0.691771
-0.617499
-0.539361
-0.457255
-0.371885
-0.284704
-0.193838
-0.0952889
-0.0140384
-2.49202
-2.49775
-2.49483
-2.48161
-2.46091
-2.43324
-2.39902
-2.35899
-2.31407
-2.26522
-2.21338
-2.15943
-2.10413
-2.04816
-1.99206
-1.93629
-1.88116
-1.82693
-1.77371
-1.72156
-1.67045
-1.6203
-1.57094
-1.52221
-1.47388
-1.42571
-1.37744
-1.32881
-1.27957
-1.22944
-1.17816
-1.12547
-1.07113
-1.01486
-0.956427
-0.89557
-0.832036
-0.765579
-0.695966
-0.622971
-0.546303
-0.465741
-0.381888
-0.296233
-0.20633
-0.104667
-0.0149361
-2.53719
-2.53576
-2.52599
-2.50761
-2.48287
-2.45164
-2.41419
-2.37128
-2.3238
-2.27272
-2.21894
-2.16331
-2.10659
-2.0494
-1.99229
-1.93568
-1.8799
-1.82514
-1.77156
-1.71918
-1.66796
-1.61782
-1.5686
-1.52009
-1.47208
-1.42429
-1.37647
-1.32834
-1.27963
-1.23006
-1.17937
-1.12731
-1.07361
-1.01804
-0.960375
-0.900383
-0.837849
-0.772557
-0.704289
-0.632796
-0.557757
-0.478829
-0.396159
-0.310469
-0.219354
-0.115323
-0.0181767
-2.63965
-2.61066
-2.57908
-2.54798
-2.51465
-2.47674
-2.43385
-2.38643
-2.33523
-2.28103
-2.22466
-2.16686
-2.10835
-2.04971
-1.99142
-1.93389
-1.87741
-1.82217
-1.76829
-1.71579
-1.66462
-1.61469
-1.5658
-1.51776
-1.4703
-1.42316
-1.37605
-1.32867
-1.28073
-1.23196
-1.18207
-1.13082
-1.07796
-1.02325
-0.966487
-0.907473
-0.846013
-0.781905
-0.714922
-0.644787
-0.571121
-0.493447
-0.411362
-0.324559
-0.231264
-0.127036
-0.0241183
-2.86348
-2.72021
-2.62918
-2.57855
-2.53598
-2.49151
-2.44403
-2.39325
-2.33934
-2.28289
-2.22465
-2.16534
-2.10562
-2.04605
-1.98712
-1.92917
-1.87247
-1.8172
-1.76346
-1.71124
-1.6605
-1.61111
-1.56288
-1.51557
-1.46892
-1.42264
-1.37641
-1.32991
-1.28286
-1.23495
-1.18592
-1.1355
-1.08345
-1.02955
-0.973584
-0.915376
-0.854736
-0.791457
-0.725284
-0.655886
-0.58282
-0.505519
-0.423306
-0.335384
-0.240632
-0.138086
-0.0279951
-3.25589
-2.8306
-2.63415
-2.57432
-2.53123
-2.48382
-2.43535
-2.38502
-2.33145
-2.27497
-2.21653
-2.15699
-2.09706
-2.03735
-1.97838
-1.92055
-1.86413
-1.80929
-1.75613
-1.70462
-1.65468
-1.60617
-1.55887
-1.51252
-1.46685
-1.42152
-1.37622
-1.33061
-1.2844
-1.23729
-1.18901
-1.13929
-1.08788
-1.03456
-0.97913
-0.921402
-0.86118
-0.798242
-0.732308
-0.663014
-0.589877
-0.512292
-0.429524
-0.340878
-0.245588
-0.14479
-0.0288033
-3.23598
-2.83013
-2.6152
-2.56199
-2.52567
-2.47658
-2.42606
-2.37577
-2.32258
-2.26593
-2.20695
-2.14672
-2.08606
-2.02567
-1.96618
-1.90806
-1.85162
-1.79703
-1.74437
-1.69357
-1.6445
-1.59697
-1.55071
-1.50543
-1.46078
-1.41645
-1.37207
-1.32731
-1.28186
-1.23545
-1.18778
-1.13856
-1.08756
-1.03454
-0.979316
-0.921691
-0.861465
-0.798404
-0.732224
-0.662561
-0.588965
-0.510899
-0.427786
-0.339197
-0.244607
-0.146719
-0.0291224
-3.07895
-2.81346
-2.62429
-2.56679
-2.53778
-2.49529
-2.44637
-2.39597
-2.34163
-2.28218
-2.21897
-2.15376
-2.08784
-2.02228
-1.95802
-1.89577
-1.836
-1.77893
-1.72461
-1.67291
-1.62358
-1.57627
-1.53059
-1.48611
-1.4424
-1.39903
-1.35561
-1.31175
-1.26714
-1.22151
-1.17452
-1.12583
-1.07521
-1.02246
-0.967401
-0.909845
-0.849596
-0.786438
-0.720109
-0.650301
-0.576652
-0.498778
-0.416319
-0.329193
-0.237127
-0.143391
-0.0305511
-3.15016
-3.06938
-2.93491
-2.85666
-2.80159
-2.73283
-2.6533
-2.57227
-2.48985
-2.40418
-2.316
-2.22721
-2.13942
-2.0539
-1.97182
-1.89412
-1.82139
-1.75388
-1.69152
-1.63397
-1.58071
-1.53106
-1.48432
-1.43973
-1.39659
-1.35424
-1.31211
-1.26967
-1.22652
-1.18234
-1.1368
-1.08946
-1.04
-0.988265
-0.934126
-0.877418
-0.817976
-0.755621
-0.690159
-0.621376
-0.549052
-0.472994
-0.393107
-0.309542
-0.22253
-0.134348
-0.0342044
-3.56326
-3.51249
-3.36766
-3.27435
-3.20439
-3.11457
-3.00798
-2.8965
-2.78087
-2.65895
-2.53195
-2.4029
-2.27463
-2.14966
-2.03034
-1.91865
-1.81601
-1.72315
-1.64016
-1.5666
-1.5016
-1.44399
-1.39243
-1.34557
-1.30212
-1.26091
-1.2209
-1.18125
-1.14124
-1.10031
-1.05815
-1.01432
-0.968236
-0.919691
-0.868607
-0.814885
-0.75841
-0.699065
-0.636749
-0.571371
-0.502882
-0.431278
-0.356733
-0.279475
-0.200517
-0.119491
-0.0399541
-4.23483
-4.01184
-3.7734
-3.67739
-3.61104
-3.51321
-3.39567
-3.27023
-3.1341
-2.98414
-2.8221
-2.65185
-2.47745
-2.30313
-2.13323
-1.97189
-1.82251
-1.68748
-1.5681
-1.46461
-1.37626
-1.30161
-1.23874
-1.18548
-1.13967
-1.09925
-1.06241
-1.0276
-0.993539
-0.959195
-0.923787
-0.8869
-0.84799
-0.806535
-0.762349
-0.715368
-0.665538
-0.612817
-0.557204
-0.49874
-0.437535
-0.373767
-0.307816
-0.239901
-0.171873
-0.0999425
-0.0462231
-4.84143
-4.36487
-4.04526
-3.96092
-3.9006
-3.80457
-3.69251
-3.57099
-3.43279
-3.27363
-3.09442
-2.8982
-2.68895
-2.47178
-2.25281
-2.03853
-1.83504
-1.64749
-1.47963
-1.33361
-1.20998
-1.10784
-1.02523
-0.959433
-0.907422
-0.866113
-0.832605
-0.804324
-0.779078
-0.755074
-0.730843
-0.705416
-0.678193
-0.648562
-0.616075
-0.580532
-0.541867
-0.50009
-0.455282
-0.407598
-0.357285
-0.304651
-0.250265
-0.194244
-0.139224
-0.078321
-0.0507114
-5.01225
-4.40134
-4.11214
-4.03512
-3.97948
-3.90493
-3.81813
-3.71688
-3.59376
-3.4448
-3.26935
-3.06849
-2.84494
-2.60343
-2.35061
-2.09443
-1.84328
-1.60516
-1.38687
-1.1934
-1.02769
-0.890509
-0.780809
-0.696095
-0.632934
-0.587431
-0.555624
-0.533785
-0.518594
-0.507241
-0.497422
-0.487333
-0.475716
-0.461784
-0.444933
-0.424732
-0.400967
-0.373617
-0.342797
-0.308745
-0.271801
-0.232385
-0.191165
-0.148279
-0.106737
-0.0581331
-0.0516567
-4.44292
-4.2361
-4.10791
-4.04479
-3.99228
-3.93158
-3.85844
-3.76814
-3.65549
-3.51668
-3.34935
-3.15256
-2.92719
-2.67651
-2.4063
-2.12445
-1.84027
-1.56352
-1.30339
-1.06763
-0.86182
-0.68902
-0.549867
-0.442848
-0.364855
-0.311705
-0.278749
-0.261277
-0.254914
-0.255764
-0.260576
-0.266701
-0.272139
-0.275378
-0.275536
-0.272004
-0.264392
-0.252552
-0.236595
-0.216776
-0.193509
-0.167272
-0.138819
-0.108355
-0.0788992
-0.0424006
-0.0487395
-4.13908
-4.09583
-4.05369
-4.01526
-3.97275
-3.91914
-3.8504
-3.7634
-3.65494
-3.52148
-3.35979
-3.16773
-2.94488
-2.69312
-2.41698
-2.12352
-1.8218
-1.52205
-1.23465
-0.969138
-0.733148
-0.531807
-0.36753
-0.240172
-0.147409
-0.0853291
-0.0490547
-0.0333336
-0.0329993
-0.043306
-0.0601249
-0.0800348
-0.100348
-0.118986
-0.134456
-0.145869
-0.152668
-0.154607
-0.151734
-0.14431
-0.132763
-0.117618
-0.0996305
-0.0791724
-0.0588735
-0.0326043
-0.0429799
-3.9927
-3.98926
-3.97751
-3.95547
-3.92262
-3.87536
-3.81072
-3.72623
-3.61928
-3.48703
-3.32659
-3.13619
-2.91532
-2.66491
-2.38856
-2.0925
-1.78511
-1.47622
-1.17635
-0.895746
-0.643092
-0.424793
-0.244584
-0.103502
-6.1587e-05
0.0691195
0.108793
0.124334
0.121325
0.104999
0.080101
0.0505956
0.0197417
-0.0100172
-0.0367673
-0.0592527
-0.0767102
-0.0888258
-0.0955698
-0.0971973
-0.094098
-0.0868202
-0.0760511
-0.0623122
-0.0476237
-0.0285245
-0.0358881
-3.92074
-3.92735
-3.92315
-3.905
-3.87381
-3.82715
-3.7624
-3.67723
-3.56924
-3.43597
-3.27501
-3.08443
-2.86341
-2.61328
-2.33758
-2.04223
-1.73526
-1.42586
-1.12398
-0.839786
-0.582164
-0.357927
-0.171533
-0.0246502
0.0835879
0.156179
0.197546
0.213036
0.208234
0.188627
0.159162
0.124162
0.0871296
0.0508447
0.0173523
-0.01185
-0.0358773
-0.0542736
-0.066983
-0.07417
-0.0762178
-0.0736024
-0.0669607
-0.0568372
-0.0446361
-0.0293693
-0.0291531
-3.9045
-3.9133
-3.91017
-3.8912
-3.85758
-3.80766
-3.73907
-3.64946
-3.5365
-3.39797
-3.23192
-3.03706
-2.81312
-2.56139
-2.28525
-1.9904
-1.68446
-1.37649
-1.07641
-0.794068
-0.537747
-0.313885
-0.127306
0.0199453
0.128499
0.201083
0.24198
0.256384
0.24986
0.227879
0.195492
0.157108
0.11639
0.0762356
0.0388248
0.00570293
-0.0221286
-0.0441462
-0.060202
-0.0704282
-0.075153
-0.0748417
-0.070055
-0.0613434
-0.0496619
-0.0355456
-0.0253455
-3.918
-3.92711
-3.9244
-3.90469
-3.86897
-3.81617
-3.74416
-3.65055
-3.53294
-3.38909
-3.2172
-3.01631
-2.78665
-2.5301
-2.25038
-1.95321
-1.64615
-1.3381
-1.03869
-0.757366
-0.502433
-0.280467
-0.0957999
0.0499373
0.157174
0.228331
0.267629
0.280199
0.271561
0.247183
0.212149
0.170933
0.127286
0.0842021
0.043944
0.00813131
-0.0221703
-0.0463885
-0.0643437
-0.0761539
-0.0821476
-0.0827944
-0.0786421
-0.0702255
-0.0582599
-0.0436341
-0.0253261
)
;

boundaryField
{
    inlet
    {
        type            zeroGradient;
    }
    outlet
    {
        type            fixedValue;
        value           uniform 0;
    }
    upperWall
    {
        type            zeroGradient;
    }
    lowerWall
    {
        type            zeroGradient;
    }
    frontAndBack
    {
        type            empty;
    }
}


// ************************************************************************* //
