/*--------------------------------*- C++ -*----------------------------------*\
| =========                 |                                                 |
| \\      /  F ield         | OpenFOAM: The Open Source CFD Toolbox           |
|  \\    /   O peration     | Version:  2406                                  |
|   \\  /    A nd           | Website:  www.openfoam.com                      |
|    \\/     M anipulation  |                                                 |
\*---------------------------------------------------------------------------*/
FoamFile
{
    version     2.0;
    format      ascii;
    arch        "LSB;label=32;scalar=64";
    class       surfaceScalarField;
    location    "126";
    object      phi;
}
// * * * * * * * * * * * * * * * * * * * * * * * * * * * * * * * * * * * * * //

dimensions      [0 3 -1 0 0 0 0];

oriented        oriented;

internalField   nonuniform List<scalar> 
3698
(
0.0196978
-0.000197799
0.0198781
-0.000180284
0.0199845
-0.00010643
0.0200528
-6.83159e-05
0.0201016
-4.87666e-05
0.0201362
-3.4665e-05
0.0201607
-2.45105e-05
0.0201787
-1.79481e-05
0.0201924
-1.37035e-05
0.0202031
-1.07293e-05
0.0202116
-8.51185e-06
0.0202184
-6.80171e-06
0.0202239
-5.43187e-06
0.0202281
-4.27718e-06
0.0202314
-3.24522e-06
0.0202336
-2.26264e-06
0.0202349
-1.26221e-06
0.0202351
-1.74158e-07
0.020234
1.08032e-06
0.0202314
2.59649e-06
0.0202269
4.49527e-06
0.0202199
6.93385e-06
0.0202098
1.01195e-05
0.0201955
1.4328e-05
0.0201755
1.99271e-05
0.0201481
2.74083e-05
0.0201107
3.74267e-05
0.0200598
5.08534e-05
0.0199909
6.88399e-05
0.019898
9.28983e-05
0.019773
0.000124994
0.0196053
0.000167651
0.0193813
0.000224046
0.0190832
0.000298093
0.0186887
0.000394438
0.0181703
0.000518335
0.0174951
0.000675257
0.0166249
0.000870135
0.0155188
0.00110605
0.0141365
0.00138231
0.0124444
0.00169202
0.010425
0.00201937
0.00808899
0.00233601
0.00550171
0.00258722
0.0028698
0.00263186
0.000785827
0.0020839
0.000785809
0.0554389
-0.000136684
0.0554742
-0.000215575
0.0555439
-0.0001762
0.0556101
-0.000134536
0.0556687
-0.000107378
0.0557191
-8.50737e-05
0.0557608
-6.61784e-05
0.0557947
-5.18329e-05
0.0558223
-4.13513e-05
0.055845
-3.34254e-05
0.0558637
-2.71963e-05
0.0558791
-2.21815e-05
0.0558916
-1.80331e-05
0.0559018
-1.44646e-05
0.0559098
-1.12418e-05
0.0559157
-8.16428e-06
0.0559195
-5.04016e-06
0.0559209
-1.66599e-06
0.0559198
2.19208e-06
0.0559156
6.81892e-06
0.0559075
1.25758e-05
0.0558945
1.99325e-05
0.0558751
2.95094e-05
0.0558472
4.21325e-05
0.0558082
5.89064e-05
0.0557543
8.13104e-05
0.0556804
0.000111325
0.0555796
0.000151595
0.0554428
0.000205645
0.0552575
0.000278144
0.0550072
0.000375239
0.0546698
0.000504951
0.0542162
0.000677625
0.0536079
0.000906389
0.0527947
0.00120754
0.0517122
0.00160072
0.0502789
0.00210854
0.0483937
0.00275528
0.0459356
0.00356404
0.0427664
0.00455153
0.0387384
0.00571991
0.0337127
0.00704493
0.0275914
0.00845721
0.0203865
0.00979203
0.0123957
0.0106224
0.00471336
0.00976604
0.00549917
0.087445
-8.17034e-05
0.0873994
-0.000169975
0.0873953
-0.000172107
0.0874126
-0.000151811
0.0874392
-0.000134052
0.0874703
-0.000116158
0.0875018
-9.76629e-05
0.0875311
-8.11771e-05
0.0875574
-6.76344e-05
0.0875805
-5.65173e-05
0.0876005
-4.72217e-05
0.0876177
-3.93552e-05
0.0876322
-3.25875e-05
0.0876443
-2.6594e-05
0.0876542
-2.10686e-05
0.0876617
-1.57213e-05
0.0876669
-1.02545e-05
0.0876696
-4.33782e-06
0.0876693
2.41945e-06
0.0876656
1.05006e-05
0.0876577
2.05234e-05
0.0876443
3.3295e-05
0.0876239
4.98842e-05
0.0875943
7.17169e-05
0.0875525
0.000100704
0.0874944
0.000139413
0.0874144
0.000191291
0.087305
0.000260967
0.0871559
0.000354641
0.0869535
0.000480598
0.0866788
0.000649859
0.0863067
0.000877011
0.0858031
0.00118121
0.085122
0.00158739
0.084202
0.00212754
0.0829606
0.00284206
0.0812885
0.00378059
0.0790416
0.00500208
0.0760329
0.00657266
0.0720245
0.00855991
0.0667233
0.0110211
0.0597867
0.0139814
0.0508478
0.017396
0.0395877
0.0210519
0.0259416
0.0242684
0.0110198
0.0246878
0.016519
0.115468
-4.96861e-05
0.115417
-0.000119149
0.115384
-0.000138649
0.115367
-0.000135532
0.115362
-0.000129086
0.115366
-0.000119805
0.115376
-0.000107209
0.115388
-9.38023e-05
0.115402
-8.13964e-05
0.115416
-7.03e-05
0.115429
-6.03644e-05
0.115441
-5.14615e-05
0.115452
-4.34337e-05
0.115461
-3.60494e-05
0.115469
-2.90338e-05
0.115476
-2.20849e-05
0.11548
-1.48622e-05
0.115483
-6.96159e-06
0.115483
2.11367e-06
0.115481
1.29932e-05
0.115475
2.64929e-05
0.115464
4.36866e-05
0.115448
6.60022e-05
0.115424
9.53518e-05
0.115391
0.000134305
0.115344
0.000186324
0.115279
0.000256074
0.11519
0.00034985
0.115069
0.000476131
0.114903
0.000646332
0.114677
0.000875791
0.114369
0.00118506
0.113948
0.0016016
0.113374
0.0021619
0.112587
0.0029142
0.111507
0.0039217
0.110022
0.00526627
0.107972
0.0070522
0.105135
0.00940922
0.101202
0.0124928
0.0957442
0.0164787
0.0881817
0.0215439
0.0777531
0.0278244
0.0635211
0.0352839
0.0444854
0.043304
0.0208227
0.0483504
0.0373417
0.139482
-3.1374e-05
0.139444
-8.16116e-05
0.139409
-0.000103642
0.139382
-0.000108429
0.139362
-0.00010859
0.139347
-0.000105598
0.139339
-9.88313e-05
0.139335
-8.99348e-05
0.139334
-8.0651e-05
0.139336
-7.16323e-05
0.139338
-6.30019e-05
0.139342
-5.48133e-05
0.139345
-4.7059e-05
0.139349
-3.96233e-05
0.139352
-3.23049e-05
0.139355
-2.48404e-05
0.139357
-1.69002e-05
0.139358
-8.06661e-06
0.139358
2.19586e-06
0.139356
1.45831e-05
0.139353
3.001e-05
0.139347
4.96918e-05
0.139337
7.52529e-05
0.139324
0.000108877
0.139305
0.000153507
0.139278
0.000213121
0.139241
0.000293101
0.13919
0.000400735
0.13912
0.000545899
0.139024
0.000741977
0.138893
0.00100712
0.138712
0.00136592
0.138462
0.00185174
0.138114
0.00250976
0.137627
0.0034012
0.13694
0.00460886
0.135961
0.00624458
0.134555
0.00845891
0.13251
0.0114534
0.129508
0.0154956
0.125051
0.0209351
0.118379
0.0282163
0.108321
0.0378818
0.0931188
0.050486
0.07012
0.0663025
0.0365916
0.0818787
0.0739333
0.159489
-2.04117e-05
0.159463
-5.56078e-05
0.159434
-7.45195e-05
0.159407
-8.14927e-05
0.159383
-8.42715e-05
0.159361
-8.43659e-05
0.159344
-8.12761e-05
0.15933
-7.59311e-05
0.159319
-6.96537e-05
0.15931
-6.3096e-05
0.159304
-5.64565e-05
0.159299
-4.98397e-05
0.159295
-4.32953e-05
0.159292
-3.67735e-05
0.15929
-3.01315e-05
0.159288
-2.31526e-05
0.159287
-1.5544e-05
0.159286
-6.91701e-06
0.159285
3.24211e-06
0.159284
1.56136e-05
0.159283
3.11026e-05
0.159281
5.09196e-05
0.15928
7.6691e-05
0.159278
0.00011061
0.159276
0.000155642
0.159273
0.000215806
0.15927
0.000296557
0.159265
0.000405312
0.159259
0.000552168
0.15925
0.000750898
0.159237
0.00102032
0.159216
0.0013862
0.159184
0.00188392
0.159132
0.00256221
0.159044
0.00348846
0.158897
0.00475627
0.158645
0.00649636
0.158211
0.00889247
0.15746
0.0122047
0.156152
0.016804
0.153862
0.0232249
0.149836
0.0322416
0.142719
0.0449992
0.130064
0.0631401
0.107045
0.0893218
0.0642411
0.124683
0.138174
0.175493
-1.32303e-05
0.175474
-3.69337e-05
0.175451
-5.11338e-05
0.175427
-5.75462e-05
0.175403
-6.07248e-05
0.175381
-6.18383e-05
0.17536
-6.05808e-05
0.175342
-5.74652e-05
0.175325
-5.33922e-05
0.175311
-4.88835e-05
0.175299
-4.41233e-05
0.175288
-3.92037e-05
0.175279
-3.41739e-05
0.175271
-2.90071e-05
0.175265
-2.35971e-05
0.175259
-1.77703e-05
0.175255
-1.12834e-05
0.175252
-3.80669e-06
0.17525
5.10211e-06
0.17525
1.60345e-05
0.175251
2.97825e-05
0.175254
4.741e-05
0.175261
7.03508e-05
0.175271
0.000100543
0.175286
0.000140612
0.175307
0.000194126
0.175338
0.000265937
0.175381
0.000362667
0.175439
0.000493364
0.17552
0.000670435
0.175629
0.000910938
0.175777
0.00123843
0.175975
0.00168558
0.176239
0.00229799
0.176588
0.00313975
0.177043
0.0043017
0.177625
0.00591401
0.178352
0.00816546
0.179222
0.0113341
0.18019
0.0158369
0.1811
0.0223146
0.18156
0.0317808
0.180627
0.0459329
0.176022
0.0677449
0.16176
0.103583
0.121349
0.165094
0.259523
0.187495
-7.97538e-06
0.18748
-2.25402e-05
0.187461
-3.17901e-05
0.18744
-3.63887e-05
0.187418
-3.88403e-05
0.187396
-3.9888e-05
0.187375
-3.93708e-05
0.187355
-3.75651e-05
0.187336
-3.50225e-05
0.18732
-3.20963e-05
0.187304
-2.89224e-05
0.187291
-2.55638e-05
0.187279
-2.20525e-05
0.187268
-1.83687e-05
0.187259
-1.44362e-05
0.187251
-1.01282e-05
0.187245
-5.26526e-06
0.187241
3.96521e-07
0.187239
7.18548e-06
0.187239
1.55418e-05
0.187243
2.60557e-05
0.187251
3.95212e-05
0.187264
5.7009e-05
0.187285
7.99676e-05
0.187315
0.000110362
0.187358
0.000150863
0.187419
0.000205113
0.187504
0.000278088
0.18762
0.000376612
0.187781
0.000510071
0.188
0.000691433
0.1883
0.000938711
0.188708
0.00127708
0.189264
0.001742
0.19002
0.00238388
0.191047
0.00327518
0.192439
0.0045214
0.194326
0.00627842
0.19688
0.00878054
0.20033
0.0123864
0.204989
0.0176557
0.211289
0.0254808
0.219918
0.0373036
0.232182
0.0554806
0.252339
0.0834252
0.292668
0.124766
0.172981
0.379209
0.195496
-3.69249e-06
0.195484
-1.04879e-05
0.195467
-1.4888e-05
0.195447
-1.71165e-05
0.195427
-1.82803e-05
0.195406
-1.87295e-05
0.195385
-1.83943e-05
0.195365
-1.73957e-05
0.195346
-1.59928e-05
0.195328
-1.43608e-05
0.195311
-1.2569e-05
0.195297
-1.0647e-05
0.195283
-8.6069e-06
0.195271
-6.43452e-06
0.195261
-4.08575e-06
0.195252
-1.48904e-06
0.195245
1.45565e-06
0.195241
4.88342e-06
0.195239
8.97492e-06
0.195241
1.39712e-05
0.195247
2.01942e-05
0.195258
2.80757e-05
0.195277
3.81963e-05
0.195305
5.134e-05
0.195347
6.85686e-05
0.195407
9.13246e-05
0.19549
0.000121574
0.195606
0.000162003
0.195767
0.000216299
0.195987
0.000289542
0.19629
0.000388769
0.196705
0.000523783
0.197273
0.000708346
0.198053
0.00096194
0.199125
0.00131244
0.2006
0.00180022
0.202637
0.00248451
0.205461
0.0034535
0.209402
0.00484036
0.214939
0.00684857
0.222805
0.00978985
0.234147
0.0141385
0.250887
0.0205636
0.2764
0.0299678
0.317022
0.0428023
0.382334
0.0594528
0.0822062
0.473109
0.199496
1.74894e-07
0.199485
5.23802e-07
0.199469
8.69413e-07
0.199451
1.21835e-06
0.199431
1.5746e-06
0.19941
1.94185e-06
0.19939
2.32413e-06
0.19937
2.72595e-06
0.19935
3.15227e-06
0.199333
3.60856e-06
0.199316
4.10089e-06
0.199301
4.63593e-06
0.199287
5.22102e-06
0.199274
5.8643e-06
0.199264
6.57478e-06
0.199255
7.36246e-06
0.199248
8.23843e-06
0.199244
9.21506e-06
0.199242
1.03062e-05
0.199245
1.15272e-05
0.199252
1.28956e-05
0.199266
1.44308e-05
0.199288
1.61551e-05
0.199321
1.80936e-05
0.199369
2.02752e-05
0.199438
2.27333e-05
0.199534
2.55067e-05
0.199667
2.86411e-05
0.199851
3.21916e-05
0.200105
3.62254e-05
0.200453
4.08259e-05
0.20093
4.61006e-05
0.201586
5.219e-05
0.202489
5.92852e-05
0.203734
6.76517e-05
0.205456
7.76737e-05
0.207851
8.99196e-05
0.211199
0.000105265
0.215914
0.00012509
0.222611
0.000151658
0.232212
0.000188791
0.246107
0.000243099
0.266344
0.00032645
0.295853
0.000459428
0.337977
0.000677577
0.396378
0.0010525
0.00163342
0.47695
0.199496
4.03725e-06
0.199485
1.15206e-05
0.199469
1.66019e-05
0.199451
1.95179e-05
0.199431
2.13834e-05
0.199411
2.25557e-05
0.19939
2.29729e-05
0.19937
2.2765e-05
0.199351
2.22008e-05
0.199333
2.14662e-05
0.199316
2.06426e-05
0.199301
1.97727e-05
0.199288
1.88831e-05
0.199276
1.79755e-05
0.199265
1.70237e-05
0.199256
1.59758e-05
0.19925
1.47534e-05
0.199246
1.32459e-05
0.199245
1.12998e-05
0.199248
8.70433e-06
0.199255
5.17163e-06
0.19927
3.0838e-07
0.199292
-6.42267e-06
0.199326
-1.57562e-05
0.199375
-2.86976e-05
0.199444
-4.66246e-05
0.199541
-7.14275e-05
0.199676
-0.000105705
0.199861
-0.000153038
0.200115
-0.000218379
0.200465
-0.000308606
0.200944
-0.000433321
0.201602
-0.000606025
0.202507
-0.000845852
0.203755
-0.0011802
0.205482
-0.00164875
0.207881
-0.00230975
0.211236
-0.0032499
0.215962
-0.00460007
0.222673
-0.00656005
0.232297
-0.00943548
0.246231
-0.0136904
0.266532
-0.0199748
0.296149
-0.0291579
0.338445
-0.0416178
0.397098
-0.0576007
-0.0793835
0.478116
0.195496
8.30532e-06
0.195484
2.35283e-05
0.195467
3.34296e-05
0.195448
3.8685e-05
0.195427
4.18061e-05
0.195406
4.35429e-05
0.195386
4.37419e-05
0.195366
4.26882e-05
0.195347
4.09426e-05
0.195329
3.88688e-05
0.195313
3.66142e-05
0.195299
3.42544e-05
0.195286
3.18349e-05
0.195275
2.93515e-05
0.195265
2.67447e-05
0.195257
2.39064e-05
0.195251
2.0678e-05
0.195247
1.68387e-05
0.195247
1.20857e-05
0.195249
6.00774e-06
0.195256
-1.95339e-06
0.195269
-1.25554e-05
0.19529
-2.68284e-05
0.19532
-4.61748e-05
0.195364
-7.25069e-05
0.195426
-0.000108437
0.195512
-0.000157537
0.195631
-0.000224706
0.195794
-0.000316671
0.196019
-0.00044271
0.196326
-0.000615658
0.196746
-0.000853362
0.19732
-0.00118079
0.198108
-0.00163315
0.199188
-0.0022605
0.200674
-0.00313484
0.202725
-0.00436107
0.20557
-0.00609422
0.209537
-0.00856744
0.215115
-0.0121378
0.223042
-0.017363
0.234484
-0.0251326
0.251395
-0.0368857
0.277215
-0.0549774
0.318404
-0.0828066
0.384771
-0.123967
-0.172026
0.477413
0.187495
1.35357e-05
0.18748
3.78485e-05
0.187461
5.2651e-05
0.18744
5.96697e-05
0.187419
6.34648e-05
0.187397
6.52113e-05
0.187376
6.46107e-05
0.187357
6.21836e-05
0.187339
5.88395e-05
0.187322
5.51096e-05
0.187308
5.11886e-05
0.187295
4.71804e-05
0.187284
4.31469e-05
0.187274
3.90752e-05
0.187266
3.48747e-05
0.187259
3.03889e-05
0.187254
2.53935e-05
0.187252
1.95799e-05
0.187251
1.2529e-05
0.187254
3.67562e-06
0.187259
-7.74324e-06
0.18727
-2.27589e-05
0.187285
-4.27687e-05
0.187309
-6.96696e-05
0.187342
-0.000106042
0.187389
-0.0001554
0.187454
-0.00022254
0.187544
-0.000314016
0.187666
-0.000438801
0.187832
-0.000609217
0.188059
-0.000842223
0.188367
-0.00116126
0.188785
-0.00159888
0.189352
-0.00220053
0.190122
-0.00303014
0.191165
-0.00417839
0.192579
-0.00577528
0.194495
-0.00800951
0.197087
-0.0111592
0.200591
-0.015642
0.205328
-0.0221004
0.211748
-0.0315523
0.220568
-0.0457061
0.233152
-0.0675612
0.253912
-0.103567
0.295529
-0.165583
-0.261675
0.385179
0.175493
2.06835e-05
0.175474
5.64222e-05
0.175451
7.58693e-05
0.175427
8.33793e-05
0.175404
8.67019e-05
0.175382
8.73529e-05
0.175362
8.48388e-05
0.175344
8.00958e-05
0.175328
7.44545e-05
0.175315
6.85755e-05
0.175303
6.26669e-05
0.175294
5.68433e-05
0.175286
5.11659e-05
0.175279
4.55971e-05
0.175274
4.00078e-05
0.17527
3.41962e-05
0.175268
2.78863e-05
0.175266
2.07075e-05
0.175267
1.21664e-05
0.175269
1.60548e-06
0.175273
-1.18554e-05
0.17528
-2.93989e-05
0.175289
-5.26204e-05
0.175303
-8.36787e-05
0.175323
-0.000125502
0.175349
-0.000182066
0.175386
-0.00025878
0.175435
-0.000363011
0.175501
-0.000504801
0.175589
-0.000697866
0.175708
-0.000960964
0.175866
-0.00131981
0.176077
-0.00180973
0.176356
-0.00247942
0.176722
-0.0033963
0.177198
-0.00465403
0.177806
-0.00638358
0.178566
-0.00876916
0.179478
-0.0120718
0.180501
-0.0166644
0.181485
-0.0230849
0.182047
-0.0321138
0.181249
-0.0449081
0.176817
-0.0631298
0.162736
-0.0894853
0.122349
-0.125197
-0.139326
0.159489
3.16037e-05
0.159463
8.23008e-05
0.159434
0.000104782
0.159408
0.00011002
0.159384
0.000110635
0.159363
0.000108104
0.159346
0.000101813
0.159333
9.3412e-05
0.159322
8.46505e-05
0.159315
7.61881e-05
0.159309
6.81561e-05
0.159306
6.06168e-05
0.159303
5.35722e-05
0.159302
4.69169e-05
0.159301
4.04607e-05
0.159302
3.39528e-05
0.159302
2.70772e-05
0.159304
1.94312e-05
0.159305
1.04959e-05
0.159307
-4.06162e-07
0.15931
-1.41697e-05
0.159312
-3.19876e-05
0.159315
-5.54596e-05
0.159318
-8.67423e-05
0.159321
-0.00012875
0.159325
-0.000185429
0.159328
-0.000262129
0.159331
-0.000366102
0.159333
-0.000507192
0.159334
-0.000698753
0.159332
-0.000958908
0.159325
-0.00131225
0.159307
-0.00179214
0.159271
-0.00244384
0.159204
-0.00332869
0.159079
-0.00452975
0.158855
-0.00615931
0.158455
-0.00836869
0.157744
-0.0113607
0.156484
-0.0154051
0.154254
-0.0208548
0.1503
-0.0281595
0.143262
-0.0378705
0.130686
-0.0505538
0.107706
-0.0665054
0.0647975
-0.0822886
-0.0745289
0.139482
4.98663e-05
0.139444
0.000119691
0.13941
0.000139545
0.139383
0.000136779
0.139363
0.000130681
0.139349
0.000121752
0.139341
0.000109517
0.139338
9.64844e-05
0.139338
8.44716e-05
0.139341
7.37934e-05
0.139345
6.43074e-05
0.139349
5.58924e-05
0.139355
4.83979e-05
0.13936
4.16006e-05
0.139365
3.5234e-05
0.13937
2.90058e-05
0.139375
2.25855e-05
0.139378
1.55807e-05
0.139381
7.5068e-06
0.139383
-2.25198e-06
0.139384
-1.44966e-05
0.139382
-3.02843e-05
0.139377
-5.10256e-05
0.139369
-7.86129e-05
0.139356
-0.000115596
0.139336
-0.000165416
0.139307
-0.000232717
0.139264
-0.000323774
0.139204
-0.000447051
0.139119
-0.000613953
0.139
-0.00083982
0.138833
-0.00114523
0.138599
-0.0015577
0.138269
-0.00211383
0.137802
-0.00286204
0.137138
-0.00386587
0.136186
-0.00520766
0.13481
-0.00699251
0.132801
-0.00935132
0.129837
-0.0124413
0.125423
-0.0164407
0.118793
-0.0215298
0.108772
-0.027849
0.0935843
-0.0353667
0.0705495
-0.0434709
0.0368817
-0.048621
-0.0376473
0.115468
8.18281e-05
0.115417
0.000170355
0.115384
0.000172734
0.115368
0.000152679
0.115364
0.000135155
0.115368
0.000117497
0.115378
9.9241e-05
0.115392
8.30022e-05
0.115407
6.97185e-05
0.115421
5.88766e-05
0.115436
4.98769e-05
0.115449
4.23315e-05
0.115462
3.59157e-05
0.115473
3.03096e-05
0.115483
2.52135e-05
0.115492
2.03431e-05
0.115499
1.54082e-05
0.115504
1.00854e-05
0.115508
3.99254e-06
0.115509
-3.34489e-06
0.115507
-1.25348e-05
0.115501
-2.43742e-05
0.11549
-3.992e-05
0.115472
-6.05867e-05
0.115445
-8.82732e-05
0.115405
-0.000125534
0.115348
-0.000175807
0.115268
-0.000243712
0.115156
-0.000335444
0.115001
-0.000459294
0.114788
-0.000626298
0.114494
-0.00085108
0.114089
-0.00115286
0.113532
-0.0015567
0.112764
-0.00209476
0.111706
-0.00280771
0.110244
-0.00374563
0.10822
-0.00496806
0.10541
-0.00654195
0.101505
-0.008536
0.096073
-0.0110088
0.0885302
-0.0139871
0.0781085
-0.0174274
0.0638595
-0.0211179
0.044766
-0.0243776
0.0209843
-0.0248396
-0.016663
0.0874451
0.000136751
0.0873996
0.000215789
0.0873958
0.000176554
0.0874135
0.000135021
0.0874406
0.000107989
0.0874723
8.58089e-05
0.0875045
6.70387e-05
0.0875347
5.28218e-05
0.0875619
4.24748e-05
0.0875861
3.4692e-05
0.0876073
2.86169e-05
0.0876259
2.37698e-05
0.087642
1.98053e-05
0.0876559
1.64399e-05
0.0876676
1.34424e-05
0.0876773
1.06157e-05
0.087685
7.77154e-06
0.0876903
4.71042e-06
0.0876931
1.20257e-06
0.0876928
-3.03195e-06
0.0876886
-8.34974e-06
0.0876794
-1.52149e-05
0.0876637
-2.42427e-05
0.0876394
-3.62528e-05
0.0876034
-5.23448e-05
0.0875518
-7.39923e-05
0.0874792
-0.000103172
0.087378
-0.000142528
0.0872381
-0.000195585
0.0870458
-0.00026702
0.0867825
-0.000362998
0.0864229
-0.000491571
0.0859332
-0.000663136
0.0852674
-0.000890901
0.0843639
-0.00119129
0.0831403
-0.00158412
0.0814869
-0.00209225
0.0792591
-0.00274031
0.076269
-0.00355181
0.0722768
-0.00454394
0.0669873
-0.00571937
0.0600543
-0.00705421
0.051106
-0.00847918
0.0398172
-0.00982922
0.0261159
-0.0106766
0.0111088
-0.00983284
-0.00555422
0.0554389
0.000197819
0.0554744
0.000180356
0.0555444
0.000106549
0.0556109
6.84761e-05
0.0556699
4.89657e-05
0.0557208
3.49017e-05
0.0557631
2.47847e-05
0.0557976
1.82608e-05
0.055826
1.40565e-05
0.0558496
1.11252e-05
0.0558692
8.95426e-06
0.0558857
7.29478e-06
0.0558995
5.98081e-06
0.0559111
4.88791e-06
0.0559206
3.92479e-06
0.0559282
3.01894e-06
0.0559338
2.10446e-06
0.0559374
1.11264e-06
0.0559386
-3.41545e-08
0.055937
-1.43013e-06
0.0559319
-3.19418e-06
0.0559221
-5.48215e-06
0.0559064
-8.49953e-06
0.0558826
-1.25207e-05
0.0558482
-1.79119e-05
0.0557993
-2.51636e-05
0.055731
-3.49302e-05
0.0556366
-4.80833e-05
0.0555067
-6.57762e-05
0.0553292
-8.95257e-05
0.0550875
-0.000121305
0.0547596
-0.000163652
0.0543162
-0.000219765
0.0537188
-0.00029359
0.0529174
-0.000389819
0.051847
-0.00051377
0.0504257
-0.000670998
0.048552
-0.000866536
0.0461037
-0.00110357
0.0429412
-0.00138152
0.0389154
-0.00169356
0.0338849
-0.00202384
0.0277495
-0.00234387
0.0205189
-0.00259873
0.012489
-0.00264696
0.00475641
-0.00210049
-0.000797834
0.0196978
0.0198782
0.0199847
0.0200532
0.0201022
0.0201371
0.0201618
0.0201801
0.0201942
0.0202053
0.0202142
0.0202215
0.0202275
0.0202324
0.0202363
0.0202393
0.0202414
0.0202426
0.0202425
0.0202411
0.0202379
0.0202324
0.0202239
0.0202114
0.0201935
0.0201683
0.0201334
0.0200853
0.0200195
0.01993
0.0198087
0.019645
0.0194252
0.0191316
0.0187418
0.0182281
0.0175571
0.0166905
0.0155869
0.0142054
0.0125118
0.010488
0.0081441
0.00554534
0.00289835
0.000797834
0.276535
0.102674
0.23098
0.0455553
0.208921
0.0220578
0.198319
0.0106009
0.193602
0.00471162
-0.00126032
0.194862
0.509024
0.0667587
0.515114
0.039465
0.5109
0.0262704
0.502169
0.0193278
0.491892
0.0149902
0.0127194
0.477908
0.540995
0.00271425
0.576081
0.00437831
0.595869
0.00648219
0.606116
0.00908301
0.608667
0.0124352
0.0168147
0.604574
0.542619
-0.0617878
0.578367
-0.0313691
0.59946
-0.0146106
0.611978
-0.00343475
0.617902
0.00651525
0.0165558
0.618161
0.515629
-0.100003
0.525581
-0.0413203
0.527261
-0.01629
0.5263
-0.00246955
0.525976
0.00683998
0.0183584
0.524176
0.285177
0.243857
0.227568
0.225098
0.23194
0.2503
-0.00113338
0.00113281
-0.00368041
0.00254556
-0.00660489
0.00292316
-0.00934769
0.00274162
-0.0117476
0.00239888
-0.0137844
0.00203577
-0.0154787
0.00169333
-0.0168611
0.00138146
-0.0179636
0.00110157
-0.0188178
0.000853406
-0.0194552
0.000636496
-0.0199062
0.000450202
-0.0202005
0.000293622
-0.0203668
0.000165565
-0.0204321
6.45877e-05
-0.0204219
-1.09832e-05
-0.0203595
-6.30315e-05
-0.0202666
-9.36796e-05
-0.020162
-0.00010528
-0.0200624
-0.000100399
-0.0199814
-8.17339e-05
-0.0199301
-5.2043e-05
-0.0199168
-1.40317e-05
-0.0199474
2.97657e-05
-0.0200252
7.70578e-05
-0.0201519
0.000125855
-0.0203273
0.000174536
-0.02055
0.00022185
-0.0208177
0.000266903
-0.0211277
0.000309083
-0.0214766
0.000348013
-0.0218609
0.00038345
-0.0222769
0.000415199
-0.0227205
0.000442912
-0.023187
0.00046583
-0.02367
0.000482379
-0.0241601
0.000489671
-0.0246432
0.000482954
-0.0250982
0.000455003
-0.0254931
0.000395167
-0.0257804
0.000287706
-0.0258943
0.000114631
-0.0257615
-0.00013275
-0.0253002
-0.000459376
-0.0243536
-0.000946217
-0.0226606
-0.00169164
-0.00233765
-0.00359854
0.00472984
-0.00991838
0.00886135
-0.0166186
0.00962001
-0.022744
0.00886412
-0.0280192
0.00767146
-0.0324331
0.00644727
-0.03606
0.00531797
-0.0389936
0.00431279
-0.0413251
0.00343105
-0.043139
0.00266525
-0.0445118
0.0020074
-0.0455135
0.00145009
-0.0462081
0.000986495
-0.0466544
0.00061016
-0.0469064
0.000314871
-0.0470135
9.44857e-05
-0.0470209
-5.73061e-05
-0.0469691
-0.00014715
-0.046894
-0.000182112
-0.0468264
-0.000169738
-0.0467919
-0.000117953
-0.0468109
-3.4887e-05
-0.0468982
7.14401e-05
-0.0470637
0.000193363
-0.0473125
0.000323928
-0.0476456
0.00045704
-0.0480608
0.000587672
-0.0485527
0.000711807
-0.0491143
0.000826431
-0.0497366
0.000929266
-0.0504092
0.00101861
-0.0511208
0.00109304
-0.0518585
0.00115108
-0.0526079
0.00119065
-0.0533518
0.00120834
-0.0540689
0.00119836
-0.0547314
0.00115146
-0.0553024
0.00105372
-0.0557324
0.000885486
-0.0559569
0.000620756
-0.0558957
0.000227882
-0.055455
-0.00032564
-0.0545273
-0.00105849
-0.0530141
-0.00197148
-0.0508904
-0.00306628
-0.0483058
-0.0042761
-0.00511962
-0.00561902
0.010347
-0.0143575
0.0175961
-0.0229015
0.0181609
-0.0303616
0.0163215
-0.0366223
0.0139297
-0.0417838
0.0116066
-0.0459996
0.00953165
-0.0494203
0.00773157
-0.0521766
0.00618546
-0.0543774
0.00486426
-0.0561139
0.0037422
-0.0574636
0.00279818
-0.0584936
0.00201495
-0.0592632
0.00137819
-0.0598255
0.000875611
-0.0602287
0.000496208
-0.060517
0.00022944
-0.0607303
6.45616e-05
-0.0609041
-9.83929e-06
-0.0610694
-6.03552e-06
-0.0612519
6.28529e-05
-0.0614716
0.000183163
-0.0617429
0.00034111
-0.0620746
0.000523364
-0.06247
0.000717547
-0.0629274
0.000912742
-0.0634413
0.00109969
-0.0640022
0.00127095
-0.0645982
0.00142065
-0.0652149
0.00154421
-0.0658359
0.00163785
-0.0664428
0.00169826
-0.0670152
0.00172197
-0.0675305
0.00170458
-0.0679628
0.00163958
-0.0682823
0.00151707
-0.0684536
0.00132229
-0.0684344
0.00103439
-0.0681742
0.000625795
-0.0676153
6.26895e-05
-0.0666962
-0.000690428
-0.0653548
-0.00166622
-0.0635309
-0.00288188
-0.0611964
-0.00430356
-0.0584473
-0.00581595
-0.0554765
-0.00724734
-0.00819414
-0.0068445
0.0171898
-0.0160484
0.0267958
-0.0239569
0.0260661
-0.0303684
0.0227303
-0.0355839
0.0191428
-0.0398643
0.0158848
-0.0434207
0.0130859
-0.0464192
0.0107281
-0.0489809
0.00874531
-0.0511908
0.00707246
-0.0531093
0.00565907
-0.0547804
0.00446773
-0.0562377
0.00347069
-0.0575081
0.00264717
-0.0586154
0.0019815
-0.0595819
0.00146129
-0.0604295
0.0010755
-0.0611795
0.000813173
-0.0618532
0.000662294
-0.06247
0.00060924
-0.0630473
0.00063854
-0.063599
0.000733264
-0.064135
0.000875532
-0.0646608
0.00104747
-0.0651768
0.00123196
-0.0656793
0.00141356
-0.0661602
0.00157886
-0.0666079
0.00171691
-0.0670078
0.00181883
-0.0673428
0.00187751
-0.0675933
0.00188676
-0.0677377
0.00184114
-0.0677524
0.00173526
-0.067612
0.00156298
-0.0672895
0.00131607
-0.0667562
0.000983074
-0.0659822
0.000547768
-0.0649365
-1.14028e-05
-0.0635896
-0.000720976
-0.0619156
-0.00161069
-0.0598954
-0.00271008
-0.0575189
-0.0040426
-0.0547839
-0.00561619
-0.0517087
-0.00737928
-0.0483875
-0.00913608
-0.0449814
-0.0106528
-0.011751
-0.00687993
0.0240678
-0.0131627
0.0330742
-0.0168133
0.0297132
-0.0192619
0.0251759
-0.0212984
0.0211766
-0.0231915
0.0177755
-0.0250692
0.0149614
-0.0270083
0.0126653
-0.0290384
0.0107735
-0.0311541
0.00918658
-0.0333315
0.00783483
-0.0355367
0.00667154
-0.0377327
0.00566529
-0.0398823
0.0047953
-0.0419518
0.00404969
-0.0439142
0.00342224
-0.0457489
0.00290872
-0.0474426
0.00250531
-0.0489884
0.00220662
-0.050385
0.00200426
-0.0516345
0.00188643
-0.0527408
0.00183785
-0.0537075
0.00184069
-0.0545372
0.00187548
-0.0552296
0.00192266
-0.0557813
0.00196358
-0.0561859
0.00198176
-0.0564339
0.00196313
-0.056513
0.00189635
-0.0564091
0.00177189
-0.0561053
0.00158137
-0.055583
0.00131729
-0.0548222
0.000972975
-0.0538021
0.000541645
-0.0525025
1.54025e-05
-0.0509046
-0.000615749
-0.0489928
-0.00136469
-0.0467566
-0.00224805
-0.0441923
-0.00328542
-0.041306
-0.004497
-0.0381168
-0.00589932
-0.0346588
-0.00750086
-0.0309815
-0.00929379
-0.0271401
-0.0112189
-0.0231905
-0.0130835
-0.0192279
-0.0146131
-0.0160744
-0.00318354
0.0272482
0.000826565
0.0290584
0.00640954
0.0241264
0.0107101
0.0208724
0.0133974
0.0184867
0.0146894
0.0164813
0.0147978
0.0148509
0.0138977
0.0135635
0.0121547
0.0125148
0.00972989
0.0116097
0.00677715
0.010786
0.0034412
0.010006
-0.000142736
0.00924776
-0.00385187
0.00850301
-0.00757662
0.00777302
-0.0112216
0.00706579
-0.0147082
0.00639394
-0.0179748
0.00577043
-0.0209757
0.00520598
-0.0236797
0.00470681
-0.0260682
0.00427337
-0.0281319
0.00389997
-0.0298681
0.00357526
-0.0312779
0.00328373
-0.0323642
0.00300723
-0.0331292
0.00272699
-0.0335743
0.00242511
-0.0336987
0.00208591
-0.0335003
0.00169618
-0.0329751
0.00124492
-0.0321169
0.000721437
-0.0309179
0.000116688
-0.0293697
-0.000576884
-0.0274639
-0.00136565
-0.0251941
-0.00225576
-0.0225569
-0.0032541
-0.0195537
-0.00436893
-0.016193
-0.00560967
-0.0124927
-0.00698634
-0.00848321
-0.00850684
-0.00420967
-0.0101733
0.000265702
-0.0119766
0.00486181
-0.0138899
0.00949244
-0.0158467
0.0141281
-0.0177149
0.0188101
-0.0192911
-0.0209656
0.0293697
-0.00212526
0.0522064
0.00621758
0.0671732
0.00915673
0.0770195
0.0110238
0.0829333
0.0125709
0.0857484
0.0136642
0.086153
0.0144447
0.0846622
0.0150527
0.0816654
0.0155102
0.0774822
0.0157916
0.0723909
0.0158761
0.0666399
0.0157558
0.0604539
0.0154328
0.0540364
0.0149195
0.0475704
0.0142381
0.0412159
0.0134193
0.0351098
0.012499
0.0293642
0.0115149
0.0240668
0.0105022
0.0192816
0.0094908
0.0150508
0.00850285
0.011398
0.00755127
0.00833196
0.00663974
0.00585014
0.00576388
0.00394256
0.00491304
0.00259491
0.00407276
0.00179105
0.00322702
0.00151464
0.00236027
0.00174994
0.00145875
0.00248183
0.000510845
0.00369774
-0.000496658
0.00538614
-0.00157387
0.00753649
-0.00272929
0.0101381
-0.00396925
0.0131788
-0.00529818
0.0166427
-0.00671958
0.0205087
-0.00823635
0.0247483
-0.00985057
0.0293236
-0.0115625
0.0341846
-0.0133686
0.0392689
-0.0152581
0.0445006
-0.017209
0.0497942
-0.0191823
0.0550615
-0.0211121
0.060256
-0.0229053
0.0653664
-0.0243986
-0.025951
0.197303
-0.00457075
0.203743
-0.000224165
0.208166
0.0047319
0.21018
0.00900858
0.209834
0.0129159
0.207137
0.0163609
0.202347
0.0192336
0.195828
0.0215712
0.187913
0.0234241
0.1789
0.0248041
0.169063
0.025712
0.158661
0.0261572
0.147934
0.0261592
0.137106
0.0257466
0.126385
0.0249585
0.115959
0.0238445
0.105995
0.0224624
0.0966355
0.0208741
0.0879952
0.0191418
0.0801621
0.0173232
0.0731965
0.0154677
0.0671332
0.0136138
0.0619841
0.0117879
0.0577428
0.0100041
0.0543887
0.0082661
0.0518908
0.00656938
0.0502124
0.00490409
0.0493135
0.00325774
0.0491532
0.00161742
0.0496909
-2.85962e-05
0.0508871
-0.00169453
0.0527023
-0.00339087
0.0550992
-0.00512792
0.058041
-0.00691267
0.0614901
-0.00874883
0.0654066
-0.0106375
0.0697467
-0.0125776
0.0744606
-0.0145656
0.0794917
-0.0165944
0.0847747
-0.0186521
0.0902355
-0.0207192
0.0957925
-0.0227658
0.101359
-0.0247484
0.106852
-0.0266033
0.112204
-0.028255
0.117397
-0.0295904
-0.0307953
0.460367
0.0129698
0.443793
0.0163497
0.427768
0.0207568
0.411876
0.0248999
0.396009
0.0287829
0.379984
0.0323849
0.363669
0.0355483
0.347034
0.0382052
0.330112
0.0403454
0.31297
0.0419459
0.295705
0.0429762
0.278442
0.0434186
0.261329
0.0432721
0.244523
0.0425517
0.228191
0.04129
0.212499
0.039537
0.197602
0.0373585
0.183644
0.0348317
0.170746
0.0320394
0.159005
0.0290645
0.148488
0.0259845
0.139235
0.0228661
0.13126
0.0197631
0.12455
0.016714
0.119072
0.0137429
0.11478
0.0108614
0.111612
0.008071
0.109503
0.00536603
0.108382
0.00273683
0.108181
0.000171618
0.108826
-0.00234118
0.110247
-0.00481305
0.112373
-0.00725522
0.115135
-0.00967675
0.118467
-0.0120822
0.122301
-0.0144723
0.126567
-0.0168444
0.131193
-0.0191921
0.136103
-0.0215049
0.141217
-0.0237665
0.146451
-0.0259536
0.15172
-0.0280342
0.156937
-0.0299647
0.162027
-0.0316918
0.166915
-0.033142
0.171602
-0.0342765
-0.0349946
0.595179
0.0223652
0.583092
0.028437
0.569633
0.0342151
0.554925
0.0396071
0.539037
0.044671
0.5221
0.0493213
0.504193
0.0534542
0.485386
0.0570121
0.465782
0.0599477
0.445523
0.0622043
0.424773
0.0637256
0.403722
0.0644692
0.382582
0.0644119