/*--------------------------------*- C++ -*----------------------------------*\
| =========                 |                                                 |
| \\      /  F ield         | OpenFOAM: The Open Source CFD Toolbox           |
|  \\    /   O peration     | Version:  2406                                  |
|   \\  /    A nd           | Website:  www.openfoam.com                      |
|    \\/     M anipulation  |                                                 |
\*---------------------------------------------------------------------------*/
FoamFile
{
    version     2.0;
    format      ascii;
    arch        "LSB;label=32;scalar=64";
    class       volVectorField;
    location    "126";
    object      U;
}
// * * * * * * * * * * * * * * * * * * * * * * * * * * * * * * * * * * * * * //

dimensions      [0 1 -1 0 0 0 0];

internalField   nonuniform List<vector> 
1916
(
(0.19425 -0.000884257 0)
(0.197757 -0.000692191 0)
(0.199501 -0.000345243 0)
(0.200259 -0.00020811 0)
(0.20079 -0.000140435 0)
(0.201205 -8.77423e-05 0)
(0.2015 -5.35929e-05 0)
(0.201708 -3.56511e-05 0)
(0.201863 -2.58109e-05 0)
(0.201983 -1.93156e-05 0)
(0.202078 -1.46581e-05 0)
(0.202154 -1.12456e-05 0)
(0.202214 -8.60224e-06 0)
(0.202262 -6.37683e-06 0)
(0.2023 -4.34436e-06 0)
(0.202327 -2.3389e-06 0)
(0.202345 -2.04671e-07 0)
(0.202352 2.22507e-06 0)
(0.202348 5.14254e-06 0)
(0.20233 8.7837e-06 0)
(0.202296 1.34528e-05 0)
(0.20224 1.95491e-05 0)
(0.202156 2.76021e-05 0)
(0.202037 3.83161e-05 0)
(0.201869 5.26304e-05 0)
(0.201636 7.17953e-05 0)
(0.201318 9.74691e-05 0)
(0.200885 0.000131839 0)
(0.200298 0.000177767 0)
(0.199504 0.000238953 0)
(0.198434 0.000320111 0)
(0.196997 0.000427119 0)
(0.195072 0.000567095 0)
(0.192505 0.000748287 0)
(0.189097 0.00097964 0)
(0.184601 0.00126978 0)
(0.178715 0.00162512 0)
(0.171082 0.00204684 0)
(0.161305 0.00252652 0)
(0.148968 0.00304103 0)
(0.133688 0.00354803 0)
(0.11519 0.00398383 0)
(0.0933824 0.00426717 0)
(0.0684852 0.0043005 0)
(0.0416597 0.00384901 0)
(0.0172186 0.00187715 0)
(0.000448695 -0.000514439 0)
(0.551923 -0.00181986 0)
(0.553916 -0.00243676 0)
(0.555345 -0.00173112 0)
(0.555864 -0.00116407 0)
(0.556379 -0.000848232 0)
(0.556942 -0.000625359 0)
(0.55742 -0.000455963 0)
(0.557795 -0.000339217 0)
(0.558097 -0.000261089 0)
(0.558346 -0.000205659 0)
(0.558552 -0.000163933 0)
(0.558721 -0.000131441 0)
(0.558859 -0.000105234 0)
(0.558973 -8.30464e-05 0)
(0.559063 -6.316e-05 0)
(0.559132 -4.41877e-05 0)
(0.559181 -2.48488e-05 0)
(0.559208 -3.8081e-06 0)
(0.55921 2.0453e-05 0)
(0.559185 4.97762e-05 0)
(0.559125 8.64965e-05 0)
(0.559023 0.000133651 0)
(0.558864 0.00019525 0)
(0.558634 0.000276628 0)
(0.558307 0.000384913 0)
(0.557852 0.000529635 0)
(0.557226 0.000723517 0)
(0.556371 0.000983503 0)
(0.555207 0.00133205 0)
(0.553629 0.00179875 0)
(0.551496 0.00242223 0)
(0.548616 0.00325234 0)
(0.544738 0.00435242 0)
(0.539531 0.00580123 0)
(0.532556 0.00769382 0)
(0.52325 0.01014 0)
(0.510889 0.0132582 0)
(0.494566 0.0171624 0)
(0.473174 0.0219375 0)
(0.445411 0.0276011 0)
(0.409825 0.0340516 0)
(0.364942 0.0410029 0)
(0.309461 0.04789 0)
(0.242586 0.0535736 0)
(0.165083 0.0553426 0)
(0.0846989 0.04661 0)
(0.0121306 0.0226497 0)
(0.872337 -0.00113341 0)
(0.873515 -0.00201705 0)
(0.87424 -0.00187422 0)
(0.874127 -0.00155336 0)
(0.874198 -0.00130372 0)
(0.874516 -0.00107915 0)
(0.874865 -0.000870259 0)
(0.875174 -0.000698261 0)
(0.875449 -0.000565704 0)
(0.875696 -0.000462338 0)
(0.875912 -0.000379364 0)
(0.876097 -0.000311452 0)
(0.876255 -0.000254602 0)
(0.876388 -0.000205321 0)
(0.876498 -0.000160608 0)
(0.876585 -0.000117812 0)
(0.876649 -7.4353e-05 0)
(0.876689 -2.7463e-05 0)
(0.876702 2.606e-05 0)
(0.876684 9.01289e-05 0)
(0.876628 0.000169713 0)
(0.876524 0.000271281 0)
(0.87636 0.000403379 0)
(0.876116 0.000577393 0)
(0.875767 0.000808564 0)
(0.875278 0.00111732 0)
(0.874603 0.00153107 0)
(0.873676 0.00208648 0)
(0.872412 0.00283253 0)
(0.870692 0.00383435 0)
(0.868357 0.00517811 0)
(0.865192 0.00697695 0)
(0.860906 0.00937797 0)
(0.855108 0.0125699 0)
(0.84727 0.0167908 0)
(0.836688 0.0223331 0)
(0.822422 0.0295439 0)
(0.803224 0.0388131 0)
(0.777465 0.0505415 0)
(0.743044 0.0650748 0)
(0.697319 0.082591 0)
(0.637107 0.10292 0)
(0.558772 0.125253 0)
(0.4585 0.147401 0)
(0.333021 0.16357 0)
(0.188514 0.157071 0)
(0.0336966 0.0971242 0)
(1.15273 -0.000628955 0)
(1.15374 -0.00140106 0)
(1.15429 -0.00156256 0)
(1.15388 -0.00148377 0)
(1.15358 -0.00137598 0)
(1.15359 -0.00124225 0)
(1.1537 -0.0010824 0)
(1.15382 -0.000924665 0)
(1.15395 -0.00078595 0)
(1.15409 -0.00066687 0)
(1.15422 -0.000563984 0)
(1.15435 -0.000474617 0)
(1.15447 -0.000396184 0)
(1.15457 -0.000325697 0)
(1.15466 -0.00026003 0)
(1.15473 -0.000196021 0)
(1.15478 -0.000130303 0)
(1.15482 -5.90419e-05 0)
(1.15484 2.23638e-05 0)
(1.15483 0.000119654 0)
(1.15479 0.000240198 0)
(1.15471 0.000393648 0)
(1.15458 0.000592798 0)
(1.15438 0.000854746 0)
(1.1541 0.00120243 0)
(1.15371 0.00166669 0)
(1.15316 0.00228903 0)
(1.15241 0.0031253 0)
(1.15138 0.0042505 0)
(1.14998 0.00576523 0)
(1.14807 0.00780394 0)
(1.14546 0.0105457 0)
(1.1419 0.0142276 0)
(1.13704 0.0191614 0)
(1.13039 0.0257531 0)
(1.12129 0.0345242 0)
(1.10878 0.046133 0)
(1.09155 0.0613879 0)
(1.06774 0.0812436 0)
(1.03479 0.106757 0)
(0.989072 0.138975 0)
(0.925678 0.178682 0)
(0.837981 0.225943 0)
(0.717441 0.27886 0)
(0.552793 0.329875 0)
(0.341549 0.349182 0)
(0.0725014 0.251578 0)
(1.39299 -0.00038495 0)
(1.39395 -0.000964952 0)
(1.39455 -0.00119235 0)
(1.39411 -0.00122435 0)
(1.39367 -0.00120728 0)
(1.39349 -0.00115523 0)
(1.39342 -0.00106404 0)
(1.39337 -0.000954079 0)
(1.39334 -0.000844307 0)
(1.39334 -0.000741004 0)
(1.39337 -0.000644863 0)
(1.3934 -0.000555917 0)
(1.39343 -0.000473594 0)
(1.39347 -0.000396279 0)
(1.39351 -0.000321604 0)
(1.39354 -0.000246692 0)
(1.39356 -0.000168102 0)
(1.39358 -8.16091e-05 0)
(1.39358 1.80988e-05 0)
(1.39357 0.000137838 0)
(1.39355 0.000286502 0)
(1.3935 0.000475845 0)
(1.39343 0.000721535 0)
(1.39332 0.00104458 0)
(1.39316 0.00147328 0)
(1.39293 0.00204577 0)
(1.39262 0.0028136 0)
(1.39219 0.0038464 0)
(1.3916 0.00523828 0)
(1.3908 0.00711636 0)
(1.38969 0.00965225 0)
(1.38817 0.0130773 0)
(1.38607 0.0177028 0)
(1.38316 0.0239469 0)
(1.37911 0.032369 0)
(1.37342 0.0437144 0)
(1.36535 0.0589696 0)
(1.35383 0.0794276 0)
(1.33719 0.106759 0)
(1.3129 0.143076 0)
(1.27709 0.190952 0)
(1.22377 0.253329 0)
(1.14371 0.333189 0)
(1.02315 0.432214 0)
(0.839343 0.546559 0)
(0.571093 0.638043 0)
(0.145478 0.536593 0)
(1.59316 -0.000249603 0)
(1.59408 -0.000663157 0)
(1.59475 -0.000871145 0)
(1.59438 -0.000940236 0)
(1.59391 -0.000963553 0)
(1.59367 -0.000956172 0)
(1.59352 -0.00091302 0)
(1.59337 -0.000846088 0)
(1.59324 -0.000770557 0)
(1.59314 -0.000693497 0)
(1.59306 -0.000616989 0)
(1.59301 -0.000542103 0)
(1.59297 -0.000469272 0)
(1.59293 -0.000397839 0)
(1.59291 -0.000326181 0)
(1.59289 -0.000251932 0)
(1.59288 -0.00017196 0)
(1.59286 -8.21747e-05 0)
(1.59285 2.27789e-05 0)
(1.59284 0.000149941 0)
(1.59283 0.000308635 0)
(1.59282 0.000511296 0)
(1.59281 0.000774591 0)
(1.59279 0.00112097 0)
(1.59277 0.00158073 0)
(1.59275 0.00219489 0)
(1.59272 0.00301905 0)
(1.59268 0.00412864 0)
(1.59263 0.00562614 0)
(1.59256 0.00765092 0)
(1.59246 0.0103927 0)
(1.5923 0.0141102 0)
(1.59206 0.0191563 0)
(1.59166 0.0260136 0)
(1.59102 0.0353431 0)
(1.58993 0.0480517 0)
(1.58808 0.065387 0)
(1.5849 0.089068 0)
(1.57941 0.121467 0)
(1.56988 0.165859 0)
(1.55325 0.226757 0)
(1.52413 0.310321 0)
(1.4728 0.424899 0)
(1.38278 0.580814 0)
(1.22048 0.789436 0)
(0.936603 1.02379 0)
(0.292542 1.03744 0)
(1.75328 -0.000163822 0)
(1.75416 -0.000449437 0)
(1.75488 -0.000613954 0)
(1.75457 -0.000685167 0)
(1.75413 -0.000719504 0)
(1.75387 -0.000729518 0)
(1.7537 -0.000711626 0)
(1.75351 -0.000672628 0)
(1.75333 -0.000623267 0)
(1.75318 -0.000569496 0)
(1.75304 -0.000513415 0)
(1.75293 -0.00045611 0)
(1.75283 -0.000398159 0)
(1.75275 -0.000339259 0)
(1.75268 -0.000278223 0)
(1.75262 -0.000213119 0)
(1.75257 -0.000141255 0)
(1.75253 -5.89945e-05 0)
(1.75251 3.85285e-05 0)
(1.75249 0.000157804 0)
(1.7525 0.000307512 0)
(1.75252 0.000499293 0)
(1.75257 0.000748825 0)
(1.75265 0.00107728 0)
(1.75277 0.00151331 0)
(1.75295 0.00209582 0)
(1.75321 0.00287769 0)
(1.75357 0.00393092 0)
(1.75406 0.0053538 0)
(1.75475 0.00728073 0)
(1.75568 0.00989604 0)
(1.75695 0.0134533 0)
(1.75865 0.0183027 0)
(1.76094 0.0249301 0)
(1.76397 0.0340137 0)
(1.76795 0.0465062 0)
(1.77311 0.063758 0)
(1.77967 0.0877015 0)
(1.78776 0.121136 0)
(1.79724 0.168172 0)
(1.80734 0.234966 0)
(1.8159 0.330924 0)
(1.81709 0.471109 0)
(1.79987 0.680264 0)
(1.72827 1.00867 0)
(1.56651 1.53152 0)
(0.663611 1.95229 0)
(1.87335 -0.000103829 0)
(1.87421 -0.000289981 0)
(1.87495 -0.000405729 0)
(1.87469 -0.000462498 0)
(1.87427 -0.000492931 0)
(1.87403 -0.00050577 0)
(1.87385 -0.000498934 0)
(1.87365 -0.00047625 0)
(1.87345 -0.000444715 0)
(1.87328 -0.000408672 0)
(1.87312 -0.000369801 0)
(1.87297 -0.00032892 0)
(1.87284 -0.000286453 0)
(1.87273 -0.000242186 0)
(1.87263 -0.000195222 0)
(1.87255 -0.000144052 0)
(1.87248 -8.65385e-05 0)
(1.87243 -1.97656e-05 0)
(1.87239 6.01928e-05 0)
(1.87239 0.000158603 0)
(1.8724 0.000282531 0)
(1.87246 0.000441484 0)
(1.87256 0.000648284 0)
(1.87273 0.000920277 0)
(1.87298 0.00128099 0)
(1.87334 0.00176239 0)
(1.87385 0.00240806 0)
(1.87456 0.00327749 0)
(1.87554 0.00445216 0)
(1.8769 0.00604399 0)
(1.87877 0.00820736 0)
(1.88131 0.0111561 0)
(1.88479 0.0151883 0)
(1.88952 0.0207222 0)
(1.89596 0.0283496 0)
(1.90471 0.0389167 0)
(1.9166 0.0536478 0)
(1.93273 0.0743398 0)
(1.9546 0.103675 0)
(1.98424 0.145733 0)
(2.02438 0.206872 0)
(2.07905 0.297262 0)
(2.15362 0.433834 0)
(2.26337 0.645591 0)
(2.42151 0.986605 0)
(2.80559 1.54676 0)
(3.10526 2.4435 0)
(1.9534 -5.72958e-05 0)
(1.95423 -0.000161436 0)
(1.95498 -0.000228641 0)
(1.95476 -0.000263388 0)
(1.95436 -0.000282519 0)
(1.95412 -0.000290976 0)
(1.95395 -0.000287688 0)
(1.95375 -0.000274614 0)
(1.95355 -0.00025567 0)
(1.95336 -0.000233463 0)
(1.95319 -0.000209058 0)
(1.95304 -0.000182942 0)
(1.95289 -0.000155341 0)
(1.95277 -0.000126089 0)
(1.95266 -9.45817e-05 0)
(1.95256 -5.98161e-05 0)
(1.95248 -2.03709e-05 0)
(1.95243 2.56863e-05 0)
(1.95239 8.09531e-05 0)
(1.95239 0.000148909 0)
(1.95243 0.000234221 0)
(1.95251 0.000343157 0)
(1.95266 0.000484172 0)
(1.95289 0.000668697 0)
(1.95323 0.000912238 0)
(1.95373 0.00123588 0)
(1.95443 0.00166837 0)
(1.9554 0.00224903 0)
(1.95676 0.00303181 0)
(1.95862 0.00409103 0)
(1.96119 0.00552955 0)
(1.9647 0.00749056 0)
(1.96952 0.0101748 0)
(1.97613 0.0138659 0)
(1.98519 0.0189691 0)
(1.99766 0.0260697 0)
(2.01486 0.0360247 0)
(2.03865 0.0501084 0)
(2.07176 0.0702465 0)
(2.11814 0.0993963 0)
(2.18369 0.142162 0)
(2.27775 0.205794 0)
(2.41464 0.301501 0)
(2.62228 0.446744 0)
(2.9336 0.661832 0)
(3.45538 0.968061 0)
(4.18639 1.38671 0)
(1.99342 -1.72829e-05 0)
(1.99425 -4.86843e-05 0)
(1.995 -6.85797e-05 0)
(1.99479 -7.81081e-05 0)
(1.9944 -8.24375e-05 0)
(1.99417 -8.31231e-05 0)
(1.994 -7.9809e-05 0)
(1.9938 -7.30728e-05 0)
(1.9936 -6.41429e-05 0)
(1.99341 -5.38541e-05 9.44531e-34)
(1.99324 -4.25347e-05 0)
(1.99308 -3.03081e-05 0)
(1.99293 -1.71997e-05 0)
(1.9928 -3.09795e-06 0)
(1.99269 1.22644e-05 0)
(1.99259 2.93005e-05 9.38996e-34)
(1.99251 4.85762e-05 0)
(1.99245 7.0843e-05 0)
(1.99242 9.70934e-05 0)
(1.99243 0.000128637 0)
(1.99247 0.000167208 0)
(1.99257 0.000215114 0)
(1.99275 0.000275438 0)
(1.99302 0.000352322 -9.30948e-34)
(1.99341 0.000451351 0)
(1.99399 0.000580084 0)
(1.99479 0.000748796 0)
(1.99591 0.000971505 0)
(1.99747 0.00126741 0)
(1.99961 0.00166297 0)
(2.00256 0.00219478 0)
(2.0066 0.00291387 0)
(2.01215 0.00389194 0)
(2.01978 0.00523064 0)
(2.03029 0.00707568 0)
(2.0448 0.00963863 0)
(2.06493 0.0132309 0)
(2.093 0.0183179 0)
(2.13238 0.0256049 0)
(2.18809 0.0361732 0)
(2.26761 0.0516818 0)
(2.38226 0.0746512 -7.6383e-34)
(2.54871 0.108551 0)
(2.79161 0.157862 0)
(3.14249 0.222618 0)
(3.6311 0.295954 0)
(4.32169 0.355401 0)
(1.99342 2.0743e-05 0)
(1.99425 5.91174e-05 0)
(1.995 8.59241e-05 0)
(1.99479 0.00010243 0)
(1.9944 0.000113882 0)
(1.99417 0.000121911 0)
(1.994 0.000126239 0)
(1.99381 0.000127536 0)
(1.9936 0.000127128 0)
(1.99342 0.00012596 -9.44521e-34)
(1.99324 0.000124482 0)
(1.99309 0.000122949 0)
(1.99294 0.000121535 0)
(1.99281 0.00012029 0)
(1.9927 0.000119127 0)
(1.9926 0.000117833 -9.38973e-34)
(1.99253 0.000116063 0)
(1.99247 0.000113314 0)
(1.99245 0.000108868 0)
(1.99245 0.000101726 0)
(1.9925 9.04997e-05 0)
(1.99261 7.32729e-05 0)
(1.99279 4.74044e-05 0)
(1.99306 9.25655e-06 9.30982e-34)
(1.99347 -4.6179e-05 0)
(1.99405 -0.000125798 0)
(1.99486 -0.0002391 0)
(1.99599 -0.000399188 0)
(1.99756 -0.000624174 0)
(1.99971 -0.000939165 0)
(2.00267 -0.00137911 0)
(2.00673 -0.00199291 0)
(2.0123 -0.00284946 0)
(2.01995 -0.00404665 0)
(2.03049 -0.00572496 0)
(2.04504 -0.00808839 0)
(2.06521 -0.0114372 0)
(2.09333 -0.0162198 0)
(2.1328 -0.0231144 0)
(2.18863 -0.0331585 0)
(2.26832 -0.047937 0)
(2.38327 -0.0698421 7.64053e-34)
(2.55021 -0.102108 0)
(2.79393 -0.148794 0)
(3.14621 -0.209122 0)
(3.63679 -0.274618 0)
(4.33114 -0.321107 0)
(1.9534 6.06581e-05 0)
(1.95424 0.000171572 0)
(1.95498 0.000245489 0)
(1.95476 0.000287007 0)
(1.95436 0.000313045 0)
(1.95413 0.000328616 0)
(1.95395 0.000332728 0)
(1.95376 0.000327428 0)
(1.95356 0.000316726 0)
(1.95338 0.000303338 0)
(1.95321 0.000288445 0)
(1.95306 0.000272664 0)
(1.95292 0.000256363 0)
(1.9528 0.000239534 0)
(1.95269 0.000221747 0)
(1.9526 0.000202192 0)
(1.95254 0.000179662 0)
(1.95249 0.000152464 0)
(1.95246 0.000118266 0)
(1.95247 7.38859e-05 0)
(1.95252 1.49935e-05 0)
(1.95261 -6.43062e-05 0)
(1.95278 -0.000172042 0)
(1.95302 -0.000319166 0)
(1.95339 -0.000520633 0)
(1.9539 -0.000796899 0)
(1.95463 -0.00117599 0)
(1.95563 -0.00169636 0)
(1.95702 -0.00241096 0)
(1.95892 -0.0033929 0)
(1.96152 -0.00474354 0)
(1.96508 -0.00660421 0)
(1.96996 -0.00917324 0)
(1.97663 -0.0127312 0)
(1.98578 -0.017679 0)
(1.99835 -0.024596 0)
(2.01566 -0.034331 0)
(2.03963 -0.0481461 0)
(2.07296 -0.0679487 0)
(2.11966 -0.0966686 0)
(2.18571 -0.138867 0)
(2.28053 -0.201725 0)
(2.41871 -0.296335 0)
(2.62865 -0.439975 0)
(2.94399 -0.652478 0)
(3.47342 -0.954098 0)
(4.21834 -1.36592 0)
(1.87335 0.000106998 0)
(1.87421 0.00029953 0)
(1.87495 0.000421593 0)
(1.8747 0.000484724 0)
(1.87428 0.000521637 0)
(1.87403 0.000541138 0)
(1.87386 0.000541222 0)
(1.87367 0.000525798 0)
(1.87347 0.000501953 0)
(1.8733 0.000474132 0)
(1.87315 0.000444125 0)
(1.87301 0.000412871 0)
(1.87289 0.000380927 0)
(1.87278 0.000348229 0)
(1.87269 0.000314041 0)
(1.87262 0.000277035 0)
(1.87256 0.000235274 0)
(1.87253 0.000186064 0)
(1.87251 0.000125726 0)
(1.87252 4.92717e-05 0)
(1.87256 -5.00579e-05 0)
(1.87263 -0.000181422 0)
(1.87276 -0.000357255 0)
(1.87295 -0.000594462 0)
(1.87323 -0.000916074 0)
(1.87363 -0.00135351 0)
(1.87418 -0.00194968 0)
(1.87493 -0.00276336 0)
(1.87597 -0.00387517 0)
(1.87739 -0.00539604 0)
(1.87931 -0.00747916 0)
(1.88194 -0.010337 0)
(1.8855 -0.0142659 0)
(1.89033 -0.019682 0)
(1.8969 -0.0271747 0)
(1.9058 -0.0375868 0)
(1.91788 -0.0521388 0)
(1.93426 -0.072623 0)
(1.95645 -0.101716 0)
(1.98654 -0.143495 0)
(2.02731 -0.204316 0)
(2.08295 -0.294363 0)
(2.159 -0.430621 0)
(2.27134 -0.642238 0)
(2.43363 -0.983687 0)
(2.82896 -1.54578 0)
(3.14169 -2.45373 0)
(1.75328 0.000166705 0)
(1.75416 0.000458119 0)
(1.75488 0.000628368 0)
(1.75458 0.00070534 0)
(1.75413 0.000745525 0)
(1.75389 0.000761536 0)
(1.75371 0.000749857 0)
(1.75353 0.000717364 0)
(1.75336 0.000674883 0)
(1.75321 0.000628459 0)
(1.75308 0.000580292 0)
(1.75298 0.000531579 0)
(1.75289 0.000483017 0)
(1.75282 0.000434439 0)
(1.75276 0.000384801 0)
(1.75272 0.000332336 0)
(1.75268 0.000274531 0)
(1.75267 0.000207945 0)
(1.75266 0.000127935 0)
(1.75267 2.82555e-05 0)
(1.7527 -9.94998e-05 0)
(1.75276 -0.000266669 0)
(1.75284 -0.000488588 0)
(1.75295 -0.000786046 0)
(1.75312 -0.00118729 0)
(1.75335 -0.00173073 0)
(1.75365 -0.00246873 0)
(1.75407 -0.0034727 0)
(1.75464 -0.00484027 0)
(1.7554 -0.00670514 0)
(1.75642 -0.00925084 0)
(1.75779 -0.0127301 0)
(1.75961 -0.0174922 0)
(1.76203 -0.0240222 0)
(1.76522 -0.0329975 0)
(1.76939 -0.0453706 0)
(1.77478 -0.0624924 0)
(1.78163 -0.0862976 0)
(1.79008 -0.119591 0)
(1.80005 -0.1665 0)
(1.81078 -0.233207 0)
(1.8202 -0.329182 0)
(1.82255 -0.46962 0)
(1.80693 -0.679524 0)
(1.73713 -1.00997 0)
(1.57866 -1.53826 0)
(0.667903 -1.97099 0)
(1.59316 0.000252114 0)
(1.59409 0.000670713 0)
(1.59476 0.000883676 0)
(1.59439 0.000957743 0)
(1.59392 0.000986087 0)
(1.59368 0.000983838 0)
(1.59353 0.000945985 0)
(1.59339 0.000884584 0)
(1.59327 0.00081489 0)
(1.59318 0.000744053 0)
(1.59312 0.000674242 0)
(1.59307 0.000606623 0)
(1.59304 0.000541732 0)
(1.59302 0.000479029 0)
(1.59301 0.000417015 0)
(1.59301 0.000353461 0)
(1.59302 0.00028539 0)
(1.59303 0.000208877 0)
(1.59304 0.000118754 0)
(1.59306 8.18732e-06 0)
(1.59308 -0.00013192 0)
(1.59311 -0.000313747 0)
(1.59314 -0.000553686 0)
(1.59317 -0.000873872 0)
(1.5932 -0.00130427 0)
(1.59323 -0.00188554 0)
(1.59327 -0.00267286 0)
(1.5933 -0.00374126 0)
(1.59333 -0.00519278 0)
(1.59335 -0.00716635 0)
(1.59335 -0.00985131 0)
(1.59331 -0.013506 0)
(1.59321 -0.0184832 0)
(1.59297 -0.0252658 0)
(1.5925 -0.0345155 0)
(1.59163 -0.0471413 0)
(1.59003 -0.0643943 0)
(1.58715 -0.0880004 0)
(1.58203 -0.120344 0)
(1.57294 -0.164722 0)
(1.55684 -0.225685 0)
(1.52839 -0.309456 0)
(1.47782 -0.424492 0)
(1.38865 -0.581278 0)
(1.22707 -0.791525 0)
(0.943619 -1.0285 0)
(0.295509 -1.04574 0)
(1.39299 0.000387011 0)
(1.39395 0.000971151 0)
(1.39455 0.00120261 0)
(1.39412 0.00123864 0)
(1.39368 0.00122562 0)
(1.39351 0.00117766 0)
(1.39344 0.00109068 0)
(1.3934 0.000985096 0)
(1.39338 0.00087993 0)
(1.39339 0.000781528 0)
(1.39342 0.000690656 0)
(1.39347 0.000607426 0)
(1.39352 0.000531351 0)
(1.39357 0.000460908 0)
(1.39363 0.000393829 0)
(1.39368 0.000327346 0)
(1.39372 0.000258141 0)
(1.39377 0.000182118 0)
(1.3938 9.41152e-05 0)
(1.39383 -1.25267e-05 0)
(1.39384 -0.000146521 0)
(1.39383 -0.00031943 0)
(1.3938 -0.000546707 0)
(1.39374 -0.000849137 0)
(1.39364 -0.00125475 0)
(1.39348 -0.00180146 0)
(1.39324 -0.00254051 0)
(1.39289 -0.00354128 0)
(1.39239 -0.00489765 0)
(1.39169 -0.00673654 0)
(1.3907 -0.00922949 0)
(1.38931 -0.0126079 0)
(1.38735 -0.0171836 0)
(1.38461 -0.0233756 0)
(1.38075 -0.031745 0)
(1.37527 -0.0430403 0)
(1.36746 -0.0582531 0)
(1.35622 -0.0786845 0)
(1.3399 -0.106019 0)
(1.31599 -0.142387 0)
(1.28059 -0.190396 0)
(1.2277 -0.253031 0)
(1.14806 -0.333338 0)
(1.02781 -0.433078 0)
(0.843996 -0.548531 0)
(0.575146 -0.641527 0)
(0.146913 -0.541147 0)
(1.15273 0.000630501 0)
(1.15374 0.0014057 0)
(1.15429 0.00157024 0)
(1.15388 0.00149441 0)
(1.15359 0.00138955 0)
(1.15361 0.00125876 0)
(1.15372 0.00110192 0)
(1.15385 0.00094729 0)
(1.15399 0.000811833 0)
(1.15414 0.000696216 0)
(1.15429 0.000597052 0)
(1.15443 0.000511725 0)
(1.15456 0.000437711 0)
(1.15468 0.00037209 0)
(1.15478 0.000311807 0)
(1.15488 0.000253781 0)
(1.15496 0.000194729 0)
(1.15502 0.000130911 0)
(1.15507 5.78288e-05 0)
(1.15509 -3.01434e-05 0)
(1.15509 -0.000140254 0)
(1.15505 -0.000282019 0)
(1.15497 -0.00046809 0)
(1.15483 -0.000715409 0)
(1.15461 -0.00104675 0)
(1.15428 -0.00149281 0)
(1.15381 -0.00209493 0)
(1.15314 -0.00290881 0)
(1.15221 -0.00400939 0)
(1.15091 -0.00549723 0)
(1.14911 -0.00750695 0)
(1.14663 -0.0102179 0)
(1.14322 -0.0138679 0)
(1.13853 -0.01877 0)
(1.13206 -0.025332 0)
(1.12316 -0.0340788 0)
(1.11088 -0.0456734 0)
(1.0939 -0.0609315 0)
(1.07036 -0.0808182 0)
(1.03768 -0.106406 0)
(0.992238 -0.138759 0)
(0.929084 -0.178687 0)
(0.841541 -0.22628 0)
(0.720988 -0.279662 0)
(0.556019 -0.331295 0)
(0.343992 -0.351268 0)
(0.0731863 -0.253739 0)
(0.872337 0.0011344 0)
(0.873516 0.00202003 0)
(0.874243 0.00187912 0)
(0.874134 0.00156009 0)
(0.874209 0.00131223 0)
(0.874533 0.00108942 0)
(0.874889 0.000882317 0)
(0.875205 0.000712152 0)
(0.875489 0.000581514 0)
(0.875746 0.000480187 0)
(0.875974 0.000399407 0)
(0.876172 0.000333881 0)
(0.876345 0.000279645 0)
(0.876494 0.000233249 0)
(0.876622 0.000191734 0)
(0.87673 0.000152498 0)
(0.876817 0.000113009 0)
(0.876882 7.05571e-05 0)
(0.876924 2.19993e-05 0)
(0.876938 -3.6509e-05 0)
(0.876917 -0.000109868 0)
(0.876853 -0.000204466 0)
(0.876733 -0.000328771 0)
(0.876539 -0.000494084 0)
(0.876245 -0.000715561 0)
(0.875819 -0.00101356 0)
(0.875212 -0.0014154 0)
(0.874363 -0.00195772 0)
(0.873185 -0.00268951 0)
(0.871562 -0.00367598 0)
(0.869334 -0.00500349 0)
(0.866288 -0.00678554 0)
(0.862134 -0.00916991 0)
(0.856481 -0.0123464 0)
(0.848803 -0.0165546 0)
(0.838394 -0.0220894 0)
(0.82431 -0.0293014 0)
(0.805303 -0.0385852 0)
(0.779735 -0.0503479 0)
(0.745492 -0.0649432 0)
(0.699915 -0.0825575 0)
(0.639789 -0.103029 0)
(0.56144 -0.125552 0)
(0.460997 -0.147939 0)
(0.335117 -0.164384 0)
(0.189934 -0.158117 0)
(0.0340271 -0.0980428 0)
(0.551923 0.00182032 0)
(0.553917 0.00243817 0)
(0.555348 0.00173341 0)
(0.55587 0.00116716 0)
(0.556388 0.000852074 0)
(0.556956 0.000629931 0)
(0.557439 0.000461268 0)
(0.55782 0.000345272 0)
(0.55813 0.000267932 0)
(0.558388 0.00021334 0)
(0.558602 0.000172521 0)
(0.558782 0.000141018 0)
(0.558932 0.0001159 0)
(0.559058 9.49177e-05 0)
(0.559163 7.63723e-05 0)
(0.559248 5.88946e-05 0)
(0.559315 4.12279e-05 0)
(0.559361 2.20579e-05 0)
(0.559386 -1.08036e-07 0)
(0.559386 -2.70878e-05 0)
(0.559354 -6.11831e-05 0)
(0.559282 -0.000105403 0)
(0.559158 -0.000163722 0)
(0.558966 -0.000241448 0)
(0.558682 -0.000345676 0)
(0.558275 -0.000485914 0)
(0.557703 -0.000674869 0)
(0.556908 -0.00092949 0)
(0.55581 -0.00127227 0)
(0.554306 -0.00173286 0)
(0.552254 -0.00235005 0)
(0.549464 -0.00317393 0)
(0.545685 -0.00426823 0)
(0.540583 -0.00571233 0)
(0.533723 -0.00760212 0)
(0.524536 -0.0100486 0)
(0.512297 -0.013172 0)
(0.496093 -0.0170882 0)
(0.47481 -0.0218846 0)
(0.447134 -0.0275812 0)
(0.411598 -0.0340782 0)
(0.366707 -0.0410899 0)
(0.311138 -0.0480493 0)
(0.244071 -0.0538127 0)
(0.166247 -0.0556621 0)
(0.0854169 -0.0469732 0)
(0.0122724 -0.0229303 0)
(0.19425 0.000884333 0)
(0.197758 0.000692413 0)
(0.199503 0.000345568 0)
(0.200262 0.000208516 0)
(0.200795 0.000140917 0)
(0.201212 8.82964e-05 0)
(0.20151 5.42182e-05 0)
(0.201721 3.63506e-05 0)
(0.201878 2.65894e-05 0)
(0.202002 2.01794e-05 0)
(0.202102 1.56151e-05 0)
(0.202182 1.23058e-05 0)
(0.202248 9.77726e-06 0)
(0.202302 7.68028e-06 0)
(0.202346 5.79154e-06 0)
(0.20238 3.94746e-06 0)
(0.202406 1.99454e-06 0)
(0.202422 -2.31183e-07 0)
(0.202428 -2.92089e-06 0)
(0.202421 -6.30796e-06 0)
(0.202399 -1.06929e-05 0)
(0.202357 -1.64714e-05 0)
(0.202289 -2.41707e-05 0)
(0.202186 -3.44925e-05 0)
(0.202038 -4.8375e-05 0)
(0.201827 -6.70675e-05 0)
(0.201532 -9.22308e-05 0)
(0.201126 -0.000126057 0)
(0.200568 -0.000171419 0)
(0.199806 -0.000232036 0)
(0.198771 -0.000312653 0)
(0.197373 -0.000419196 0)
(0.19549 -0.000558855 0)
(0.192966 -0.000739982 0)
(0.189605 -0.000971657 0)
(0.185155 -0.00126268 0)
(0.179314 -0.00161969 0)
(0.171722 -0.00204406 0)
(0.161977 -0.00252755 0)
(0.149657 -0.00304707 0)
(0.134376 -0.00356011 0)
(0.115849 -0.00400239 0)
(0.0939814 -0.00429174 0)
(0.0689884 -0.00432978 0)
(0.0420291 -0.00388204 0)
(0.0174284 -0.00190851 0)
(0.000484117 0.000486885 0)
(3.41263 1.54697 0)
(2.74367 0.6078 0)
(2.13349 0.160121 0)
(1.95783 0.00773468 0)
(1.9468 -0.0368751 0)
(1.8985 -0.103667 0)
(4.99428 1.06464 0)
(5.239 0.639524 0)
(5.16968 0.398951 0)
(5.05985 0.263566 0)
(4.96706 0.175472 0)
(4.85665 0.115009 0)
(5.09465 0.258361 0)
(5.6507 0.16569 0)
(5.92297 0.13586 0)
(6.03661 0.132312 0)
(6.08454 0.137585 0)
(6.07988 0.152483 0)
(5.10812 -0.20053 0)
(5.66912 -0.0752963 0)
(5.9508 -0.00517353 0)
(6.08127 0.0487573 0)
(6.15692 0.108358 0)
(6.19098 0.1793 0)
(5.04535 -1.02103 0)
(5.32045 -0.569362 0)
(5.29977 -0.302856 0)
(5.25825 -0.136478 0)
(5.25196 -0.00291052 0)
(5.25021 0.124897 0)
(3.48119 -1.55661 0)
(2.85264 -0.610556 0)
(2.29007 -0.149402 0)
(2.17762 0.0225921 0)
(2.26549 0.089482 0)
(2.34175 0.195368 0)
(-0.00274979 0.00251415 0)
(-0.0230401 0.00576881 0)
(-0.0512347 0.00667417 0)
(-0.080322 0.00620617 0)
(-0.106276 0.00546697 0)
(-0.128451 0.00469932 0)
(-0.147037 0.00396158 0)
(-0.162341 0.00327042 0)
(-0.174689 0.00263056 0)
(-0.1844 0.00204609 0)
(-0.191789 0.00152154 0)
(-0.197164 0.00106051 0)
(-0.200829 0.000664854 0)
(-0.203073 0.000334743 0)
(-0.204177 6.88119e-05 0)
(-0.204401 -0.000135429 0)
(-0.203992 -0.000281428 0)
(-0.203174 -0.000373336 0)
(-0.20215 -0.000416243 0)
(-0.201098 -0.000415932 0)
(-0.20017 -0.000378605 0)
(-0.199489 -0.000310743 0)
(-0.199152 -0.000218738 0)
(-0.19923 -0.000108747 0)
(-0.199767 1.36429e-05 0)
(-0.20079 0.000143385 0)
(-0.202302 0.000276324 0)
(-0.204297 0.000409116 0)
(-0.206756 0.000539432 0)
(-0.209652 0.000665678 0)
(-0.212955 0.000787104 0)
(-0.21663 0.000903567 0)
(-0.220641 0.00101556 0)
(-0.224951 0.00112391 0)
(-0.229516 0.00122927 0)
(-0.234283 0.00133149 0)
(-0.239175 0.00142812 0)
(-0.244082 0.00151309 0)
(-0.248833 0.00157383 0)
(-0.253171 0.00158617 0)
(-0.25669 0.00150068 0)
(-0.258797 0.0012498 0)
(-0.258888 0.000814047 0)
(-0.256416 0.00020685 0)
(-0.249483 -0.00112352 0)
(-0.233697 -0.00456938 0)
(-0.213108 -0.00920287 0)
(-0.00986707 0.025989 0)
(-0.0658345 0.0516141 0)
(-0.133028 0.0577433 0)
(-0.198638 0.0539741 0)
(-0.255949 0.0471118 0)
(-0.304247 0.039842 0)
(-0.344211 0.033012 0)
(-0.376774 0.0268358 0)
(-0.402882 0.0213401 0)
(-0.423416 0.0165085 0)
(-0.439177 0.0123171 0)
(-0.450893 0.00873972 0)
(-0.459234 0.00574797 0)
(-0.46481 0.00331065 0)
(-0.468184 0.00139422 0)
(-0.469872 -3.72561e-05 0)
(-0.470348 -0.00102248 0)
(-0.47004 -0.0016035 0)
(-0.469331 -0.00182547 0)
(-0.468554 -0.00173697 0)
(-0.467993 -0.00138885 0)
(-0.467877 -0.000833 0)
(-0.468382 -0.000120261 0)
(-0.46963 0.00070136 0)
(-0.471696 0.00158841 0)
(-0.474609 0.00250311 0)
(-0.478361 0.0034145 0)
(-0.482912 0.00429837 0)
(-0.4882 0.005137 0)
(-0.494143 0.00591781 0)
(-0.500644 0.00663222 0)
(-0.507594 0.00727389 0)
(-0.514873 0.00783681 0)
(-0.522346 0.00831141 0)
(-0.529858 0.0086799 0)
(-0.537222 0.00890849 0)
(-0.544195 0.00893918 0)
(-0.550463 0.00867872 0)
(-0.555605 0.00798819 0)
(-0.559063 0.00666925 0)
(-0.560075 0.00446108 0)
(-0.557693 0.001085 0)
(-0.551105 -0.00365935 0)
(-0.539686 -0.0100291 0)
(-0.521167 -0.0186921 0)
(-0.492595 -0.0292873 0)
(-0.465893 -0.0368387 0)
(-0.016303 0.0725592 0)
(-0.0993743 0.12898 0)
(-0.188053 0.136999 0)
(-0.26927 0.125042 0)
(-0.337811 0.107596 0)
(-0.394516 0.0900257 0)
(-0.440982 0.0739986 0)
(-0.478805 0.05987 0)
(-0.509395 0.0475847 0)
(-0.53394 0.036995 0)
(-0.553428 0.0279537 0)
(-0.568692 0.0203309 0)
(-0.580445 0.0140126 0)
(-0.589316 0.00889658 0)
(-0.59586 0.00488924 0)
(-0.600583 0.00190162 0)
(-0.603945 -0.000154895 0)
(-0.606367 -0.00137211 0)
(-0.608228 -0.00184716 0)
(-0.60986 -0.00168302 0)
(-0.611547 -0.000987934 0)
(-0.613519 0.000127207 0)
(-0.61595 0.00155225 0)
(-0.618953 0.00318195 0)
(-0.622589 0.00491993 0)
(-0.626863 0.00668195 0)
(-0.631739 0.0083975 0)
(-0.63714 0.0100104 0)
(-0.642958 0.0114772 0)
(-0.64906 0.0127651 0)
(-0.655291 0.013848 0)
(-0.661478 0.0147034 0)
(-0.667426 0.0153075 0)
(-0.672923 0.0156281 0)
(-0.677728 0.0156141 0)
(-0.681567 0.0151833 0)
(-0.684114 0.0142081 0)
(-0.684984 0.0125012 0)
(-0.683722 0.00980541 0)
(-0.679792 0.00579586 0)
(-0.67254 0.000105792 0)
(-0.661254 -0.00762128 0)
(-0.64552 -0.017584 0)
(-0.625435 -0.0296179 0)
(-0.599659 -0.04313 0)
(-0.565358 -0.0567041 0)
(-0.535217 -0.0655448 0)
(-0.0211809 0.138216 0)
(-0.117322 0.22374 0)
(-0.203624 0.224955 0)
(-0.274986 0.199501 0)
(-0.332388 0.169034 0)
(-0.379219 0.140266 0)
(-0.417903 0.115 0)
(-0.450316 0.0933552 0)
(-0.477869 0.0749386 0)
(-0.501558 0.0593058 0)
(-0.522084 0.0460854 0)
(-0.539949 0.0349855 0)
(-0.555529 0.0257768 0)
(-0.569117 0.0182764 0)
(-0.58096 0.0123346 0)
(-0.591285 0.00782192 0)
(-0.60031 0.00461731 0)
(-0.608254 0.00259855 0)
(-0.615329 0.00163541 0)
(-0.621742 0.00158628 0)
(-0.627678 0.00229789 0)
(-0.633298 0.00360872 0)
(-0.638721 0.00535416 0)
(-0.644025 0.00737362 0)
(-0.64924 0.00951698 0)
(-0.65435 0.0116507 0)
(-0.659292 0.0136611 0)
(-0.663968 0.0154556 0)
(-0.668245 0.0169611 0)
(-0.671965 0.0181191 0)
(-0.674944 0.0188806 0)
(-0.676974 0.0192019 0)
(-0.677829 0.0190381 0)
(-0.677264 0.0183338 0)
(-0.675018 0.0170101 0)
(-0.67081 0.0149514 0)
(-0.664348 0.0119897 0)
(-0.655324 0.0078952 0)
(-0.643432 0.00237563 0)
(-0.628395 -0.00491132 0)
(-0.609955 -0.0143168 0)
(-0.587883 -0.0261468 0)
(-0.56227 -0.0405125 0)
(-0.533775 -0.0568504 0)
(-0.501714 -0.0734243 0)
(-0.462332 -0.0882056 0)
(-0.4266 -0.098212 0)
(-0.0244101 0.217947 0)
(-0.108013 0.31144 0)
(-0.154563 0.290964 0)
(-0.18229 0.249919 0)
(-0.203469 0.209464 0)
(-0.22259 0.173755 0)
(-0.241142 0.143691 0)
(-0.260082 0.118761 0)
(-0.279905 0.0979918 0)
(-0.300681 0.0805403 0)
(-0.32223 0.0657932 0)
(-0.344245 0.0533113 0)
(-0.366359 0.0427822 0)
(-0.388189 0.0339881 0)
(-0.409372 0.0267713 0)
(-0.429603 0.0210126 0)
(-0.44864 0.0166154 0)
(-0.466315 0.0134842 0)
(-0.48253 0.0115104 0)
(-0.497248 0.0105635 0)
(-0.510476 0.0104884 0)
(-0.522249 0.0111079 0)
(-0.53261 0.0122306 0)
(-0.541592 0.0136599 0)
(-0.549209 0.0152056 0)
(-0.555443 0.0166928 0)
(-0.560245 0.0179694 0)
(-0.563535 0.0189092 0)
(-0.565203 0.0194101 0)
(-0.565119 0.0193886 0)
(-0.563124 0.0187719 0)
(-0.559041 0.0174957 0)
(-0.552674 0.0154989 0)
(-0.543819 0.0127137 0)
(-0.532269 0.00905466 0)
(-0.517822 0.00440738 0)
(-0.500306 -0.00138301 0)
(-0.479582 -0.0085187 0)
(-0.455583 -0.0172411 0)
(-0.428308 -0.02781 0)
(-0.397867 -0.0404645 0)
(-0.364485 -0.0553735 0)
(-0.328651 -0.0725292 0)
(-0.291283 -0.091292 0)
(-0.252517 -0.109558 0)
(-0.208244 -0.12493 0)
(-0.163194 -0.137752 0)
(-0.00469405 0.2723 0)
(-0.0190004 0.342576 0)
(0.0329137 0.29353 0)
(0.0878169 0.247724 0)
(0.124104 0.210362 0)
(0.143578 0.178858 0)
(0.150145 0.15327 0)
(0.14584 0.132872 0)
(0.132247 0.116251 0)