/*--------------------------------*- C++ -*----------------------------------*\
| =========                 |                                                 |
| \\      /  F ield         | OpenFOAM: The Open Source CFD Toolbox           |
|  \\    /   O peration     | Version:  2406                                  |
|   \\  /    A nd           | Website:  www.openfoam.com                      |
|    \\/     M anipulation  |                                                 |
\*---------------------------------------------------------------------------*/
FoamFile
{
    version     2.0;
    format      ascii;
    arch        "LSB;label=32;scalar=64";
    class       volScalarField;
    location    "77";
    object      p;
}
// * * * * * * * * * * * * * * * * * * * * * * * * * * * * * * * * * * * * * //

dimensions      [0 2 -2 0 0 0 0];

internalField   nonuniform List<scalar> 
2000
(
1.60371
1.59048
1.57569
1.56084
1.54559
1.52997
1.51416
1.49826
1.4823
1.4663
1.60868
1.59205
1.57571
1.56073
1.54552
1.52988
1.51406
1.49818
1.48223
1.46624
1.61134
1.59286
1.5755
1.56056
1.54546
1.52979
1.51395
1.49808
1.48216
1.46618
1.61281
1.59358
1.57548
1.56044
1.54542
1.52973
1.51385
1.49799
1.48208
1.46611
1.6139
1.59433
1.57564
1.56041
1.5454
1.52968
1.51376
1.49789
1.48199
1.46603
1.61474
1.59498
1.57586
1.56044
1.54541
1.52966
1.5137
1.4978
1.4819
1.46595
1.61537
1.5955
1.5761
1.56051
1.54545
1.52967
1.51365
1.49773
1.48183
1.46587
1.61582
1.59589
1.5763
1.56059
1.5455
1.52969
1.51363
1.49768
1.48177
1.46581
1.61611
1.59615
1.57645
1.56066
1.54554
1.52971
1.51363
1.49765
1.48174
1.46578
1.61625
1.59628
1.57652
1.5607
1.54556
1.52972
1.51362
1.49764
1.48172
1.46576
1.61625
1.59627
1.57652
1.5607
1.54556
1.52972
1.51362
1.49764
1.48172
1.46576
1.61611
1.59615
1.57645
1.56066
1.54554
1.52971
1.51363
1.49765
1.48174
1.46578
1.61582
1.59589
1.5763
1.56059
1.5455
1.52969
1.51363
1.49768
1.48177
1.46582
1.61537
1.5955
1.5761
1.56051
1.54545
1.52967
1.51365
1.49773
1.48183
1.46587
1.61474
1.59498
1.57586
1.56044
1.54541
1.52966
1.5137
1.4978
1.4819
1.46595
1.6139
1.59433
1.57564
1.5604
1.5454
1.52968
1.51376
1.49789
1.48199
1.46603
1.61281
1.59358
1.57548
1.56044
1.54542
1.52973
1.51386
1.49799
1.48208
1.46611
1.61134
1.59286
1.5755
1.56056
1.54546
1.52979
1.51395
1.49808
1.48216
1.46618
1.60868
1.59205
1.57571
1.56073
1.54552
1.52988
1.51406
1.49818
1.48223
1.46624
1.60371
1.59048
1.57569
1.56084
1.54559
1.52997
1.51416
1.49826
1.4823
1.4663
1.45026
1.43419
1.41811
1.40201
1.38589
1.36977
1.35364
1.3375
1.32135
1.3052
1.28904
1.27287
1.25671
1.24054
1.22436
1.20818
1.192
1.17582
1.15963
1.14344
1.12725
1.11105
1.09486
1.07866
1.06246
1.04626
1.03006
1.01385
0.997648
0.981441
0.965233
0.949025
0.932815
0.916604
0.900392
1.45021
1.43415
1.41807
1.40198
1.38587
1.36975
1.35362
1.33748
1.32133
1.30518
1.28902
1.27286
1.2567
1.24053
1.22435
1.20817
1.19199
1.17581
1.15962
1.14343
1.12724
1.11105
1.09485
1.07866
1.06246
1.04626
1.03005
1.01385
0.997645
0.981438
0.965231
0.949022
0.932812
0.916601
0.900389
1.45015
1.4341
1.41803
1.40194
1.38584
1.36972
1.3536
1.33746
1.32132
1.30517
1.28901
1.27285
1.25669
1.24052
1.22434
1.20817
1.19199
1.1758
1.15962
1.14343
1.12724
1.11104
1.09485
1.07865
1.06245
1.04625
1.03005
1.01385
0.997642
0.981435
0.965228
0.949019
0.93281
0.916599
0.900387
1.4501
1.43405
1.41799
1.40191
1.38581
1.3697
1.35357
1.33744
1.3213
1.30515
1.289
1.27284
1.25668
1.24051
1.22433
1.20816
1.19198
1.1758
1.15961
1.14342
1.12723
1.11104
1.09484
1.07865
1.06245
1.04625
1.03005
1.01384
0.997639
0.981433
0.965226
0.949017
0.932808
0.916597
0.900386
1.45002
1.43399
1.41794
1.40186
1.38577
1.36966
1.35354
1.33741
1.32128
1.30513
1.28898
1.27283
1.25666
1.2405
1.22432
1.20815
1.19197
1.17579
1.1596
1.14342
1.12723
1.11104
1.09484
1.07864
1.06245
1.04625
1.03004
1.01384
0.997636
0.98143
0.965223
0.949015
0.932806
0.916595
0.900384
1.44995
1.43392
1.41788
1.40181
1.38572
1.36962
1.35351
1.33738
1.32125
1.30511
1.28896
1.27281
1.25665
1.24048
1.22431
1.20814
1.19196
1.17578
1.1596
1.14341
1.12722
1.11103
1.09484
1.07864
1.06244
1.04624
1.03004
1.01384
0.997633
0.981427
0.965221
0.949012
0.932803
0.916593
0.900382
1.44987
1.43385
1.41782
1.40176
1.38568
1.36958
1.35347
1.33735
1.32123
1.30509
1.28894
1.27279
1.25663
1.24047
1.2243
1.20813
1.19195
1.17577
1.15959
1.1434
1.12722
1.11102
1.09483
1.07863
1.06244
1.04624
1.03004
1.01383
0.99763
0.981424
0.965218
0.94901
0.932801
0.91659
0.900379
1.44982
1.4338
1.41777
1.40171
1.38564
1.36955
1.35344
1.33732
1.3212
1.30507
1.28893
1.27278
1.25662
1.24046
1.22429
1.20812
1.19194
1.17576
1.15958
1.1434
1.12721
1.11102
1.09483
1.07863
1.06243
1.04623
1.03003
1.01383
0.997626
0.981421
0.965215
0.949007
0.932798
0.916588
0.900377
1.44978
1.43376
1.41773
1.40168
1.38561
1.36952
1.35342
1.3373
1.32118
1.30505
1.28891
1.27276
1.25661
1.24045
1.22428
1.20811
1.19194
1.17576
1.15958
1.14339
1.1272
1.11101
1.09482
1.07863
1.06243
1.04623
1.03003
1.01383
0.997624
0.981419
0.965212
0.949005
0.932796
0.916586
0.900375
1.44975
1.43374
1.41771
1.40167
1.3856
1.36951
1.3534
1.33729
1.32117
1.30504
1.28891
1.27276
1.2566
1.24044
1.22428
1.2081
1.19193
1.17575
1.15957
1.14339
1.1272
1.11101
1.09482
1.07862
1.06243
1.04623
1.03003
1.01383
0.997622
0.981417
0.965211
0.949003
0.932795
0.916585
0.900374
1.44975
1.43374
1.41771
1.40167
1.3856
1.36951
1.3534
1.33729
1.32117
1.30504
1.28891
1.27276
1.2566
1.24044
1.22428
1.2081
1.19193
1.17575
1.15957
1.14339
1.1272
1.11101
1.09482
1.07862
1.06243
1.04623
1.03003
1.01383
0.997622
0.981417
0.965211
0.949003
0.932794
0.916584
0.900373
1.44978
1.43376
1.41773
1.40168
1.38561
1.36952
1.35342
1.3373
1.32118
1.30505
1.28891
1.27276
1.25661
1.24045
1.22428
1.20811
1.19193
1.17576
1.15958
1.14339
1.1272
1.11101
1.09482
1.07863
1.06243
1.04623
1.03003
1.01383
0.997623
0.981418
0.965212
0.949004
0.932795
0.916585
0.900374
1.44982
1.4338
1.41777
1.40171
1.38564
1.36955
1.35344
1.33732
1.3212
1.30507
1.28893
1.27278
1.25662
1.24046
1.22429
1.20812
1.19194
1.17576
1.15958
1.1434
1.12721
1.11102
1.09482
1.07863
1.06243
1.04623
1.03003
1.01383
0.997626
0.98142
0.965214
0.949006
0.932797
0.916587
0.900376
1.44987
1.43385
1.41782
1.40176
1.38568
1.36958
1.35347
1.33735
1.32123
1.30509
1.28894
1.27279
1.25663
1.24047
1.2243
1.20813
1.19195
1.17577
1.15959
1.1434
1.12721
1.11102
1.09483
1.07863
1.06244
1.04624
1.03004
1.01383
0.997629
0.981423
0.965216
0.949008
0.932799
0.916589
0.900378
1.44995
1.43392
1.41788
1.40181
1.38572
1.36962
1.35351
1.33738
1.32125
1.30511
1.28896
1.27281
1.25665
1.24048
1.22431
1.20814
1.19196
1.17578
1.1596
1.14341
1.12722
1.11103
1.09483
1.07864
1.06244
1.04624
1.03004
1.01384
0.997632
0.981426
0.965219
0.949011
0.932802
0.916591
0.90038
1.45002
1.43399
1.41794
1.40186
1.38577
1.36966
1.35354
1.33741
1.32128
1.30513
1.28898
1.27283
1.25666
1.2405
1.22432
1.20815
1.19197
1.17579
1.1596
1.14342
1.12723
1.11103
1.09484
1.07864
1.06244
1.04624
1.03004
1.01384
0.997635
0.981429
0.965222
0.949014
0.932804
0.916593
0.900382
1.4501
1.43405
1.41799
1.40191
1.38581
1.3697
1.35357
1.33744
1.3213
1.30515
1.289
1.27284
1.25668
1.24051
1.22433
1.20816
1.19198
1.1758
1.15961
1.14342
1.12723
1.11104
1.09484
1.07865
1.06245
1.04625
1.03005
1.01384
0.997638
0.981432
0.965224
0.949016
0.932806
0.916595
0.900384
1.45015
1.4341
1.41803
1.40194
1.38584
1.36972
1.3536
1.33746
1.32132
1.30517
1.28901
1.27285
1.25669
1.24052
1.22434
1.20816
1.19198
1.1758
1.15962
1.14343
1.12724
1.11104
1.09485
1.07865
1.06245
1.04625
1.03005
1.01385
0.99764
0.981434
0.965226
0.949018
0.932808
0.916597
0.900385
1.45021
1.43415
1.41807
1.40198
1.38587
1.36975
1.35362
1.33748
1.32133
1.30518
1.28902
1.27286
1.2567
1.24053
1.22435
1.20817
1.19199
1.17581
1.15962
1.14343
1.12724
1.11105
1.09485
1.07865
1.06246
1.04625
1.03005
1.01385
0.997643
0.981437
0.965229
0.94902
0.93281
0.916599
0.900387
1.45026
1.43419
1.41811
1.40201
1.38589
1.36977
1.35364
1.3375
1.32135
1.3052
1.28904
1.27287
1.25671
1.24053
1.22436
1.20818
1.192
1.17581
1.15963
1.14344
1.12725
1.11105
1.09486
1.07866
1.06246
1.04626
1.03006
1.01385
0.997647
0.98144
0.965232
0.949023
0.932813
0.916602
0.90039
0.884179
0.867965
0.851751
0.835535
0.81932
0.803103
0.786886
0.770668
0.75445
0.738231
0.884177
0.867963
0.851749
0.835534
0.819318
0.803101
0.786884
0.770667
0.754448
0.73823
0.884175
0.867961
0.851747
0.835532
0.819316
0.8031
0.786883
0.770665
0.754447
0.738228
0.884173
0.86796
0.851746
0.835531
0.819315
0.803099
0.786882
0.770664
0.754446
0.738227
0.884171
0.867958
0.851744
0.835529
0.819314
0.803097
0.786881
0.770663
0.754445
0.738226
0.884169
0.867956
0.851742
0.835527
0.819312
0.803096
0.786879
0.770662
0.754444
0.738225
0.884167
0.867954
0.85174
0.835526
0.81931
0.803094
0.786877
0.77066
0.754442
0.738224
0.884165
0.867952
0.851738
0.835524
0.819308
0.803092
0.786876
0.770658
0.754441
0.738222
0.884163
0.86795
0.851736
0.835522
0.819307
0.803091
0.786874
0.770657
0.754439
0.738221
0.884162
0.867949
0.851735
0.835521
0.819306
0.80309
0.786873
0.770656
0.754438
0.73822
0.884162
0.867949
0.851735
0.835521
0.819305
0.80309
0.786873
0.770656
0.754438
0.73822
0.884162
0.867949
0.851736
0.835521
0.819306
0.80309
0.786873
0.770656
0.754438
0.73822
0.884164
0.867951
0.851737
0.835522
0.819307
0.803091
0.786874
0.770657
0.754439
0.73822
0.884166
0.867952
0.851738
0.835524
0.819308
0.803092
0.786875
0.770658
0.75444
0.738221
0.884168
0.867954
0.85174
0.835525
0.81931
0.803093
0.786877
0.770659
0.754441
0.738222
0.884169
0.867956
0.851742
0.835527
0.819311
0.803095
0.786878
0.77066
0.754442
0.738223
0.884171
0.867958
0.851743
0.835528
0.819312
0.803096
0.786879
0.770661
0.754443
0.738224
0.884173
0.867959
0.851745
0.83553
0.819314
0.803097
0.78688
0.770662
0.754444
0.738225
0.884175
0.867961
0.851747
0.835531
0.819315
0.803099
0.786882
0.770664
0.754445
0.738226
0.884177
0.867963
0.851748
0.835533
0.819317
0.8031
0.786883
0.770665
0.754447
0.738228
0.722011
0.705792
0.689571
0.673351
0.65713
0.640908
0.624686
0.608464
0.592242
0.576019
0.559796
0.543573
0.527349
0.511125
0.494901
0.478677
0.462453
0.446228
0.430003
0.413778
0.397553
0.381328
0.365103
0.348877
0.332651
0.316426
0.3002
0.283973
0.267747
0.251521
0.235295
0.219068
0.202841
0.186615
0.170388
0.72201
0.70579
0.68957
0.67335
0.657129
0.640907
0.624686
0.608463
0.592241
0.576018
0.559795
0.543572
0.527349
0.511125
0.494901
0.478677
0.462452
0.446228
0.430003
0.413778
0.397553
0.381328
0.365102
0.348877
0.332651
0.316425
0.3002
0.283974
0.267747
0.251521
0.235295
0.219068
0.202841
0.186615
0.170388
0.722009
0.70579
0.689569
0.673349
0.657128
0.640907
0.624685
0.608463
0.59224
0.576018
0.559795
0.543572
0.527348
0.511125
0.494901
0.478676
0.462452
0.446228
0.430003
0.413778
0.397553
0.381328
0.365102
0.348877
0.332651
0.316425
0.3002
0.283974
0.267747
0.251521
0.235295
0.219068
0.202842
0.186615
0.170388
0.722008
0.705789
0.689569
0.673348
0.657127
0.640906
0.624684
0.608462
0.59224
0.576017
0.559794
0.543571
0.527348
0.511124
0.4949
0.478676
0.462452
0.446227
0.430003
0.413778
0.397553
0.381328
0.365102
0.348877
0.332651
0.316425
0.300199
0.283973
0.267747
0.251521
0.235295
0.219068
0.202842
0.186615
0.170388
0.722007
0.705788
0.689568
0.673347
0.657126
0.640905
0.624683
0.608461
0.592239
0.576017
0.559794
0.543571
0.527347
0.511124
0.4949
0.478676
0.462451
0.446227
0.430002
0.413777
0.397552
0.381327
0.365102
0.348876
0.332651
0.316425
0.300199
0.283973
0.267747
0.251521
0.235294
0.219068
0.202841
0.186615
0.170388
0.722006
0.705787
0.689567
0.673346
0.657125
0.640904
0.624682
0.608461
0.592238
0.576016
0.559793
0.54357
0.527346
0.511123
0.494899
0.478675
0.462451
0.446226
0.430001
0.413777
0.397552
0.381326
0.365101
0.348876
0.33265
0.316424
0.300199
0.283973
0.267746
0.25152
0.235294
0.219067
0.202841
0.186614
0.170387
0.722005
0.705785
0.689565
0.673345
0.657124
0.640903
0.624681
0.608459
0.592237
0.576015
0.559792
0.543569
0.527345
0.511122
0.494898
0.478674
0.46245
0.446225
0.430001
0.413776
0.397551
0.381326
0.3651
0.348875
0.332649
0.316424
0.300198
0.283972
0.267746
0.251519
0.235293
0.219067
0.20284
0.186613
0.170387
0.722003
0.705784
0.689564
0.673344
0.657123
0.640902
0.62468
0.608458
0.592236
0.576014
0.559791
0.543568
0.527344
0.511121
0.494897
0.478673
0.462449
0.446224
0.429999
0.413775
0.39755
0.381324
0.365099
0.348874
0.332648
0.316422
0.300197
0.283971
0.267745
0.251518
0.235292
0.219066
0.202839
0.186612
0.170386
0.722002
0.705783
0.689563
0.673342
0.657122
0.640901
0.624679
0.608457
0.592235
0.576012
0.55979
0.543567
0.527343
0.51112
0.494896
0.478672
0.462447
0.446223
0.429998
0.413773
0.397548
0.381323
0.365098
0.348872
0.332647
0.316421
0.300195
0.283969
0.267743
0.251517
0.235291
0.219064
0.202838
0.186611
0.170385
0.722001
0.705782
0.689562
0.673341
0.657121
0.6409
0.624678
0.608456
0.592234
0.576011
0.559789
0.543566
0.527342
0.511119
0.494895
0.478671
0.462446
0.446222
0.429997
0.413772
0.397547
0.381322
0.365097
0.348871
0.332646
0.31642
0.300194
0.283968
0.267742
0.251516
0.235289
0.219063
0.202837
0.18661
0.170383
0.722001
0.705781
0.689561
0.673341
0.65712
0.640899
0.624677
0.608456
0.592233
0.576011
0.559788
0.543565
0.527341
0.511118
0.494894
0.47867
0.462445
0.446221
0.429996
0.413771
0.397546
0.381321
0.365096
0.34887
0.332644
0.316419
0.300193
0.283967
0.267741
0.251514
0.235288
0.219062
0.202835
0.186609
0.170382
0.722001
0.705781
0.689561
0.673341
0.65712
0.640899
0.624677
0.608455
0.592233
0.57601
0.559788
0.543564
0.527341
0.511117
0.494893
0.478669
0.462445
0.44622
0.429995
0.413771
0.397545
0.38132
0.365095
0.348869
0.332644
0.316418
0.300192
0.283966
0.26774
0.251513
0.235287
0.219061
0.202834
0.186608
0.170381
0.722001
0.705782
0.689562
0.673341
0.65712
0.640899
0.624677
0.608455
0.592233
0.57601
0.559788
0.543564
0.527341
0.511117
0.494893
0.478669
0.462444
0.44622
0.429995
0.41377
0.397545
0.38132
0.365094
0.348869
0.332643
0.316417
0.300191
0.283965
0.267739
0.251513
0.235286
0.21906
0.202833
0.186607
0.17038
0.722002
0.705782
0.689562
0.673342
0.657121
0.6409
0.624678
0.608456
0.592233
0.576011
0.559788
0.543564
0.527341
0.511117
0.494893
0.478669
0.462444
0.44622
0.429995
0.41377
0.397545
0.381319
0.365094
0.348868
0.332642
0.316416
0.30019
0.283964
0.267738
0.251512
0.235286
0.219059
0.202833
0.186606
0.170379
0.722003
0.705783
0.689563
0.673343
0.657122
0.6409
0.624678
0.608456
0.592234
0.576011
0.559788
0.543565
0.527341
0.511117
0.494893
0.478669
0.462444
0.44622
0.429995
0.41377
0.397544
0.381319
0.365094
0.348868
0.332642
0.316416
0.30019
0.283964
0.267738
0.251512
0.235285
0.219059
0.202832
0.186606
0.170379
0.722004
0.705784
0.689564
0.673343
0.657122
0.640901
0.624679
0.608457
0.592234
0.576011
0.559788
0.543565
0.527341
0.511117
0.494893
0.478669
0.462444
0.44622
0.429995
0.41377
0.397544
0.381319
0.365094
0.348868
0.332642
0.316416
0.30019
0.283964
0.267738
0.251511
0.235285
0.219059
0.202832
0.186606
0.170379
0.722005
0.705785
0.689565
0.673344
0.657123
0.640901
0.62468
0.608457
0.592235
0.576012
0.559789
0.543565
0.527342
0.511118
0.494894
0.478669
0.462445
0.44622
0.429995
0.41377
0.397545
0.381319
0.365094
0.348868
0.332642
0.316416
0.30019
0.283964
0.267738
0.251512
0.235285
0.219059
0.202832
0.186606
0.170379
0.722006
0.705786
0.689566
0.673345
0.657124
0.640902
0.62468
0.608458
0.592235
0.576012
0.559789
0.543566
0.527342
0.511118
0.494894
0.47867
0.462445
0.44622
0.429995
0.41377
0.397545
0.38132
0.365094
0.348868
0.332643
0.316417
0.300191
0.283964
0.267738
0.251512
0.235286
0.219059
0.202833
0.186606
0.17038
0.722007
0.705787
0.689567
0.673346
0.657125
0.640903
0.624681
0.608459
0.592236
0.576013
0.55979
0.543567
0.527343
0.511119
0.494895
0.47867
0.462446
0.446221
0.429996
0.413771
0.397546
0.38132
0.365095
0.348869
0.332643
0.316417
0.300191
0.283965
0.267739
0.251512
0.235286
0.21906
0.202833
0.186607
0.17038
0.722008
0.705788
0.689568
0.673347
0.657126
0.640904
0.624682
0.60846
0.592237
0.576014
0.559791
0.543567
0.527344
0.51112
0.494895
0.478671
0.462446
0.446222
0.429997
0.413771
0.397546
0.381321
0.365095
0.348869
0.332644
0.316418
0.300192
0.283965
0.267739
0.251513
0.235287
0.21906
0.202834
0.186607
0.170381
0.154161
0.137934
0.121706
0.105479
0.0892517
0.0730242
0.0567966
0.0405689
0.0243407
0.00811291
0.154161
0.137934
0.121707
0.105479
0.089252
0.0730245
0.0567968
0.0405695
0.0243407
0.00811218
0.154161
0.137934
0.121707
0.10548
0.0892523
0.0730248
0.0567969
0.0405699
0.0243406
0.00811199
0.154161
0.137934
0.121707
0.10548
0.0892524
0.0730249
0.0567971
0.0405699
0.0243404
0.00811169
0.154161
0.137934
0.121707
0.10548
0.0892524
0.0730249
0.0567971
0.0405698
0.0243402
0.0081114
0.154161
0.137934
0.121707
0.105479
0.0892521
0.0730246
0.056797
0.0405696
0.02434
0.00811122
0.15416
0.137933
0.121706
0.105479
0.0892516
0.0730242
0.0567966
0.0405694
0.0243397
0.00811114
0.154159
0.137932
0.121705
0.105478
0.0892508
0.0730235
0.0567961
0.040569
0.0243394
0.00811122
0.154158
0.137931
0.121704
0.105477
0.0892499
0.0730227
0.0567954
0.0405685
0.0243392
0.00811148
0.154157
0.13793
0.121703
0.105476
0.0892489
0.0730219
0.0567948
0.0405681
0.024339
0.0081119
0.154155
0.137929
0.121702
0.105475
0.089248
0.0730211
0.0567942
0.0405677
0.0243388
0.00811246
0.154154
0.137928
0.121701
0.105474
0.0892472
0.0730205
0.0567937
0.0405675
0.0243388
0.00811308
0.154153
0.137927
0.1217
0.105473
0.0892466
0.07302
0.0567933
0.0405673
0.0243389
0.00811367
0.154153
0.137926
0.121699
0.105473
0.0892462
0.0730197
0.0567931
0.0405672
0.0243391
0.00811413
0.154153
0.137926
0.121699
0.105473
0.0892461
0.0730196
0.056793
0.0405672
0.0243394
0.0081144
0.154152
0.137926
0.121699
0.105473
0.0892461
0.0730196
0.0567931
0.0405674
0.0243397
0.00811442
0.154153
0.137926
0.121699
0.105473
0.0892463
0.0730198
0.0567933
0.0405675
0.0243401
0.00811431
0.154153
0.137926
0.1217
0.105473
0.0892467
0.0730202
0.0567934
0.0405678
0.0243405
0.00811405
0.154153
0.137927
0.1217
0.105474
0.0892472
0.0730206
0.056794
0.0405681
0.0243409
0.00811379
0.154154
0.137927
0.121701
0.105474
0.0892476
0.073021
0.0567945
0.040568
0.0243413
0.00811426
)
;

boundaryField
{
    inlet
    {
        type            zeroGradient;
    }
    outlet
    {
        type            fixedValue;
        value           uniform 0;
    }
    upperWall
    {
        type            zeroGradient;
    }
    lowerWall
    {
        type            zeroGradient;
    }
    frontAndBack
    {
        type            empty;
    }
}


// ************************************************************************* //
