/*--------------------------------*- C++ -*----------------------------------*\
| =========                 |                                                 |
| \\      /  F ield         | OpenFOAM: The Open Source CFD Toolbox           |
|  \\    /   O peration     | Version:  2406                                  |
|   \\  /    A nd           | Website:  www.openfoam.com                      |
|    \\/     M anipulation  |                                                 |
\*---------------------------------------------------------------------------*/
FoamFile
{
    version     2.0;
    format      ascii;
    arch        "LSB;label=32;scalar=64";
    class       surfaceScalarField;
    location    "77";
    object      phi;
}
// * * * * * * * * * * * * * * * * * * * * * * * * * * * * * * * * * * * * * //

dimensions      [0 3 -1 0 0 0 0];

oriented        oriented;

internalField   nonuniform List<scalar> 
3880
(
0.0196978
-0.000197818
0.0198782
-0.000180339
0.0199847
-0.000106514
0.0200531
-6.84273e-05
0.020102
-4.89145e-05
0.0201369
-3.48484e-05
0.0201616
-2.47261e-05
0.0201798
-1.82092e-05
0.0201938
-1.40324e-05
-1.11409e-05
0.020205
0.0554389
-0.000136736
0.0554743
-0.000215726
0.0555442
-0.000176444
0.0556107
-0.00013487
0.0556696
-0.000107823
0.0557204
-8.56326e-05
0.0557625
-6.68483e-05
0.055797
-5.2647e-05
0.0558253
-4.23683e-05
-3.46927e-05
0.0558488
0.0874451
-8.17911e-05
0.0873996
-0.000170234
0.0873957
-0.000172535
0.0874132
-0.000152406
0.0874402
-0.000134842
0.0874718
-0.000117154
0.0875038
-9.88707e-05
0.0875338
-8.26489e-05
0.0875609
-6.94616e-05
-5.87848e-05
0.087585
0.115468
-4.98091e-05
0.115417
-0.000119511
0.115384
-0.000139245
0.115368
-0.000136367
0.115363
-0.000130201
0.115367
-0.000121217
0.115377
-0.000108926
0.115391
-9.58931e-05
0.115405
-8.39841e-05
-7.35025e-05
0.11542
0.139482
-3.15251e-05
0.139444
-8.20542e-05
0.139409
-0.00010438
0.139383
-0.000109466
0.139362
-0.00010997
0.139348
-0.000107346
0.13934
-0.000100966
0.139337
-9.25317e-05
0.139337
-8.38468e-05
-7.55667e-05
0.139339
0.159489
-2.05829e-05
0.159463
-5.61143e-05
0.159434
-7.53609e-05
0.159407
-8.26734e-05
0.159383
-8.58414e-05
0.159362
-8.63566e-05
0.159345
-8.37043e-05
0.159331
-7.88715e-05
0.159321
-7.32484e-05
-6.74941e-05
0.159313
0.175493
-1.34139e-05
0.175474
-3.74757e-05
0.175451
-5.20372e-05
0.175427
-5.88166e-05
0.175404
-6.24046e-05
0.175381
-6.39603e-05
0.175361
-6.31647e-05
0.175342
-6.05791e-05
0.175326
-5.71646e-05
-5.34537e-05
0.175312
0.187495
-8.16253e-06
0.18748
-2.30972e-05
0.187461
-3.27169e-05
0.18744
-3.76889e-05
0.187418
-4.05502e-05
0.187396
-4.20384e-05
0.187375
-4.1979e-05
0.187355
-4.06848e-05
0.187337
-3.87572e-05
-3.65617e-05
0.18732
0.195496
-3.8771e-06
0.195484
-1.1037e-05
0.195467
-1.58001e-05
0.195447
-1.83962e-05
0.195427
-1.99507e-05
0.195406
-2.08124e-05
0.195385
-2.09063e-05
0.195364
-2.03751e-05
0.195345
-1.95065e-05
-1.84852e-05
0.195327
0.199496
6.31493e-10
0.199485
1.60627e-09
0.199469
1.84129e-09
0.199451
3.15657e-09
0.199431
4.79061e-09
0.19941
4.41545e-09
0.199389
3.0269e-09
0.199369
3.22775e-09
0.199349
4.99324e-09
5.94122e-09
0.199331
0.199496
3.87733e-06
0.199485
1.10382e-05
0.199469
1.58058e-05
0.199451
1.84044e-05
0.199431
1.99581e-05
0.19941
2.08192e-05
0.199389
2.09138e-05
0.199369
2.03836e-05
0.199349
1.9516e-05
1.84948e-05
0.199331
0.195496
8.16386e-06
0.195484
2.31004e-05
0.195467
3.27207e-05
0.195447
3.7695e-05
0.195427
4.05589e-05
0.195406
4.20465e-05
0.195385
4.19852e-05
0.195364
4.06914e-05
0.195345
3.87662e-05
3.65719e-05
0.195327
0.187495
1.34145e-05
0.18748
3.74776e-05
0.187461
5.20422e-05
0.18744
5.88228e-05
0.187418
6.2411e-05
0.187396
6.39671e-05
0.187375
6.31722e-05
0.187355
6.05868e-05
0.187337
5.71721e-05
5.34611e-05
0.18732
0.175493
2.05842e-05
0.175474
5.61168e-05
0.175451
7.53642e-05
0.175427
8.26782e-05
0.175404
8.58477e-05
0.175381
8.63638e-05
0.175361
8.37113e-05
0.175342
7.88783e-05
0.175326
7.32549e-05
6.75005e-05
0.175312
0.159489
3.15261e-05
0.159463
8.20563e-05
0.159434
0.000104383
0.159407
0.00010947
0.159383
0.000109976
0.159362
0.000107354
0.159345
0.000100973
0.159331
9.25376e-05
0.159321
8.38516e-05
7.55717e-05
0.159313
0.139482
4.98097e-05
0.139444
0.000119512
0.139409
0.000139248
0.139383
0.00013637
0.139362
0.000130206
0.139348
0.000121223
0.13934
0.000108933
0.139337
9.58991e-05
0.139337
8.39878e-05
7.35058e-05
0.139339
0.115468
8.17923e-05
0.115417
0.000170236
0.115384
0.000172536
0.115368
0.000152408
0.115363
0.000134847
0.115367
0.00011716
0.115377
9.88765e-05
0.115391
8.26528e-05
0.115405
6.94643e-05
5.87881e-05
0.11542
0.0874451
0.000136737
0.0873996
0.000215726
0.0873957
0.000176446
0.0874132
0.000134873
0.0874402
0.000107825
0.0874718
8.56363e-05
0.0875038
6.6854e-05
0.0875338
5.26514e-05
0.0875609
4.23695e-05
3.46932e-05
0.087585
0.0554389
0.000197818
0.0554743
0.000180341
0.0555442
0.000106514
0.0556107
6.84271e-05
0.0556696
4.89165e-05
0.0557204
3.48519e-05
0.0557625
2.47286e-05
0.055797
1.82101e-05
0.0558253
1.40328e-05
1.11419e-05
0.0558488
0.0196978
0.0198782
0.0199847
0.0200531
0.020102
0.0201369
0.0201616
0.0201798
0.0201938
0.020205
0.020214
-9.01822e-06
0.0202214
-7.42829e-06
0.0202276
-6.2238e-06
0.0202329
-5.29403e-06
0.0202375
-4.55835e-06
0.0202415
-3.96229e-06
0.0202449
-3.47163e-06
0.020248
-3.06504e-06
0.0202507
-2.72747e-06
0.0202532
-2.4462e-06
0.0202554
-2.20956e-06
0.0202574
-2.00743e-06
0.0202592
-1.8319e-06
0.0202609
-1.67737e-06
0.0202624
-1.54025e-06
0.0202638
-1.41823e-06
0.0202652
-1.30962e-06
0.0202664
-1.21295e-06
0.0202675
-1.12671e-06
0.0202685
-1.04936e-06
0.0202695
-9.79432e-07
0.0202704
-9.15619e-07
0.0202713
-8.56886e-07
0.0202721
-8.0248e-07
0.0202728
-7.51902e-07
0.0202735
-7.04833e-07
0.0202742
-6.61061e-07
0.0202748
-6.20411e-07
0.0202754
-5.82698e-07
0.020276
-5.4771e-07
0.0202765
-5.15205e-07
0.020277
-4.84929e-07
0.0202774
-4.56635e-07
0.0202778
-4.30099e-07
-4.05137e-07
0.0202782
0.0558686
-2.87563e-05
0.0558853
-2.41099e-05
0.0558995
-2.0459e-05
0.0559118
-1.75628e-05
0.0559224
-1.52277e-05
0.0559318
-1.33114e-05
0.05594
-1.17178e-05
0.0559473
-1.03839e-05
0.0559539
-9.26457e-06
0.0559597
-8.32249e-06
0.055965
-7.52407e-06
0.0559699
-6.83966e-06
0.0559743
-6.24501e-06
0.0559783
-5.72206e-06
0.055982
-5.25823e-06
0.0559855
-4.84499e-06
0.0559886
-4.47616e-06
0.0559916
-4.14661e-06
0.0559943
-3.85154e-06
0.0559968
-3.58623e-06
0.0559992
-3.34617e-06
0.0560014
-3.12735e-06
0.0560035
-2.9264e-06
0.0560054
-2.74075e-06
0.0560072
-2.56854e-06
0.0560089
-2.40845e-06
0.0560105
-2.25955e-06
0.056012
-2.1211e-06
0.0560134
-1.99241e-06
0.0560148
-1.87277e-06
0.056016
-1.7614e-06
0.0560172
-1.65755e-06
0.0560183
-1.56045e-06
0.0560193
-1.46942e-06
-1.38385e-06
0.0560203
0.0876062
-5.00105e-05
0.0876249
-4.27957e-05
0.0876413
-3.68962e-05
0.0876558
-3.20695e-05
0.0876687
-2.80854e-05
0.0876801
-2.47551e-05
0.0876904
-2.19426e-05
0.0876995
-1.95557e-05
0.0877078
-1.75276e-05
0.0877153
-1.58022e-05
0.0877221
-1.4327e-05
0.0877283
-1.30542e-05
0.087734
-1.19432e-05
0.0877392
-1.09626e-05
0.087744
-1.00901e-05
0.0877485
-9.31035e-06
0.0877526
-8.61187e-06
0.0877565
-7.98546e-06
0.0877601
-7.42257e-06
0.0877634
-6.91491e-06
0.0877665
-6.4546e-06
0.0877694
-6.03451e-06
0.0877721
-5.64861e-06
0.0877747
-5.29213e-06
0.0877771
-4.9615e-06
0.0877793
-4.65414e-06
0.0877814
-4.3681e-06
0.0877834
-4.10186e-06
0.0877853
-3.85402e-06
0.087787
-3.62323e-06
0.0877886
-3.40808e-06
0.0877902
-3.20719e-06
0.0877917
-3.0192e-06
0.087793
-2.84289e-06
-2.67714e-06
0.0877943
0.115434
-6.42929e-05
0.115448
-5.62879e-05
0.11546
-4.94449e-05
0.115472
-4.3648e-05
0.115482
-3.87267e-05
0.115492
-3.45139e-05
0.115501
-3.0881e-05
0.115509
-2.77409e-05
0.115517
-2.50307e-05
0.115524
-2.26944e-05
0.11553
-2.06748e-05
0.115536
-1.89159e-05
0.115541
-1.73681e-05
0.115546
-1.59921e-05
0.115551
-1.47599e-05
0.115555
-1.3652e-05
0.115559
-1.26543e-05
0.115563
-1.1755e-05
0.115567
-1.09433e-05
0.11557
-1.02082e-05
0.115573
-9.53927e-06
0.115576
-8.927e-06
0.115579
-8.36321e-06
0.115581
-7.84143e-06
0.115584
-7.35675e-06
0.115586
-6.90553e-06
0.115588
-6.48506e-06
0.11559
-6.0931e-06
0.115592
-5.72765e-06
0.115594
-5.38675e-06
0.115595
-5.06843e-06
0.115597
-4.77073e-06
0.115598
-4.49178e-06
0.1156
-4.22985e-06
-3.98342e-06
0.115601
0.139343
-6.78095e-05
0.139347
-6.06916e-05
0.139352
-5.43327e-05
0.139357
-4.87535e-05
0.139362
-4.38781e-05
0.139367
-3.95969e-05
0.139372
-3.58188e-05
0.139377
-3.24845e-05
0.139381
-2.95542e-05
0.139386
-2.69892e-05
0.13939
-2.47433e-05
0.139394
-2.27649e-05
0.139397
-2.10056e-05
0.139401
-1.94261e-05
0.139404
-1.79985e-05
0.139407
-1.6704e-05
0.13941
-1.55294e-05
0.139413
-1.44637e-05
0.139415
-1.3496e-05
0.139417
-1.2615e-05
0.13942
-1.18093e-05
0.139422
-1.10686e-05
0.139424
-1.03838e-05
0.139426
-9.74769e-06
0.139428
-9.15498e-06
0.139429
-8.60167e-06
0.139431
-8.0848e-06
0.139432
-7.6019e-06
0.139434
-7.15071e-06
0.139435
-6.72895e-06
0.139436
-6.33433e-06
0.139438
-5.96456e-06
0.139439
-5.61745e-06
0.13944
-5.29098e-06
-4.98337e-06
0.139441
0.159307
-6.17994e-05
0.159302
-5.63262e-05
0.159299
-5.12518e-05
0.159297
-4.66692e-05
0.159296
-4.25666e-05
0.159295
-3.88819e-05
0.159295
-3.55582e-05
0.159295
-3.25646e-05
0.159295
-2.98863e-05
0.159296
-2.75062e-05
0.159296
-2.53949e-05
0.159297
-2.35131e-05
0.159298
-2.18204e-05
0.159299
-2.02834e-05
0.1593
-1.88787e-05
0.159301
-1.75919e-05
0.159301
-1.64137e-05
0.159302
-1.53361e-05
0.159303
-1.43507e-05
0.159304
-1.34479e-05
0.159305
-1.26174e-05
0.159306
-1.18496e-05
0.159306
-1.11359e-05
0.159307
-1.04698e-05
0.159308
-9.84647e-06
0.159308
-9.26229e-06
0.159309
-8.71471e-06
0.15931
-8.20157e-06
0.15931
-7.72078e-06
0.159311
-7.27021e-06
0.159311
-6.84761e-06
0.159312
-6.45071e-06
0.159312
-6.0773e-06
0.159313
-5.72537e-06
-5.39313e-06
0.159313
0.1753
-4.96255e-05
0.17529
-4.58202e-05
0.175281
-4.21981e-05
0.175273
-3.88618e-05
0.175266
-3.58257e-05
0.17526
-3.30551e-05
0.175255
-3.05139e-05
0.175251
-2.81873e-05
0.175247
-2.60745e-05
0.175244
-2.41727e-05
0.175241
-2.24668e-05
0.175238
-2.09303e-05
0.175236
-1.95333e-05
0.175234
-1.82506e-05
0.175232
-1.70654e-05
0.17523
-1.59681e-05
0.175229
-1.49538e-05
0.175227
-1.40183e-05
0.175226
-1.31564e-05
0.175225
-1.23615e-05
0.175224
-1.16255e-05
0.175223
-1.09409e-05
0.175222
-1.0301e-05
0.175222
-9.70048e-06
0.175221
-9.13564e-06
0.17522
-8.60395e-06
0.17522
-8.10359e-06
0.175219
-7.63302e-06
0.175219
-7.1907e-06
0.175218
-6.77495e-06
0.175218
-6.38391e-06
0.175217
-6.01568e-06
0.175217
-5.66838e-06
0.175216
-5.34027e-06
-5.02979e-06
0.175216
0.187304
-3.42305e-05
0.18729
-3.1861e-05
0.187278
-2.95686e-05
0.187266
-2.74341e-05
0.187256
-2.54762e-05
0.187247
-2.36743e-05
0.187238
-2.20048e-05
0.18723
-2.04593e-05
0.187223
-1.90413e-05
0.187217
-1.77535e-05
0.187211
-1.65892e-05
0.187206
-1.55324e-05
0.187201
-1.45635e-05
0.187196
-1.36657e-05
0.187192
-1.28281e-05
0.187188
-1.20456e-05
0.187184
-1.1316e-05
0.187181
-1.06381e-05
0.187178
-1.00093e-05
0.187175
-9.4256e-06
0.187172
-8.8821e-06
0.18717
-8.37363e-06
0.187167
-7.89568e-06
0.187165
-7.44482e-06
0.187163
-7.0187e-06
0.187161
-6.61582e-06
0.187159
-6.23516e-06
0.187157
-5.87586e-06
0.187155
-5.53698e-06
0.187154
-5.21743e-06
0.187152
-4.91595e-06
0.187151
-4.6312e-06
0.18715
-4.36186e-06
0.187149
-4.10665e-06
-3.86448e-06
0.187147
0.19531
-1.73818e-05
0.195294
-1.62468e-05
0.19528
-1.51396e-05
0.195267
-1.41033e-05
0.195254
-1.31496e-05
0.195243
-1.22688e-05
0.195232
-1.14492e-05
0.195223
-1.06863e-05
0.195214
-9.9825e-06
0.195205
-9.34e-06
0.195197
-8.75626e-06
0.19519
-8.22376e-06
0.195183
-7.73284e-06
0.195177
-7.27517e-06
0.195171
-6.84544e-06
0.195165
-6.44137e-06
0.19516
-6.06239e-06
0.195155
-5.70824e-06
0.19515
-5.37803e-06
0.195146
-5.06997e-06
0.195142
-4.78166e-06
0.195138
-4.51061e-06
0.195134
-4.25459e-06
0.195131
-4.01198e-06
0.195128
-3.78168e-06
0.195125
-3.56305e-06
0.195122
-3.35566e-06
0.195119
-3.15913e-06
0.195117
-2.97302e-06
0.195114
-2.79681e-06
0.195112
-2.62983e-06
0.19511
-2.47141e-06
0.195108
-2.32085e-06
0.195106
-2.1775e-06
-2.04078e-06
0.195104
0.199313
4.86641e-09
0.199297
3.21089e-09
0.199282
3.1353e-09
0.199268
5.08388e-09
0.199255
7.72284e-09
0.199243
9.68517e-09
0.199231
1.06664e-08
0.19922
1.12623e-08
0.19921
1.22616e-08
0.199201
1.40296e-08
0.199192
1.65039e-08
0.199184
1.94199e-08
0.199176
2.24959e-08
0.199169
2.55826e-08
0.199162
2.86355e-08
0.199156
3.16838e-08
0.199149
3.48172e-08
0.199144
3.81277e-08
0.199138
4.17147e-08
0.199133
4.56438e-08
0.199128
4.9942e-08
0.199124
5.46094e-08
0.199119
5.96184e-08
0.199115
6.49406e-08
0.199112
7.05593e-08
0.199108
7.64784e-08
0.199104
8.27324e-08
0.199101
8.93685e-08
0.199098
9.6447e-08
0.199095
1.04023e-07
0.199092
1.12145e-07
0.19909
1.20853e-07
0.199087
1.30178e-07
0.199085
1.40145e-07
1.50775e-07
0.199083
0.199313
1.73904e-05
0.199297
1.62541e-05
0.199282
1.51473e-05
0.199268
1.41138e-05
0.199255
1.31641e-05
0.199243
1.22868e-05
0.199231
1.14695e-05
0.19922
1.07085e-05
0.19921
1.00071e-05
0.199201
9.36807e-06
0.199192
8.78896e-06
0.199184
8.26188e-06
0.199176
7.77683e-06
0.199169
7.32515e-06
0.199162
6.90147e-06
0.199156
6.50349e-06
0.199149
6.13076e-06
0.199144
5.78317e-06
0.199138
5.46001e-06
0.199133
5.15962e-06
0.199128
4.87968e-06
0.199124
4.6177e-06
0.199119
4.37144e-06
0.199115
4.1392e-06
0.199112
3.91989e-06
0.199108
3.71284e-06
0.199104
3.5177e-06
0.199101
3.33417e-06
0.199098
3.16194e-06
0.199095
3.00055e-06
0.199093
2.84948e-06
0.19909
2.70809e-06
0.199088
2.57576e-06
0.199085
2.45189e-06
2.33594e-06
0.199083
0.19531
3.42392e-05
0.195294
3.18678e-05
0.19528
2.95758e-05
0.195267
2.74443e-05
0.195254
2.54901e-05
0.195243
2.36911e-05
0.195232
2.20235e-05
0.195223
2.048e-05
0.195214
1.90647e-05
0.195205
1.77806e-05
0.195197
1.66207e-05
0.19519
1.55688e-05
0.195183
1.4605e-05
0.195177
1.37126e-05
0.195171
1.28807e-05
0.195165
1.21039e-05
0.19516
1.13804e-05
0.195155
1.07088e-05
0.19515
1.00868e-05
0.195146
9.51034e-06
0.195142
8.97463e-06
0.195138
8.47453e-06
0.195134
8.00556e-06
0.195131
7.56427e-06
0.195128
7.14834e-06
0.195125
6.75627e-06
0.195122
6.3871e-06
0.195119
6.04002e-06
0.195117
5.71418e-06
0.195114
5.40855e-06
0.195112
5.12196e-06
0.19511
4.85312e-06
0.195108
4.60078e-06
0.195106
4.36371e-06
4.14086e-06
0.195104
0.187304
4.96329e-05
0.18729
4.58278e-05
0.187278
4.22066e-05
0.187266
3.88717e-05
0.187256
3.58375e-05
0.187247
3.30688e-05
0.187238
3.053e-05
0.18723
2.82061e-05
0.187223
2.60965e-05
0.187217
2.41982e-05
0.187211
2.2496e-05
0.187206
2.09634e-05
0.187201
1.95706e-05
0.187196
1.82925e-05
0.187192
1.71123e-05
0.187188
1.60204e-05
0.187184
1.50118e-05
0.187181
1.40823e-05
0.187178
1.32266e-05
0.187175
1.24381e-05
0.187172
1.1709e-05
0.18717
1.10318e-05
0.187167
1.03996e-05
0.187165
9.80746e-06
0.187163
9.2516e-06
0.187161
8.72953e-06
0.187159
8.23944e-06
0.187157
7.77984e-06
0.187156
7.34921e-06
0.187154
6.94591e-06
0.187153
6.56813e-06
0.187151
6.21404e-06
0.18715
5.88177e-06
0.187149
5.56968e-06
5.27623e-06
0.187148
0.1753
6.1806e-05
0.17529
5.63337e-05
0.175281
5.12604e-05
0.175273
4.66784e-05
0.175266
4.25762e-05
0.17526
3.88927e-05
0.175255
3.55713e-05
0.175251
3.25808e-05
0.175247
2.99059e-05
0.175244
2.7529e-05
0.175241
2.54206e-05
0.175238
2.35416e-05
0.175236
2.18521e-05
0.175234
2.03187e-05
0.175232
1.89183e-05
0.17523
1.76363e-05
0.175229
1.64632e-05
0.175228
1.53909e-05
0.175226
1.44109e-05
0.175225
1.35136e-05
0.175224
1.26888e-05
0.175223
1.19269e-05
0.175223
1.12196e-05
0.175222
1.05605e-05
0.175221
9.94457e-06
0.175221
9.3685e-06
0.17522
8.82961e-06
0.175219
8.32579e-06
0.175219
7.85489e-06
0.175218
7.41484e-06
0.175218
7.00334e-06
0.175218
6.61825e-06
0.175217
6.25734e-06
0.175217
5.91871e-06
5.60057e-06
0.175217
0.159307
6.7816e-05
0.159302
6.06996e-05
0.159299
5.4341e-05
0.159297
4.8761e-05
0.159296
4.3885e-05
0.159295
3.96047e-05
0.159295
3.58289e-05
0.159295
3.24977e-05
0.159295
2.95704e-05
0.159296
2.70079e-05
0.159296
2.47639e-05
0.159297
2.27875e-05
0.159298
2.10305e-05
0.159299
1.94538e-05
0.1593
1.80297e-05
0.159301
1.67391e-05
0.159301
1.55687e-05
0.159302
1.45073e-05
0.159303
1.3544e-05
0.159304
1.26674e-05
0.159305
1.18662e-05
0.159306
1.113e-05
0.159306
1.04501e-05
0.159307
9.81926e-06
0.159308
9.23239e-06
0.159309
8.68541e-06
0.159309
8.17544e-06
0.15931
7.69987e-06
0.15931
7.2565e-06
0.159311
6.84294e-06
0.159312
6.457e-06
0.159312
6.09632e-06
0.159313
5.75888e-06
0.159313
5.44258e-06
5.14586e-06
0.159314
0.139343
6.42985e-05
0.139347
5.62958e-05
0.139352
4.94527e-05
0.139357
4.36536e-05
0.139362
3.87307e-05
0.139367
3.45183e-05
0.139372
3.08878e-05
0.139377
2.77506e-05
0.139381
2.50428e-05
0.139386
2.2708e-05
0.13939
2.06896e-05
0.139394
1.89319e-05
0.139397
1.73856e-05
0.139401
1.60117e-05
0.139404
1.47821e-05
0.139407
1.36771e-05
0.13941
1.26826e-05
0.139413
1.17865e-05
0.139415
1.09781e-05
0.139418
1.02461e-05
0.13942
9.58036e-06
0.139422
8.97124e-06
0.139424
8.41092e-06
0.139426
7.89282e-06
0.139428
7.4123e-06
0.13943
6.96556e-06
0.139431
6.55005e-06
0.139433
6.1633e-06
0.139434
5.80346e-06
0.139436
5.46832e-06
0.139437
5.15614e-06
0.139438
4.86477e-06
0.139439
4.59259e-06
0.13944
4.33771e-06
4.0989e-06
0.139441
0.115434
5.00155e-05
0.115448
4.28015e-05
0.11546
3.69009e-05
0.115472
3.20724e-05
0.115482
2.8087e-05
0.115492
2.47572e-05
0.115501
2.19463e-05
0.115509
1.95612e-05
0.115517
1.75345e-05
0.115524
1.58102e-05
0.11553
1.43357e-05
0.115536
1.30638e-05
0.115541
1.19536e-05
0.115546
1.09744e-05
0.115551
1.01035e-05
0.115555
9.32568e-06
0.11556
8.6292e-06
0.115563
8.00504e-06
0.115567
7.44418e-06
0.11557
6.93867e-06
0.115573
6.48022e-06
0.115576
6.06219e-06
0.115579
5.67825e-06
0.115581
5.32413e-06
0.115584
4.9959e-06
0.115586
4.69141e-06
0.115588
4.40831e-06
0.11559
4.14542e-06
0.115592
3.9009e-06
0.115594
3.67378e-06
0.115596
3.46222e-06
0.115597
3.26531e-06
0.115599
3.08125e-06
0.1156
2.90934e-06
2.74802e-06
0.115602
0.0876062
2.87587e-05
0.0876249
2.41136e-05
0.0876413
2.04616e-05
0.0876558
1.75631e-05
0.0876687
1.52266e-05
0.0876801
1.33106e-05
0.0876904
1.17183e-05
0.0876995
1.03857e-05
0.0877078
9.26723e-06
0.0877153
8.32563e-06
0.0877221
7.52759e-06
0.0877283
6.84351e-06
0.087734
6.24937e-06
0.0877393
5.72705e-06
0.0877441
5.26408e-06
0.0877486
4.85185e-06
0.0877527
4.4842e-06
0.0877566
4.15584e-06
0.0877602
3.86196e-06
0.0877635
3.59768e-06
0.0877666
3.35861e-06
0.0877695
3.14067e-06
0.0877723
2.94067e-06
0.0877748
2.75602e-06
0.0877772
2.58498e-06
0.0877795
2.42619e-06
0.0877816
2.27879e-06
0.0877836
2.14191e-06
0.0877855
2.01491e-06
0.0877873
1.89696e-06
0.087789
1.78739e-06
0.0877906
1.68533e-06
0.087792
1.59016e-06
0.0877935
1.5011e-06
1.41768e-06
0.0877948
0.0558686
9.01949e-06
0.0558853
7.4291e-06
0.0558995
6.22374e-06
0.0559118
5.29322e-06
0.0559224
4.55723e-06
0.0559318
3.96127e-06
0.05594
3.47095e-06
0.0559473
3.06471e-06
0.0559539
2.72751e-06
0.0559598
2.44649e-06
0.0559651
2.2101e-06
0.0559699
2.00808e-06
0.0559743
1.83266e-06
0.0559784
1.67823e-06
0.0559821
1.54136e-06
0.0559855
1.41964e-06
0.0559887
1.31151e-06
0.0559916
1.21529e-06
0.0559944
1.12952e-06
0.0559969
1.0525e-06
0.0559993
9.82871e-07
0.0560015
9.1922e-07
0.0560036
8.60701e-07
0.0560055
8.06464e-07
0.0560074
7.56188e-07
0.0560091
7.09423e-07
0.0560107
6.66098e-07
0.0560122
6.25868e-07
0.0560136
5.88675e-07
0.056015
5.54138e-07
0.0560162
5.22157e-07
0.0560174
4.92326e-07
0.0560185
4.64559e-07
0.0560196
4.3849e-07
4.14101e-07
0.0560206
0.020214
0.0202214
0.0202277
0.0202329
0.0202375
0.0202415
0.0202449
0.020248
0.0202507
0.0202532
0.0202554
0.0202574
0.0202592
0.0202609
0.0202624
0.0202639
0.0202652
0.0202664
0.0202675
0.0202686
0.0202696
0.0202705
0.0202713
0.0202721
0.0202729
0.0202736
0.0202743
0.0202749
0.0202755
0.020276
0.0202766
0.0202771
0.0202775
0.020278
0.0202784
0.0202786
-3.81594e-07
0.020279
-3.59366e-07
0.0202793
-3.38361e-07
0.0202796
-3.1852e-07
0.0202799
-2.99781e-07
0.0202802
-2.82098e-07
0.0202805
-2.65409e-07
0.0202807
-2.49664e-07
0.020281
-2.34796e-07
-2.20753e-07
0.0202812
0.0560212
-1.30325e-06
0.0560221
-1.22721e-06
0.0560229
-1.15542e-06
0.0560237
-1.08762e-06
0.0560244
-1.02358e-06
0.0560251
-9.63103e-07
0.0560257
-9.05982e-07
0.0560263
-8.52018e-07
0.0560269
-8.01012e-07
-7.52768e-07
0.0560274
0.0877955
-2.52103e-06
0.0877967
-2.3738e-06
0.0877978
-2.23481e-06
0.0877988
-2.10352e-06
0.0877997
-1.97949e-06
0.0878006
-1.86228e-06
0.0878015
-1.75149e-06
0.0878023
-1.64674e-06
0.087803
-1.54764e-06
-1.45382e-06
0.0878037
0.115602
-3.75117e-06
0.115603
-3.53202e-06
0.115605
-3.32504e-06
0.115606
-3.12945e-06
0.115607
-2.94456e-06
0.115607
-2.76973e-06
0.115608
-2.60435e-06
0.115609
-2.44785e-06
0.11561
-2.29966e-06
-2.15925e-06
0.115611
0.139442
-4.69309e-06
0.139443
-4.41887e-06
0.139443
-4.15961e-06
0.139444
-3.91439e-06
0.139445
-3.68236e-06
0.139446
-3.46275e-06
0.139446
-3.25482e-06
0.139447
-3.05786e-06
0.139448
-2.87118e-06
-2.69411e-06
0.139448
0.159313
-5.07904e-06
0.159314
-4.78182e-06
0.159314
-4.50038e-06
0.159314
-4.23377e-06
0.159315
-3.98115e-06
0.159315
-3.74172e-06
0.159315
-3.51472e-06
0.159316
-3.29942e-06
0.159316
-3.09507e-06
-2.90096e-06
0.159316
0.175216
-4.73563e-06
0.175215
-4.45665e-06
0.175215
-4.19193e-06
0.175215
-3.94064e-06
0.175215
-3.70204e-06
0.175214
-3.47545e-06
0.175214
-3.2602e-06
0.175214
-3.05563e-06
0.175214
-2.86108e-06
-2.6759e-06
0.175213
0.187146
-3.63438e-06
0.187145
-3.41553e-06
0.187144
-3.20724e-06
0.187143
-3.00893e-06
0.187142
-2.82006e-06
0.187142
-2.64013e-06
0.187141
-2.46864e-06
0.18714
-2.30511e-06
0.187139
-2.14904e-06
-1.99992e-06
0.187139
0.195102
-1.91017e-06
0.195101
-1.78525e-06
0.195099
-1.66565e-06
0.195098
-1.55105e-06
0.195096
-1.44116e-06
0.195095
-1.33571e-06
0.195094
-1.23443e-06
0.195092
-1.13704e-06
0.195091
-1.04328e-06
-9.52843e-07
0.19509
0.199081
1.62085e-07
0.199079
1.74095e-07
0.199077
1.86826e-07
0.199075
2.00301e-07
0.199074
2.14546e-07
0.199072
2.29592e-07
0.199071
2.45471e-07
0.199069
2.62221e-07
0.199068
2.79881e-07
2.9849e-07
0.199067
0.199081
2.22742e-06
0.199079
2.12596e-06
0.199077
2.03122e-06
0.199075
1.94295e-06
0.199074
1.86089e-06
0.199072
1.78484e-06
0.199071
1.71459e-06
0.199069
1.64995e-06
0.199068
1.5907e-06
1.53665e-06
0.199067
0.195102
3.9313e-06
0.195101
3.73426e-06
0.195099
3.54911e-06
0.195098
3.3753e-06
0.195096
3.21235e-06
0.195095
3.05981e-06
0.195094
2.91725e-06
0.195093
2.78426e-06
0.195092
2.66038e-06
2.54518e-06
0.195091
0.187147
5.00018e-06
0.187146
4.74044e-06
0.187145
4.49614e-06
0.187144
4.26648e-06
0.187143
4.05081e-06
0.187142
3.84847e-06
0.187141
3.65885e-06
0.187141
3.48132e-06
0.18714
3.31529e-06
3.16013e-06
0.187139
0.175216
5.30153e-06
0.175216
5.02025e-06
0.175216
4.75581e-06
0.175215
4.5072e-06
0.175215
4.2737e-06
0.175215
4.05448e-06
0.175215
3.84888e-06
0.175215
3.65611e-06
0.175214
3.47556e-06
3.30645e-06
0.175214
0.159314
4.86711e-06
0.159314
4.60524e-06
0.159315
4.35906e-06
0.159315
4.12782e-06
0.159316
3.91055e-06
0.159316
3.70665e-06
0.159316
3.51525e-06
0.159317
3.33579e-06
0.159317
3.16747e-06
3.00978e-06
0.159317
0.139442
3.87466e-06
0.139443
3.66418e-06
0.139444
3.46633e-06
0.139445
3.28058e-06
0.139446
3.10601e-06
0.139447
2.94224e-06
0.139447
2.78841e-06
0.139448
2.64422e-06
0.139449
2.50885e-06
2.38204e-06
0.139449
0.115603
2.59691e-06
0.115604
2.45476e-06
0.115605
2.32145e-06
0.115606
2.19597e-06
0.115607
2.07836e-06
0.115608
1.96769e-06
0.115609
1.86408e-06
0.11561
1.7666e-06
0.115611
1.67543e-06
1.58967e-06
0.115612
0.087796
1.33932e-06
0.0877972
1.26576e-06
0.0877984
1.19656e-06
0.0877994
1.13159e-06
0.0878004
1.07051e-06
0.0878014
1.01321e-06
0.0878023
9.59394e-07
0.0878031
9.08964e-07
0.0878039
8.6161e-07
8.17254e-07
0.0878047
0.0560216
3.911e-07
0.0560225
3.69538e-07
0.0560233
3.4918e-07
0.0560241
3.30117e-07
0.0560249
3.12135e-07
0.0560256
2.95334e-07
0.0560263
2.795e-07
0.0560269
2.6473e-07
0.0560275
2.50806e-07
2.37824e-07
0.0560281
0.0202788
0.0202791
0.0202795
0.0202798
0.0202801
0.0202804
0.0202807
0.020281
0.0202812
0.0202814
0.0202814
-2.07468e-07
0.0202816
-1.94895e-07
0.0202818
-1.82971e-07
0.0202819
-1.71661e-07
0.0202821
-1.60913e-07
0.0202823
-1.507e-07
0.0202824
-1.40977e-07
0.0202825
-1.31726e-07
0.0202827
-1.22907e-07
0.0202828
-1.14507e-07
0.0202829
-1.06492e-07
0.020283
-9.88514e-08
0.0202831
-9.15531e-08
0.0202832
-8.45912e-08
0.0202832
-7.79345e-08
0.0202833
-7.15794e-08
0.0202834
-6.5496e-08
0.0202834
-5.96828e-08
0.0202835
-5.41112e-08
0.0202835
-4.8782e-08
0.0202836
-4.36681e-08
0.0202836
-3.87733e-08
0.0202836
-3.40741e-08
0.0202837
-2.95775e-08
0.0202837
-2.52619e-08
0.0202837
-2.11402e-08
0.0202837
-1.7191e-08
0.0202838
-1.34283e-08
0.0202838
-9.83015e-09
0.0202838
-6.40944e-09
0.0202838
-3.14083e-09
0.0202838
-3.63858e-11
0.0202838
2.93165e-09
0.0202838
5.74387e-09
8.42049e-09
0.0202838
0.0560279
-7.07096e-07
0.0560284
-6.63817e-07
0.0560288
-6.22765e-07
0.0560292
-5.83787e-07
0.0560296
-5.46746e-07
0.05603
-5.11512e-07
0.0560303
-4.77972e-07
0.0560306
-4.46017e-07
0.0560309
-4.15551e-07
0.0560312
-3.86481e-07
0.0560314
-3.58724e-07
0.0560317
-3.322e-07
0.0560319
-3.06839e-07
0.0560321
-2.82571e-07
0.0560323
-2.59334e-07
0.0560324
-2.37069e-07
0.0560326
-2.15721e-07
0.0560327
-1.95237e-07
0.0560328
-1.75569e-07
0.0560329
-1.56669e-07
0.056033
-1.38499e-07
0.0560331
-1.21019e-07
0.0560332
-1.04197e-07
0.0560333
-8.80033e-08
0.0560333
-7.24162e-08
0.0560333
-5.74159e-08
0.0560334
-4.29866e-08
0.0560334
-2.91157e-08
0.0560334
-1.57916e-08
0.0560334
-3.00468e-09
0.0560334
9.2546e-09
0.0560334
2.09914e-08
0.0560333
3.22085e-08
0.0560333
4.29019e-08
5.30607e-08
0.0560333
0.0878044
-1.36494e-06
0.087805
-1.28065e-06
0.0878056
-1.20065e-06
0.0878061
-1.12465e-06
0.0878066
-1.05238e-06
0.0878071
-9.83596e-07
0.0878075
-9.18071e-07
0.0878079
-8.55592e-07
0.0878083
-7.95966e-07
0.0878087
-7.3901e-07
0.087809
-6.8456e-07
0.0878093
-6.3246e-07
0.0878096
-5.82567e-07
0.0878098
-5.34748e-07
0.0878101
-4.8888e-07
0.0878103
-4.44846e-07
0.0878104
-4.02539e-07
0.0878106
-3.61855e-07
0.0878108
-3.227e-07
0.0878109
-2.84982e-07
0.087811
-2.48622e-07
0.0878111
-2.13542e-07
0.0878112
-1.7968e-07
0.0878112
-1.46978e-07
0.0878113
-1.15389e-07
0.0878113
-8.48746e-08
0.0878113
-5.54057e-08
0.0878113
-2.69583e-08
0.0878113
4.82859e-10
0.0878113
2.69307e-08
0.0878112
5.23905e-08
0.0878112
7.68628e-08
0.0878111
1.00338e-07
0.087811
1.22799e-07
1.44218e-07
0.0878109
0.115611
-2.02611e-06
0.115612
-1.89973e-06
0.115612
-1.77968e-06
0.115613
-1.66553e-06
0.115613
-1.55688e-06
0.115614
-1.45337e-06
0.115614
-1.35466e-06
0.115615
-1.26044e-06
0.115615
-1.17042e-06
0.115615
-1.08432e-06
0.115616
-1.00189e-06
0.115616
-9.22905e-07
0.115616
-8.47147e-07
0.115617
-7.74416e-07
0.115617
-7.0452e-07
0.115617
-6.37287e-07
0.115617
-5.72548e-07
0.115617
-5.10149e-07
0.115617
-4.49942e-07
0.115618
-3.91794e-07
0.115618
-3.3558e-07
0.115618
-2.81189e-07
0.115618
-2.28521e-07
0.115618
-1.77494e-07
0.115618
-1.28036e-07
0.115618
-8.00917e-08
0.115618
-3.36176e-08
0.115618
1.14154e-08
0.115618
5.50284e-08
0.115618
9.72273e-08
0.115618
1.38012e-07
0.115617
1.77366e-07
0.115617
2.15264e-07
0.115617
2.5166e-07
2.86499e-07
0.115617
0.139449
-2.526e-06
0.139449
-2.36627e-06
0.139449
-2.21434e-06
0.13945
-2.06968e-06
0.13945
-1.93181e-06
0.139451
-1.80027e-06
0.139451
-1.67465e-06
0.139451
-1.55455e-06
0.139451
-1.43961e-06
0.139452
-1.3295e-06
0.139452
-1.22391e-06
0.139452
-1.12255e-06
0.139452
-1.02513e-06
0.139452
-9.31402e-07
0.139453
-8.41128e-07
0.139453
-7.54078e-07
0.139453
-6.70037e-07
0.139453
-5.88805e-07
0.139453
-5.10196e-07
0.139453
-4.34036e-07
0.139453
-3.6017e-07
0.139453
-2.88458e-07
0.139453
-2.18777e-07
0.139453
-1.51025e-07
0.139453
-8.51161e-08
0.139453
-2.0983e-08
0.139453
4.14226e-08
0.139453
1.02133e-07
0.139453
1.61162e-07
0.139453
2.18509e-07
0.139452
2.74155e-07
0.139452
3.28064e-07
0.139452
3.80177e-07
0.139452
4.30413e-07
4.78668e-07
0.139452
0.159316
-2.71642e-06
0.159316
-2.54078e-06
0.159316
-2.37344e-06
0.159317
-2.21381e-06
0.159317
-2.06137e-06
0.159317
-1.91563e-06
0.159317
-1.77614e-06
0.159317
-1.64248e-06
0.159317
-1.51427e-06
0.159317
-1.39114e-06
0.159317
-1.27277e-06
0.159317
-1.15884e-06
0.159317
-1.04904e-06
0.159317
-9.43093e-07
0.159317
-8.40731e-07
0.159317
-7.41699e-07
0.159317
-6.45753e-07
0.159317
-5.52672e-07
0.159317
-4.62247e-07
0.159317
-3.7429e-07
0.159317
-2.88629e-07
0.159317
-2.05117e-07
0.159317
-1.23623e-07
0.159317
-4.40414e-08
0.159317
3.37145e-08
0.159317
1.09707e-07
0.159316
1.83981e-07
0.159316
2.56556e-07
0.159316
3.27434e-07
0.159316
3.96593e-07
0.159316
4.63991e-07
0.159316
5.29555e-07
0.159315
5.93192e-07
0.159315
6.54769e-07
7.14122e-07
0.159315
0.175213
-2.49945e-06
0.175213
-2.33111e-06
0.175213
-2.1703e-06
0.175212
-2.01648e-06
0.175212
-1.86915e-06
0.175212
-1.72784e-06
0.175212
-1.59213e-06
0.175212
-1.46163e-06
0.175212
-1.33599e-06
0.175211
-1.21488e-06
0.175211
-1.09799e-06
0.175211
-9.85011e-07
0.175211
-8.7567e-07
0.175211
-7.6969e-07
0.17521
-6.66813e-07
0.17521
-5.66789e-07
0.17521
-4.69387e-07
0.17521
-3.74387e-07
0.17521
-2.81595e-07
0.17521
-1.90827e-07
0.175209
-1.01929e-07
0.175209
-1.4764e-08
0.175209
7.07806e-08
0.175209
1.54796e-07
0.175209
2.37347e-07
0.175208
3.18481e-07
0.175208
3.98216e-07
0.175208
4.76551e-07
0.175208
5.53459e-07
0.175208
6.28889e-07
0.175207
7.0276e-07
0.175207
7.7496e-07
0.175207
8.45344e-07
0.175207
9.13723e-07
9.79864e-07
0.175206
0.187138
-1.85727e-06
0.187137
-1.7206e-06
0.187137
-1.58944e-06
0.187136
-1.46336e-06
0.187136
-1.34195e-06
0.187135
-1.22485e-06
0.187135
-1.11173e-06
0.187134
-1.00227e-06
0.187134
-8.96217e-07
0.187133
-7.93294e-07
0.187133
-6.93258e-07
0.187133
-5.95876e-07
0.187132
-5.0092e-07
0.187132
-4.0817e-07
0.187132
-3.17414e-07
0.187131
-2.28452e-07
0.187131
-1.41094e-07
0.187131
-5.51661e-08
0.18713
2.94882e-08
0.18713
1.13007e-07
0.18713
1.95508e-07
0.187129
2.77086e-07
0.187129
3.57818e-07
0.187129
4.37755e-07
0.187129
5.16928e-07
0.187128
5.95343e-07
0.187128
6.72984e-07
0.187128
7.49811e-07
0.187127
8.25758e-07
0.187127
9.00731e-07
0.187127