/*--------------------------------*- C++ -*----------------------------------*\
| =========                 |                                                 |
| \\      /  F ield         | OpenFOAM: The Open Source CFD Toolbox           |
|  \\    /   O peration     | Version:  2406                                  |
|   \\  /    A nd           | Website:  www.openfoam.com                      |
|    \\/     M anipulation  |                                                 |
\*---------------------------------------------------------------------------*/
FoamFile
{
    version     2.0;
    format      ascii;
    arch        "LSB;label=32;scalar=64";
    class       volVectorField;
    location    "77";
    object      U;
}
// * * * * * * * * * * * * * * * * * * * * * * * * * * * * * * * * * * * * * //

dimensions      [0 1 -1 0 0 0 0];

internalField   nonuniform List<vector> 
2000
(
(0.19425 -0.000884335 0)
(0.197758 -0.000692382 0)
(0.199503 -0.000345462 0)
(0.200261 -0.000208385 0)
(0.200794 -0.000140818 0)
(0.201211 -8.81959e-05 0)
(0.201508 -5.40958e-05 0)
(0.201718 -3.6269e-05 0)
(0.201875 -2.66097e-05 0)
(0.201999 -2.03157e-05 0)
(0.551923 -0.00182025 0)
(0.553917 -0.00243779 0)
(0.555347 -0.00173273 0)
(0.555868 -0.00116622 0)
(0.556386 -0.000851059 0)
(0.556953 -0.000628878 0)
(0.557434 -0.000460153 0)
(0.557814 -0.000344293 0)
(0.558123 -0.000267446 0)
(0.55838 -0.000213603 0)
(0.872337 -0.00113413 0)
(0.873516 -0.00201912 0)
(0.874242 -0.00187759 0)
(0.874132 -0.00155799 0)
(0.874206 -0.00130989 0)
(0.874528 -0.00108691 0)
(0.874882 -0.000879618 0)
(0.875197 -0.000709643 0)
(0.875479 -0.000579876 0)
(0.875735 -0.000479969 0)
(1.15273 -0.000630022 0)
(1.15374 -0.00140419 0)
(1.15429 -0.00156774 0)
(1.15388 -0.001491 0)
(1.15359 -0.00138563 0)
(1.1536 -0.00125443 0)
(1.15372 -0.00109718 0)
(1.15384 -0.000942682 0)
(1.15398 -0.000808298 0)
(1.15412 -0.000694575 0)
(1.39299 -0.000386328 0)
(1.39395 -0.000969014 0)
(1.39455 -0.00119911 0)
(1.39412 -0.00123383 0)
(1.39367 -0.00121992 0)
(1.3935 -0.00117123 0)
(1.39343 -0.00108354 0)
(1.39338 -0.000977839 0)
(1.39336 -0.000873644 0)
(1.39337 -0.000777231 0)
(1.59316 -0.000251216 0)
(1.59409 -0.000667941 0)
(1.59476 -0.000879118 0)
(1.59438 -0.000951437 0)
(1.59392 -0.000978463 0)
(1.59368 -0.000975093 0)
(1.59353 -0.000936126 0)
(1.59338 -0.000874147 0)
(1.59325 -0.000804991 0)
(1.59316 -0.000735783 0)
(1.75328 -0.000165593 0)
(1.75416 -0.000454711 0)
(1.75488 -0.000622755 0)
(1.75457 -0.000697539 0)
(1.75413 -0.000735919 0)
(1.75388 -0.000750311 0)
(1.7537 -0.000736979 0)
(1.75352 -0.000703263 0)
(1.75334 -0.000660568 0)
(1.75319 -0.000614946 0)
(1.87335 -0.000105677 0)
(1.87421 -0.000295507 0)
(1.87495 -0.000414941 0)
(1.87469 -0.000475452 0)
(1.87427 -0.000510037 0)
(1.87403 -0.000527343 0)
(1.87385 -0.000525154 0)
(1.87366 -0.000507739 0)
(1.87346 -0.00048267 0)
(1.87328 -0.000454401 0)
(1.9534 -5.91483e-05 0)
(1.95423 -0.000166989 0)
(1.95498 -0.000237898 0)
(1.95476 -0.000276381 0)
(1.95436 -0.000299546 0)
(1.95412 -0.000312315 0)
(1.95395 -0.000313516 0)
(1.95375 -0.000305392 0)
(1.95355 -0.000292265 0)
(1.95336 -0.000276858 0)
(1.99342 -1.90703e-05 0)
(1.99425 -5.40604e-05 0)
(1.995 -7.75216e-05 0)
(1.99479 -9.06514e-05 0)
(1.9944 -9.87427e-05 0)
(1.99417 -0.000103368 0)
(1.99399 -0.000104152 0)
(1.9938 -0.000101796 0)
(1.99359 -9.77069e-05 0)
(1.9934 -9.28059e-05 0)
(1.99342 1.90778e-05 0)
(1.99425 5.40819e-05 0)
(1.995 7.75691e-05 0)
(1.99479 9.07253e-05 0)
(1.9944 9.8827e-05 0)
(1.99417 0.000103446 0)
(1.99399 0.000104221 0)
(1.9938 0.000101873 0)
(1.99359 9.78062e-05 0)
(1.9934 9.29156e-05 0)
(1.9534 5.91558e-05 0)
(1.95423 0.000167011 0)
(1.95498 0.000237943 0)
(1.95476 0.000276452 0)
(1.95436 0.00029963 0)
(1.95412 0.000312392 0)
(1.95395 0.000313583 0)
(1.95375 0.000305465 0)
(1.95355 0.000292357 0)
(1.95336 0.000276959 0)
(1.87335 0.000105687 0)
(1.87421 0.000295531 0)
(1.87495 0.00041499 0)
(1.87469 0.000475518 0)
(1.87427 0.00051011 0)
(1.87403 0.000527416 0)
(1.87385 0.000525224 0)
(1.87366 0.000507813 0)
(1.87346 0.000482752 0)
(1.87328 0.000454487 0)
(1.75328 0.000165603 0)
(1.75416 0.000454734 0)
(1.75488 0.000622792 0)
(1.75457 0.000697591 0)
(1.75413 0.000735984 0)
(1.75388 0.000750381 0)
(1.7537 0.000737049 0)
(1.75352 0.000703334 0)
(1.75334 0.000660641 0)
(1.75319 0.000615017 0)
(1.59316 0.000251228 0)
(1.59409 0.000667962 0)
(1.59476 0.000879155 0)
(1.59438 0.00095148 0)
(1.59392 0.000978517 0)
(1.59368 0.000975162 0)
(1.59353 0.0009362 0)
(1.59338 0.000874214 0)
(1.59325 0.000805047 0)
(1.59316 0.000735837 0)
(1.39299 0.000386336 0)
(1.39395 0.000969032 0)
(1.39455 0.00119913 0)
(1.39412 0.00123387 0)
(1.39367 0.00121998 0)
(1.3935 0.00117131 0)
(1.39343 0.00108361 0)
(1.39338 0.000977895 0)
(1.39336 0.000873687 0)
(1.39337 0.000777275 0)
(1.15273 0.000630031 0)
(1.15374 0.00140421 0)
(1.15429 0.00156776 0)
(1.15388 0.00149102 0)
(1.15359 0.00138567 0)
(1.1536 0.0012545 0)
(1.15372 0.00109725 0)
(1.15384 0.000942731 0)
(1.15398 0.000808327 0)
(1.15412 0.000694607 0)
(0.872337 0.00113414 0)
(0.873516 0.00201913 0)
(0.874242 0.00187761 0)
(0.874132 0.00155802 0)
(0.874206 0.00130992 0)
(0.874528 0.00108696 0)
(0.874882 0.000879677 0)
(0.875197 0.000709687 0)
(0.875479 0.000579896 0)
(0.875735 0.000479988 0)
(0.551923 0.00182025 0)
(0.553917 0.0024378 0)
(0.555347 0.00173275 0)
(0.555868 0.00116624 0)
(0.556386 0.000851081 0)
(0.556953 0.000628912 0)
(0.557434 0.000460196 0)
(0.557814 0.000344324 0)
(0.558123 0.000267457 0)
(0.55838 0.000213608 0)
(0.19425 0.000884337 0)
(0.197758 0.000692395 0)
(0.199503 0.000345465 0)
(0.200261 0.000208381 0)
(0.200793 0.000140827 0)
(0.20121 8.82186e-05 0)
(0.201508 5.41091e-05 0)
(0.201718 3.62671e-05 0)
(0.201875 2.66067e-05 0)
(0.201999 2.03199e-05 0)
(0.202099 -1.5883e-05 0)
(0.20218 -1.27686e-05 0)
(0.202248 -1.05467e-05 0)
(0.202305 -8.8961e-06 0)
(0.202354 -7.61826e-06 0)
(0.202396 -6.59616e-06 0)
(0.202433 -5.76221e-06 0)
(0.202465 -5.07896e-06 0)
(0.202494 -4.52112e-06 0)
(0.20252 -4.06493e-06 0)
(0.202543 -3.68571e-06 0)
(0.202564 -3.36134e-06 0)
(0.202583 -3.07611e-06 0)
(0.202601 -2.82115e-06 0)
(0.202617 -2.59262e-06 0)
(0.202632 -2.38914e-06 0)
(0.202645 -2.20926e-06 0)
(0.202658 -2.05079e-06 0)
(0.202669 -1.91044e-06 0)
(0.20268 -1.78464e-06 0)
(0.20269 -1.67005e-06 0)
(0.2027 -1.56414e-06 0)
(0.202709 -1.46529e-06 0)
(0.202717 -1.3727e-06 0)
(0.202725 -1.28608e-06 0)
(0.202732 -1.20541e-06 0)
(0.202739 -1.13064e-06 0)
(0.202745 -1.06161e-06 0)
(0.202751 -9.97935e-07 0)
(0.202757 -9.39097e-07 0)
(0.202762 -8.84492e-07 0)
(0.202767 -8.33542e-07 0)
(0.202772 -7.85727e-07 0)
(0.202776 -7.40646e-07 0)
(0.20278 -6.98019e-07 0)
(0.558595 -0.000173727 0)
(0.558776 -0.000143579 0)
(0.558929 -0.000120564 0)
(0.55906 -0.000102705 0)
(0.559174 -8.85309e-05 0)
(0.559274 -7.7034e-05 0)
(0.559361 -6.75621e-05 0)
(0.559439 -5.96985e-05 0)
(0.559508 -5.3151e-05 0)
(0.559569 -4.76794e-05 0)
(0.559625 -4.30681e-05 0)
(0.559676 -3.91291e-05 0)
(0.559722 -3.57118e-05 0)
(0.559764 -3.27071e-05 0)
(0.559803 -3.00422e-05 0)
(0.559838 -2.76693e-05 0)
(0.559871 -2.55546e-05 0)
(0.559902 -2.36692e-05 0)
(0.55993 -2.19849e-05 0)
(0.559956 -2.0473e-05 0)
(0.55998 -1.91061e-05 0)
(0.560003 -1.78597e-05 0)
(0.560025 -1.67137e-05 0)
(0.560045 -1.56534e-05 0)
(0.560063 -1.46684e-05 0)
(0.560081 -1.37519e-05 0)
(0.560097 -1.28994e-05 0)
(0.560113 -1.21072e-05 0)
(0.560127 -1.13716e-05 0)
(0.560141 -1.06885e-05 0)
(0.560154 -1.00534e-05 0)
(0.560166 -9.46162e-06 0)
(0.560177 -8.90854e-06 0)
(0.560188 -8.38996e-06 0)
(0.560198 -7.90232e-06 0)
(0.875962 -0.000401073 0)
(0.876161 -0.000338282 0)
(0.876336 -0.000288302 0)
(0.87649 -0.00024828 0)
(0.876626 -0.000215799 0)
(0.876747 -0.000189022 0)
(0.876855 -0.000166676 0)
(0.876952 -0.000147905 0)
(0.877039 -0.000132098 0)
(0.877117 -0.000118751 0)
(0.877188 -0.00010741 0)
(0.877253 -9.76747e-05 0)
(0.877312 -8.92122e-05 0)
(0.877367 -8.17694e-05 0)
(0.877417 -7.51668e-05 0)
(0.877464 -6.92808e-05 0)
(0.877507 -6.40218e-05 0)
(0.877546 -5.9317e-05 0)
(0.877583 -5.50995e-05 0)
(0.877618 -5.13041e-05 0)
(0.87765 -4.78689e-05 0)
(0.87768 -4.47379e-05 0)
(0.877708 -4.1864e-05 0)
(0.877734 -3.92104e-05 0)
(0.877759 -3.67497e-05 0)
(0.877782 -3.44627e-05 0)
(0.877804 -3.23353e-05 0)
(0.877824 -3.03564e-05 0)
(0.877843 -2.85159e-05 0)
(0.877862 -2.68038e-05 0)
(0.877878 -2.52093e-05 0)
(0.877894 -2.37219e-05 0)
(0.877909 -2.2331e-05 0)
(0.877924 -2.10271e-05 0)
(0.877937 -1.98016e-05 0)
(1.15427 -0.000598019 0)
(1.15441 -0.000516534 0)
(1.15454 -0.000448564 0)
(1.15466 -0.000392124 0)
(1.15477 -0.000345004 0)
(1.15488 -0.000305254 0)
(1.15497 -0.000271428 0)
(1.15505 -0.000242533 0)
(1.15513 -0.000217844 0)
(1.1552 -0.000196738 0)
(1.15527 -0.000178623 0)
(1.15533 -0.000162944 0)
(1.15539 -0.000149224 0)
(1.15544 -0.000137093 0)
(1.15549 -0.000126281 0)
(1.15553 -0.000116602 0)
(1.15558 -0.000107918 0)
(1.15561 -0.000100116 0)
(1.15565 -9.30948e-05 0)
(1.15568 -8.67541e-05 0)
(1.15572 -8.0999e-05 0)
(1.15575 -7.57433e-05 0)
(1.15577 -7.09135e-05 0)
(1.1558 -6.64511e-05 0)
(1.15583 -6.23116e-05 0)
(1.15585 -5.84624e-05 0)
(1.15587 -5.48791e-05 0)
(1.15589 -5.15421e-05 0)
(1.15591 -4.8434e-05 0)
(1.15593 -4.55378e-05 0)
(1.15595 -4.28364e-05 0)
(1.15596 -4.03128e-05 0)
(1.15598 -3.79504e-05 0)
(1.15599 -3.57341e-05 0)
(1.156 -3.36504e-05 0)
(1.3934 -0.000689234 0)
(1.39345 -0.000610327 0)
(1.39349 -0.000541177 0)
(1.39354 -0.000481462 0)
(1.39359 -0.000429987 0)
(1.39365 -0.000385349 0)
(1.3937 -0.000346425 0)
(1.39375 -0.000312453 0)
(1.39379 -0.000282891 0)
(1.39384 -0.000257231 0)
(1.39388 -0.000234922 0)
(1.39392 -0.000215396 0)
(1.39395 -0.000198139 0)
(1.39399 -0.000182739 0)
(1.39402 -0.000168899 0)
(1.39405 -0.000156417 0)
(1.39408 -0.000145143 0)
(1.39411 -0.000134957 0)
(1.39414 -0.00012574 0)
(1.39416 -0.000117376 0)
(1.39419 -0.000109752 0)
(1.39421 -0.000102761 0)
(1.39423 -9.63162e-05 0)
(1.39425 -9.03445e-05 0)
(1.39427 -8.4792e-05 0)
(1.39428 -7.96185e-05 0)
(1.3943 -7.47935e-05 0)
(1.39432 -7.02922e-05 0)
(1.39433 -6.6092e-05 0)
(1.39435 -6.21708e-05 0)
(1.39436 -5.85065e-05 0)
(1.39437 -5.50772e-05 0)
(1.39438 -5.18617e-05 0)
(1.39439 -4.88407e-05 0)
(1.3944 -4.59971e-05 0)
(1.59309 -0.000668535 0)
(1.59304 -0.000604934 0)
(1.593 -0.000546723 0)
(1.59298 -0.000494677 0)
(1.59296 -0.000448486 0)
(1.59295 -0.000407356 0)
(1.59295 -0.000370588 0)
(1.59295 -0.000337764 0)
(1.59295 -0.000308632 0)
(1.59295 -0.000282924 0)
(1.59296 -0.000260256 0)
(1.59297 -0.000240164 0)
(1.59297 -0.000222192 0)
(1.59298 -0.000205967 0)
(1.59299 -0.000191225 0)
(1.593 -0.000177794 0)
(1.59301 -0.000165557 0)
(1.59302 -0.000154414 0)
(1.59303 -0.000144264 0)
(1.59304 -0.000134996 0)
(1.59304 -0.000126498 0)
(1.59305 -0.000118665 0)
(1.59306 -0.000111407 0)
(1.59307 -0.000104652 0)
(1.59307 -9.83456e-05 0)
(1.59308 -9.24493e-05 0)
(1.59309 -8.69336e-05 0)
(1.59309 -8.17739e-05 0)
(1.5931 -7.69474e-05 0)
(1.5931 -7.24307e-05 0)
(1.59311 -6.82004e-05 0)
(1.59311 -6.42324e-05 0)
(1.59312 -6.05041e-05 0)
(1.59312 -5.69944e-05 0)
(1.59313 -5.36848e-05 0)
(1.75306 -0.000568422 0)
(1.75294 -0.000522615 0)
(1.75285 -0.000479326 0)
(1.75276 -0.000439656 0)
(1.75269 -0.000403709 0)
(1.75263 -0.000371049 0)
(1.75257 -0.000341249 0)
(1.75253 -0.000314114 0)
(1.75249 -0.000289604 0)
(1.75245 -0.000267649 0)
(1.75242 -0.000248038 0)
(1.75239 -0.000230446 0)
(1.75237 -0.000214519 0)
(1.75235 -0.000199963 0)
(1.75233 -0.000186577 0)
(1.75231 -0.000174244 0)
(1.7523 -0.000162892 0)
(1.75228 -0.000152464 0)
(1.75227 -0.000142891 0)
(1.75226 -0.000134089 0)
(1.75225 -0.000125966 0)
(1.75224 -0.000118431 0)
(1.75223 -0.000111406 0)
(1.75222 -0.000104831 0)
(1.75221 -9.86617e-05 0)
(1.75221 -9.28675e-05 0)
(1.7522 -8.74258e-05 0)
(1.75219 -8.23176e-05 0)
(1.75219 -7.75241e-05 0)
(1.75218 -7.30254e-05 0)
(1.75218 -6.88003e-05 0)
(1.75217 -6.4827e-05 0)
(1.75217 -6.10843e-05 0)
(1.75217 -5.75526e-05 0)
(1.75216 -5.42149e-05 0)
(1.87312 -0.000424555 0)
(1.87297 -0.000394365 0)
(1.87284 -0.000365257 0)
(1.87272 -0.000338206 0)
(1.87261 -0.000313418 0)
(1.87251 -0.000290633 0)
(1.87242 -0.000269564 0)
(1.87234 -0.00025011 0)
(1.87227 -0.000232311 0)
(1.8722 -0.000216187 0)
(1.87214 -0.000201645 0)
(1.87208 -0.000188475 0)
(1.87203 -0.000176432 0)
(1.87198 -0.000165304 0)
(1.87194 -0.000154956 0)
(1.8719 -0.000145318 0)
(1.87186 -0.000136361 0)
(1.87183 -0.000128062 0)
(1.87179 -0.000120384 0)
(1.87176 -0.000113276 0)
(1.87173 -0.000106671 0)
(1.87171 -0.000100506 0)
(1.87168 -9.47227e-05 0)
(1.87166 -8.92778e-05 0)
(1.87164 -8.41415e-05 0)
(1.87162 -7.92941e-05 0)
(1.8716 -7.47218e-05 0)
(1.87158 -7.04133e-05 0)
(1.87156 -6.6356e-05 0)
(1.87155 -6.25359e-05 0)
(1.87153 -5.8937e-05 0)
(1.87152 -5.55427e-05 0)
(1.8715 -5.23363e-05 0)
(1.87149 -4.93025e-05 0)
(1.87148 -4.64276e-05 0)
(1.95318 -0.00026022 0)
(1.95302 -0.000243114 0)
(1.95287 -0.000226436 0)
(1.95273 -0.000210831 0)
(1.9526 -0.000196471 0)
(1.95248 -0.000183211 0)
(1.95237 -0.000170869 0)
(1.95227 -0.000159385 0)
(1.95218 -0.000148796 0)
(1.95209 -0.00013914 0)
(1.95201 -0.000130378 0)
(1.95194 -0.000122395 0)
(1.95186 -0.000115044 0)
(1.9518 -0.000108197 0)
(1.95174 -0.000101775 0)
(1.95168 -9.57442e-05 0)
(1.95162 -9.00949e-05 0)
(1.95157 -8.48235e-05 0)
(1.95153 -7.9916e-05 0)
(1.95148 -7.5345e-05 0)
(1.95144 -7.10737e-05 0)
(1.9514 -6.70637e-05 0)
(1.95136 -6.32815e-05 0)
(1.95133 -5.97021e-05 0)
(1.95129 -5.6309e-05 0)
(1.95126 -5.30925e-05 0)
(1.95123 -5.00461e-05 0)
(1.9512 -4.71643e-05 0)
(1.95118 -4.44407e-05 0)
(1.95115 -4.18672e-05 0)
(1.95113 -3.94341e-05 0)
(1.95111 -3.71313e-05 0)
(1.95109 -3.49483e-05 0)
(1.95107 -3.28755e-05 0)
(1.95105 -3.09041e-05 0)
(1.99322 -8.74594e-05 0)
(1.99305 -8.19226e-05 0)
(1.99289 -7.64905e-05 0)
(1.99275 -7.13857e-05 0)
(1.99261 -6.66778e-05 0)
(1.99248 -6.23268e-05 0)
(1.99237 -5.82724e-05 0)
(1.99225 -5.44904e-05 0)
(1.99215 -5.09903e-05 0)
(1.99206 -4.77846e-05 0)
(1.99196 -4.48628e-05 0)
(1.99188 -4.2189e-05 0)
(1.9918 -3.97159e-05 0)
(1.99172 -3.74018e-05 0)
(1.99165 -3.52207e-05 0)
(1.99159 -3.31622e-05 0)
(1.99152 -3.12245e-05 0)
(1.99147 -2.94072e-05 0)
(1.99141 -2.77064e-05 0)
(1.99136 -2.61133e-05 0)
(1.99131 -2.4616e-05 0)
(1.99126 -2.32021e-05 0)
(1.99122 -2.18608e-05 0)
(1.99117 -2.05843e-05 0)
(1.99113 -1.93678e-05 0)
(1.9911 -1.82083e-05 0)
(1.99106 -1.7104e-05 0)
(1.99103 -1.60529e-05 0)
(1.991 -1.50527e-05 0)
(1.99097 -1.41006e-05 0)
(1.99094 -1.3193e-05 0)
(1.99091 -1.23264e-05 0)
(1.99089 -1.1497e-05 0)
(1.99086 -1.07014e-05 0)
(1.99084 -9.93661e-06 0)
(1.99322 8.75522e-05 0)
(1.99305 8.1991e-05 0)
(1.99289 7.65592e-05 0)
(1.99275 7.14886e-05 0)
(1.99261 6.68293e-05 0)
(1.99248 6.25171e-05 0)
(1.99237 5.84846e-05 0)
(1.99226 5.47168e-05 0)
(1.99215 5.12369e-05 0)
(1.99206 4.80656e-05 0)
(1.99196 4.51923e-05 0)
(1.99188 4.25764e-05 0)
(1.9918 4.01651e-05 0)
(1.99172 3.79134e-05 0)
(1.99165 3.57937e-05 0)
(1.99159 3.37962e-05 0)
(1.99152 3.19207e-05 0)
(1.99147 3.01691e-05 0)
(1.99141 2.85396e-05 0)
(1.99136 2.7025e-05 0)
(1.99131 2.56138e-05 0)
(1.99126 2.42936e-05 0)
(1.99122 2.30528e-05 0)
(1.99117 2.1883e-05 0)
(1.99113 2.07788e-05 0)
(1.9911 1.97375e-05 0)
(1.99106 1.87579e-05 0)
(1.99103 1.78392e-05 0)
(1.991 1.69804e-05 0)
(1.99097 1.61797e-05 0)
(1.99094 1.54345e-05 0)
(1.99091 1.47421e-05 0)
(1.99089 1.40992e-05 0)
(1.99086 1.35031e-05 0)
(1.99084 1.29508e-05 0)
(1.95318 0.000260307 0)
(1.95302 0.000243183 0)
(1.95287 0.000226509 0)
(1.95273 0.000210935 0)
(1.9526 0.000196616 0)
(1.95248 0.000183388 0)
(1.95237 0.000171067 0)
(1.95227 0.000159601 0)
(1.95218 0.000149037 0)
(1.95209 0.000139417 0)
(1.95201 0.000130701 0)
(1.95194 0.000122771 0)
(1.95186 0.000115476 0)
(1.9518 0.000108687 0)
(1.95174 0.000102324 0)
(1.95168 9.6352e-05 0)
(1.95163 9.07644e-05 0)
(1.95157 8.55578e-05 0)
(1.95153 8.072e-05 0)
(1.95148 7.62243e-05 0)
(1.95144 7.20349e-05 0)
(1.9514 6.81133e-05 0)
(1.95136 6.44261e-05 0)
(1.95133 6.09475e-05 0)
(1.95129 5.76614e-05 0)
(1.95126 5.45578e-05 0)
(1.95123 5.16312e-05 0)
(1.95121 4.88766e-05 0)
(1.95118 4.62889e-05 0)
(1.95115 4.38605e-05 0)
(1.95113 4.15831e-05 0)
(1.95111 3.94467e-05 0)
(1.95109 3.74419e-05 0)
(1.95107 3.55592e-05 0)
(1.95105 3.37906e-05 0)
(1.87312 0.000424634 0)
(1.87297 0.000394437 0)
(1.87284 0.000365337 0)
(1.87272 0.000338308 0)
(1.87261 0.000313548 0)
(1.87251 0.000290787 0)
(1.87242 0.000269739 0)
(1.87234 0.000250309 0)
(1.87227 0.00023254 0)
(1.8722 0.000216452 0)
(1.87214 0.000201951 0)
(1.87208 0.000188826 0)
(1.87203 0.00017683 0)
(1.87198 0.000165753 0)
(1.87194 0.000155458 0)
(1.8719 0.000145877 0)
(1.87186 0.000136979 0)
(1.87183 0.000128742 0)
(1.87179 0.00012113 0)
(1.87176 0.00011409 0)
(1.87173 0.00010756 0)
(1.87171 0.000101473 0)
(1.87168 9.57747e-05 0)
(1.87166 9.04203e-05 0)
(1.87164 8.53808e-05 0)
(1.87162 8.06363e-05 0)
(1.8716 7.61741e-05 0)
(1.87158 7.19824e-05 0)
(1.87156 6.80501e-05 0)
(1.87155 6.43631e-05 0)
(1.87153 6.09065e-05 0)
(1.87152 5.76637e-05 0)
(1.87151 5.46192e-05 0)
(1.87149 5.17577e-05 0)
(1.87148 4.90665e-05 0)
(1.75306 0.000568492 0)
(1.75294 0.00052269 0)
(1.75285 0.000479412 0)
(1.75276 0.000439754 0)
(1.75269 0.000403817 0)
(1.75263 0.000371172 0)
(1.75257 0.000341393 0)
(1.75253 0.000314289 0)
(1.75249 0.000289814 0)
(1.75245 0.000267894 0)
(1.75242 0.000248316 0)
(1.75239 0.000230757 0)
(1.75237 0.000214867 0)
(1.75235 0.000200352 0)
(1.75233 0.000187013 0)
(1.75231 0.000174731 0)
(1.7523 0.000163434 0)
(1.75228 0.000153064 0)
(1.75227 0.000143549 0)
(1.75226 0.000134808 0)
(1.75225 0.000126747 0)
(1.75224 0.000119279 0)
(1.75223 0.000112324 0)
(1.75222 0.000105827 0)
(1.75221 9.97399e-05 0)
(1.75221 9.40357e-05 0)
(1.7522 8.86894e-05 0)
(1.7522 8.36842e-05 0)
(1.75219 7.89991e-05 0)
(1.75219 7.46169e-05 0)
(1.75218 7.05141e-05 0)
(1.75218 6.6672e-05 0)
(1.75217 6.30674e-05 0)
(1.75217 5.96839e-05 0)
(1.75217 5.65025e-05 0)
(1.59309 0.000668599 0)
(1.59304 0.000605013 0)
(1.593 0.00054681 0)
(1.59298 0.000494763 0)
(1.59296 0.000448568 0)
(1.59295 0.000407447 0)
(1.59295 0.000370703 0)
(1.59295 0.000337912 0)
(1.59295 0.000308815 0)
(1.59295 0.000283135 0)
(1.59296 0.000260491 0)
(1.59297 0.000240422 0)
(1.59298 0.000222476 0)
(1.59298 0.000206284 0)
(1.59299 0.000191581 0)
(1.593 0.000178194 0)
(1.59301 0.000166005 0)
(1.59302 0.000154911 0)
(1.59303 0.00014481 0)
(1.59304 0.000135591 0)
(1.59305 0.000127144 0)
(1.59305 0.000119363 0)
(1.59306 0.000112162 0)
(1.59307 0.000105467 0)
(1.59308 9.92279e-05 0)
(1.59308 9.34044e-05 0)
(1.59309 8.79674e-05 0)
(1.5931 8.28917e-05 0)
(1.5931 7.81544e-05 0)
(1.59311 7.37319e-05 0)
(1.59311 6.96009e-05 0)
(1.59312 6.57379e-05 0)
(1.59312 6.21206e-05 0)
(1.59313 5.87287e-05 0)
(1.59313 5.55445e-05 0)
(1.3934 0.000689297 0)
(1.39345 0.000610408 0)
(1.39349 0.00054126 0)
(1.39354 0.000481529 0)
(1.39359 0.000430041 0)
(1.39365 0.000385409 0)
(1.3937 0.000346509 0)
(1.39375 0.000312569 0)
(1.39379 0.000283035 0)
(1.39384 0.000257395 0)
(1.39388 0.000235101 0)
(1.39392 0.000215589 0)
(1.39395 0.000198351 0)
(1.39399 0.000182974 0)
(1.39402 0.000169166 0)
(1.39406 0.000156718 0)
(1.39408 0.000145483 0)
(1.39411 0.000135334 0)
(1.39414 0.000126156 0)
(1.39416 0.000117829 0)
(1.39419 0.000110243 0)
(1.39421 0.00010329 0)
(1.39423 9.6887e-05 0)
(1.39425 9.09592e-05 0)
(1.39427 8.54577e-05 0)
(1.39429 8.03375e-05 0)
(1.3943 7.5573e-05 0)
(1.39432 7.11336e-05 0)
(1.39433 6.70015e-05 0)
(1.39435 6.31492e-05 0)
(1.39436 5.95597e-05 0)
(1.39437 5.62063e-05 0)
(1.39439 5.30736e-05 0)
(1.3944 5.01375e-05 0)
(1.39441 4.73871e-05 0)
(1.15427 0.000598076 0)
(1.15441 0.000516609 0)
(1.15454 0.000448631 0)
(1.15466 0.000392167 0)
(1.15477 0.000345031 0)
(1.15488 0.000305287 0)
(1.15497 0.000271482 0)
(1.15505 0.000242611 0)
(1.15513 0.00021794 0)
(1.1552 0.000196847 0)
(1.15527 0.00017874 0)
(1.15533 0.00016307 0)
(1.15539 0.000149363 0)
(1.15544 0.000137249 0)
(1.15549 0.000126458 0)
(1.15553 0.000116803 0)
(1.15558 0.000108144 0)
(1.15562 0.00010037 0)
(1.15565 9.33745e-05 0)
(1.15569 8.70604e-05 0)
(1.15572 8.13295e-05 0)
(1.15575 7.61003e-05 0)
(1.15578 7.12967e-05 0)
(1.1558 6.68649e-05 0)
(1.15583 6.27571e-05 0)
(1.15585 5.8945e-05 0)
(1.15587 5.53999e-05 0)
(1.15589 5.21059e-05 0)
(1.15591 4.9041e-05 0)
(1.15593 4.6192e-05 0)
(1.15595 4.35377e-05 0)
(1.15597 4.10655e-05 0)
(1.15598 3.8755e-05 0)
(1.156 3.65958e-05 0)
(1.15601 3.45706e-05 0)
(0.875962 0.00040111 0)
(0.876161 0.00033833 0)
(0.876336 0.000288338 0)
(0.87649 0.000248294 0)
(0.876626 0.000215799 0)
(0.876747 0.000189026 0)
(0.876855 0.000166694 0)
(0.876952 0.000147939 0)
(0.877039 0.000132143 0)
(0.877117 0.000118802 0)
(0.877189 0.000107466 0)
(0.877253 9.77375e-05 0)
(0.877313 8.92821e-05 0)
(0.877367 8.18494e-05 0)
(0.877418 7.52581e-05 0)
(0.877464 6.93865e-05 0)
(0.877507 6.41424e-05 0)
(0.877547 5.94544e-05 0)
(0.877584 5.52522e-05 0)
(0.877619 5.14726e-05 0)
(0.877651 4.80509e-05 0)
(0.877681 4.49345e-05 0)
(0.877709 4.20742e-05 0)
(0.877736 3.94368e-05 0)
(0.877761 3.69927e-05 0)
(0.877784 3.47258e-05 0)
(0.877806 3.2619e-05 0)
(0.877827 3.06638e-05 0)
(0.877846 2.88468e-05 0)
(0.877864 2.71605e-05 0)
(0.877882 2.55913e-05 0)
(0.877898 2.41317e-05 0)
(0.877913 2.27682e-05 0)
(0.877928 2.14947e-05 0)
(0.877941 2.03e-05 0)
(0.558595 0.000173742 0)
(0.558776 0.000143599 0)
(0.558929 0.000120574 0)
(0.55906 0.000102698 0)
(0.559174 8.85158e-05 0)
(0.559274 7.702e-05 0)
(0.559361 6.7556e-05 0)
(0.559439 5.96995e-05 0)
(0.559508 5.31585e-05 0)
(0.55957 4.76903e-05 0)
(0.559625 4.30828e-05 0)
(0.559676 3.91457e-05 0)
(0.559722 3.57317e-05 0)
(0.559764 3.27295e-05 0)
(0.559803 3.00699e-05 0)
(0.559839 2.77023e-05 0)
(0.559872 2.5596e-05 0)
(0.559902 2.37177e-05 0)
(0.55993 2.2042e-05 0)
(0.559957 2.05359e-05 0)
(0.559981 1.91754e-05 0)
(0.560004 1.79327e-05 0)
(0.560026 1.67922e-05 0)
(0.560046 1.57358e-05 0)
(0.560065 1.47576e-05 0)
(0.560082 1.38471e-05 0)
(0.560099 1.30038e-05 0)
(0.560115 1.22194e-05 0)
(0.560129 1.14943e-05 0)
(0.560143 1.08197e-05 0)
(0.560156 1.01954e-05 0)
(0.560168 9.61236e-06 0)
(0.56018 9.07053e-06 0)
(0.560191 8.56134e-06 0)
(0.560201 8.08605e-06 0)
(0.202099 1.58884e-05 0)
(0.20218 1.27682e-05 0)
(0.202248 1.05401e-05 0)
(0.202305 8.88766e-06 0)
(0.202354 7.61071e-06 0)
(0.202396 6.58997e-06 0)
(0.202433 5.75655e-06 0)
(0.202466 5.07363e-06 0)
(0.202494 4.51639e-06 0)
(0.20252 4.06141e-06 0)
(0.202543 3.68315e-06 0)
(0.202564 3.35961e-06 0)
(0.202583 3.07448e-06 0)
(0.202601 2.81968e-06 0)
(0.202617 2.59129e-06 0)
(0.202632 2.38863e-06 0)
(0.202645 2.20974e-06 0)
(0.202658 2.05273e-06 0)
(0.20267 1.91339e-06 0)
(0.202681 1.78856e-06 0)
(0.202691 1.67416e-06 0)
(0.2027 1.56846e-06 0)
(0.202709 1.46927e-06 0)
(0.202717 1.37679e-06 0)
(0.202725 1.29009e-06 0)
(0.202733 1.21001e-06 0)
(0.202739 1.13568e-06 0)
(0.202746 1.06765e-06 0)
(0.202752 1.00459e-06 0)
(0.202758 9.4676e-07 0)
(0.202763 8.92634e-07 0)
(0.202768 8.42514e-07 0)
(0.202773 7.94999e-07 0)
(0.202777 7.50662e-07 0)
(0.202782 7.08336e-07 0)
(0.202784 -6.57659e-07 0)
(0.202788 -6.19472e-07 0)
(0.202792 -5.83379e-07 0)
(0.202795 -5.49343e-07 0)
(0.202798 -5.17281e-07 0)
(0.202801 -4.87133e-07 0)
(0.202804 -4.58767e-07 0)
(0.202806 -4.32087e-07 0)
(0.202809 -4.06936e-07 0)
(0.202811 -3.83216e-07 0)
(0.560208 -7.4427e-06 0)
(0.560217 -7.0089e-06 0)
(0.560225 -6.59914e-06 0)
(0.560233 -6.21209e-06 0)
(0.56024 -5.84653e-06 0)
(0.560247 -5.50141e-06 0)
(0.560254 -5.17559e-06 0)
(0.56026 -4.86799e-06 0)
(0.560266 -4.57742e-06 0)
(0.560271 -4.30278e-06 0)
(0.877949 -1.86474e-05 0)
(0.877961 -1.75589e-05 0)
(0.877972 -1.65314e-05 0)
(0.877983 -1.55609e-05 0)
(0.877993 -1.46442e-05 0)
(0.878002 -1.37782e-05 0)
(0.878011 -1.29601e-05 0)
(0.878019 -1.21869e-05 0)
(0.878027 -1.14559e-05 0)
(0.878034 -1.07643e-05 0)
(1.15602 -3.16878e-05 0)
(1.15603 -2.98366e-05 0)
(1.15604 -2.80889e-05 0)
(1.15605 -2.6438e-05 0)
(1.15606 -2.48779e-05 0)
(1.15607 -2.34033e-05 0)
(1.15608 -2.20092e-05 0)
(1.15609 -2.06905e-05 0)
(1.15609 -1.94427e-05 0)
(1.1561 -1.8261e-05 0)
(1.39441 -4.33161e-05 0)
(1.39442 -4.07854e-05 0)
(1.39443 -3.83945e-05 0)
(1.39444 -3.61344e-05 0)
(1.39445 -3.39973e-05 0)
(1.39445 -3.19757e-05 0)
(1.39446 -3.00629e-05 0)
(1.39447 -2.82521e-05 0)
(1.39447 -2.65368e-05 0)
(1.39448 -2.4911e-05 0)
(1.59313 -5.05594e-05 0)
(1.59314 -4.76048e-05 0)
(1.59314 -4.48098e-05 0)
(1.59314 -4.21645e-05 0)
(1.59315 -3.96602e-05 0)
(1.59315 -3.72887e-05 0)
(1.59315 -3.50422e-05 0)
(1.59315 -3.29132e-05 0)
(1.59316 -3.08942e-05 0)
(1.59316 -2.89781e-05 0)
(1.75216 -5.10562e-05 0)
(1.75216 -4.80642e-05 0)
(1.75215 -4.52284e-05 0)
(1.75215 -4.25397e-05 0)
(1.75215 -3.99898e-05 0)
(1.75214 -3.75712e-05 0)
(1.75214 -3.52763e-05 0)
(1.75214 -3.30979e-05 0)
(1.75214 -3.10287e-05 0)
(1.75213 -2.90616e-05 0)
(1.87147 -4.36999e-05 0)
(1.87146 -4.11096e-05 0)
(1.87145 -3.86483e-05 0)
(1.87144 -3.63089e-05 0)
(1.87143 -3.40848e-05 0)
(1.87142 -3.197e-05 0)
(1.87141 -2.99584e-05 0)
(1.8714 -2.8044e-05 0)
(1.8714 -2.62209e-05 0)
(1.87139 -2.4483e-05 0)
(1.95103 -2.9027e-05 0)
(1.95101 -2.72377e-05 0)
(1.951 -2.5531e-05 0)
(1.95098 -2.39022e-05 0)
(1.95097 -2.23472e-05 0)
(1.95095 -2.08619e-05 0)
(1.95094 -1.94427e-05 0)
(1.95093 -1.80853e-05 0)
(1.95092 -1.6786e-05 0)
(1.95091 -1.55406e-05 0)
(1.99082 -9.20006e-06 0)
(1.9908 -8.48944e-06 0)
(1.99078 -7.80285e-06 0)
(1.99076 -7.13853e-06 0)
(1.99074 -6.49492e-06 0)
(1.99073 -5.87044e-06 0)
(1.99071 -5.26357e-06 0)
(1.9907 -4.6727e-06 0)
(1.99069 -4.09622e-06 0)
(1.99067 -3.53242e-06 0)
(1.99082 1.24405e-05 0)
(1.9908 1.19699e-05 0)
(1.99078 1.15378e-05 0)
(1.99076 1.11427e-05 0)
(1.99075 1.07838e-05 0)
(1.99073 1.046e-05 0)
(1.99071 1.01706e-05 0)
(1.9907 9.91451e-06 0)
(1.99069 9.69115e-06 0)
(1.99067 9.4994e-06 0)
(1.95103 3.21289e-05 0)
(1.95102 3.05685e-05 0)
(1.951 2.91042e-05 0)
(1.95099 2.77323e-05 0)
(1.95097 2.64488e-05 0)
(1.95096 2.52507e-05 0)
(1.95095 2.41343e-05 0)
(1.95093 2.30968e-05 0)
(1.95092 2.21345e-05 0)
(1.95091 2.12445e-05 0)
(1.87147 4.65338e-05 0)
(1.87146 4.41509e-05 0)
(1.87145 4.19093e-05 0)
(1.87144 3.9803e-05 0)
(1.87143 3.78254e-05 0)
(1.87143 3.59714e-05 0)
(1.87142 3.42351e-05 0)
(1.87141 3.26116e-05 0)
(1.8714 3.10948e-05 0)
(1.8714 2.968e-05 0)
(1.75216 5.35113e-05 0)
(1.75216 5.06961e-05 0)
(1.75216 4.80494e-05 0)
(1.75216 4.556e-05 0)
(1.75215 4.32226e-05 0)
(1.75215 4.10275e-05 0)
(1.75215 3.89702e-05 0)
(1.75215 3.70411e-05 0)
(1.75215 3.52361e-05 0)
(1.75214 3.35458e-05 0)
(1.59314 5.25525e-05 0)
(1.59314 4.974e-05 0)
(1.59315 4.70961e-05 0)
(1.59315 4.46115e-05 0)
(1.59315 4.22775e-05 0)
(1.59316 4.00864e-05 0)
(1.59316 3.80305e-05 0)
(1.59316 3.61025e-05 0)
(1.59317 3.42953e-05 0)
(1.59317 3.2602e-05 0)
(1.39442 4.48026e-05 0)
(1.39443 4.23777e-05 0)
(1.39444 4.00966e-05 0)
(1.39445 3.79564e-05 0)
(1.39445 3.59435e-05 0)
(1.39446 3.40566e-05 0)
(1.39447 3.22829e-05 0)
(1.39448 3.06218e-05 0)
(1.39448 2.90611e-05 0)
(1.39449 2.76007e-05 0)
(1.15602 3.26727e-05 0)
(1.15603 3.08884e-05 0)
(1.15605 2.92144e-05 0)
(1.15606 2.76397e-05 0)
(1.15607 2.61628e-05 0)
(1.15608 2.4774e-05 0)
(1.15609 2.34728e-05 0)
(1.1561 2.22496e-05 0)
(1.15611 2.11046e-05 0)
(1.15611 2.00286e-05 0)
(0.877954 1.91805e-05 0)
(0.877966 1.81273e-05 0)
(0.877978 1.71393e-05 0)
(0.877989 1.62093e-05 0)
(0.877999 1.53374e-05 0)
(0.878009 1.4517e-05 0)
(0.878018 1.37489e-05 0)
(0.878027 1.30266e-05 0)
(0.878036 1.23508e-05 0)
(0.878043 1.17152e-05 0)
(0.560211 7.63728e-06 0)
(0.56022 7.21763e-06 0)
(0.560229 6.82068e-06 0)
(0.560237 6.44987e-06 0)
(0.560245 6.09918e-06 0)
(0.560252 5.77234e-06 0)
(0.560259 5.46332e-06 0)
(0.560266 5.1759e-06 0)
(0.560272 4.90396e-06 0)
(0.560278 4.65136e-06 0)
(0.202786 6.68837e-07 0)
(0.202789 6.31125e-07 0)
(0.202793 5.9612e-07 0)
(0.202796 5.62777e-07 0)
(0.2028 5.32013e-07 0)
(0.202803 5.02715e-07 0)
(0.202806 4.75779e-07 0)
(0.202808 4.50037e-07 0)
(0.202811 4.26392e-07 0)
(0.202813 4.03665e-07 0)
(0.202813 -3.60774e-07 0)
(0.202815 -3.39543e-07 0)
(0.202817 -3.19393e-07 0)
(0.202819 -3.00296e-07 0)
(0.20282 -2.82144e-07 0)
(0.202822 -2.64936e-07 0)
(0.202823 -2.48577e-07 0)
(0.202825 -2.33076e-07 0)
(0.202826 -2.18342e-07 0)
(0.202827 -2.04388e-07 0)
(0.202828 -1.91121e-07 0)
(0.202829 -1.78558e-07 0)
(0.20283 -1.66606e-07 0)
(0.202831 -1.55286e-07 0)
(0.202832 -1.44508e-07 0)
(0.202833 -1.34299e-07 0)
(0.202833 -1.24573e-07 0)
(0.202834 -1.15364e-07 0)
(0.202835 -1.06588e-07 0)
(0.202835 -9.8288e-08 0)
(0.202836 -9.03826e-08 0)
(0.202836 -8.29172e-08 0)
(0.202836 -7.58251e-08 0)
(0.202837 -6.91578e-08 0)
(0.202837 -6.28375e-08 0)
(0.202837 -5.69471e-08 0)
(0.202837 -5.13927e-08 0)
(0.202837 -4.62459e-08 0)
(0.202838 -4.14087e-08 0)
(0.202838 -3.69457e-08 0)
(0.202838 -3.27368e-08 0)
(0.202838 -2.88408e-08 0)
(0.202838 -2.51203e-08 0)
(0.202838 -2.16723e-08 0)
(0.202838 -1.84112e-08 0)
(0.560277 -4.04291e-06 0)
(0.560281 -3.79682e-06 0)
(0.560286 -3.56347e-06 0)
(0.56029 -3.34203e-06 0)
(0.560294 -3.13164e-06 0)
(0.560298 -2.93163e-06 0)
(0.560301 -2.74127e-06 0)
(0.560305 -2.56003e-06 0)
(0.560308 -2.38728e-06 0)
(0.560311 -2.2226e-06 0)
(0.560313 -2.06544e-06 0)
(0.560316 -1.91545e-06 0)
(0.560318 -1.77215e-06 0)
(0.56032 -1.63524e-06 0)
(0.560322 -1.50431e-06 0)
(0.560324 -1.37909e-06 0)
(0.560325 -1.25921e-06 0)
(0.560327 -1.14443e-06 0)
(0.560328 -1.03442e-06 0)
(0.560329 -9.28969e-07 0)
(0.56033 -8.27781e-07 0)
(0.560331 -7.30709e-07 0)
(0.560332 -6.37499e-07 0)
(0.560332 -5.48067e-07 0)
(0.560333 -4.62219e-07 0)
(0.560333 -3.79925e-07 0)
(0.560334 -3.01034e-07 0)
(0.560334 -2.25549e-07 0)
(0.560334 -1.53318e-07 0)
(0.560334 -8.43379e-08 0)
(0.560334 -1.84471e-08 0)
(0.560334 4.43563e-08 0)
(0.560333 1.04216e-07 0)
(0.560333 1.61053e-07 0)
(0.560333 2.14919e-07 0)
(0.878041 -1.01093e-05 0)
(0.878047 -9.48853e-06 0)
(0.878053 -8.89962e-06 0)
(0.878058 -8.34037e-06 0)
(0.878064 -7.80882e-06 0)
(0.878069 -7.30314e-06 0)
(0.878073 -6.82166e-06 0)
(0.878077 -6.36283e-06 0)
(0.878081 -5.92522e-06 0)
(0.878085 -5.50751e-06 0)
(0.878088 -5.1085e-06 0)