/*--------------------------------*- C++ -*----------------------------------*\
| =========                 |                                                 |
| \\      /  F ield         | OpenFOAM: The Open Source CFD Toolbox           |
|  \\    /   O peration     | Version:  2406                                  |
|   \\  /    A nd           | Website:  www.openfoam.com                      |
|    \\/     M anipulation  |                                                 |
\*---------------------------------------------------------------------------*/
FoamFile
{
    version     2.0;
    format      ascii;
    arch        "LSB;label=32;scalar=64";
    class       volScalarField;
    location    "142";
    object      p;
}
// * * * * * * * * * * * * * * * * * * * * * * * * * * * * * * * * * * * * * //

dimensions      [0 2 -2 0 0 0 0];

internalField   nonuniform List<scalar> 
1916
(
3.76046
3.76164
3.76249
3.76285
3.76301
3.76308
3.76306
3.76296
3.7628
3.7626
3.76237
3.76211
3.76182
3.76152
3.7612
3.76087
3.76053
3.76018
3.75983
3.75947
3.7591
3.75873
3.75836
3.758
3.75763
3.75728
3.75693
3.7566
3.75629
3.75602
3.75578
3.75559
3.75547
3.75544
3.75551
3.75571
3.75606
3.75659
3.75733
3.75828
3.75944
3.76078
3.76225
3.76377
3.76524
3.76652
3.76725
3.76152
3.76204
3.76257
3.76287
3.763
3.76305
3.76302
3.76292
3.76277
3.76257
3.76234
3.76208
3.7618
3.7615
3.76118
3.76086
3.76052
3.76017
3.75981
3.75945
3.75909
3.75872
3.75835
3.75798
3.75761
3.75725
3.7569
3.75657
3.75625
3.75596
3.75571
3.75551
3.75537
3.75532
3.75537
3.75555
3.7559
3.75644
3.75721
3.75823
3.75949
3.76099
3.76264
3.76434
3.76596
3.76743
3.7684
3.76243
3.76238
3.76256
3.7628
3.76294
3.76297
3.76294
3.76285
3.7627
3.76252
3.76229
3.76204
3.76176
3.76147
3.76115
3.76083
3.76049
3.76014
3.75979
3.75942
3.75905
3.75868
3.7583
3.75792
3.75754
3.75716
3.75679
3.75642
3.75606
3.75572
3.7554
3.75511
3.75486
3.75466
3.75454
3.75452
3.75463
3.75492
3.75544
3.75624
3.75738
3.75891
3.76083
3.76305
3.76544
3.76783
3.76951
3.76314
3.76281
3.76274
3.76286
3.76295
3.76295
3.76288
3.76278
3.76263
3.76244
3.76222
3.76197
3.7617
3.76141
3.7611
3.76078
3.76044
3.76009
3.75973
3.75936
3.75898
3.7586
3.7582
3.7578
3.75739
3.75697
3.75654
3.7561
3.75565
3.75518
3.7547
3.7542
3.75368
3.75315
3.7526
3.75204
3.75149
3.75098
3.75057
3.75035
3.75044
3.75105
3.75236
3.75462
3.75781
3.76162
3.7641
3.76371
3.76325
3.76299
3.76297
3.76298
3.76294
3.76284
3.76271
3.76256
3.76237
3.76215
3.7619
3.76163
3.76134
3.76104
3.76071
3.76037
3.76002
3.75965
3.75927
3.75888
3.75848
3.75806
3.75762
3.75716
3.75667
3.75616
3.75561
3.755
3.75434
3.75361
3.75277
3.75182
3.75072
3.74943
3.74791
3.74614
3.74408
3.74173
3.73911
3.73633
3.73363
3.73136
3.73018
3.73032
3.73207
3.73046
3.76417
3.76364
3.76324
3.76311
3.76305
3.76295
3.76282
3.76267
3.7625
3.7623
3.76208
3.76183
3.76156
3.76127
3.76096
3.76064
3.7603
3.75994
3.75956
3.75917
3.75876
3.75833
3.75787
3.75739
3.75686
3.7563
3.75567
3.75498
3.75418
3.75327
3.7522
3.75093
3.74939
3.74751
3.7452
3.74234
3.73877
3.73433
3.72881
3.72199
3.71364
3.70361
3.69165
3.67797
3.66079
3.63938
3.59197
3.76454
3.76396
3.76348
3.76325
3.76313
3.76299
3.76282
3.76264
3.76245
3.76224
3.76201
3.76176
3.76149
3.7612
3.76089
3.76056
3.76022
3.75985
3.75947
3.75906
3.75863
3.75817
3.75767
3.75714
3.75655
3.75589
3.75514
3.75429
3.75329
3.75209
3.75065
3.74888
3.74668
3.74392
3.74042
3.73593
3.73015
3.72267
3.71292
3.70014
3.68326
3.66087
3.6302
3.58911
3.52442
3.44658
3.15818
3.7648
3.7642
3.76366
3.76337
3.7632
3.76302
3.76282
3.76262
3.76241
3.7622
3.76196
3.76171
3.76143
3.76114
3.76083
3.7605
3.76014
3.75977
3.75938
3.75895
3.7585
3.75802
3.75749
3.7569
3.75625
3.7555
3.75465
3.75364
3.75244
3.75098
3.74919
3.74694
3.7441
3.74047
3.73578
3.72965
3.72159
3.71086
3.69645
3.67684
3.64961
3.61115
3.55348
3.46545
3.29382
2.97105
1.84164
3.76497
3.76436
3.76379
3.76346
3.76325
3.76305
3.76282
3.76261
3.76239
3.76216
3.76192
3.76167
3.76139
3.76109
3.76078
3.76044
3.76009
3.75971
3.7593
3.75887
3.7584
3.7579
3.75734
3.75671
3.75601
3.7552
3.75426
3.75313
3.75178
3.75011
3.74804
3.74542
3.74206
3.73773
3.73207
3.7246
3.71463
3.70115
3.68269
3.65699
3.62035
3.56681
3.48457
3.35379
3.12293
2.72138
2.00937
3.76506
3.76443
3.76385
3.7635
3.76328
3.76306
3.76282
3.7626
3.76237
3.76214
3.7619
3.76164
3.76136
3.76106
3.76075
3.76041
3.76005
3.75967
3.75926
3.75882
3.75834
3.75782
3.75725
3.7566
3.75587
3.75503
3.75403
3.75284
3.7514
3.74962
3.74739
3.74456
3.74092
3.7362
3.72999
3.72176
3.71069
3.69562
3.6748
3.64552
3.60343
3.54147
3.44774
3.3027
3.07623
2.72098
2.22092
3.76505
3.76443
3.76384
3.7635
3.76327
3.76305
3.76282
3.76259
3.76236
3.76213
3.76189
3.76163
3.76135
3.76105
3.76073
3.7604
3.76004
3.75965
3.75924
3.7588
3.75832
3.7578
3.75723
3.75658
3.75585
3.755
3.754
3.75281
3.75137
3.74958
3.74735
3.74451
3.74087
3.73614
3.72993
3.72167
3.71058
3.69549
3.67462
3.64527
3.60306
3.5409
3.44678
3.30101
3.0733
2.71571
2.21291
3.76495
3.76433
3.76376
3.76344
3.76323
3.76302
3.7628
3.76258
3.76236
3.76214
3.7619
3.76164
3.76136
3.76106
3.76074
3.76041
3.76005
3.75967
3.75926
3.75882
3.75835
3.75784
3.75728
3.75665
3.75594
3.75513
3.75418
3.75305
3.75168
3.75001
3.74792
3.74528
3.74192
3.73756
3.73188
3.72436
3.71434
3.70078
3.6822
3.65631
3.61936
3.56528
3.48204
3.34928
3.11423
2.70334
1.97417
3.76476
3.76416
3.76362
3.76334
3.76316
3.76298
3.76278
3.76258
3.76237
3.76215
3.76192
3.76166
3.76138
3.76109
3.76077
3.76044
3.76008
3.7597
3.7593
3.75888
3.75842
3.75793
3.75739
3.7568
3.75614
3.75539
3.75452
3.7535
3.75229
3.75081
3.749
3.74673
3.74387
3.7402
3.73547
3.72929
3.72114
3.71031
3.69574
3.67589
3.64828
3.60921
3.55042
3.46041
3.28381
2.94986
1.77236
3.76448
3.76391
3.76342
3.7632
3.76308
3.76293
3.76276
3.76258
3.76239
3.76218
3.76195
3.7617
3.76142
3.76113
3.76082
3.76048
3.76013
3.75976
3.75937
3.75896
3.75852
3.75805
3.75755
3.757
3.7564
3.75573
3.75497
3.7541
3.75308
3.75187
3.75041
3.74861
3.74638
3.74358
3.74002
3.73548
3.72962
3.72202
3.71211
3.69912
3.68191
3.65902
3.62756
3.58528
3.51837
3.43789
3.13772
3.76411
3.76358
3.76318
3.76304
3.76299
3.76289
3.76275
3.7626
3.76243
3.76223
3.762
3.76175
3.76148
3.76119
3.76087
3.76054
3.76019
3.75983
3.75945
3.75905
3.75863
3.75818
3.75772
3.75722
3.75669
3.75611
3.75547
3.75475
3.75394
3.753
3.75191
3.75061
3.74904
3.74712
3.74476
3.74184
3.7382
3.73366
3.72801
3.72102
3.71244
3.7021
3.68973
3.6755
3.65751
3.63504
3.58531
3.76364
3.76318
3.76291
3.7629
3.76291
3.76286
3.76276
3.76263
3.76248
3.76229
3.76206
3.76181
3.76154
3.76125
3.76093
3.7606
3.76026
3.7599
3.75952
3.75914
3.75873
3.75832
3.75788
3.75743
3.75696
3.75646
3.75593
3.75535
3.75473
3.75405
3.75328
3.75242
3.75143
3.75029
3.74896
3.74739
3.74556
3.74343
3.74098
3.73826
3.73535
3.7325
3.73006
3.72871
3.72869
3.73031
3.72849
3.76306
3.76273
3.76266
3.76278
3.76287
3.76287
3.7628
3.76269
3.76254
3.76236
3.76213
3.76188
3.7616
3.76131
3.76099
3.76066
3.76032
3.75996
3.75959
3.75921
3.75882
3.75843
3.75802
3.7576
3.75718
3.75674
3.75629
3.75583
3.75536
3.75487
3.75436
3.75383
3.75328
3.75271
3.75212
3.75152
3.75092
3.75036
3.7499
3.74962
3.74966
3.75021
3.75149
3.75373
3.75694
3.7608
3.76332
3.76235
3.76229
3.76248
3.76272
3.76285
3.76289
3.76286
3.76276
3.76261
3.76242
3.7622
3.76194
3.76166
3.76136
3.76104
3.76071
3.76036
3.76001
3.75964
3.75927
3.75889
3.7585
3.75811
3.75772
3.75732
3.75692
3.75653
3.75614
3.75576
3.7554
3.75505
3.75473
3.75445
3.75422
3.75407
3.75401
3.75409
3.75435
3.75483
3.75561
3.75673
3.75826
3.76018
3.76243
3.76486
3.76729
3.769
3.76144
3.76195
3.76248
3.76278
3.76292
3.76296
3.76293
3.76283
3.76267
3.76247
3.76224
3.76198
3.76169
3.76139
3.76107
3.76073
3.76039
3.76003
3.75967
3.75929
3.75892
3.75854
3.75815
3.75777
3.75739
3.75701
3.75664
3.75629
3.75595
3.75564
3.75536
3.75513
3.75497
3.75489
3.75491
3.75506
3.75538
3.7559
3.75665
3.75765
3.75891
3.7604
3.76207
3.76378
3.76542
3.76692
3.7679
3.76038
3.76156
3.7624
3.76277
3.76293
3.76299
3.76297
3.76287
3.76271
3.76251
3.76227
3.762
3.76172
3.76141
3.76109
3.76075
3.7604
3.76004
3.75968
3.75931
3.75893
3.75855
3.75817
3.75779
3.75741
3.75704
3.75667
3.75632
3.75599
3.75569
3.75543
3.75522
3.75507
3.75501
3.75505
3.75522
3.75555
3.75606
3.75678
3.75771
3.75886
3.76021
3.76168
3.76322
3.7647
3.76599
3.76674
-0.715702
-0.626379
-0.0748562
0.0683587
0.0026219
-0.0338584
0.826021
0.344998
0.312018
0.239453
0.0993526
0.0110882
1.4287
0.68242
0.329712
0.199922
0.0931767
0.00144115
1.41274
0.656825
0.298008
0.162196
0.0446448
-0.060544
0.753889
0.253402
0.220328
0.143965
-0.0186684
-0.142386
-0.921623
-0.855367
-0.262744
-0.105002
-0.201759
-0.279915
-0.00267222
-0.00275987
-0.00283606
-0.00288332
-0.00290358
-0.00289251
-0.00284754
-0.00277136
-0.00267125
-0.00255686
-0.00243723
-0.00231808
-0.00220022
-0.00207944
-0.00194799
-0.00179701
-0.00161927
-0.00141139
-0.00117476
-0.000914798
-0.000638598
-0.000352684
-6.28071e-05
0.000225164
0.000504975
0.000770187
0.00101492
0.00123426
0.00142465
0.0015839
0.00171113
0.00180653
0.00187122
0.00190697
0.00191606
0.00190054
0.00186194
0.00180169
0.0017212
0.00162103
0.0015003
0.00135727
0.00119007
0.000994798
0.000770681
0.000527345
0.000225547
-0.00254221
-0.00264203
-0.00272474
-0.00278419
-0.0028225
-0.00283033
-0.00280181
-0.00273747
-0.00264353
-0.00252977
-0.00240675
-0.00228283
-0.00216183
-0.002042
-0.00191667
-0.00177622
-0.0016111
-0.00141502
-0.00118755
-0.00093418
-0.000662941
-0.000381134
-9.4639e-05
0.0001909
0.000469102
0.000733505
0.000978899
0.00120012
0.00139294
0.0015547
0.00168455
0.00178306
0.00185081
0.00188919
0.00190054
0.00188648
0.00184862
0.00178927
0.00170975
0.00160945
0.00148694
0.0013428
0.00117628
0.000980759
0.000750986
0.000500316
0.000207288
-0.00255714
-0.0026685
-0.00275795
-0.00283021
-0.00288315
-0.00290073
-0.00287348
-0.00280005
-0.00268682
-0.00254677
-0.00239628
-0.00225115
-0.00212173
-0.00200961
-0.00190618
-0.0017954
-0.00165887
-0.00148296
-0.00126452
-0.00101111
-0.000734855
-0.000447554
-0.000157777
0.000130461
0.000414104
0.000686943
0.000941891
0.00117299
0.00137418
0.00154323
0.00168012
0.00178474
0.00185635
0.00189684
0.00190819
0.00189244
0.00185501
0.00179447
0.00170961
0.0016024
0.00147667
0.00133034
0.00115692
0.000965376
0.000744782
0.000449674
0.000192444
-0.00301544
-0.00309399
-0.00314838
-0.00320103
-0.00323589
-0.00322847
-0.00316457
-0.00303919
-0.00285879
-0.00264291
-0.00242054
-0.00222263
-0.00207312
-0.00197899
-0.00192526
-0.00187943
-0.00180211
-0.0016617
-0.00144854
-0.00117764
-0.000876984
-0.000570505
-0.000268844
3.01855e-05
0.000329526
0.000623416
0.000901857
0.00115539
0.00137668
0.00156363
0.00171549
0.00183223
0.00191164
0.00195244
0.00195974
0.00194128
0.00190267
0.00183453
0.0017311
0.00160759
0.00148243
0.00133559
0.00113761
0.000939394
0.000765257
0.000468142
0.000155882
-0.00439096
-0.00420814
-0.00404308
-0.00397112
-0.00392151
-0.00383848
-0.00369183
-0.00346628
-0.00316482
-0.00281446
-0.00246353
-0.00216929
-0.00198365
-0.00192553
-0.00196664
-0.00204145
-0.00206943
-0.00198487
-0.00176768
-0.00145111
-0.00109755
-0.000755783
-0.000436384
-0.000122465
0.000201368
0.000532369
0.000853876
0.00114757
0.00140464
0.00162454
0.00180416
0.00194061
0.00203236
0.00207574
0.00207723
0.00205321
0.00200638
0.00191837
0.00177832
0.00162169
0.0014885
0.00133151
0.00109581
0.000886377
0.000763921
0.000467447
7.81535e-05
-0.00789577
-0.00623157
-0.00523408
-0.00485685
-0.00466781
-0.00448157
-0.00423613
-0.00389827
-0.00345849
-0.00294617
-0.00243207
-0.00201653
-0.00180123
-0.00182312
-0.00202487
-0.00229148
-0.0024822
-0.00247887
-0.00224008
-0.00182557
-0.00136328
-0.000960001
-0.000629575
-0.000316117
3.1443e-05
0.000416448
0.000804757
0.00116155
0.00147423
0.00174544
0.00196986
0.00213624
0.00224361
0.00229331
0.00228831
0.00224882
0.00217802
0.00205439
0.00186547
0.00166135
0.0014901
0.00128888
0.00100728
0.00079715
0.000708703
0.000398186
-4.11289e-05
-0.0141306
-0.00664034
-0.00436084
-0.00422291
-0.00408334
-0.00391421
-0.00375164
-0.00348783
-0.00308133
-0.0025775
-0.00207837
-0.00171363
-0.00157836
-0.00171334
-0.00209186
-0.0025796
-0.00296889
-0.00305847
-0.00275675
-0.0021593
-0.00151593
-0.00104719
-0.000763191
-0.000516684
-0.000176371
0.000275701
0.000765792
0.00121644
0.00160125
0.00193396
0.00221695
0.00242646
0.00255369
0.00261072
0.00259775
0.00252915
0.00241367
0.00223686
0.00199351
0.00172701
0.00147364
0.00118259
0.000842843
0.000618762
0.000525305
0.000196367
-0.000196651
-0.0154901
-0.00582702
-0.00641264
-0.00754235
-0.00717626
-0.0065872
-0.00620637
-0.00581191
-0.0052775
-0.00463998
-0.00399351
-0.00346204
-0.0031827
-0.00320864
-0.00346683
-0.00378923
-0.00394122
-0.00371339
-0.00305575
-0.00215854
-0.00135849
-0.000889626
-0.000755566
-0.00070047
-0.00042958
0.000130045
0.00079677
0.00136755
0.00181022
0.00218639
0.00252809
0.0027923
0.00294173
0.00299813
0.00297326
0.00286809
0.00269634
0.00245198
0.00213849
0.00178508
0.00141386
0.00100962
0.000603261
0.000332321
0.000179208
-0.000134728
-0.000368728
-0.00564777
-0.00361509
-0.00519709
-0.00672434
-0.00604069
-0.00470652
-0.00370947
-0.00293406
-0.00215056
-0.00134706
-0.000611222
-4.29856e-05
0.000260607
0.000229846
-0.000152618
-0.000807328
-0.00151885
-0.00200709
-0.0020965
-0.00185211
-0.00154957
-0.00145425
-0.00150703
-0.00136134
-0.000773118
0.000124729
0.000983741
0.00159482
0.00200588
0.00239873
0.00282478
0.00317198
0.00334714
0.00338419
0.00333692
0.0031991
0.0029752
0.0026603
0.00226079
0.00180094
0.00130204
0.000781181
0.000292859
-6.03625e-05
-0.000294063
-0.000549778
-0.000529345
-0.0424901
-0.0541152
-0.0585789
-0.0619134
-0.0619149
-0.0586401
-0.0538133
-0.0484092
-0.0426395
-0.0366702
-0.0307939
-0.0252935
-0.0203685
-0.0161356
-0.0126309
-0.00979488
-0.00747551
-0.00548937
-0.00371995
-0.00218471
-0.00100909
-0.000304791
-2.01938e-05
8.46261e-05
0.000282319
0.000662691
0.00106151
0.00136413
0.00175082
0.00234168
0.00296883
0.00341648
0.00360332
0.0036102
0.00354521
0.00340523
0.00316053
0.00279416
0.00231497
0.00175366
0.00114315
0.000516732
-7.07616e-05
-0.000542855
-0.000859539
-0.000990663
-0.000663411
-0.114815
-0.130301
-0.135739
-0.140274
-0.14129
-0.138241
-0.133022
-0.126701
-0.119311
-0.110899
-0.101794
-0.0923773
-0.0829098
-0.0735084
-0.0641936
-0.0549614
-0.0458852
-0.0371751
-0.0291517
-0.0221168
-0.0162282
-0.0114508
-0.00760537
-0.00447094
-0.00188779
0.00016768
0.0016121
0.00244205
0.0028626
0.00311223
0.0032827
0.00335264
0.00336857
0.00341288
0.00346094
0.00340367
0.00317634
0.00278666
0.00226424
0.0016493
0.000978305
0.000287818
-0.000374641
-0.000933073
-0.00127909
-0.00124756
-0.000670424
-0.189367
-0.19802
-0.204021
-0.209571
-0.209997
-0.206604
-0.20203
-0.196854
-0.190657
-0.18334
-0.175208
-0.166597
-0.157625
-0.148121
-0.137712
-0.12605
-0.11313
-0.0994859
-0.0860507
-0.0736749
-0.0626959
-0.05281
-0.0432942
-0.0335157
-0.0234785
-0.0139394
-0.00595324
-0.000232414
0.00317976
0.00478251
0.00524704
0.00511456
0.00473034
0.00428132
0.00384133
0.00342219
0.00300535
0.00256511
0.0020644
0.00149175
0.00085705
0.000184424
-0.000482665
-0.0010513
-0.00139983
-0.00125278
-0.000674396
-0.287945
-0.273775
-0.274572
-0.279285
-0.27934
-0.276529
-0.273191
-0.269316
-0.264305
-0.25812
-0.251238
-0.244212
-0.237236
-0.229886
-0.221208
-0.210142
-0.196245
-0.180333
-0.164254
-0.149856
-0.137843
-0.127189
-0.115331
-0.0996103
-0.0791927
-0.0557738
-0.0326309
-0.0129612
0.00135509
0.0100329
0.0139564
0.0145448
0.013228
0.0111422
0.00902195
0.00720103
0.00571527
0.00448024
0.0034028
0.00242915
0.00153008
0.000694752
-7.0065e-05
-0.000666951
-0.00106438
-0.000853372
-0.000727766
-0.297716
-0.283269
-0.278588
-0.279055
-0.279432
-0.279671
-0.280111
-0.280331
-0.279778
-0.278304
-0.276425
-0.275056
-0.274712
-0.274816
-0.273663
-0.268986
-0.259447
-0.246092
-0.23223
-0.221529
-0.215938
-0.213797
-0.20916
-0.194736
-0.166593
-0.12642
-0.0803004
-0.0355759
0.00189783
0.0289182
0.0448937
0.0512289
0.0504637
0.0454021
0.0384341
0.0311954
0.0245825
0.0189664
0.0143974
0.0107523
0.00783914
0.0054918
0.00357179
0.00213642
0.000975444
0.00101223
-0.000987031
-0.281885
-0.279876
-0.278396
-0.27795
-0.278215
-0.278811
-0.279439
-0.279867
-0.279849
-0.279269
-0.278693
-0.279328
-0.282142
-0.286925
-0.291602
-0.292582
-0.287163
-0.276498
-0.265796
-0.261257
-0.26744
-0.282876
-0.296664
-0.293975
-0.265145
-0.210269
-0.13799
-0.0603769
0.0116146
0.0701519
0.111083
0.133861
0.140837
0.135986
0.123607
0.107431
0.0902676
0.0739228
0.0593346
0.0468009
0.0362498
0.0274703
0.0201776
0.014324
0.0093153
0.00674474
-0.000657086
-0.276038
-0.276024
-0.276057
-0.276327
-0.276919
-0.277777
-0.278677
-0.279305
-0.279325
-0.278695
-0.278166
-0.279064
-0.282351
-0.288175
-0.294702
-0.297636
-0.292997
-0.281477
-0.269733
-0.266901
-0.28237
-0.317128
-0.354853
-0.371187
-0.348549
-0.284104
-0.188396
-0.0774388
0.0333495
0.131296
0.207475
0.257686
0.282392
0.285402
0.272114
0.248171
0.218618
0.18734
0.156907
0.128764
0.103549
0.0813989
0.0621163
0.0455303
0.0308615
0.019335
0.00335173
-0.273985
-0.274217
-0.274494
-0.274857
-0.275371
-0.276078
-0.276938
-0.277772
-0.278292
-0.278329
-0.278236
-0.279032
-0.281906
-0.287243
-0.293315
-0.295746
-0.290595
-0.278871
-0.266487
-0.263366
-0.28419
-0.332841
-0.389293
-0.422084
-0.404794
-0.33216
-0.217409
-0.0789595
0.0657092
0.200685
0.312808
0.394015
0.44212
0.459585
0.451482
0.424351
0.38504
0.339468
0.292039
0.245712
0.202245
0.162465
0.126536
0.0941707
0.0648551
0.0378545
0.0123375
-0.273641
-0.273862
-0.274139
-0.274471
-0.274882
-0.275398
-0.276044
-0.276792
-0.277538
-0.278159
-0.278675
-0.279411
-0.280989
-0.283994
-0.288044
-0.290798
-0.288784
-0.280519
-0.269728
-0.267242
-0.290174
-0.344477
-0.409085
-0.451321
-0.43578
-0.354417
-0.224658
-0.0667577
0.101921
0.263973
0.403323
0.509085
0.57718
0.609026
0.608586
0.582159
0.537522
0.481929
0.421184
0.359564
0.29991
0.243789
0.191834
0.143719
0.0994483
0.0558949
0.0220048
-0.273856
-0.274037
-0.274303
-0.274635
-0.275037
-0.275515
-0.276084
-0.276764
-0.277556
-0.278446
-0.279415
-0.280462
-0.281636
-0.28307
-0.284911
-0.287026
-0.288551
-0.287812
-0.283854
-0.281043
-0.294123
-0.338942
-0.403948
-0.446844
-0.428214
-0.341127
-0.203907
-0.0382137
0.140381
0.314632
0.467134
0.586152
0.665882
0.705999
0.709848
0.68414
0.637066
0.576194
0.507907
0.437211
0.367603
0.301117
0.238719
0.180138
0.125702
0.0709185
0.0290373
-0.274086
-0.274244
-0.274511
-0.274861
-0.275292
-0.2758
-0.276387
-0.277065
-0.277859
-0.27881
-0.279958
-0.281317
-0.282854
-0.284477
-0.286055
-0.28751
-0.288846
-0.289961
-0.290707
-0.292036
-0.29783
-0.314342
-0.342899
-0.369495
-0.363594
-0.298334
-0.172424
-0.00709192
0.173691
0.34885
0.499427
0.616063
0.699298
0.743595
0.747962
0.721189
0.672371
0.60901
0.537576
0.463342
0.390029
0.319822
0.253758
0.191699
0.133799
0.0768484
0.0292451
)
;

boundaryField
{
    inlet
    {
        type            zeroGradient;
    }
    outlet
    {
        type            fixedValue;
        value           uniform 0;
    }
    upperWall
    {
        type            zeroGradient;
    }
    lowerWall
    {
        type            zeroGradient;
    }
    frontAndBack
    {
        type            empty;
    }
}


// ************************************************************************* //
