/*--------------------------------*- C++ -*----------------------------------*\
| =========                 |                                                 |
| \\      /  F ield         | OpenFOAM: The Open Source CFD Toolbox           |
|  \\    /   O peration     | Version:  2406                                  |
|   \\  /    A nd           | Website:  www.openfoam.com                      |
|    \\/     M anipulation  |                                                 |
\*---------------------------------------------------------------------------*/
FoamFile
{
    version     2.0;
    format      ascii;
    arch        "LSB;label=32;scalar=64";
    class       volScalarField;
    location    "89";
    object      p;
}
// * * * * * * * * * * * * * * * * * * * * * * * * * * * * * * * * * * * * * //

dimensions      [0 2 -2 0 0 0 0];

internalField   nonuniform List<scalar> 
2000
(
1.59915
1.58973
1.57758
1.56468
1.55103
1.53664
1.52176
1.50657
1.49119
1.47566
1.60624
1.59229
1.57772
1.56448
1.5509
1.53647
1.52154
1.50637
1.49103
1.47553
1.61091
1.59367
1.57708
1.56379
1.55055
1.53619
1.52122
1.50608
1.4908
1.47535
1.61417
1.59553
1.57742
1.56361
1.55038
1.53597
1.52091
1.50574
1.49049
1.47508
1.61676
1.59748
1.57823
1.56373
1.55031
1.53583
1.52066
1.50542
1.49017
1.47478
1.61879
1.59915
1.57915
1.56406
1.55039
1.5358
1.52051
1.50518
1.4899
1.47452
1.62034
1.6005
1.58002
1.56448
1.55057
1.53585
1.52045
1.50502
1.48969
1.4743
1.62146
1.60151
1.58073
1.56489
1.55078
1.53592
1.52043
1.50493
1.48955
1.47413
1.6222
1.60219
1.58123
1.56519
1.55094
1.536
1.52043
1.50488
1.48946
1.47402
1.62256
1.60252
1.58148
1.56536
1.55104
1.53604
1.52044
1.50485
1.48942
1.47397
1.62256
1.60252
1.58148
1.56536
1.55104
1.53604
1.52044
1.50485
1.48942
1.47397
1.6222
1.60219
1.58123
1.56519
1.55094
1.536
1.52043
1.50488
1.48946
1.47402
1.62146
1.60151
1.58073
1.56489
1.55078
1.53592
1.52043
1.50493
1.48955
1.47413
1.62034
1.6005
1.58002
1.56448
1.55057
1.53585
1.52045
1.50502
1.48969
1.4743
1.61879
1.59915
1.57915
1.56406
1.55039
1.5358
1.52051
1.50518
1.4899
1.47452
1.61676
1.59748
1.57823
1.56373
1.55031
1.53583
1.52066
1.50542
1.49017
1.47478
1.61417
1.59553
1.57742
1.56361
1.55038
1.53597
1.52091
1.50574
1.49049
1.47508
1.61091
1.59367
1.57708
1.56379
1.55055
1.53619
1.52122
1.50608
1.4908
1.47535
1.60624
1.59229
1.57772
1.56448
1.5509
1.53647
1.52154
1.50637
1.49103
1.47553
1.59915
1.58973
1.57758
1.56468
1.55103
1.53664
1.52176
1.50657
1.49119
1.47566
1.46002
1.44428
1.42848
1.41262
1.39671
1.38076
1.36477
1.34875
1.3327
1.31663
1.30054
1.28443
1.2683
1.25215
1.23599
1.21981
1.20362
1.18742
1.17121
1.15498
1.13875
1.1225
1.10625
1.08999
1.07372
1.05745
1.04116
1.02487
1.00857
0.992272
0.975963
0.959649
0.943329
0.927004
0.910674
1.45991
1.44419
1.4284
1.41255
1.39665
1.3807
1.36472
1.34871
1.33267
1.3166
1.30051
1.2844
1.26827
1.25213
1.23596
1.21979
1.2036
1.1874
1.17119
1.15496
1.13873
1.12249
1.10624
1.08998
1.07371
1.05743
1.04115
1.02486
1.00856
0.992261
0.975952
0.959638
0.943319
0.926995
0.910665
1.45975
1.44405
1.42828
1.41245
1.39656
1.38063
1.36466
1.34865
1.33261
1.31655
1.30047
1.28436
1.26824
1.2521
1.23594
1.21976
1.20358
1.18738
1.17117
1.15494
1.13871
1.12247
1.10622
1.08996
1.07369
1.05742
1.04114
1.02485
1.00855
0.99225
0.975942
0.959628
0.94331
0.926986
0.910656
1.45952
1.44385
1.42811
1.4123
1.39643
1.38052
1.36456
1.34856
1.33254
1.31649
1.30041
1.28431
1.26819
1.25205
1.2359
1.21973
1.20355
1.18735
1.17114
1.15492
1.13869
1.12245
1.1062
1.08994
1.07368
1.0574
1.04112
1.02483
1.00854
0.992237
0.97593
0.959618
0.943299
0.926976
0.910647
1.45925
1.44361
1.42789
1.41211
1.39627
1.38037
1.36442
1.34845
1.33244
1.3164
1.30033
1.28424
1.26813
1.252
1.23585
1.21968
1.2035
1.18731
1.17111
1.15489
1.13866
1.12242
1.10618
1.08992
1.07366
1.05738
1.0411
1.02482
1.00852
0.992221
0.975915
0.959603
0.943286
0.926963
0.910635
1.45899
1.44337
1.42767
1.41191
1.39609
1.38021
1.36428
1.34832
1.33232
1.3163
1.30024
1.28416
1.26806
1.25193
1.23579
1.21963
1.20345
1.18726
1.17106
1.15485
1.13863
1.12239
1.10615
1.08989
1.07363
1.05736
1.04108
1.02479
1.0085
0.992202
0.975897
0.959586
0.94327
0.926948
0.910621
1.45877
1.44315
1.42747
1.41173
1.39593
1.38006
1.36414
1.34819
1.33221
1.3162
1.30016
1.28409
1.26799
1.25187
1.23573
1.21957
1.2034
1.18722
1.17102
1.15482
1.1386
1.12236
1.10612
1.08987
1.0736
1.05733
1.04105
1.02477
1.00848
0.992182
0.975879
0.959569
0.943254
0.926933
0.910606
1.4586
1.44298
1.42731
1.41158
1.39579
1.37994
1.36403
1.34809
1.33211
1.31611
1.30009
1.28402
1.26793
1.25182
1.23568
1.21952
1.20336
1.18718
1.17099
1.15478
1.13857
1.12234
1.10609
1.08984
1.07358
1.05731
1.04103
1.02475
1.00846
0.992165
0.975863
0.959555
0.94324
0.926919
0.910593
1.45848
1.44286
1.42719
1.41148
1.3957
1.37985
1.36395
1.34801
1.33205
1.31605
1.30003
1.28398
1.26789
1.25178
1.23564
1.21949
1.20333
1.18715
1.17096
1.15476
1.13855
1.12232
1.10608
1.08982
1.07356
1.05729
1.04102
1.02474
1.00845
0.992152
0.975851
0.959544
0.94323
0.92691
0.910584
1.45842
1.4428
1.42714
1.41142
1.39565
1.3798
1.36391
1.34797
1.33201
1.31602
1.3
1.28395
1.26787
1.25176
1.23562
1.21947
1.20331
1.18713
1.17095
1.15475
1.13854
1.12231
1.10607
1.08982
1.07355
1.05729
1.04101
1.02473
1.00844
0.992146
0.975845
0.959538
0.943225
0.926905
0.910579
1.45842
1.4428
1.42714
1.41142
1.39565
1.3798
1.36391
1.34797
1.33201
1.31602
1.3
1.28395
1.26787
1.25176
1.23562
1.21947
1.20331
1.18713
1.17095
1.15475
1.13853
1.12231
1.10607
1.08982
1.07356
1.05729
1.04101
1.02473
1.00844
0.992146
0.975845
0.959538
0.943224
0.926905
0.910579
1.45848
1.44286
1.42719
1.41148
1.39569
1.37985
1.36395
1.34801
1.33205
1.31605
1.30003
1.28398
1.26789
1.25178
1.23564
1.21949
1.20333
1.18715
1.17096
1.15476
1.13855
1.12232
1.10608
1.08982
1.07356
1.05729
1.04102
1.02474
1.00845
0.992152
0.975851
0.959543
0.94323
0.92691
0.910584
1.4586
1.44298
1.42731
1.41158
1.39579
1.37994
1.36403
1.34809
1.33211
1.31611
1.30008
1.28402
1.26793
1.25182
1.23568
1.21952
1.20336
1.18718
1.17099
1.15478
1.13857
1.12234
1.10609
1.08984
1.07358
1.05731
1.04103
1.02475
1.00846
0.992165
0.975862
0.959554
0.943239
0.926919
0.910593
1.45877
1.44315
1.42747
1.41173
1.39593
1.38006
1.36415
1.34819
1.33221
1.3162
1.30016
1.28409
1.26799
1.25187
1.23573
1.21957
1.2034
1.18722
1.17102
1.15481
1.13859
1.12236
1.10612
1.08987
1.0736
1.05733
1.04105
1.02477
1.00848
0.992182
0.975878
0.959569
0.943253
0.926932
0.910605
1.45899
1.44337
1.42767
1.41191
1.39609
1.38021
1.36428
1.34832
1.33232
1.3163
1.30024
1.28416
1.26806
1.25193
1.23579
1.21963
1.20345
1.18726
1.17106
1.15485
1.13863
1.12239
1.10615
1.08989
1.07363
1.05736
1.04108
1.02479
1.0085
0.992201
0.975896
0.959586
0.943269
0.926947
0.91062
1.45925
1.44361
1.42789
1.41211
1.39627
1.38037
1.36443
1.34845
1.33244
1.3164
1.30033
1.28424
1.26813
1.252
1.23585
1.21968
1.2035
1.18731
1.1711
1.15489
1.13866
1.12242
1.10618
1.08992
1.07366
1.05738
1.0411
1.02481
1.00852
0.992221
0.975914
0.959603
0.943285
0.926962
0.910635
1.45952
1.44385
1.42811
1.4123
1.39643
1.38052
1.36456
1.34856
1.33254
1.31649
1.30041
1.28431
1.26819
1.25205
1.2359
1.21973
1.20355
1.18735
1.17114
1.15492
1.13869
1.12245
1.1062
1.08994
1.07368
1.0574
1.04112
1.02483
1.00854
0.992237
0.97593
0.959617
0.943299
0.926975
0.910647
1.45975
1.44405
1.42828
1.41245
1.39656
1.38063
1.36466
1.34865
1.33261
1.31655
1.30047
1.28436
1.26824
1.2521
1.23594
1.21976
1.20358
1.18738
1.17117
1.15494
1.13871
1.12247
1.10622
1.08996
1.07369
1.05742
1.04114
1.02485
1.00855
0.992249
0.975941
0.959628
0.943309
0.926985
0.910656
1.45991
1.44419
1.4284
1.41255
1.39665
1.3807
1.36472
1.34871
1.33266
1.3166
1.30051
1.2844
1.26827
1.25213
1.23596
1.21979
1.2036
1.1874
1.17119
1.15496
1.13873
1.12249
1.10624
1.08998
1.07371
1.05743
1.04115
1.02486
1.00856
0.99226
0.975952
0.959638
0.943319
0.926994
0.910665
1.46002
1.44428
1.42848
1.41262
1.39671
1.38076
1.36477
1.34875
1.3327
1.31663
1.30054
1.28443
1.2683
1.25215
1.23599
1.21981
1.20362
1.18742
1.17121
1.15498
1.13875
1.1225
1.10625
1.08999
1.07372
1.05745
1.04116
1.02487
1.00857
0.992271
0.975963
0.959648
0.943328
0.927004
0.910674
0.89434
0.878001
0.861657
0.84531
0.828958
0.812602
0.796243
0.77988
0.763514
0.747144
0.894331
0.877992
0.861649
0.845302
0.82895
0.812595
0.796236
0.779873
0.763507
0.747137
0.894323
0.877984
0.861641
0.845294
0.828943
0.812588
0.796229
0.779866
0.7635
0.747131
0.894314
0.877976
0.861633
0.845286
0.828935
0.812581
0.796222
0.77986
0.763494
0.747125
0.894302
0.877965
0.861622
0.845276
0.828925
0.812571
0.796213
0.779851
0.763486
0.747117
0.894288
0.877951
0.86161
0.845264
0.828914
0.81256
0.796202
0.779841
0.763476
0.747108
0.894274
0.877937
0.861596
0.845251
0.828901
0.812548
0.796191
0.77983
0.763466
0.747098
0.894262
0.877925
0.861585
0.845239
0.82889
0.812537
0.796181
0.779821
0.763457
0.747089
0.894253
0.877917
0.861576
0.845231
0.828882
0.81253
0.796173
0.779814
0.76345
0.747083
0.894248
0.877912
0.861571
0.845227
0.828878
0.812526
0.796169
0.77981
0.763447
0.74708
0.894248
0.877912
0.861571
0.845227
0.828878
0.812526
0.796169
0.77981
0.763446
0.74708
0.894253
0.877916
0.861576
0.845231
0.828882
0.81253
0.796173
0.779813
0.76345
0.747083
0.894261
0.877925
0.861584
0.845239
0.82889
0.812537
0.796181
0.77982
0.763456
0.747089
0.894274
0.877937
0.861596
0.845251
0.828901
0.812548
0.79619
0.77983
0.763465
0.747097
0.894288
0.877951
0.861609
0.845263
0.828913
0.812559
0.796202
0.77984
0.763475
0.747107
0.894302
0.877964
0.861622
0.845276
0.828925
0.81257
0.796212
0.77985
0.763485
0.747116
0.894313
0.877975
0.861633
0.845286
0.828935
0.81258
0.796221
0.779859
0.763493
0.747124
0.894322
0.877984
0.861641
0.845293
0.828942
0.812587
0.796228
0.779866
0.7635
0.74713
0.89433
0.877992
0.861648
0.845301
0.82895
0.812594
0.796235
0.779872
0.763506
0.747137
0.894339
0.878
0.861657
0.845309
0.828957
0.812602
0.796242
0.779879
0.763513
0.747143
0.730771
0.714395
0.698016
0.681634
0.665249
0.648861
0.632471
0.616078
0.599683
0.583285
0.566885
0.550482
0.534077
0.51767
0.501261
0.48485
0.468437
0.452022
0.435605
0.419187
0.402766
0.386344
0.36992
0.353494
0.337067
0.320638
0.304208
0.287776
0.271342
0.254907
0.238471
0.222034
0.205595
0.189154
0.172713
0.730765
0.714389
0.69801
0.681628
0.665243
0.648856
0.632465
0.616073
0.599677
0.58328
0.56688
0.550477
0.534073
0.517666
0.501257
0.484846
0.468433
0.452018
0.435601
0.419183
0.402762
0.38634
0.369916
0.35349
0.337063
0.320635
0.304204
0.287772
0.271339
0.254904
0.238468
0.22203
0.205592
0.189151
0.17271
0.730759
0.714383
0.698004
0.681622
0.665238
0.648851
0.63246
0.616068
0.599673
0.583275
0.566875
0.550473
0.534068
0.517662
0.501253
0.484842
0.468429
0.452014
0.435598
0.419179
0.402759
0.386337
0.369913
0.353487
0.33706
0.320631
0.304201
0.287769
0.271336
0.254901
0.238465
0.222028
0.205589
0.189149
0.172707
0.730753
0.714377
0.697999
0.681617
0.665233
0.648846
0.632456
0.616063
0.599668
0.583271
0.566871
0.550469
0.534064
0.517658
0.501249
0.484838
0.468426
0.452011
0.435594
0.419176
0.402756
0.386334
0.36991
0.353484
0.337057
0.320629
0.304198
0.287767
0.271334
0.254899
0.238463
0.222025
0.205587
0.189147
0.172705
0.730745
0.71437
0.697992
0.68161
0.665226
0.648839
0.63245
0.616057
0.599663
0.583265
0.566866
0.550464
0.534059
0.517653
0.501244
0.484834
0.468421
0.452007
0.43559
0.419172
0.402752
0.38633
0.369906
0.353481
0.337054
0.320625
0.304195
0.287764
0.27133
0.254896
0.23846
0.222023
0.205584
0.189144
0.172703
0.730736
0.714361
0.697983
0.681603
0.665219
0.648832
0.632443
0.61605
0.599656
0.583259
0.566859
0.550457
0.534053
0.517647
0.501239
0.484828
0.468416
0.452002
0.435585
0.419167
0.402747
0.386325
0.369902
0.353477
0.33705
0.320621
0.304191
0.28776
0.271327
0.254892
0.238457
0.222019
0.205581
0.189141
0.1727
0.730727
0.714353
0.697975
0.681594
0.665211
0.648824
0.632435
0.616043
0.599649
0.583252
0.566853
0.550451
0.534047
0.517641
0.501233
0.484823
0.468411
0.451996
0.43558
0.419162
0.402742
0.386321
0.369897
0.353472
0.337045
0.320617
0.304187
0.287756
0.271323
0.254889
0.238453
0.222016
0.205577
0.189138
0.172697
0.730719
0.714345
0.697967
0.681587
0.665203
0.648817
0.632428
0.616036
0.599642
0.583246
0.566846
0.550445
0.534042
0.517636
0.501228
0.484818
0.468406
0.451992
0.435575
0.419158
0.402738
0.386316
0.369893
0.353468
0.337041
0.320613
0.304183
0.287752
0.271319
0.254885
0.238449
0.222012
0.205574
0.189135
0.172694
0.730713
0.714339
0.697962
0.681581
0.665198
0.648812
0.632423
0.616031
0.599637
0.583241
0.566842
0.550441
0.534037
0.517632
0.501224
0.484814
0.468402
0.451988
0.435572
0.419154
0.402734
0.386313
0.36989
0.353465
0.337038
0.32061
0.30418
0.287749
0.271316
0.254882
0.238447
0.22201
0.205572
0.189132
0.172691
0.730709
0.714336
0.697959
0.681578
0.665195
0.648809
0.63242
0.616029
0.599635
0.583238
0.566839
0.550438
0.534035
0.517629
0.501222
0.484812
0.4684
0.451986
0.43557
0.419152
0.402732
0.386311
0.369888
0.353463
0.337036
0.320608
0.304179
0.287747
0.271315
0.254881
0.238445
0.222008
0.20557
0.189131
0.17269
0.730709
0.714336
0.697959
0.681578
0.665195
0.648809
0.63242
0.616029
0.599635
0.583238
0.566839
0.550438
0.534035
0.517629
0.501221
0.484811
0.4684
0.451986
0.43557
0.419152
0.402732
0.386311
0.369888
0.353463
0.337036
0.320608
0.304178
0.287747
0.271315
0.254881
0.238445
0.222008
0.20557
0.18913
0.17269
0.730712
0.714338
0.697961
0.681581
0.665198
0.648812
0.632423
0.616031
0.599637
0.58324
0.566842
0.55044
0.534037
0.517631
0.501223
0.484813
0.468401
0.451987
0.435571
0.419154
0.402734
0.386312
0.369889
0.353464
0.337038
0.32061
0.30418
0.287749
0.271316
0.254882
0.238446
0.222009
0.205571
0.189132
0.172691
0.730718
0.714344
0.697967
0.681586
0.665203
0.648817
0.632428
0.616036
0.599642
0.583245
0.566846
0.550445
0.534041
0.517635
0.501227
0.484817
0.468405
0.451991
0.435575
0.419157
0.402737
0.386315
0.369892
0.353467
0.337041
0.320612
0.304183
0.287751
0.271318
0.254884
0.238449
0.222012
0.205573
0.189134
0.172693
0.730726
0.714352
0.697974
0.681594
0.66521
0.648824
0.632434
0.616042
0.599648
0.583251
0.566852
0.55045
0.534046
0.51764
0.501232
0.484822
0.46841
0.451995
0.435579
0.419161
0.402741
0.38632
0.369896
0.353471
0.337044
0.320616
0.304186
0.287755
0.271322
0.254887
0.238452
0.222015
0.205576
0.189136
0.172695
0.730735
0.714361
0.697983
0.681602
0.665218
0.648831
0.632442
0.61605
0.599655
0.583258
0.566858
0.550457
0.534052
0.517646
0.501238
0.484827
0.468415
0.452001
0.435584
0.419166
0.402746
0.386324
0.369901
0.353475
0.337049
0.32062
0.30419
0.287759
0.271325
0.254891
0.238455
0.222018
0.205579
0.18914
0.172698
0.730744
0.714369
0.697991
0.68161
0.665226
0.648839
0.632449
0.616057
0.599662
0.583264
0.566865
0.550463
0.534058
0.517652
0.501243
0.484833
0.46842
0.452005
0.435589
0.419171
0.40275
0.386328
0.369905
0.353479
0.337052
0.320624
0.304194
0.287762
0.271329
0.254894
0.238458
0.222021
0.205582
0.189142
0.172701
0.730752
0.714376
0.697998
0.681616
0.665232
0.648845
0.632455
0.616062
0.599667
0.58327
0.56687
0.550468
0.534063
0.517657
0.501248
0.484837
0.468424
0.45201
0.435593
0.419174
0.402754
0.386332
0.369908
0.353483
0.337056
0.320627
0.304197
0.287765
0.271332
0.254897
0.238461
0.222024
0.205585
0.189145
0.172704
0.730758
0.714382
0.698003
0.681622
0.665237
0.64885
0.63246
0.616067
0.599672
0.583274
0.566874
0.550472
0.534067
0.51766
0.501252
0.484841
0.468428
0.452013
0.435596
0.419178
0.402757
0.386335
0.369911
0.353486
0.337059
0.32063
0.3042
0.287768
0.271335
0.2549
0.238464
0.222026
0.205587
0.189147
0.172706
0.730764
0.714388
0.698009
0.681627
0.665242
0.648855
0.632465
0.616072
0.599676
0.583279
0.566879
0.550476
0.534071
0.517665
0.501256
0.484845
0.468432
0.452017
0.4356
0.419181
0.402761
0.386339
0.369915
0.353489
0.337062
0.320633
0.304203
0.287771
0.271337
0.254903
0.238467
0.222029
0.20559
0.18915
0.172708
0.73077
0.714394
0.698015
0.681633
0.665248
0.64886
0.63247
0.616077
0.599682
0.583284
0.566884
0.550481
0.534076
0.517669
0.50126
0.484849
0.468436
0.452021
0.435604
0.419185
0.402765
0.386342
0.369918
0.353493
0.337065
0.320637
0.304206
0.287774
0.271341
0.254906
0.23847
0.222032
0.205593
0.189153
0.172711
0.15627
0.139826
0.12338
0.106934
0.0904859
0.074037
0.0575868
0.0411357
0.024683
0.0082306
0.156267
0.139823
0.123378
0.106931
0.0904833
0.0740344
0.0575843
0.0411335
0.0246802
0.00823093
0.156264
0.13982
0.123375
0.106929
0.0904811
0.0740324
0.0575822
0.041132
0.0246773
0.00823249
0.156262
0.139819
0.123373
0.106927
0.0904796
0.074031
0.057581
0.0411309
0.0246758
0.00823314
0.15626
0.139816
0.123371
0.106925
0.0904779
0.0740296
0.0575799
0.04113
0.0246755
0.00823123
0.156257
0.139814
0.123369
0.106923
0.0904761
0.0740281
0.0575789
0.0411293
0.0246763
0.00822688
0.156254
0.139811
0.123366
0.106921
0.0904742
0.0740266
0.0575781
0.0411286
0.0246783
0.00822081
0.156252
0.139808
0.123364
0.106919
0.0904724
0.0740252
0.0575774
0.0411282
0.0246807
0.00821457
0.156249
0.139806
0.123362
0.106917
0.090471
0.0740241
0.0575769
0.0411279
0.0246827
0.00820959
0.156248
0.139805
0.123361
0.106916
0.0904702
0.0740235
0.0575766
0.0411278
0.0246839
0.00820692
0.156248
0.139805
0.123361
0.106916
0.09047
0.0740233
0.0575764
0.0411277
0.0246837
0.0082071
0.156249
0.139806
0.123362
0.106916
0.0904705
0.0740237
0.0575765
0.0411277
0.0246825
0.00821007
0.156251
0.139807
0.123363
0.106918
0.0904716
0.0740245
0.0575768
0.0411279
0.0246802
0.0082153
0.156253
0.13981
0.123365
0.10692
0.0904732
0.0740257
0.0575774
0.0411281
0.0246778
0.00822167
0.156256
0.139812
0.123368
0.106922
0.090475
0.0740271
0.0575781
0.0411287
0.0246758
0.00822773
0.156259
0.139815
0.12337
0.106924
0.0904768
0.0740286
0.057579
0.0411294
0.0246749
0.00823195
0.156261
0.139817
0.123372
0.106926
0.0904785
0.07403
0.0575802
0.0411303
0.0246753
0.00823363
0.156263
0.139819
0.123374
0.106928
0.09048
0.0740314
0.0575814
0.0411314
0.0246769
0.00823274
0.156266
0.139821
0.123376
0.10693
0.0904823
0.0740335
0.0575835
0.041133
0.0246798
0.00823095
0.156268
0.139824
0.123379
0.106933
0.0904849
0.0740361
0.0575862
0.0411351
0.0246826
0.00823054
)
;

boundaryField
{
    inlet
    {
        type            zeroGradient;
    }
    outlet
    {
        type            fixedValue;
        value           uniform 0;
    }
    upperWall
    {
        type            zeroGradient;
    }
    lowerWall
    {
        type            zeroGradient;
    }
    frontAndBack
    {
        type            empty;
    }
}


// ************************************************************************* //
