/*--------------------------------*- C++ -*----------------------------------*\
| =========                 |                                                 |
| \\      /  F ield         | OpenFOAM: The Open Source CFD Toolbox           |
|  \\    /   O peration     | Version:  2406                                  |
|   \\  /    A nd           | Website:  www.openfoam.com                      |
|    \\/     M anipulation  |                                                 |
\*---------------------------------------------------------------------------*/
FoamFile
{
    version     2.0;
    format      ascii;
    arch        "LSB;label=32;scalar=64";
    class       surfaceScalarField;
    location    "89";
    object      phi;
}
// * * * * * * * * * * * * * * * * * * * * * * * * * * * * * * * * * * * * * //

dimensions      [0 3 -1 0 0 0 0];

oriented        oriented;

internalField   nonuniform List<scalar> 
3880
(
0.0393488
-0.00034881
0.0397392
-0.000390338
0.0400226
-0.000283435
0.0402255
-0.000202899
0.0403805
-0.000155026
0.0405003
-0.000119731
0.0405916
-9.13304e-05
0.040662
-7.0361e-05
0.0407178
-5.58457e-05
-4.56252e-05
0.0407634
0.110826
-0.00017453
0.110774
-0.00033899
0.110827
-0.000336047
0.110918
-0.000294012
0.111021
-0.000258067
0.111126
-0.00022484
0.111227
-0.000191748
0.111318
-0.000162128
0.111401
-0.00013796
-0.000118617
0.111474
0.174917
-9.13478e-05
0.174804
-0.000225724
0.174733
-0.00026523
0.174699
-0.000259984
0.174689
-0.000247977
0.174697
-0.000233514
0.17472
-0.000214515
0.174752
-0.000193551
0.174787
-0.000173794
-0.000156266
0.174825
0.230964
-5.5016e-05
0.230886
-0.000148411
0.230816
-0.000194745
0.230763
-0.000206617
0.230721
-0.000206933
0.230691
-0.000202896
0.23067
-0.000193958
0.230658
-0.000181429
0.230652
-0.000167973
-0.000155097
0.230651
0.278981
-3.56177e-05
0.278933
-0.000100358
0.278879
-0.000141401
0.278832
-0.000159111
0.27879
-0.0001651
0.278753
-0.000165888
0.278721
-0.000162278
0.278695
-0.000155041
0.278673
-0.00014606
-0.00013679
0.278655
0.318988
-2.38828e-05
0.318957
-6.88706e-05
0.318917
-0.000101239
0.318876
-0.000118769
0.318838
-0.000126784
0.318802
-0.000129779
0.318769
-0.000128993
0.318739
-0.000125045
0.318712
-0.000119196
-0.000112632
0.318688
0.350992
-1.58964e-05
0.350969
-4.63421e-05
0.350938
-6.98333e-05
0.350904
-8.42712e-05
0.350869
-9.19285e-05
0.350834
-9.54707e-05
0.350801
-9.59912e-05
0.35077
-9.40242e-05
0.350742
-9.04018e-05
-8.5979e-05
0.350715
0.374994
-9.81017e-06
0.374976
-2.87492e-05
0.37495
-4.39454e-05
0.37492
-5.39825e-05
0.374888
-5.97727e-05
0.374855
-6.2721e-05
0.374823
-6.35637e-05
0.374792
-6.27007e-05
0.374762
-6.06495e-05
-5.79517e-05
0.374734
0.390995
-4.69629e-06
0.39098
-1.37961e-05
0.390957
-2.12454e-05
0.39093
-2.63527e-05
0.390899
-2.94311e-05
0.390868
-3.10738e-05
0.390836
-3.16388e-05
0.390804
-3.13387e-05
0.390774
-3.04231e-05
-2.91518e-05
0.390745
0.398995
3.06515e-10
0.398982
8.15894e-10
0.39896
7.2249e-10
0.398934
1.19033e-09
0.398904
2.14286e-09
0.398873
2.12803e-09
0.398842
1.2211e-09
0.39881
8.39216e-10
0.39878
1.58463e-09
2.55668e-09
0.398751
0.398995
4.69655e-06
0.398982
1.37965e-05
0.39896
2.12481e-05
0.398934
2.63562e-05
0.398904
2.94336e-05
0.398873
3.10763e-05
0.398842
3.16424e-05
0.39881
3.13427e-05
0.39878
3.04268e-05
2.91552e-05
0.398751
0.390995
9.81089e-06
0.39098
2.87507e-05
0.390957
4.39469e-05
0.39093
5.39849e-05
0.390899
5.97761e-05
0.390868
6.27246e-05
0.390836
6.35668e-05
0.390804
6.27035e-05
0.390774
6.06529e-05
5.79561e-05
0.390745
0.374994
1.58969e-05
0.374976
4.6343e-05
0.37495
6.98356e-05
0.37492
8.42734e-05
0.374888
9.1931e-05
0.374855
9.54741e-05
0.374823
9.59952e-05
0.374792
9.40277e-05
0.374762
9.04046e-05
8.59816e-05
0.374734
0.350992
2.38833e-05
0.350969
6.88713e-05
0.350938
0.00010124
0.350904
0.000118772
0.350869
0.000126786
0.350834
0.000129783
0.350801
0.000128997
0.35077
0.000125048
0.350742
0.000119198
0.000112634
0.350715
0.318988
3.56183e-05
0.318957
0.000100359
0.318917
0.000141402
0.318876
0.000159112
0.318838
0.000165103
0.318802
0.000165893
0.318769
0.000162281
0.318739
0.000155044
0.318712
0.000146062
0.000136792
0.318688
0.278981
5.50164e-05
0.278933
0.000148411
0.278879
0.000194747
0.278832
0.00020662
0.27879
0.000206935
0.278753
0.000202899
0.278721
0.000193962
0.278695
0.000181433
0.278673
0.000167976
0.000155099
0.278655
0.230964
9.13485e-05
0.230886
0.000225725
0.230816
0.000265231
0.230763
0.000259987
0.230721
0.00024798
0.230691
0.000233516
0.23067
0.000214518
0.230658
0.000193554
0.230652
0.000173798
0.000156269
0.230651
0.174917
0.00017453
0.174804
0.000338991
0.174733
0.000336049
0.174699
0.000294014
0.174689
0.000258069
0.174697
0.000224842
0.17472
0.000191751
0.174752
0.000162132
0.174787
0.000137964
0.000118619
0.174825
0.110826
0.00034881
0.110774
0.000390339
0.110827
0.000283435
0.110918
0.000202901
0.111021
0.000155028
0.111126
0.000119732
0.111227
9.13331e-05
0.111318
7.03638e-05
0.111401
5.58476e-05
4.56275e-05
0.111474
0.0393488
0.0397392
0.0400226
0.0402255
0.0403805
0.0405003
0.0405916
0.0406619
0.0407178
0.0407634
0.0408015
-3.8049e-05
0.0408337
-3.22438e-05
0.0408615
-2.7732e-05
0.0408856
-2.418e-05
0.040907
-2.13323e-05
0.040926
-1.89991e-05
0.040943
-1.70473e-05
0.0409584
-1.53906e-05
0.0409724
-1.39752e-05
0.0409852
-1.27657e-05
0.0409969
-1.17313e-05
0.0410077
-1.08408e-05
0.0410178
-1.00647e-05
0.0410272
-9.37744e-06
0.0410359
-8.76069e-06
0.0410441
-8.20299e-06
0.0410518
-7.69797e-06
0.0410591
-7.24198e-06
0.0410659
-6.83168e-06
0.0410724
-6.46304e-06
0.0410785
-6.13107e-06
0.0410843
-5.82993e-06
0.0410899
-5.55405e-06
0.0410952
-5.29855e-06
0.0411002
-5.05981e-06
0.0411051
-4.83555e-06
0.0411097
-4.62459e-06
0.0411141
-4.4265e-06
0.0411184
-4.24116e-06
0.0411224
-4.06835e-06
0.0411264
-3.90769e-06
0.0411301
-3.75832e-06
0.0411337
-3.61924e-06
0.0411372
-3.48916e-06
-3.36687e-06
0.0411406
0.111538
-0.000102853
0.111596
-8.98332e-05
0.111647
-7.90596e-05
0.111693
-7.01397e-05
0.111735
-6.27106e-05
0.111772
-5.64529e-05
0.111806
-5.11136e-05
0.111837
-4.65128e-05
0.111866
-4.25309e-05
0.111892
-3.90818e-05
0.111917
-3.60909e-05
0.111939
-3.34847e-05
0.11196
-3.11925e-05
0.11198
-2.9154e-05
0.111999
-2.73231e-05
0.112016
-2.5667e-05
0.112033
-2.41652e-05
0.112048
-2.28033e-05
0.112063
-2.15692e-05
0.112077
-2.04506e-05
0.11209
-1.94345e-05
0.112103
-1.85071e-05
0.112115
-1.76549e-05
0.112127
-1.68661e-05
0.112138
-1.61313e-05
0.112148
-1.54435e-05
0.112158
-1.47982e-05
0.112168
-1.41925e-05
0.112178
-1.36246e-05
0.112187
-1.30927e-05
0.112195
-1.25951e-05
0.112204
-1.21294e-05
0.112212
-1.16931e-05
0.112219
-1.12832e-05
-1.08969e-05
0.112227
0.174863
-0.000140763
0.1749
-0.000127022
0.174936
-0.000114936
0.17497
-0.000104405
0.175003
-9.52578e-05
0.175034
-8.72756e-05
0.175063
-8.0252e-05
0.17509
-7.40315e-05
0.175116
-6.85135e-05
0.175141
-6.36296e-05
0.175164
-5.93155e-05
0.175186
-5.5497e-05
0.175207
-5.20928e-05
0.175227
-4.90272e-05
0.175246
-4.62415e-05
0.175264
-4.36948e-05
0.175281
-4.1362e-05
0.175297
-3.92275e-05
0.175313
-3.72776e-05
0.175328
-3.54968e-05
0.175343
-3.38674e-05
0.175356
-3.23696e-05
0.17537
-3.09844e-05
0.175383
-2.96951e-05
0.175395
-2.84881e-05
0.175407
-2.73538e-05
0.175418
-2.62859e-05
0.175429
-2.52802e-05
0.17544
-2.43337e-05
0.175451
-2.3444e-05
0.175461
-2.26079e-05
0.17547
-2.18221e-05
0.17548
-2.10823e-05
0.175489
-2.03843e-05
-1.97237e-05
0.175498
0.230654
-0.000143104
0.230659
-0.00013199
0.230665
-0.000121827
0.230674
-0.000112688
0.230683
-0.000104548
0.230693
-9.72884e-05
0.230704
-9.07639e-05
0.230714
-8.48604e-05
0.230725
-7.95163e-05
0.230736
-7.47018e-05
0.230747
-7.03872e-05
0.230759
-6.65229e-05
0.230769
-6.30393e-05
0.23078
-5.98643e-05
0.230791
-5.69398e-05
0.230802
-5.42281e-05
0.230812
-5.171e-05
0.230822
-4.9378e-05
0.230832
-4.72258e-05
0.230842
-4.52432e-05
0.230851
-4.34155e-05
0.230861
-4.17229e-05
0.23087
-4.01451e-05
0.230879
-3.86643e-05
0.230888
-3.72661e-05
0.230896
-3.5941e-05
0.230905
-3.46835e-05
0.230913
-3.34904e-05
0.230921
-3.23601e-05
0.230929
-3.12908e-05
0.230936
-3.02804e-05
0.230944
-2.93257e-05
0.230951
-2.84225e-05
0.230958
-2.75661e-05
-2.67516e-05
0.230965
0.278639
-0.000127776
0.278626
-0.000119168
0.278616
-0.000111105
0.278607
-0.000103729
0.278599
-9.70895e-05
0.278593
-9.11288e-05
0.278588
-8.5739e-05
0.278584
-8.08259e-05
0.278581
-7.63428e-05
0.278579
-7.22786e-05
0.278577
-6.86237e-05
0.278576
-6.53473e-05
0.278575
-6.23933e-05
0.278575
-5.96944e-05
0.278575
-5.71935e-05
0.278576
-5.48546e-05
0.278577
-5.26614e-05
0.278578
-5.06117e-05
0.278579
-4.87069e-05
0.278581
-4.69439e-05
0.278583
-4.53127e-05
0.278585
-4.37972e-05
0.278587
-4.23778e-05
0.27859
-4.10367e-05
0.278592
-3.976e-05
0.278595
-3.85385e-05
0.278597
-3.73683e-05
0.2786
-3.62482e-05
0.278603
-3.51788e-05
0.278606
-3.41605e-05
0.278609
-3.31929e-05
0.278612
-3.2274e-05
0.278615
-3.14006e-05
0.278618
-3.05684e-05
-2.97728e-05
0.278621
0.318666
-0.000105949
0.318646
-9.93787e-05
0.318628
-9.30935e-05
0.318611
-8.726e-05
0.318596
-8.19689e-05
0.318582
-7.72063e-05
0.31857
-7.28949e-05
0.318558
-6.89575e-05
0.318547
-6.53561e-05
0.318537
-6.20877e-05
0.318527
-5.91555e-05
0.318518
-5.65428e-05
0.31851
-5.42054e-05
0.318502
-5.20838e-05
0.318495
-5.01237e-05
0.318489
-4.82891e-05
0.318483
-4.65626e-05
0.318477
-4.49438e-05
0.318472
-4.34377e-05
0.318467
-4.20453e-05
0.318462
-4.07614e-05
0.318458
-3.9573e-05
0.318454
-3.84626e-05
0.318451
-3.74126e-05
0.318447
-3.64088e-05
0.318444
-3.54421e-05
0.318441
-3.45089e-05
0.318439
-3.36095e-05
0.318436
-3.2746e-05
0.318434
-3.19205e-05
0.318432
-3.11341e-05
0.31843
-3.03857e-05
0.318428
-2.96728e-05
0.318427
-2.89915e-05
-2.83375e-05
0.318425
0.35069
-8.12674e-05
0.350667
-7.65061e-05
0.350646
-7.18636e-05
0.350626
-6.74959e-05
0.350608
-6.35005e-05
0.350591
-5.98892e-05
0.350574
-5.66133e-05
0.350559
-5.36151e-05
0.350545
-5.08662e-05
0.350531
-4.8369e-05
0.350518
-4.61303e-05
0.350505
-4.41433e-05
0.350494
-4.23802e-05
0.350482
-4.07941e-05
0.350472
-3.93371e-05
0.350461
-3.79768e-05
0.350451
-3.66969e-05
0.350442
-3.54958e-05
0.350433
-3.43798e-05
0.350424
-3.33525e-05
0.350416
-3.24115e-05
0.350408
-3.15478e-05
0.3504
-3.07467e-05
0.350393
-2.99928e-05
0.350385
-2.92727e-05
0.350379
-2.85777e-05
0.350372
-2.79043e-05
0.350366
-2.72527e-05
0.35036
-2.66257e-05
0.350354
-2.6026e-05
0.350348
-2.54554e-05
0.350342
-2.49136e-05
0.350337
-2.43984e-05
0.350332
-2.39063e-05
-2.34335e-05
0.350327
0.374707
-5.49647e-05
0.374683
-5.18757e-05
0.37466
-4.88162e-05
0.374638
-4.59054e-05
0.374618
-4.32235e-05
0.374599
-4.07899e-05
0.374581
-3.85774e-05
0.374564
-3.65481e-05
0.374547
-3.46816e-05
0.374532
-3.29806e-05
0.374517
-3.14542e-05
0.374503
-3.01021e-05
0.37449
-2.89079e-05
0.374477
-2.784e-05
0.374465
-2.68639e-05
0.374452
-2.59546e-05
0.374441
-2.50995e-05
0.37443
-2.42968e-05
0.374419
-2.35514e-05
0.374408
-2.28673e-05
0.374398
-2.22441e-05
0.374388
-2.16761e-05
0.374379
-2.11532e-05
0.374369
-2.0664e-05
0.37436
-2.01985e-05
0.374352
-1.97496e-05
0.374343
-1.93141e-05
0.374335
-1.88923e-05
0.374326
-1.84861e-05
0.374318
-1.80983e-05
0.374311
-1.77304e-05
0.374303
-1.73826e-05
0.374296
-1.70534e-05
0.374289
-1.67399e-05
-1.64391e-05
0.374282
0.390718
-2.77061e-05
0.390692
-2.61883e-05
0.390668
-2.46707e-05
0.390646
-2.32171e-05
0.390624
-2.18708e-05
0.390604
-2.06451e-05
0.390585
-1.95297e-05
0.390567
-1.85057e-05
0.39055
-1.75615e-05
0.390534
-1.66987e-05
0.390518
-1.59238e-05
0.390503
-1.52369e-05
0.390489
-1.46298e-05
0.390475
-1.40888e-05
0.390462
-1.35966e-05
0.390449
-1.31395e-05
0.390437
-1.27103e-05
0.390425
-1.23074e-05
0.390413
-1.19329e-05
0.390402
-1.15888e-05
0.390391
-1.12757e-05
0.39038
-1.0991e-05
0.39037
-1.07299e-05
0.39036
-1.04868e-05
0.39035
-1.02564e-05
0.39034
-1.00349e-05
0.39033
-9.82029e-06
0.390321
-9.61253e-06
0.390312
-9.41255e-06
0.390303
-9.22165e-06
0.390294
-9.04082e-06
0.390286
-8.87019e-06
0.390278
-8.70908e-06
0.390269
-8.55608e-06
-8.40949e-06
0.390261
0.398723
2.31738e-09
0.398697
5.0057e-10
0.398672
-1.30968e-09
0.398649
-8.96767e-10
0.398627
2.04754e-09
0.398607
5.17844e-09
0.398587
5.81659e-09
0.398569
3.51742e-09
0.398551
-1.93866e-10
0.398534
-2.83502e-09
0.398518
-1.94412e-09
0.398503
2.11305e-09
0.398488
6.38688e-09
0.398474
9.02853e-09
0.398461
9.44953e-09
0.398448
7.60079e-09
0.398435
4.79038e-09
0.398423
2.62808e-09
0.398411
1.94651e-09
0.398399
2.98243e-09
0.398388
5.42414e-09
0.398377
8.43569e-09
0.398366
1.11896e-08
0.398356
1.31565e-08
0.398345
1.40514e-08
0.398335
1.40322e-08
0.398325
1.34898e-08
0.398316
1.28913e-08
0.398306
1.2702e-08
0.398297
1.31616e-08
0.398288
1.4344e-08
0.398279
1.61029e-08
0.39827
1.82105e-08
0.398262
2.04124e-08
2.24949e-08
0.398253
0.398723
2.77088e-05
0.398697
2.61891e-05
0.398672
2.46697e-05
0.398649
2.32169e-05
0.398627
2.18748e-05
0.398607
2.06539e-05
0.398587
1.95398e-05
0.398569
1.85116e-05
0.398551
1.75612e-05
0.398534
1.66955e-05
0.398518
1.59225e-05
0.398503
1.5241e-05
0.398488
1.46413e-05
0.398474
1.41054e-05
0.398461
1.36136e-05
0.398448
1.31533e-05
0.398435
1.27196e-05
0.398423
1.23132e-05
0.398411
1.19379e-05
0.398399
1.15963e-05
0.398388
1.12876e-05
0.398377
1.10082e-05
0.398366
1.07518e-05
0.398356
1.05118e-05
0.398345
1.02828e-05
0.398335
1.00612e-05
0.398325
9.84591e-06
0.398316
9.63753e-06
0.398306
9.43772e-06
0.398297
9.24815e-06
0.398288
9.06982e-06
0.398279
8.90263e-06
0.39827
8.74546e-06
0.398262
8.5965e-06
8.45374e-06
0.398253
0.390718
5.49687e-05
0.390692
5.18768e-05
0.390668
4.88143e-05
0.390646
4.59043e-05
0.390624
4.32271e-05
0.390604
4.07981e-05
0.390585
3.85863e-05
0.390567
3.65533e-05
0.39055
3.4682e-05
0.390534
3.29785e-05
0.390518
3.14543e-05
0.390503
3.01078e-05
0.390489
2.8919e-05
0.390475
2.78539e-05
0.390462
2.68775e-05
0.390449
2.59656e-05
0.390437
2.51075e-05
0.390425
2.43034e-05
0.390413
2.35585e-05
0.390402
2.2877e-05
0.390391
2.22577e-05
0.39038
2.16936e-05
0.39037
2.11738e-05
0.39036
2.06865e-05
0.39035
2.02215e-05
0.39034
1.97724e-05
0.39033
1.93368e-05
0.390321
1.89153e-05
0.390312
1.85103e-05
0.390303
1.81246e-05
0.390294
1.77595e-05
0.390286
1.74149e-05
0.390278
1.7089e-05
0.390269
1.67788e-05
1.64811e-05
0.390261
0.374707
8.12702e-05
0.374683
7.65082e-05
0.37466
7.18647e-05
0.374638
6.74972e-05
0.374618
6.35036e-05
0.374599
5.98938e-05
0.374581
5.66177e-05
0.374564
5.36177e-05
0.374547
5.08677e-05
0.374532
4.83712e-05
0.374517
4.61348e-05
0.374503
4.41506e-05
0.37449
4.23894e-05
0.374477
4.08034e-05
0.374465
3.93456e-05
0.374452
3.79843e-05
0.374441
3.67041e-05
0.37443
3.55037e-05
0.374419
3.43897e-05
0.374408
3.33649e-05
0.374398
3.24263e-05
0.374388
3.15645e-05
0.374379
3.07644e-05
0.374369
3.00108e-05
0.37436
2.9291e-05
0.374352
2.85965e-05
0.374343
2.7924e-05
0.374335
2.7274e-05
0.374326
2.66491e-05
0.374319
2.60518e-05
0.374311
2.54836e-05
0.374303
2.49443e-05
0.374296
2.44314e-05
0.374289
2.39417e-05
2.34711e-05
0.374282
0.35069
0.000105952
0.350667
9.93816e-05
0.350646
9.30961e-05
0.350626
8.72628e-05
0.350608
8.19718e-05
0.350591
7.72084e-05
0.350574
7.28957e-05
0.350559
6.89582e-05
0.350545
6.53587e-05
0.350531
6.20937e-05
0.350518
5.91638e-05
0.350505
5.65508e-05
0.350494
5.42116e-05
0.350482
5.20879e-05
0.350472
5.0127e-05
0.350461
4.82934e-05
0.350451
4.65697e-05
0.350442
4.49543e-05
0.350433
4.34507e-05
0.350424
4.20598e-05
0.350416
4.07761e-05
0.350408
3.9587e-05
0.3504
3.84757e-05
0.350393
3.74253e-05
0.350385
3.6422e-05
0.350379
3.54569e-05
0.350372
3.4526e-05
0.350366
3.36292e-05
0.35036
3.27682e-05
0.350354
3.1945e-05
0.350348
3.11602e-05
0.350343
3.04132e-05
0.350337
2.97015e-05
0.350332
2.90214e-05
2.83689e-05
0.350327
0.318666
0.000127778
0.318646
0.000119171
0.318628
0.00011111
0.318611
0.000103734
0.318596
9.70914e-05
0.318582
9.11275e-05
0.31857
8.57367e-05
0.318558
8.08267e-05
0.318547
7.63488e-05
0.318537
7.22882e-05
0.318527
6.86334e-05
0.318518
6.53538e-05
0.31851
6.23952e-05
0.318502
5.96932e-05
0.318495
5.71929e-05
0.318489
5.48578e-05
0.318483
5.26696e-05
0.318477
5.06243e-05
0.318472
4.87218e-05
0.318467
4.69585e-05
0.318462
4.53252e-05
0.318458
4.3807e-05
0.318454
4.23858e-05
0.318451
4.10444e-05
0.318447
3.9769e-05
0.318444
3.85501e-05
0.318441
3.73829e-05
0.318439
3.62658e-05
0.318436
3.51987e-05
0.318434
3.4182e-05
0.318432
3.32152e-05
0.31843
3.22967e-05
0.318428
3.14236e-05
0.318427
3.05918e-05
2.97969e-05
0.318425
0.278639
0.000143105
0.278626
0.000131994
0.278616
0.000121834
0.278607
0.000112694
0.278599
0.000104548
0.278593
9.72841e-05
0.278588
9.07596e-05
0.278584
8.4862e-05
0.278581
7.95251e-05
0.278579
7.47142e-05
0.278577
7.0397e-05
0.278576
6.6526e-05
0.278575
6.30364e-05
0.278575
5.98594e-05
0.278575
5.69376e-05
0.278576
5.42317e-05
0.278577
5.17197e-05
0.278578
4.93915e-05
0.278579
4.72399e-05
0.278581
4.52552e-05
0.278583
4.34239e-05
0.278585
4.1728e-05
0.278587
4.01486e-05
0.27859
3.86681e-05
0.278592
3.7272e-05
0.278595
3.59501e-05
0.278597
3.46958e-05
0.2786
3.35053e-05
0.278603
3.23766e-05
0.278606
3.13079e-05
0.278609
3.02974e-05
0.278612
2.93422e-05
0.278615
2.84386e-05
0.278618
2.75822e-05
2.67682e-05
0.278621
0.230654
0.000140766
0.230659
0.000127027
0.230665
0.000114942
0.230674
0.000104409
0.230683
9.5256e-05
0.230693
8.72701e-05
0.230704
8.02491e-05
0.230714
7.40357e-05
0.230725
6.85241e-05
0.230736
6.36409e-05
0.230747
5.93218e-05
0.230759
5.54963e-05
0.230769
5.20872e-05
0.23078
4.90216e-05
0.230791
4.624e-05
0.230802
4.36993e-05
0.230812
4.13714e-05
0.230822
3.92392e-05
0.230832
3.72884e-05
0.230842
3.55047e-05
0.230851
3.38717e-05
0.230861
3.23713e-05
0.23087
3.09851e-05
0.230879
2.96965e-05
0.230888
2.84916e-05
0.230896
2.736e-05
0.230905
2.62946e-05
0.230913
2.52908e-05
0.230921
2.43454e-05
0.230929
2.34558e-05
0.230936
2.26193e-05
0.230944
2.18327e-05
0.230951
2.10922e-05
0.230958
2.03939e-05
1.97334e-05
0.230965
0.174863
0.000102855
0.1749
8.98389e-05
0.174936
7.90671e-05
0.17497
7.0143e-05
0.175003
6.27071e-05
0.175034
5.64468e-05
0.175063
5.11117e-05
0.17509
4.65184e-05
0.175116
4.25409e-05
0.175141
3.90902e-05
0.175164
3.60936e-05
0.175186
3.34815e-05
0.175207
3.11868e-05
0.175227
2.91499e-05
0.175246
2.73231e-05
0.175264
2.56717e-05
0.175281
2.41727e-05
0.175297
2.28113e-05
0.175313
2.15755e-05
0.175328
2.04544e-05
0.175343
1.94359e-05
0.175356
1.8507e-05
0.17537
1.76545e-05
0.175383
1.68666e-05
0.175395
1.61331e-05
0.175407
1.54469e-05
0.175418
1.4803e-05
0.175429
1.41983e-05
0.17544
1.36308e-05
0.175451
1.30989e-05
0.175461
1.26008e-05
0.17547
1.21347e-05
0.17548
1.16979e-05
0.175489
1.12877e-05
1.09014e-05
0.175498
0.111538
3.80528e-05
0.111596
3.22481e-05
0.111647
2.77345e-05
0.111693
2.41793e-05
0.111735
2.13292e-05
0.111772
1.89967e-05
0.111806
1.70482e-05
0.111837
1.53947e-05
0.111866
1.39802e-05
0.111892
1.27687e-05
0.111917
1.1731e-05
0.111939
1.08382e-05
0.11196
1.00618e-05
0.11198
9.3762e-06
0.111999
8.7619e-06
0.112016
8.2061e-06
0.112033
7.70182e-06
0.112048
7.24531e-06
0.112063
6.83374e-06
0.112077
6.46377e-06
0.11209
6.13082e-06
0.112103
5.82936e-06
0.112115
5.55371e-06
0.112127
5.29881e-06
0.112138
5.06075e-06
0.112148
4.83706e-06
0.112158
4.62644e-06
0.112168
4.42845e-06
0.112178
4.24299e-06
0.112187
4.06999e-06
0.112195
3.90906e-06
0.112204
3.75953e-06
0.112212
3.62032e-06
0.11222
3.49024e-06
3.36801e-06
0.112227
0.0408015
0.0408337
0.0408615
0.0408856
0.040907
0.040926
0.040943
0.0409584
0.0409724
0.0409852
0.0409969
0.0410077
0.0410178
0.0410272
0.0410359
0.0410441
0.0410518
0.0410591
0.0410659
0.0410724
0.0410785
0.0410843
0.0410899
0.0410952
0.0411003
0.0411051
0.0411097
0.0411141
0.0411184
0.0411225
0.0411264
0.0411301
0.0411338
0.0411372
0.0411406
0.0411438
-3.25122e-06
0.041147
-3.14129e-06
0.04115
-3.03636e-06
0.0411529
-2.93603e-06
0.0411558
-2.84001e-06
0.0411585
-2.74824e-06
0.0411612
-2.66063e-06
0.0411638
-2.57723e-06
0.0411663
-2.49792e-06
-2.42263e-06
0.0411687
0.112234
-1.05314e-05
0.112241
-1.01845e-05
0.112248
-9.85418e-06
0.112255
-9.53911e-06
0.112261
-9.23819e-06
0.112267
-8.95074e-06
0.112273
-8.67622e-06
0.112279
-8.41424e-06
0.112285
-8.16435e-06
-7.9261e-06
0.11229
0.175506
-1.90964e-05
0.175514
-1.84992e-05
0.175522
-1.79292e-05
0.17553
-1.73845e-05
0.175538
-1.68634e-05
0.175545
-1.63649e-05
0.175553
-1.58881e-05
0.17556
-1.54323e-05
0.175566
-1.49966e-05
-1.45801e-05
0.175573
0.230972
-2.59745e-05
0.230979
-2.52307e-05
0.230986
-2.45173e-05
0.230992
-2.38319e-05
0.230998
-2.31731e-05
0.231004
-2.25401e-05
0.231011
-2.19322e-05
0.231016
-2.13489e-05
0.231022
-2.07894e-05
-2.0253e-05
0.231028
0.278624
-2.90093e-05
0.278627
-2.82742e-05
0.27863
-2.75644e-05
0.278633
-2.6878e-05
0.278636
-2.62141e-05
0.278639
-2.55721e-05
0.278642
-2.4952e-05
0.278645
-2.4354e-05
0.278648
-2.37778e-05
-2.3223e-05
0.278651
0.318424
-2.77068e-05
0.318423
-2.7096e-05
0.318422
-2.65027e-05
0.318421
-2.59253e-05
0.31842
-2.53634e-05
0.318419
-2.48171e-05
0.318419
-2.42865e-05
0.318418
-2.37723e-05
0.318417
-2.32745e-05
-2.27931e-05
0.318417
0.350322
-2.29762e-05
0.350318
-2.25315e-05
0.350314
-2.20975e-05
0.350309
-2.16733e-05
0.350305
-2.12588e-05
0.350301
-2.08543e-05
0.350297
-2.04604e-05
0.350294
-2.00775e-05
0.35029
-1.97057e-05
-1.9345e-05
0.350287
0.374275
-1.6148e-05
0.374268
-1.58642e-05
0.374262
-1.55865e-05
0.374255
-1.53145e-05
0.374249
-1.50481e-05
0.374243
-1.4788e-05
0.374237
-1.45345e-05
0.374231
-1.42881e-05
0.374226
-1.40487e-05
-1.38162e-05
0.37422
0.390254
-8.26769e-06
0.390246
-8.12944e-06
0.390238
-7.99403e-06
0.390231
-7.86124e-06
0.390223
-7.73121e-06
0.390216
-7.60423e-06
0.390209
-7.4806e-06
0.390202
-7.36048e-06
0.390195
-7.24384e-06
-7.13053e-06
0.390189
0.398245
2.43716e-08
0.398237
2.60128e-08
0.398229
2.74952e-08
0.398221
2.89007e-08
0.398213
3.03201e-08
0.398206
3.18361e-08
0.398198
3.34751e-08
0.398191
3.52722e-08
0.398183
3.72161e-08
3.93088e-08
0.398176
0.398245
8.3154e-06
0.398237
8.18024e-06
0.398229
8.04767e-06
0.398221
7.91762e-06
0.398213
7.7904e-06
0.398206
7.66643e-06
0.398198
7.54608e-06
0.398191
7.42956e-06
0.398183
7.31683e-06
7.20772e-06
0.398176
0.390254
1.61928e-05
0.390246
1.59116e-05
0.390238
1.56364e-05
0.390231
1.53669e-05
0.390223
1.51032e-05
0.390216
1.4846e-05
0.390209
1.45958e-05
0.390202
1.4353e-05
0.390195
1.41175e-05
1.38892e-05
0.390189
0.374275
2.3016e-05
0.374268
2.25735e-05
0.374262
2.21417e-05
0.374255
2.17199e-05
0.374249
2.1308e-05
0.374243
2.09064e-05
0.374237
2.05156e-05
0.374231
2.01361e-05
0.374226
1.9768e-05
1.94111e-05
0.37422
0.350323
2.77398e-05
0.350318
2.71309e-05
0.350314
2.65397e-05
0.350309
2.59647e-05
0.350305
2.54054e-05
0.350301
2.48618e-05
0.350297
2.43341e-05
0.350294
2.38229e-05
0.35029
2.33282e-05
2.285e-05
0.350287
0.318424
2.90347e-05
0.318423
2.83012e-05
0.318422
2.75934e-05
0.318421
2.69094e-05
0.31842
2.62478e-05
0.318419
2.56082e-05
0.318419
2.49906e-05
0.318418
2.43949e-05
0.318418
2.3821e-05
2.32684e-05
0.318417
0.278624
2.59921e-05
0.278627
2.52498e-05
0.27863
2.45382e-05
0.278633
2.38549e-05
0.278636
2.31981e-05
0.278639
2.25669e-05
0.278642
2.19607e-05
0.278645
2.13788e-05
0.278648
2.08208e-05
2.02857e-05
0.278651
0.230972
1.91068e-05
0.230979
1.85107e-05
0.230986
1.79421e-05
0.230992
1.73988e-05
0.230998
1.68792e-05
0.231005
1.63819e-05
0.231011
1.59062e-05
0.231017
1.54512e-05
0.231022
1.50163e-05
1.46004e-05
0.231028
0.175506
1.05362e-05
0.175515
1.01897e-05
0.175523
9.86007e-06
0.17553
9.54569e-06
0.175538
9.24554e-06
0.175545
8.95875e-06
0.175553
8.68486e-06
0.17556
8.42334e-06
0.175567
8.17389e-06
7.93596e-06
0.175573
0.112234
3.25248e-06
0.112241
3.14268e-06
0.112248
3.03793e-06
0.112255
2.93773e-06
0.112261
2.84187e-06
0.112267
2.75021e-06
0.112273
2.66276e-06
0.112279
2.57945e-06
0.112285
2.50028e-06
2.42509e-06
0.11229
0.0411439
0.041147
0.04115
0.041153
0.0411558
0.0411586
0.0411612
0.0411638
0.0411663
0.0411687
0.041171
-2.35112e-06
0.0411733
-2.2832e-06
0.0411755
-2.21851e-06
0.0411777
-2.15678e-06
0.0411798
-2.09769e-06
0.0411818
-2.04099e-06
0.0411838
-1.98643e-06
0.0411858
-1.93387e-06
0.0411876
-1.88316e-06
0.0411895
-1.83425e-06
0.0411913
-1.78703e-06
0.041193
-1.74153e-06
0.0411947
-1.69765e-06
0.0411964
-1.65542e-06
0.041198
-1.61471e-06
0.0411995
-1.57554e-06
0.0412011
-1.53777e-06
0.0412026
-1.5014e-06
0.041204
-1.46629e-06
0.0412055
-1.43243e-06
0.0412069
-1.39969e-06
0.0412082
-1.36806e-06
0.0412096
-1.33745e-06
0.0412109
-1.30785e-06
0.0412122
-1.27918e-06
0.0412134
-1.25146e-06
0.0412146
-1.22459e-06
0.0412158
-1.19862e-06
0.041217
-1.17345e-06
0.0412182
-1.14913e-06
0.0412193
-1.12558e-06
0.0412204
-1.10286e-06
0.0412215
-1.08089e-06
0.0412225
-1.05977e-06
-1.03943e-06
0.0412236
0.112296
-7.69891e-06
0.112301
-7.48212e-06
0.112306
-7.27503e-06
0.112311
-7.07688e-06
0.112316
-6.88697e-06
0.11232
-6.70463e-06
0.112325
-6.52928e-06
0.112329
-6.36046e-06
0.112334
-6.19777e-06
0.112338
-6.04094e-06
0.112342
-5.88968e-06
0.112346
-5.74383e-06
0.11235
-5.60317e-06
0.112354
-5.46751e-06
0.112357
-5.33663e-06
0.112361
-5.21035e-06
0.112365
-5.08842e-06
0.112368
-4.97064e-06
0.112371
-4.85678e-06
0.112375
-4.74666e-06
0.112378
-4.6401e-06
0.112381
-4.53696e-06
0.112384
-4.43708e-06
0.112387
-4.34036e-06
0.11239
-4.24667e-06
0.112393
-4.15593e-06
0.112396
-4.06803e-06
0.112399
-3.9829e-06
0.112401
-3.90042e-06
0.112404
-3.82056e-06
0.112407
-3.74321e-06
0.112409
-3.66836e-06
0.112412
-3.59598e-06
0.112414
-3.52612e-06
-3.45883e-06
0.112417
0.17558
-1.41817e-05
0.175586
-1.38003e-05
0.175592
-1.34347e-05
0.175598
-1.30839e-05
0.175604
-1.27467e-05
0.17561
-1.24221e-05
0.175615
-1.21095e-05
0.175621
-1.18081e-05
0.175626
-1.15173e-05
0.175631
-1.12368e-05
0.175636
-1.09661e-05
0.175641
-1.07047e-05
0.175646
-1.04524e-05
0.175651
-1.02087e-05
0.175655
-9.97319e-06
0.17566
-9.74548e-06
0.175664
-9.52519e-06
0.175669
-9.31194e-06
0.175673
-9.1054e-06
0.175677
-8.90528e-06
0.175681
-8.71131e-06
0.175685
-8.52326e-06
0.175689
-8.34093e-06
0.175693
-8.16413e-06
0.175697
-7.99268e-06
0.1757
-7.82641e-06
0.175704
-7.66515e-06
0.175707
-7.50874e-06
0.175711
-7.357e-06
0.175714
-7.20981e-06
0.175718
-7.06705e-06
0.175721
-6.92864e-06
0.175724
-6.79455e-06
0.175727
-6.66485e-06
-6.53967e-06
0.17573
0.231033
-1.97384e-05
0.231039
-1.92443e-05
0.231044
-1.87692e-05
0.231049
-1.83117e-05
0.231055
-1.78705e-05
0.23106
-1.74444e-05
0.231065
-1.70325e-05
0.231069
-1.6634e-05
0.231074
-1.62484e-05
0.231079
-1.58753e-05
0.231083
-1.55142e-05
0.231088
-1.51647e-05
0.231092
-1.48265e-05
0.231096
-1.44991e-05
0.231101
-1.41821e-05
0.231105
-1.3875e-05
0.231109
-1.35773e-05
0.231113
-1.32885e-05
0.231117
-1.30082e-05
0.23112
-1.27361e-05
0.231124
-1.24718e-05
0.231128
-1.2215e-05
0.231132
-1.19654e-05
0.231135
-1.17228e-05
0.231139
-1.1487e-05
0.231142
-1.12579e-05
0.231145
-1.10351e-05
0.231149
-1.08185e-05
0.231152
-1.06079e-05
0.231155
-1.04033e-05
0.231158
-1.02044e-05
0.231161
-1.00112e-05
0.231164
-9.82368e-06
0.231167
-9.64197e-06
-9.46622e-06
0.23117
0.278654
-2.26888e-05
0.278657
-2.2174e-05
0.27866
-2.16773e-05
0.278663
-2.11973e-05
0.278665
-2.07325e-05
0.278668
-2.02819e-05
0.278671
-1.98443e-05
0.278674
-1.94191e-05
0.278677
-1.90058e-05
0.278679
-1.86041e-05
0.278682
-1.82136e-05
0.278685
-1.78342e-05
0.278687
-1.74657e-05
0.27869
-1.71078e-05
0.278693
-1.67602e-05
0.278695
-1.64226e-05
0.278698
-1.60945e-05
0.2787
-1.57755e-05
0.278703
-1.54651e-05
0.278705
-1.5163e-05
0.278707
-1.48688e-05
0.27871
-1.45821e-05
0.278712
-1.43027e-05
0.278714
-1.40303e-05
0.278717
-1.37647e-05
0.278719
-1.35056e-05
0.278721
-1.32531e-05
0.278723
-1.30068e-05
0.278725
-1.27667e-05
0.278728
-1.25326e-05
0.27873
-1.23046e-05
0.278732
-1.20827e-05
0.278734
-1.18668e-05
0.278736
-1.16571e-05
-1.14539e-05
0.278738
0.318417
-2.23276e-05
0.318416
-2.18773e-05
0.318416
-2.1441e-05
0.318416
-2.10178e-05
0.318416
-2.06064e-05
0.318416
-2.02058e-05
0.318416
-1.98153e-05
0.318416
-1.94341e-05
0.318416
-1.90618e-05
0.318416
-1.86981e-05
0.318416
-1.8343e-05
0.318416
-1.79963e-05
0.318416
-1.7658e-05
0.318417
-1.73281e-05
0.318417
-1.70064e-05
0.318417
-1.66928e-05
0.318417
-1.6387e-05
0.318418
-1.60888e-05
0.318418
-1.57979e-05
0.318418
-1.5514e-05
0.318419
-1.52367e-05
0.318419
-1.49656e-05
0.31842
-1.47006e-05
0.31842
-1.44414e-05
0.31842
-1.41877e-05
0.318421
-1.39395e-05
0.318421
-1.36965e-05
0.318422
-1.34586e-05
0.318422
-1.3226e-05
0.318423
-1.29984e-05
0.318423
-1.27761e-05
0.318424
-1.2559e-05
0.318424
-1.23473e-05
0.318425
-1.21412e-05
-1.19411e-05
0.318425
0.350283
-1.89951e-05
0.35028
-1.86553e-05
0.350277
-1.83249e-05
0.350274
-1.80032e-05
0.350271
-1.76895e-05
0.350268
-1.73829e-05
0.350265
-1.7083e-05
0.350263
-1.67892e-05
0.35026
-1.65013e-05
0.350258
-1.62188e-05
0.350255
-1.59418e-05
0.350253
-1.56702e-05
0.350251
-1.54039e-05
0.350249
-1.5143e-05
0.350247
-1.48876e-05
0.350244
-1.46376e-05
0.350242
-1.43929e-05
0.350241
-1.41536e-05
0.350239
-1.39194e-05
0.350237
-1.36902e-05
0.350235
-1.34657e-05
0.350233
-1.32457e-05
0.350232
-1.30299e-05
0.35023
-1.28181e-05
0.350228
-1.26102e-05
0.350227
-1.24059e-05
0.350225
-1.22052e-05
0.350224
-1.2008e-05
0.350223
-1.18144e-05
0.350221
-1.16243e-05
0.35022
-1.14379e-05
0.350219
-1.12553e-05
0.350217
-1.10768e-05
0.350216
-1.09026e-05
-1.0733e-05
0.350215
0.374215
-1.35903e-05
0.374209
-1.33703e-05
0.374204
-1.31558e-05
0.374199
-1.29464e-05
0.374194
-1.27415e-05
0.374189
-1.25408e-05
0.374185
-1.23441e-05
0.37418
-1.21509e-05
0.374176
-1.19611e-05
0.374171
-1.17745e-05
0.374167
-1.15909e-05
0.374163
-1.14103e-05
0.374158
-1.12326e-05
0.374154
-1.10578e-05
0.37415
-1.08861e-05
0.374146
-1.07173e-05
0.374142
-1.05516e-05
0.374139
-1.0389e-05
0.374135
-1.02294e-05
0.374131
-1.00728e-05
0.374128
-9.91912e-06
0.374124
-9.76812e-06
0.374121
-9.61965e-06
0.374118
-9.47355e-06
0.374114
-9.32964e-06
0.374111
-9.18781e-06
0.374108
-9.04797e-06
0.374105
-8.91008e-06
0.374102
-8.77417e-06
0.374099
-8.64031e-06
0.374096
-8.5086e-06
0.374093
-8.37921e-06
0.37409
-8.25233e-06
0.374087
-8.1282e-06
-8.00712e-06
0.374085
0.390182
-7.02025e-06
0.390176
-6.91272e-06
0.390169
-6.80762e-06
0.390163
-6.70472e-06
0.390157
-6.60383e-06
0.390151