/*--------------------------------*- C++ -*----------------------------------*\
| =========                 |                                                 |
| \\      /  F ield         | OpenFOAM: The Open Source CFD Toolbox           |
|  \\    /   O peration     | Version:  2406                                  |
|   \\  /    A nd           | Website:  www.openfoam.com                      |
|    \\/     M anipulation  |                                                 |
\*---------------------------------------------------------------------------*/
FoamFile
{
    version     2.0;
    format      ascii;
    arch        "LSB;label=32;scalar=64";
    class       volVectorField;
    location    "89";
    object      U;
}
// * * * * * * * * * * * * * * * * * * * * * * * * * * * * * * * * * * * * * //

dimensions      [0 1 -1 0 0 0 0];

internalField   nonuniform List<vector> 
2000
(
(0.39012 -0.00201204 0)
(0.395117 -0.00228588 0)
(0.399039 -0.00136185 0)
(0.401412 -0.000760296 0)
(0.403093 -0.000495196 0)
(0.404443 -0.000335581 0)
(0.405499 -0.000216955 0)
(0.406301 -0.000142664 0)
(0.406923 -0.000103051 0)
(0.407423 -8.07707e-05 0)
(1.10681 -0.00249806 0)
(1.10694 -0.00443615 0)
(1.1081 -0.00408285 0)
(1.10883 -0.00324669 0)
(1.10965 -0.00259418 0)
(1.11069 -0.0020872 0)
(1.11177 -0.00165577 0)
(1.11275 -0.00130861 0)
(1.11362 -0.00105071 0)
(1.11439 -0.000862379 0)
(1.74773 -0.00127191 0)
(1.74771 -0.00270373 0)
(1.7479 -0.00298989 0)
(1.74732 -0.00283843 0)
(1.74686 -0.00265041 0)
(1.74683 -0.0024471 0)
(1.74705 -0.00220152 0)
(1.74735 -0.00194404 0)
(1.74769 -0.00170947 0)
(1.74806 -0.00150715 0)
(2.30825 -0.000690541 0)
(2.30845 -0.00173709 0)
(2.30874 -0.0022107 0)
(2.30812 -0.00231268 0)
(2.30739 -0.00229253 0)
(2.30697 -0.00222144 0)
(2.30677 -0.00209773 0)
(2.30663 -0.00194047 0)
(2.30654 -0.00177905 0)
(2.3065 -0.00162837 0)
(2.78853 -0.000435509 0)
(2.78882 -0.00118581 0)
(2.78925 -0.0016299 0)
(2.78879 -0.00180324 0)
(2.78811 -0.00184977 0)
(2.78764 -0.00184115 0)
(2.78734 -0.00178622 0)
(2.78708 -0.00169504 0)
(2.78683 -0.00158837 0)
(2.78663 -0.00148121 0)
(3.1887 -0.000290897 0)
(3.18902 -0.000818166 0)
(3.18952 -0.00117952 0)
(3.1892 -0.00136445 0)
(3.18859 -0.00144455 0)
(3.18814 -0.0014704 0)
(3.18783 -0.00145419 0)
(3.18754 -0.00140344 0)
(3.18725 -0.00133302 0)
(3.18699 -0.00125609 0)
(3.50881 -0.000196037 0)
(3.50914 -0.000561072 0)
(3.50967 -0.000834672 0)
(3.50943 -0.000997753 0)
(3.50889 -0.00108243 0)
(3.50847 -0.00111998 0)
(3.50816 -0.00112216 0)
(3.50786 -0.00109561 0)
(3.50756 -0.00105069 0)
(3.50728 -0.00099736 0)
(3.74888 -0.000127131 0)
(3.74921 -0.000367463 0)
(3.74975 -0.000557055 0)
(3.74957 -0.000680189 0)
(3.74908 -0.000750571 0)
(3.74867 -0.000785931 0)
(3.74837 -0.00079498 0)
(3.74808 -0.000782844 0)
(3.74777 -0.000756272 0)
(3.74747 -0.000721995 0)
(3.90892 -7.18705e-05 0)
(3.90925 -0.000208795 0)
(3.9098 -0.000319854 0)
(3.90964 -0.00039553 0)
(3.90918 -0.000441267 0)
(3.9088 -0.000465833 0)
(3.9085 -0.000474219 0)
(3.9082 -0.00046958 0)
(3.9079 -0.000455777 0)
(3.90759 -0.000436713 0)
(3.98894 -2.32841e-05 0)
(3.98926 -6.77886e-05 0)
(3.98982 -0.000104334 0)
(3.98968 -0.00012979 0)
(3.98923 -0.000145581 0)
(3.98885 -0.00015431 0)
(3.98856 -0.000157574 0)
(3.98827 -0.00015644 0)
(3.98796 -0.000152179 0)
(3.98765 -0.000146074 0)
(3.98894 2.32885e-05 0)
(3.98926 6.77984e-05 0)
(3.98982 0.000104355 0)
(3.98968 0.00012982 0)
(3.98923 0.000145615 0)
(3.98885 0.000154345 0)
(3.98856 0.000157608 0)
(3.98827 0.000156472 0)
(3.98796 0.000152215 0)
(3.98765 0.000146114 0)
(3.90892 7.18754e-05 0)
(3.90925 0.000208805 0)
(3.9098 0.000319873 0)
(3.90964 0.000395557 0)
(3.90918 0.0004413 0)
(3.9088 0.000465862 0)
(3.9085 0.000474244 0)
(3.9082 0.000469607 0)
(3.9079 0.000455814 0)
(3.90759 0.000436761 0)
(3.74888 0.000127137 0)
(3.74921 0.000367475 0)
(3.74975 0.000557079 0)
(3.74957 0.000680216 0)
(3.74908 0.000750597 0)
(3.74867 0.000785963 0)
(3.74837 0.000795017 0)
(3.74808 0.000782877 0)
(3.74777 0.000756299 0)
(3.74747 0.000722025 0)
(3.50881 0.000196041 0)
(3.50914 0.00056108 0)
(3.50967 0.000834686 0)
(3.50943 0.000997773 0)
(3.50889 0.00108245 0)
(3.50847 0.00112002 0)
(3.50816 0.0011222 0)
(3.50786 0.00109565 0)
(3.50756 0.00105072 0)
(3.50728 0.000997389 0)
(3.1887 0.000290902 0)
(3.18902 0.000818176 0)
(3.18952 0.00117954 0)
(3.1892 0.00136447 0)
(3.18859 0.00144457 0)
(3.18814 0.00147043 0)
(3.18783 0.00145423 0)
(3.18754 0.00140347 0)
(3.18725 0.00133304 0)
(3.18699 0.00125609 0)
(2.78853 0.000435514 0)
(2.78882 0.00118582 0)
(2.78925 0.00162992 0)
(2.78879 0.00180326 0)
(2.78811 0.0018498 0)
(2.78764 0.00184119 0)
(2.78734 0.00178626 0)
(2.78708 0.00169508 0)
(2.78683 0.0015884 0)
(2.78663 0.00148122 0)
(2.30825 0.000690546 0)
(2.30845 0.0017371 0)
(2.30874 0.00221071 0)
(2.30812 0.0023127 0)
(2.30738 0.00229255 0)
(2.30697 0.00222147 0)
(2.30677 0.00209775 0)
(2.30663 0.0019405 0)
(2.30654 0.00177909 0)
(2.3065 0.0016284 0)
(1.74773 0.00127192 0)
(1.74771 0.00270374 0)
(1.7479 0.00298992 0)
(1.74732 0.00283845 0)
(1.74686 0.00265043 0)
(1.74683 0.00244713 0)
(1.74705 0.00220155 0)
(1.74735 0.00194408 0)
(1.74769 0.00170951 0)
(1.74806 0.00150717 0)
(1.10681 0.00249806 0)
(1.10694 0.00443615 0)
(1.1081 0.00408286 0)
(1.10883 0.00324672 0)
(1.10965 0.00259421 0)
(1.11069 0.00208723 0)
(1.11177 0.00165579 0)
(1.11275 0.00130866 0)
(1.11362 0.00105075 0)
(1.11439 0.00086241 0)
(0.39012 0.00201204 0)
(0.395117 0.00228588 0)
(0.399039 0.00136186 0)
(0.401412 0.000760313 0)
(0.403093 0.000495207 0)
(0.404442 0.00033559 0)
(0.405499 0.000216974 0)
(0.406301 0.000142676 0)
(0.406922 0.000103052 0)
(0.407423 8.07826e-05 0)
(0.407837 -6.57906e-05 0)
(0.408186 -5.49334e-05 0)
(0.408484 -4.70564e-05 0)
(0.408742 -4.11874e-05 0)
(0.408968 -3.65819e-05 0)
(0.409169 -3.28058e-05 0)
(0.409349 -2.96055e-05 0)
(0.40951 -2.68248e-05 0)
(0.409657 -2.43934e-05 0)
(0.40979 -2.23056e-05 0)
(0.409912 -2.05556e-05 0)
(0.410025 -1.90951e-05 0)
(0.410129 -1.78412e-05 0)
(0.410226 -1.67068e-05 0)
(0.410317 -1.56374e-05 0)
(0.410401 -1.46205e-05 0)
(0.410481 -1.36728e-05 0)
(0.410556 -1.28212e-05 0)
(0.410626 -1.2081e-05 0)
(0.410692 -1.14486e-05 0)
(0.410755 -1.09038e-05 0)
(0.410815 -1.04168e-05 0)
(0.410872 -9.96094e-06 0)
(0.410926 -9.51733e-06 0)
(0.410978 -9.07932e-06 0)
(0.411027 -8.64995e-06 0)
(0.411074 -8.238e-06 0)
(0.41112 -7.85328e-06 0)
(0.411163 -7.50283e-06 0)
(0.411204 -7.18879e-06 0)
(0.411244 -6.90893e-06 0)
(0.411283 -6.6569e-06 0)
(0.41132 -6.42554e-06 0)
(0.411355 -6.20719e-06 0)
(0.411389 -5.99662e-06 0)
(1.11508 -0.000720773 0)
(1.11569 -0.000611297 0)
(1.11623 -0.000525621 0)
(1.11671 -0.000457949 0)
(1.11715 -0.000403691 0)
(1.11754 -0.000359337 0)
(1.1179 -0.000322391 0)
(1.11822 -0.000291174 0)
(1.11852 -0.000264575 0)
(1.1188 -0.000241818 0)
(1.11905 -0.000222287 0)
(1.11928 -0.000205428 0)
(1.1195 -0.000190732 0)
(1.1197 -0.000177765 0)
(1.1199 -0.000166184 0)
(1.12008 -0.000155745 0)
(1.12025 -0.000146295 0)
(1.12041 -0.000137735 0)
(1.12056 -0.000129993 0)
(1.1207 -0.000123002 0)
(1.12084 -0.000116686 0)
(1.12097 -0.000110953 0)
(1.12109 -0.000105712 0)
(1.12121 -0.000100875 0)
(1.12132 -9.6372e-05 0)
(1.12143 -9.21516e-05 0)
(1.12153 -8.81844e-05 0)
(1.12163 -8.44544e-05 0)
(1.12173 -8.09563e-05 0)
(1.12182 -7.7685e-05 0)
(1.12191 -7.46341e-05 0)
(1.122 -7.17913e-05 0)
(1.12208 -6.91399e-05 0)
(1.12216 -6.66596e-05 0)
(1.12223 -6.43287e-05 0)
(1.74844 -0.00133283 0)
(1.74882 -0.00118206 0)
(1.74918 -0.00105252 0)
(1.74953 -0.000942116 0)
(1.74987 -0.000848129 0)
(1.75019 -0.000767622 0)
(1.75049 -0.000698035 0)
(1.75077 -0.000637473 0)
(1.75104 -0.000584635 0)
(1.75129 -0.000538552 0)
(1.75153 -0.000498343 0)
(1.75175 -0.000463124 0)
(1.75197 -0.00043203 0)
(1.75217 -0.000404308 0)
(1.75237 -0.000379377 0)
(1.75255 -0.00035681 0)
(1.75273 -0.000336319 0)
(1.75289 -0.000317707 0)
(1.75305 -0.0003008 0)
(1.75321 -0.000285434 0)
(1.75336 -0.000271441 0)
(1.7535 -0.000258644 0)
(1.75363 -0.000246877 0)
(1.75376 -0.000235988 0)
(1.75389 -0.00022585 0)
(1.75401 -0.000216366 0)
(1.75413 -0.00020747 0)
(1.75424 -0.000199115 0)
(1.75435 -0.000191269 0)
(1.75445 -0.00018391 0)
(1.75456 -0.000177011 0)
(1.75465 -0.000170545 0)
(1.75475 -0.000164478 0)
(1.75484 -0.000158775 0)
(1.75493 -0.000153398 0)
(2.30651 -0.00149045 0)
(2.30655 -0.00136446 0)
(2.30662 -0.00125056 0)
(2.30669 -0.00114898 0)
(2.30678 -0.00105903 0)
(2.30688 -0.000979185 0)
(2.30698 -0.000907768 0)
(2.30709 -0.000843534 0)
(2.3072 -0.00078576 0)
(2.30731 -0.000734007 0)
(2.30742 -0.000687818 0)
(2.30753 -0.000646562 0)
(2.30764 -0.000609475 0)
(2.30775 -0.000575813 0)
(2.30786 -0.000544993 0)
(2.30796 -0.000516624 0)
(2.30807 -0.000490475 0)
(2.30817 -0.000466417 0)
(2.30827 -0.00044433 0)
(2.30837 -0.000424065 0)
(2.30847 -0.000405443 0)
(2.30856 -0.000388259 0)
(2.30865 -0.000372308 0)
(2.30874 -0.000357413 0)
(2.30883 -0.000343432 0)
(2.30892 -0.000330261 0)
(2.309 -0.000317832 0)
(2.30909 -0.000306099 0)
(2.30917 -0.00029503 0)
(2.30925 -0.000284596 0)
(2.30932 -0.000274766 0)
(2.3094 -0.000265504 0)
(2.30947 -0.000256767 0)
(2.30955 -0.000248509 0)
(2.30962 -0.000240681 0)
(2.78646 -0.00137866 0)
(2.78632 -0.00128187 0)
(2.78621 -0.00119197 0)
(2.78611 -0.00111014 0)
(2.78603 -0.00103665 0)
(2.78596 -0.000970723 0)
(2.7859 -0.000911106 0)
(2.78586 -0.000856791 0)
(2.78582 -0.000807281 0)
(2.7858 -0.000762422 0)
(2.78577 -0.000722046 0)
(2.78576 -0.000685762 0)
(2.78575 -0.00065294 0)
(2.78575 -0.00062288 0)
(2.78575 -0.000595015 0)
(2.78575 -0.000568997 0)
(2.78576 -0.000544669 0)
(2.78577 -0.000521997 0)
(2.78578 -0.000500968 0)
(2.7858 -0.000481516 0)
(2.78582 -0.000463513 0)
(2.78584 -0.000446775 0)
(2.78586 -0.000431102 0)
(2.78588 -0.000416319 0)
(2.78591 -0.000402287 0)
(2.78593 -0.000388921 0)
(2.78596 -0.000376175 0)
(2.78599 -0.000364028 0)
(2.78602 -0.000352476 0)
(2.78604 -0.000341508 0)
(2.78607 -0.00033111 0)
(2.7861 -0.000321253 0)
(2.78613 -0.000311899 0)
(2.78616 -0.000303003 0)
(2.78619 -0.000294518 0)
(3.18676 -0.00117893 0)
(3.18655 -0.00110389 0)
(3.18637 -0.0010327 0)
(3.18619 -0.000966998 0)
(3.18604 -0.000907571 0)
(3.18589 -0.000854138 0)
(3.18576 -0.000805787 0)
(3.18563 -0.000761657 0)
(3.18552 -0.000721328 0)
(3.18541 -0.000684748 0)
(3.18532 -0.000651904 0)
(3.18523 -0.00062256 0)
(3.18514 -0.0005962 0)
(3.18506 -0.000572167 0)
(3.18499 -0.000549897 0)
(3.18492 -0.000529025 0)
(3.18486 -0.000509394 0)
(3.1848 -0.000491 0)
(3.18474 -0.000473885 0)
(3.18469 -0.000458041 0)
(3.18465 -0.000443389 0)
(3.1846 -0.000429779 0)
(3.18456 -0.000417019 0)
(3.18452 -0.000404931 0)
(3.18449 -0.000393374 0)
(3.18446 -0.000382263 0)
(3.18443 -0.000371564 0)
(3.1844 -0.000361279 0)
(3.18437 -0.000351425 0)
(3.18435 -0.000342017 0)
(3.18433 -0.000333057 0)
(3.18431 -0.000324529 0)
(3.18429 -0.000316404 0)
(3.18427 -0.00030864 0)
(3.18426 -0.000301192 0)
(3.50702 -0.000941328 0)
(3.50678 -0.0008852 0)
(3.50656 -0.000830828 0)
(3.50636 -0.00077991 0)
(3.50617 -0.000733469 0)
(3.50599 -0.000691559 0)
(3.50582 -0.000653576 0)
(3.50566 -0.000618841 0)
(3.50552 -0.000587024 0)
(3.50537 -0.000558134 0)
(3.50524 -0.000532244 0)
(3.50511 -0.000509252 0)
(3.50499 -0.000488797 0)
(3.50488 -0.000470333 0)
(3.50477 -0.000453331 0)
(3.50466 -0.000437433 0)
(3.50456 -0.000422469 0)
(3.50446 -0.000408432 0)
(3.50437 -0.000395388 0)
(3.50428 -0.000383365 0)
(3.5042 -0.000372325 0)
(3.50412 -0.000362157 0)
(3.50404 -0.00035269 0)
(3.50396 -0.000343751 0)
(3.50389 -0.000335198 0)
(3.50382 -0.000326939 0)
(3.50375 -0.00031894 0)
(3.50369 -0.000311209 0)
(3.50363 -0.000303773 0)
(3.50357 -0.000296661 0)
(3.50351 -0.000289888 0)
(3.50345 -0.000283448 0)
(3.5034 -0.000277315 0)
(3.50335 -0.000271451 0)
(3.5033 -0.000265812 0)
(3.7472 -0.000684317 0)
(3.74695 -0.000645506 0)
(3.74671 -0.000607198 0)
(3.74649 -0.000570857 0)
(3.74628 -0.000537435 0)
(3.74608 -0.000507131 0)
(3.7459 -0.000479582 0)
(3.74572 -0.000454313 0)
(3.74555 -0.000431086 0)
(3.7454 -0.000409943 0)
(3.74525 -0.000390983 0)
(3.7451 -0.00037419 0)
(3.74497 -0.00035935 0)
(3.74483 -0.00034606 0)
(3.74471 -0.000333889 0)
(3.74458 -0.000322537 0)
(3.74447 -0.000311853 0)
(3.74435 -0.000301823 0)
(3.74424 -0.000292513 0)
(3.74414 -0.000283968 0)
(3.74403 -0.00027618 0)
(3.74393 -0.000269073 0)
(3.74383 -0.000262519 0)
(3.74374 -0.000256373 0)
(3.74365 -0.000250513 0)
(3.74356 -0.000244853 0)
(3.74347 -0.00023936 0)
(3.74339 -0.000234039 0)
(3.7433 -0.000228915 0)
(3.74322 -0.000224021 0)
(3.74315 -0.000219375 0)
(3.74307 -0.000214978 0)
(3.743 -0.00021081 0)
(3.74292 -0.000206838 0)
(3.74285 -0.000203024 0)
(3.90731 -0.000415048 0)
(3.90705 -0.000392297 0)
(3.9068 -0.000369558 0)
(3.90657 -0.000347792 0)
(3.90635 -0.000327642 0)
(3.90614 -0.000309293 0)
(3.90594 -0.000292575 0)
(3.90576 -0.000277211 0)
(3.90558 -0.000263044 0)
(3.90541 -0.000250106 0)
(3.90526 -0.000238494 0)
(3.9051 -0.000228217 0)
(3.90496 -0.000219156 0)
(3.90482 -0.000211077 0)
(3.90468 -0.000203711 0)
(3.90455 -0.000196853 0)
(3.90443 -0.0001904 0)
(3.90431 -0.000184337 0)
(3.90419 -0.000178704 0)
(3.90407 -0.00017354 0)
(3.90396 -0.000168851 0)
(3.90385 -0.000164595 0)
(3.90375 -0.000160695 0)
(3.90365 -0.000157061 0)
(3.90355 -0.000153611 0)
(3.90345 -0.000150285 0)
(3.90335 -0.000147058 0)
(3.90326 -0.000143929 0)
(3.90317 -0.000140916 0)
(3.90308 -0.000138042 0)
(3.90299 -0.000135322 0)
(3.9029 -0.000132758 0)
(3.90282 -0.00013034 0)
(3.90273 -0.000128045 0)
(3.90265 -0.000125847 0)
(3.98736 -0.000139022 0)
(3.9871 -0.00013155 0)
(3.98684 -0.000124037 0)
(3.9866 -0.000116801 0)
(3.98638 -0.000110063 0)
(3.98617 -0.000103908 0)
(3.98597 -9.83029e-05 0)
(3.98578 -9.31585e-05 0)
(3.98559 -8.8413e-05 0)
(3.98542 -8.40701e-05 0)
(3.98526 -8.01554e-05 0)
(3.98511 -7.66718e-05 0)
(3.98496 -7.35941e-05 0)
(3.98481 -7.08606e-05 0)
(3.98467 -6.8385e-05 0)
(3.98454 -6.60948e-05 0)
(3.98441 -6.39471e-05 0)
(3.98429 -6.19266e-05 0)
(3.98417 -6.0041e-05 0)
(3.98405 -5.83029e-05 0)
(3.98393 -5.67174e-05 0)
(3.98382 -5.52766e-05 0)
(3.98371 -5.39596e-05 0)
(3.98361 -5.27392e-05 0)
(3.9835 -5.15886e-05 0)
(3.9834 -5.04863e-05 0)
(3.9833 -4.94206e-05 0)
(3.98321 -4.83881e-05 0)
(3.98311 -4.73923e-05 0)
(3.98302 -4.64391e-05 0)
(3.98293 -4.5534e-05 0)
(3.98284 -4.46791e-05 0)
(3.98275 -4.38719e-05 0)
(3.98266 -4.31066e-05 0)
(3.98258 -4.23748e-05 0)
(3.98736 0.000139052 0)
(3.9871 0.000131552 0)
(3.98684 0.000124011 0)
(3.9866 0.000116787 0)
(3.98638 0.000110105 0)
(3.98617 0.000104012 0)
(3.98597 9.84239e-05 0)
(3.98578 9.32348e-05 0)
(3.98559 8.84147e-05 0)
(3.98542 8.40218e-05 0)
(3.98526 8.01189e-05 0)
(3.98511 7.67031e-05 0)
(3.98496 7.37092e-05 0)
(3.98481 7.10345e-05 0)
(3.98467 6.85707e-05 0)
(3.98454 6.62481e-05 0)
(3.98441 6.40481e-05 0)
(3.98429 6.19845e-05 0)
(3.98417 6.00847e-05 0)
(3.98405 5.83669e-05 0)
(3.98393 5.68281e-05 0)
(3.98382 5.54453e-05 0)
(3.98371 5.41819e-05 0)
(3.98361 5.29995e-05 0)
(3.9835 5.18664e-05 0)
(3.9834 5.07642e-05 0)
(3.9833 4.96882e-05 0)
(3.98321 4.86448e-05 0)
(3.98311 4.76457e-05 0)
(3.98302 4.67023e-05 0)
(3.98293 4.5821e-05 0)
(3.98284 4.50015e-05 0)
(3.98275 4.42367e-05 0)
(3.98266 4.35156e-05 0)
(3.98258 4.2826e-05 0)
(3.90731 0.000415093 0)
(3.90705 0.000392316 0)
(3.9068 0.000369549 0)
(3.90657 0.000347786 0)
(3.90635 0.000327679 0)
(3.90614 0.000309378 0)
(3.90594 0.000292669 0)
(3.90576 0.000277263 0)
(3.90558 0.000263036 0)
(3.90541 0.000250071 0)
(3.90526 0.000238481 0)
(3.9051 0.000228266 0)
(3.90496 0.000219275 0)
(3.90482 0.000211241 0)
(3.90468 0.000203875 0)
(3.90455 0.000196984 0)
(3.90443 0.000190487 0)
(3.90431 0.000184393 0)
(3.90419 0.000178756 0)
(3.90407 0.000173619 0)
(3.90396 0.000168974 0)
(3.90385 0.000164769 0)
(3.90375 0.000160913 0)
(3.90365 0.000157306 0)
(3.90355 0.000153866 0)
(3.90345 0.000150538 0)
(3.90335 0.000147304 0)
(3.90326 0.00014417 0)
(3.90317 0.000141162 0)
(3.90308 0.000138304 0)
(3.90299 0.00013561 0)
(3.9029 0.000133081 0)
(3.90282 0.000130702 0)
(3.90273 0.000128445 0)
(3.90265 0.000126283 0)
(3.7472 0.000684349 0)
(3.74695 0.000645522 0)
(3.74671 0.000607193 0)
(3.74649 0.000570856 0)
(3.74628 0.000537465 0)
(3.74608 0.000507191 0)
(3.74589 0.000479644 0)
(3.74572 0.000454349 0)
(3.74555 0.000431094 0)
(3.7454 0.000409943 0)
(3.74525 0.00039101 0)
(3.7451 0.000374265 0)
(3.74497 0.000359463 0)
(3.74483 0.000346186 0)
(3.74471 0.000334004 0)
(3.74458 0.000322628 0)
(3.74447 0.000311923 0)
(3.74435 0.000301887 0)
(3.74424 0.00029259 0)
(3.74414 0.000284075 0)
(3.74403 0.000276323 0)
(3.74393 0.000269249 0)
(3.74383 0.000262717 0)
(3.74374 0.000256583 0)
(3.74365 0.000250725 0)
(3.74356 0.000245064 0)
(3.74347 0.000239573 0)
(3.74339 0.000234259 0)
(3.7433 0.000229151 0)
(3.74322 0.00022428 0)
(3.74315 0.000219662 0)
(3.74307 0.000215295 0)
(3.743 0.000211158 0)
(3.74292 0.000207214 0)
(3.74285 0.000203427 0)
(3.50702 0.000941356 0)
(3.50678 0.000885219 0)
(3.50656 0.000830838 0)
(3.50636 0.000779927 0)
(3.50617 0.000733504 0)
(3.50599 0.000691603 0)
(3.50582 0.000653609 0)
(3.50566 0.000618857 0)
(3.50552 0.000587037 0)
(3.50537 0.000558169 0)
(3.50524 0.000532308 0)
(3.50511 0.000509334 0)
(3.50499 0.000488881 0)
(3.50488 0.000470404 0)
(3.50477 0.000453387 0)
(3.50466 0.000437485 0)
(3.50456 0.000422532 0)
(3.50446 0.000408518 0)
(3.50437 0.000395501 0)
(3.50428 0.000383503 0)
(3.5042 0.000372481 0)
(3.50412 0.000362319 0)
(3.50404 0.00035285 0)
(3.50396 0.000343908 0)
(3.50389 0.000335355 0)
(3.50382 0.000327103 0)
(3.50375 0.00031912 0)
(3.50369 0.000311411 0)
(3.50363 0.000304 0)
(3.50357 0.000296914 0)
(3.50351 0.000290164 0)
(3.50345 0.000283745 0)
(3.5034 0.00027763 0)
(3.50335 0.000271783 0)
(3.5033 0.000266161 0)
(3.18676 0.00117894 0)
(3.18655 0.00110392 0)
(3.18637 0.00103275 0)
(3.18619 0.000967043 0)
(3.18604 0.000907601 0)
(3.18589 0.00085414 0)
(3.18576 0.000805772 0)
(3.18563 0.000761656 0)
(3.18552 0.000721368 0)
(3.18541 0.000684831 0)
(3.18532 0.000652004 0)
(3.18523 0.00062264 0)
(3.18514 0.000596239 0)
(3.18506 0.000572174 0)
(3.18499 0.000549899 0)
(3.18492 0.000529054 0)
(3.18486 0.000509469 0)
(3.1848 0.000491123 0)
(3.18474 0.000474038 0)
(3.18469 0.0004582 0)
(3.18465 0.000443535 0)
(3.1846 0.000429901 0)
(3.18456 0.000417121 0)
(3.18452 0.000405024 0)
(3.18449 0.000393476 0)
(3.18446 0.000382387 0)
(3.18443 0.00037172 0)
(3.1844 0.000361468 0)
(3.18437 0.000351642 0)
(3.18435 0.000342255 0)
(3.18433 0.000333308 0)
(3.18431 0.000324788 0)
(3.18429 0.000316667 0)
(3.18428 0.000308908 0)
(3.18426 0.000301469 0)
(2.78646 0.00137868 0)
(2.78632 0.0012819 0)
(2.78621 0.00119202 0)
(2.78611 0.00111019 0)
(2.78603 0.00103667 0)
(2.78596 0.00097069 0)
(2.7859 0.000911061 0)
(2.78586 0.000856794 0)
(2.78582 0.000807358 0)
(2.7858 0.000762545 0)
(2.78577 0.00072216 0)
(2.78576 0.000685819 0)
(2.78575 0.00065293 0)
(2.78575 0.000622835 0)
(2.78575 0.000594985 0)
(2.78575 0.000569022 0)
(2.78576 0.000544761 0)
(2.78577 0.000522142 0)
(2.78579 0.000501132 0)
(2.7858 0.000481664 0)
(2.78582 0.000463624 0)
(2.78584 0.000446846 0)
(2.78586 0.000431148 0)
(2.78588 0.000416362 0)
(2.78591 0.00040235 0)
(2.78593 0.000389018 0)
(2.78596 0.00037631 0)
(2.78599 0.000364198 0)
(2.78602 0.000352669 0)
(2.78604 0.000341713 0)
(2.78607 0.000331317 0)
(2.7861 0.000321455 0)
(2.78613 0.000312097 0)
(2.78616 0.000303198 0)
(2.78619 0.000294717 0)
(2.30651 0.00149047 0)
(2.30655 0.00136451 0)
(2.30661 0.00125063 0)
(2.30669 0.00114903 0)
(2.30678 0.00105902 0)
(2.30688 0.000979123 0)
(2.30698 0.000907725 0)
(2.30709 0.000843569 0)
(2.3072 0.000785873 0)
(2.30731 0.00073414 0)
(2.30742 0.000687902 0)
(2.30753 0.000646566 0)
(2.30764 0.000609418 0)
(2.30775 0.000575747 0)
(2.30786 0.000544971 0)
(2.30796 0.00051667 0)
(2.30807 0.000490583 0)
(2.30817 0.000466556 0)
(2.30827 0.000444462 0)
(2.30837 0.000424164 0)
(2.30847 0.0004055 0)
(2.30856 0.000388283 0)
(2.30865 0.000372319 0)
(2.30874 0.000357434 0)
(2.30883 0.000343479 0)
(2.30892 0.000330341 0)
(2.309 0.000317944 0)
(2.30909 0.000306234 0)
(2.30917 0.000295176 0)
(2.30925 0.000284744 0)
(2.30933 0.000274908 0)
(2.3094 0.000265638 0)
(2.30948 0.000256893 0)
(2.30955 0.000248633 0)
(2.30962 0.000240808 0)
(1.74844 0.00133285 0)
(1.74882 0.00118212 0)
(1.74918 0.00105261 0)
(1.74953 0.000942156 0)
(1.74987 0.000848092 0)
(1.75019 0.000767552 0)
(1.75049 0.000698013 0)
(1.75077 0.000637538 0)
(1.75104 0.000584755 0)
(1.75129 0.000538655 0)
(1.75153 0.000498377 0)
(1.75175 0.000463085 0)
(1.75197 0.00043196 0)
(1.75217 0.000404259 0)
(1.75237 0.000379381 0)
(1.75255 0.000356872 0)
(1.75273 0.000336417 0)
(1.75289 0.000317807 0)
(1.75305 0.000300878 0)
(1.75321 0.000285478 0)
(1.75336 0.000271456 0)
(1.7535 0.000258644 0)
(1.75363 0.000246878 0)
(1.75376 0.000236002 0)
(1.75389 0.000225884 0)
(1.75401 0.000216422 0)
(1.75413 0.000207542 0)
(1.75424 0.000199197 0)
(1.75435 0.000191354 0)
(1.75445 0.000183992 0)
(1.75456 0.000177087 0)
(1.75466 0.000170616 0)
(1.75475 0.000164545 0)
(1.75484 0.000158842 0)
(1.75493 0.000153467 0)
(1.11508 0.000720805 0)
(1.11569 0.000611357 0)
(1.11623 0.000525683 0)
(1.11671 0.000457964 0)
(1.11715 0.00040365 0)
(1.11754 0.00035929 0)
(1.1179 0.000322392 0)
(1.11822 0.000291233 0)
(1.11852 0.000264653 0)
(1.1188 0.000241869 0)
(1.11905 0.000222287 0)
(1.11928 0.000205389 0)
(1.1195 0.000190688 0)
(1.11971 0.000177744 0)
(1.1199 0.0001662 0)
(1.12008 0.000155791 0)
(1.12025 0.000146352 0)
(1.12041 0.000137786 0)
(1.12056 0.000130027 0)
(1.1207 0.000123017 0)
(1.12084 0.000116687 0)
(1.12097 0.000110949 0)
(1.12109 0.00010571 0)
(1.12121 0.000100881 0)
(1.12132 9.63878e-05 0)
(1.12143 9.21762e-05 0)
(1.12153 8.82152e-05 0)
(1.12163 8.44885e-05 0)
(1.12173 8.09906e-05 0)
(1.12182 7.77175e-05 0)
(1.12191 7.46638e-05 0)
(1.122 7.1818e-05 0)
(1.12208 6.91647e-05 0)
(1.12216 6.66832e-05 0)
(1.12223 6.43531e-05 0)
(0.407837 6.58188e-05 0)
(0.408186 5.49521e-05 0)
(0.408484 4.70485e-05 0)
(0.408742 4.11674e-05 0)
(0.408968 3.65733e-05 0)
(0.409169 3.28154e-05 0)
(0.409349 2.96222e-05 0)
(0.40951 2.68349e-05 0)
(0.409657 2.43944e-05 0)
(0.40979 2.23026e-05 0)
(0.409912 2.05548e-05 0)
(0.410025 1.90999e-05 0)
(0.410129 1.7849e-05 0)
(0.410226 1.67146e-05 0)
(0.410317 1.56426e-05 0)
(0.410402 1.46223e-05 0)
(0.410481 1.3673e-05 0)
(0.410556 1.2822e-05 0)
(0.410626 1.20837e-05 0)
(0.410692 1.14541e-05 0)
(0.410755 1.09109e-05 0)
(0.410815 1.04246e-05 0)
(0.410872 9.96733e-06 0)
(0.410926 9.52148e-06 0)
(0.410978 9.08049e-06 0)
(0.411027 8.6488e-06 0)
(0.411075 8.23533e-06 0)
(0.41112 7.85066e-06 0)
(0.411163 7.50111e-06 0)
(0.411205 7.18913e-06 0)
(0.411245 6.91108e-06 0)
(0.411283 6.66104e-06 0)
(0.41132 6.43043e-06 0)
(0.411355 6.21245e-06 0)
(0.41139 6.00089e-06 0)
(0.411422 -5.79029e-06 0)
(0.411454 -5.58749e-06 0)
(0.411485 -5.38892e-06 0)
(0.411515 -5.19665e-06 0)
(0.411544 -5.01269e-06 0)
(0.411572 -4.83908e-06 0)
(0.411599 -4.67659e-06 0)
(0.411625 -4.52568e-06 0)
(0.41165 -4.38534e-06 0)
(0.411675 -4.25465e-06 0)
(1.12231 -6.21272e-05 0)
(1.12238 -6.00377e-05 0)
(1.12245 -5.80466e-05 0)
(1.12252 -5.61448e-05 0)
(1.12258 -5.43261e-05 0)
(1.12264 -5.25878e-05 0)
(1.1227 -5.09278e-05 0)
(1.12276 -4.93455e-05 0)
(1.12282 -4.7839e-05 0)
(1.12288 -4.64064e-05 0)
(1.75502 -0.000148311 0)
(1.7551 -0.000143482 0)
(1.75519 -0.000138885 0)
(1.75526 -0.000134499 0)
(1.75534 -0.000130309 0)
(1.75542 -0.000126306 0)
(1.75549 -0.00012248 0)
(1.75556 -0.000118826 0)
(1.75563 -0.000115338 0)
(1.7557 -0.000112009 0)
(2.30969 -0.00023324 0)
(2.30976 -0.000226146 0)
(2.30982 -0.000219367 0)
(2.30989 -0.000212878 0)
(2.30995 -0.000206662 0)
(2.31001 -0.000200707 0)
(2.31008 -0.000195002 0)
(2.31013 -0.00018954 0)
(2.31019 -0.000184312 0)
(2.31025 -0.000179308 0)
(2.78622 -0.000286399 0)
(2.78625 -0.000278606 0)
(2.78628 -0.000271109 0)
(2.78631 -0.000263887 0)
(2.78634 -0.000256927 0)
(2.78637 -0.00025022 0)
(2.7864 -0.000243762 0)
(2.78643 -0.000237551 0)
(2.78646 -0.000231581 0)
(2.78649 -0.000225844 0)
(3.18425 -0.000294019 0)
(3.18423 -0.000287086 0)
(3.18422 -0.000280367 0)
(3.18421 -0.000273847 0)
(3.1842 -0.000267518 0)
(3.1842 -0.00026138 0)
(3.18419 -0.000255433 0)
(3.18418 -0.000249682 0)
(3.18418 -0.000244125 0)
(3.18417 -0.000238762 0)
(3.50325 -0.000260359 0)
(3.5032 -0.000255059 0)
(3.50316 -0.000249892 0)
(3.50311 -0.000244848 0)
(3.50307 -0.000239924 0)
(3.50303 -0.000235124 0)
(3.50299 -0.000230453 0)
(3.50295 -0.000225917 0)
(3.50292 -0.000221517 0)
(3.50288 -0.000217254 0)
(3.74278 -0.00019933 0)
(3.74272 -0.000195731 0)
(3.74265 -0.000192208 0)
(3.74259 -0.000188757 0)
(3.74252 -0.000185378 0)
(3.74246 -0.000182078 0)
(3.7424 -0.000178861 0)
(3.74234 -0.000175733 0)
(3.74229 -0.000172695 0)
(3.74223 -0.000169747 0)
(3.90257 -0.000123721 0)
(3.9025 -0.000121647 0)
(3.90242 -0.000119614 0)
(3.90234 -0.000117619 0)
(3.90227 -0.000115665 0)
(3.9022 -0.000113755 0)
(3.90213 -0.000111896 0)
(3.90206 -0.000110089 0)
(3.90199 -0.000108336 0)
(3.90192 -0.000106634 0)
(3.98249 -4.16685e-05 0)
(3.98241 -4.09807e-05 0)
(3.98233 -4.03073e-05 0)
(3.98225 -3.96466e-05 0)
(3.98217 -3.89991e-05 0)
(3.98209 -3.83662e-05 0)
(3.98202 -3.77494e-05 0)
(3.98194 -3.71497e-05 0)
(3.98187 -3.65671e-05 0)
(3.9818 -3.60006e-05 0)
(3.98249 4.21573e-05 0)
(3.98241 4.15024e-05 0)
(3.98233 4.08582e-05 0)
(3.98225 4.0225e-05 0)
(3.98217 3.9605e-05 0)
(3.98209 3.90014e-05 0)
(3.98202 3.84167e-05 0)
(3.98194 3.78525e-05 0)
(3.98187 3.73088e-05 0)
(3.9818 3.67846e-05 0)
(3.90257 0.000124189 0)
(3.9025 0.000122144 0)
(3.90242 0.000120138 0)
(3.90234 0.00011817 0)
(3.90227 0.000116242 0)
(3.9022 0.000114362 0)
(3.90213 0.000112534 0)
(3.90206 0.000110763 0)
(3.90199 0.000109049 0)
(3.90192 0.00010739 0)
(3.74278 0.000199758 0)
(3.74272 0.000196182 0)
(3.74265 0.000192683 0)
(3.74259 0.000189256 0)
(3.74252 0.000185904 0)
(3.74246 0.000182632 0)
(3.7424 0.000179447 0)
(3.74234 0.000176355 0)
(3.74229 0.000173356 0)
(3.74223 0.000170448 0)
(3.50325 0.000260726 0)
(3.5032 0.000255445 0)
(3.50316 0.0002503 0)
(3.50311 0.000245279 0)
(3.50307 0.000240382 0)
(3.50303 0.00023561 0)
(3.50299 0.000230971 0)
(3.50296 0.000226468 0)
(3.50292 0.000222103 0)
(3.50288 0.000217876 0)
(3.18425 0.000294309 0)
(3.18423 0.000287394 0)
(3.18422 0.000280696 0)
(3.18421 0.000274201 0)
(3.1842 0.000267899 0)
(3.1842 0.000261788 0)
(3.18419 0.000255869 0)
(3.18418 0.000250146 0)
(3.18418 0.000244617 0)
(3.18417 0.00023928 0)
(2.78622 0.000286608 0)
(2.78625 0.000278832 0)
(2.78628 0.000271356 0)
(2.78631 0.000264158 0)
(2.78634 0.000257222 0)
(2.78638 0.000250539 0)
(2.78641 0.000244102 0)
(2.78644 0.00023791 0)
(2.78647 0.000231957 0)
(2.7865 0.000226238 0)
(2.30969 0.000233377 0)
(2.30976 0.000226298 0)
(2.30982 0.000219536 0)
(2.30989 0.000213066 0)
(2.30995 0.000206868 0)
(2.31002 0.000200927 0)
(2.31008 0.000195235 0)
(2.31014 0.000189784 0)
(2.3102 0.000184565 0)
(2.31025 0.00017957 0)
(1.75502 0.000148386 0)
(1.7551 0.000143566 0)
(1.75519 0.000138979 0)
(1.75527 0.000134602 0)
(1.75534 0.000130422 0)
(1.75542 0.000126425 0)
(1.75549 0.000122607 0)
(1.75556 0.000118958 0)
(1.75563 0.000115475 0)
(1.7557 0.000112151 0)
(1.12231 6.2153e-05 0)
(1.12238 6.00663e-05 0)
(1.12245 5.80783e-05 0)
(1.12252 5.61802e-05 0)
(1.12258 5.43648e-05 0)
(1.12264 5.26298e-05 0)
(1.1227 5.09726e-05 0)
(1.12276 4.93929e-05 0)
(1.12282 4.78885e-05 0)
(1.12288 4.6458e-05 0)
(0.411423 5.79341e-06 0)
(0.411455 5.58873e-06 0)
(0.411485 5.38881e-06 0)
(0.411515 5.19518e-06 0)
(0.411544 5.01092e-06 0)
(0.411572 4.83718e-06 0)
(0.411599 4.67566e-06 0)
(0.411625 4.52559e-06 0)
(0.411651 4.3868e-06 0)
(0.411675 4.25705e-06 0)
(0.411699 -4.13167e-06 0)
(0.411722 -4.01511e-06 0)
(0.411744 -3.90323e-06 0)
(0.411766 -3.7952e-06 0)
(0.411788 -3.69007e-06 0)
(0.411808 -3.58777e-06 0)
(0.411828 -3.48804e-06 0)
(0.411848 -3.39133e-06 0)
(0.411867 -3.29769e-06 0)
(0.411886 -3.20769e-06 0)
(0.411904 -3.12127e-06 0)
(0.411921 -3.03884e-06 0)
(0.411939 -2.96006e-06 0)
(0.411955 -2.88509e-06 0)
(0.411972 -2.81337e-06 0)
(0.411988 -2.74488e-06 0)
(0.412003 -2.67899e-06 0)
(0.412018 -2.61567e-06 0)
(0.412033 -2.55434e-06 0)
(0.412048 -2.49508e-06 0)
(0.412062 -2.43744e-06 0)
(0.412076 -2.3816e-06 0)
(0.412089 -2.32727e-06 0)
(0.412102 -2.27471e-06 0)
(0.412115 -2.22368e-06 0)
(0.412128 -2.17451e-06 0)
(0.41214 -2.12691e-06 0)
(0.412153 -2.08124e-06 0)
(0.412164 -2.03715e-06 0)
(0.412176 -1.99498e-06 0)
(0.412187 -1.95435e-06 0)
(0.412199 -1.9156e-06 0)
(0.412209 -1.87833e-06 0)
(0.41222 -1.84296e-06 0)
(0.412231 -1.80914e-06 0)
(1.12293 -4.5044e-05 0)
(1.12298 -4.37476e-05 0)
(1.12303 -4.25121e-05 0)
(1.12308 -4.13322e-05 0)
(1.12313 -4.02026e-05 0)
(1.12318 -3.91188e-05 0)
(1.12323 -3.80767e-05 0)
(1.12327 -3.70734e-05 0)
(1.12331 -3.61063e-05 0)
(1.12336 -3.51739e-05 0)
(1.1234 -3.42749e-05 0)
(1.12344 -3.34084e-05 0)
(1.12348 -3.25731e-05 0)
(1.12352 -3.17684e-05 0)
(1.12356 -3.09929e-05 0)
(1.12359 -3.02455e-05 0)
(1.12363 -2.95247e-05 0)
(1.12366 -2.88292e-05 0)
(1.1237 -2.81576e-05 0)
(1.12373 -2.75088e-05 0)
(1.12376 -2.68815e-05 0)
(1.1238 -2.62748e-05 0)
(1.12383 -2.56879e-05 0)
(1.12386 -2.512e-05 0)
(1.12389 -2.45705e-05 0)
(1.12392 -2.40388e-05 0)
(1.12395 -2.35242e-05 0)
(1.12397 -2.30264e-05 0)
(1.124 -2.25446e-05 0)
(1.12403 -2.20786e-05 0)
(1.12405 -2.16278e-05 0)
(1.12408 -2.11922e-05 0)
(1.12411 -2.07714e-05 0)
(1.12413 -2.03661e-05 0)
(1.12416 -1.99764e-05 0)
(1.75576 -0.000108832 0)
(1.75583 -0.000105798 0)
(1.75589 -0.000102898 0)
(1.75595 -0.000100121 0)
(1.75601 -9.74577e-05 0)
(1.75607 -9.49002e-05 0)
(1.75612 -9.24402e-05 0)
(1.75618 -9.00716e-05 0)
(1.75623 -8.77889e-05 0)
(1.75629 -8.55881e-05 0)
(1.75634 -8.34653e-05 0)
(1.75639 -8.14178e-05 0)
(1.75644 -7.94425e-05 0)
(1.75648 -7.75365e-05 0)
(1.75653 -7.56968e-05 0)
(1.75658 -7.39206e-05 0)
(1.75662 -7.22046e-05 0)
(1.75667 -7.05461e-05 0)
(1.75671 -6.8942e-05 0)
(1.75675 -6.739e-05 0)
(1.75679 -6.58876e-05 0)
(1.75683 -6.44328e-05 0)
(1.75687 -6.30237e-05 0)
(1.75691 -6.16588e-05 0)
(1.75695 -6.03364e-05 0)
(1.75699 -5.90552e-05 0)