/*--------------------------------*- C++ -*----------------------------------*\
| =========                 |                                                 |
| \\      /  F ield         | OpenFOAM: The Open Source CFD Toolbox           |
|  \\    /   O peration     | Version:  2406                                  |
|   \\  /    A nd           | Website:  www.openfoam.com                      |
|    \\/     M anipulation  |                                                 |
\*---------------------------------------------------------------------------*/
FoamFile
{
    version     2.0;
    format      ascii;
    arch        "LSB;label=32;scalar=64";
    class       surfaceScalarField;
    location    "79";
    object      phi;
}
// * * * * * * * * * * * * * * * * * * * * * * * * * * * * * * * * * * * * * //

dimensions      [0 3 -1 0 0 0 0];

oriented        oriented;

internalField   nonuniform List<scalar> 
3880
(
0.00993282
-0.000182816
0.0101252
-0.000192373
0.0102604
-0.0001352
0.0103543
-9.39474e-05
0.0104227
-6.83025e-05
0.010473
-5.03776e-05
0.0105105
-3.74893e-05
0.0105391
-2.86096e-05
0.0105617
-2.25601e-05
-1.82821e-05
0.01058
0.0276717
-0.0001045
0.0276695
-0.000190151
0.0277162
-0.000181971
0.0277774
-0.000155137
0.0278399
-0.00013074
0.0278981
-0.00010861
0.0279497
-8.90736e-05
0.0279943
-7.31886e-05
0.0280326
-6.08406e-05
-5.12115e-05
0.0280655
0.0437019
-5.64011e-05
0.0436446
-0.000132883
0.0436159
-0.000153231
0.0436102
-0.000149402
0.0436195
-0.000140058
0.0436387
-0.000127825
0.0436633
-0.000113684
0.0436899
-9.97504e-05
0.0437164
-8.73262e-05
-7.65979e-05
0.0437418
0.0577273
-3.36806e-05
0.0576827
-8.82778e-05
0.0576438
-0.000114315
0.0576158
-0.000121399
0.0575971
-0.000121358
0.0575867
-0.000117433
0.0575833
-0.000110274
0.057585
-0.000101449
0.0575901
-9.24588e-05
-8.39546e-05
0.0575975
0.0697379
-2.15664e-05
0.0697093
-5.96797e-05
0.0696781
-8.31011e-05
0.0696501
-9.34529e-05
0.069626
-9.72036e-05
0.0696059
-9.72956e-05
0.06959
-9.43679e-05
0.0695779
-8.93983e-05
0.069569
-8.35866e-05
-7.76421e-05
0.0695627
0.0797428
-1.43325e-05
0.0797239
-4.08488e-05
0.0797003
-5.94465e-05
0.0796764
-6.95629e-05
0.0796536
-7.4409e-05
0.0796324
-7.61105e-05
0.0796134
-7.53001e-05
0.0795966
-7.26224e-05
0.079582
-6.89493e-05
-6.49033e-05
0.0795692
0.0877451
-9.48295e-06
0.0877317
-2.74215e-05
0.0877133
-4.09746e-05
0.087693
-4.92689e-05
0.0876723
-5.37924e-05
0.0876521
-5.58634e-05
0.0876328
-5.59986e-05
0.0876148
-5.46392e-05
0.0875983
-5.23798e-05
-4.96989e-05
0.087583
0.0937463
-5.83176e-06
0.0937359
-1.69829e-05
0.0937207
-2.57697e-05
0.093703
-3.15289e-05
0.0936841
-3.49113e-05
0.0936649
-3.66357e-05
0.0936459
-3.70442e-05
0.0936277
-3.64202e-05
0.0936105
-3.51341e-05
-3.35029e-05
0.0935943
0.097747
-2.78672e-06
0.0977381
-8.14153e-06
0.0977248
-1.24533e-05
0.0977087
-1.53835e-05
0.0976909
-1.71733e-05
0.0976724
-1.81324e-05
0.0976538
-1.84268e-05
0.0976356
-1.81963e-05
0.0976181
-1.76182e-05
-1.68484e-05
0.0976014
0.0997472
3.07782e-10
0.0997391
6.66574e-10
0.0997266
7.08725e-10
0.0997112
1.27095e-09
0.0996941
2.01725e-09
0.0996759
1.84408e-09
0.0996575
1.14499e-09
0.0996393
1.20792e-09
0.0996217
2.21229e-09
2.89388e-09
0.0996048
0.0997472
2.78689e-06
0.0997391
8.14204e-06
0.0997266
1.24556e-05
0.0997112
1.53869e-05
0.0996941
1.71762e-05
0.0996759
1.81349e-05
0.0996575
1.84299e-05
0.0996393
1.82002e-05
0.0996217
1.76226e-05
1.68527e-05
0.0996048
0.097747
5.83244e-06
0.0977381
1.69842e-05
0.0977248
2.57712e-05
0.0977087
3.15314e-05
0.0976909
3.49148e-05
0.0976724
3.6639e-05
0.0976538
3.70468e-05
0.0976356
3.6423e-05
0.0976181
3.51382e-05
3.35079e-05
0.0976014
0.0937464
9.4833e-06
0.0937359
2.74223e-05
0.0937207
4.09767e-05
0.093703
4.92714e-05
0.0936841
5.3795e-05
0.0936649
5.58664e-05
0.0936459
5.60021e-05
0.0936277
5.46427e-05
0.0936105
5.23832e-05
4.97021e-05
0.0935943
0.0877452
1.43331e-05
0.0877317
4.08498e-05
0.0877133
5.9448e-05
0.087693
6.95652e-05
0.0876723
7.44118e-05
0.0876521
7.61138e-05
0.0876328
7.53036e-05
0.0876148
7.26256e-05
0.0875983
6.89521e-05
6.49059e-05
0.087583
0.0797428
2.15669e-05
0.0797239
5.96808e-05
0.0797003
8.31026e-05
0.0796764
9.34545e-05
0.0796536
9.72064e-05
0.0796324
9.72992e-05
0.0796134
9.43715e-05
0.0795966
8.94012e-05
0.0795819
8.35886e-05
7.7644e-05
0.0795692
0.0697379
3.3681e-05
0.0697093
8.82785e-05
0.0696781
0.000114317
0.0696501
0.000121402
0.069626
0.00012136
0.0696059
0.000117436
0.06959
0.000110278
0.0695779
0.000101452
0.069569
9.24607e-05
8.39558e-05
0.0695627
0.0577273
5.64018e-05
0.0576827
0.000132885
0.0576438
0.000153232
0.0576158
0.000149403
0.0575971
0.00014006
0.0575867
0.000127829
0.0575833
0.000113688
0.057585
9.97526e-05
0.0575901
8.73277e-05
7.65997e-05
0.0575975
0.0437019
0.0001045
0.0436446
0.000190152
0.0436159
0.000181973
0.0436102
0.000155139
0.0436195
0.000130742
0.0436387
0.000108613
0.0436633
8.90773e-05
0.0436899
7.31918e-05
0.0437164
6.08418e-05
5.12123e-05
0.0437418
0.0276717
0.000182816
0.0276695
0.000192374
0.0277162
0.000135201
0.0277774
9.39482e-05
0.0278399
6.83043e-05
0.0278981
5.03802e-05
0.0279497
3.74915e-05
0.0279943
2.86106e-05
0.0280326
2.25607e-05
1.82836e-05
0.0280655
0.00993282
0.0101252
0.0102604
0.0103543
0.0104226
0.010473
0.0105105
0.0105391
0.0105617
0.01058
0.0105951
-1.51148e-05
0.0106078
-1.27028e-05
0.0106186
-1.08362e-05
0.010628
-9.36829e-06
0.0106362
-8.19059e-06
0.0106434
-7.22614e-06
0.0106498
-6.42397e-06
0.0106556
-5.75149e-06
0.0106608
-5.18592e-06
0.0106655
-4.70857e-06
0.0106698
-4.30253e-06
0.0106737
-3.95276e-06
0.0106774
-3.64725e-06
0.0106808
-3.37721e-06
0.0106839
-3.13666e-06
0.0106868
-2.92165e-06
0.0106896
-2.7293e-06
0.0106921
-2.55721e-06
0.0106945
-2.40311e-06
0.0106968
-2.26465e-06
0.0106989
-2.13956e-06
0.0107009
-2.02564e-06
0.0107029
-1.92103e-06
0.0107047
-1.82421e-06
0.0107064
-1.73407e-06
0.0107081
-1.64987e-06
0.0107096
-1.57116e-06
0.0107111
-1.49762e-06
0.0107126
-1.42906e-06
0.0107139
-1.36525e-06
0.0107152
-1.30591e-06
0.0107165
-1.25069e-06
0.0107177
-1.19919e-06
0.0107188
-1.15097e-06
-1.1056e-06
0.0107199
0.0280939
-4.35609e-05
0.0281187
-3.74113e-05
0.0281403
-3.24445e-05
0.0281593
-2.84093e-05
0.0281762
-2.50928e-05
0.0281913
-2.23262e-05
0.0282049
-1.99892e-05
0.0282171
-1.80017e-05
0.0282282
-1.63085e-05
0.0282384
-1.48638e-05
0.0282477
-1.36247e-05
0.0282563
-1.25516e-05
0.0282643
-1.16107e-05
0.0282717
-1.07762e-05
0.0282786
-1.00305e-05
0.028285
-9.36126e-06
0.0282911
-8.7602e-06
0.0282967
-8.22024e-06
0.028302
-7.7348e-06
0.0283071
-7.29722e-06
0.0283118
-6.90086e-06
0.0283163
-6.53949e-06
0.0283206
-6.20753e-06
0.0283247
-5.90046e-06
0.0283286
-5.61479e-06
0.0283323
-5.34804e-06
0.0283358
-5.09856e-06
0.0283392
-4.8652e-06
0.0283424
-4.64713e-06
0.0283455
-4.44355e-06
0.0283484
-4.25361e-06
0.0283513
-4.07632e-06
0.028354
-3.91055e-06
0.0283566
-3.7551e-06
-3.60878e-06
0.0283591
0.0437656
-6.73629e-05
0.0437876
-5.94406e-05
0.0438079
-5.26961e-05
0.0438264
-4.69816e-05
0.0438435
-4.21266e-05
0.0438591
-3.79655e-05
0.0438735
-3.43671e-05
0.0438867
-3.1242e-05
0.0438989
-2.85298e-05
0.0439103
-2.618e-05
0.0439208
-2.41403e-05
0.0439306
-2.2357e-05
0.0439397
-2.07808e-05
0.0439483
-1.93719e-05
0.0439564
-1.81027e-05
0.043964
-1.69552e-05
0.0439712
-1.59171e-05
0.0439779
-1.4979e-05
0.0439843
-1.41312e-05
0.0439904
-1.33636e-05
0.0439961
-1.26656e-05
0.0440016
-1.20269e-05
0.0440069
-1.14383e-05
0.0440119
-1.08923e-05
0.0440166
-1.03832e-05
0.0440212
-9.90676e-06
0.0440255
-9.46022e-06
0.0440297
-9.04161e-06
0.0440337
-8.64939e-06
0.0440376
-8.28217e-06
0.0440412
-7.93847e-06
0.0440448
-7.61663e-06
0.0440482
-7.3148e-06
0.0440515
-7.03102e-06
-6.76336e-06
0.0440546
0.0576062
-7.60837e-05
0.0576157
-6.89039e-05
0.0576254
-6.24734e-05
0.0576352
-5.67988e-05
0.0576449
-5.18143e-05
0.0576544
-4.74155e-05
0.0576635
-4.3507e-05
0.0576723
-4.00266e-05
0.0576807
-3.6939e-05
0.0576888
-3.42151e-05
0.0576964
-3.18167e-05
0.0577038
-2.96947e-05
0.0577108
-2.7798e-05
0.0577175
-2.60832e-05
0.0577239
-2.45198e-05
0.05773
-2.30894e-05
0.0577359
-2.17819e-05
0.0577415
-2.05895e-05
0.0577469
-1.95042e-05
0.057752
-1.85157e-05
0.057757
-1.76118e-05
0.0577617
-1.67801e-05
0.0577663
-1.60094e-05
0.0577707
-1.52902e-05
0.0577749
-1.46158e-05
0.057779
-1.39814e-05
0.0577829
-1.33841e-05
0.0577867
-1.28218e-05
0.0577904
-1.22931e-05
0.0577939
-1.17962e-05
0.0577973
-1.13294e-05
0.0578005
-1.08906e-05
0.0578037
-1.04775e-05
0.0578068
-1.00875e-05
-9.71828e-06
0.0578097
0.0695585
-7.18287e-05
0.0695558
-6.62818e-05
0.0695545
-6.11281e-05
0.0695541
-5.64482e-05
0.0695546
-5.22424e-05
0.0695556
-4.84538e-05
0.0695571
-4.50178e-05
0.069559
-4.18951e-05
0.0695611
-3.90727e-05
0.0695635
-3.65442e-05
0.0695659
-3.42912e-05
0.0695685
-3.22784e-05
0.0695712
-3.04619e-05
0.0695739
-2.88012e-05
0.0695766
-2.72675e-05
0.0695794
-2.58454e-05
0.0695821
-2.45288e-05
0.0695849
-2.33154e-05
0.0695876
-2.22015e-05
0.0695902
-2.11801e-05
0.0695929
-2.02405e-05
0.0695955
-1.93707e-05
0.069598
-1.85589e-05
0.0696005
-1.77954e-05
0.069603
-1.70735e-05
0.0696054
-1.6389e-05
0.0696077
-1.57397e-05
0.06961
-1.51246e-05
0.0696123
-1.45432e-05
0.0696145
-1.39942e-05
0.0696166
-1.34763e-05
0.0696187
-1.29873e-05
0.0696208
-1.25248e-05
0.0696228
-1.20859e-05
-1.16683e-05
0.0696247
0.0795581
-6.07682e-05
0.0795486
-5.66942e-05
0.0795403
-5.28178e-05
0.0795331
-4.92418e-05
0.0795268
-4.59961e-05
0.0795214
-4.30484e-05
0.0795167
-4.0349e-05
0.0795127
-3.78679e-05
0.0795092
-3.56012e-05
0.0795062
-3.35544e-05
0.0795037
-3.17223e-05
0.0795015
-3.00809e-05
0.0794996
-2.85945e-05
0.079498
-2.7227e-05
0.0794967
-2.59519e-05
0.0794956
-2.47559e-05
0.0794947
-2.36362e-05
0.079494
-2.25941e-05
0.0794934
-2.16305e-05
0.079493
-2.0742e-05
0.0794927
-1.99211e-05
0.0794925
-1.91574e-05
0.0794924
-1.844e-05
0.0794923
-1.77598e-05
0.0794924
-1.71106e-05
0.0794925
-1.6489e-05
0.0794926
-1.58941e-05
0.0794928
-1.53261e-05
0.079493
-1.47855e-05
0.0794933
-1.42726e-05
0.0794936
-1.37864e-05
0.079494
-1.33252e-05
0.0794943
-1.28869e-05
0.0794947
-1.24687e-05
-1.20683e-05
0.0794951
0.0875691
-4.68484e-05
0.0875564
-4.39678e-05
0.0875448
-4.1179e-05
0.0875341
-3.85798e-05
0.0875243
-3.62101e-05
0.0875153
-3.40541e-05
0.0875071
-3.20756e-05
0.0874994
-3.02508e-05
0.0874924
-2.85775e-05
0.0874859
-2.70641e-05
0.0874799
-2.57113e-05
0.0874743
-2.4504e-05
0.0874692
-2.34143e-05
0.0874643
-2.24123e-05
0.0874599
-2.14748e-05
0.0874557
-2.05899e-05
0.0874518
-1.97553e-05
0.0874482
-1.89737e-05
0.0874448
-1.82477e-05
0.0874416
-1.75767e-05
0.0874387
-1.69559e-05
0.0874359
-1.63772e-05
0.0874333
-1.58315e-05
0.0874309
-1.5311e-05
0.0874285
-1.48101e-05
0.0874264
-1.43259e-05
0.0874243
-1.38583e-05
0.0874224
-1.34082e-05
0.0874206
-1.29769e-05
0.0874189
-1.25656e-05
0.0874173
-1.2174e-05
0.0874158
-1.18011e-05
0.0874143
-1.1445e-05
0.087413
-1.11037e-05
-1.07748e-05
0.0874117
0.0935791
-3.17088e-05
0.093565
-2.9857e-05
0.0935519
-2.80383e-05
0.0935396
-2.63287e-05
0.0935282
-2.47652e-05
0.0935175
-2.33426e-05
0.0935074
-2.20373e-05
0.093498
-2.08324e-05
0.0934891
-1.97261e-05
0.0934808
-1.87257e-05
0.0934729
-1.78346e-05
0.0934655
-1.7044e-05
0.0934584
-1.63355e-05
0.0934517
-1.56871e-05
0.0934453
-1.50813e-05
0.0934392
-1.45085e-05
0.0934334
-1.39666e-05
0.0934279
-1.34577e-05
0.0934226
-1.29844e-05
0.0934176
-1.25472e-05
0.0934128
-1.21434e-05
0.0934082
-1.17674e-05
0.0934038
-1.14127e-05
0.0933995
-1.10732e-05
0.0933955
-1.07447e-05
0.0933916
-1.0425e-05
0.0933878
-1.01137e-05
0.0933842
-9.81211e-06
0.0933808
-9.52151e-06
0.0933774
-9.24308e-06
0.0933742
-8.97717e-06
0.0933712
-8.72321e-06
0.0933682
-8.47995e-06
0.0933653
-8.24573e-06
-8.0189e-06
0.0933626
0.0975857
-1.59816e-05
0.0975709
-1.50744e-05
0.097557
-1.41752e-05
0.097544
-1.33247e-05
0.0975318
-1.25444e-05
0.0975203
-1.18339e-05
0.0975095
-1.11824e-05
0.0974992
-1.05809e-05
0.0974895
-1.00286e-05
0.0974803
-9.52928e-06
0.0974716
-9.08518e-06
0.0974632
-8.69269e-06
0.0974552
-8.34263e-06
0.0974476
-8.02387e-06
0.0974402
-7.727e-06
0.0974331
-7.44662e-06
0.0974263
-7.18134e-06
0.0974198
-6.9321e-06
0.0974135
-6.70038e-06
0.0974075
-6.48657e-06
0.0974016
-6.2894e-06
0.097396
-6.10618e-06
0.0973905
-5.93346e-06
0.0973852
-5.76806e-06
0.0973801
-5.60754e-06
0.0973751
-5.45069e-06
0.0973703
-5.29734e-06
0.0973656
-5.14806e-06
0.0973611
-5.00371e-06
0.0973567
-4.86497e-06
0.0973524
-4.73214e-06
0.0973483
-4.60498e-06
0.0973443
-4.48286e-06
0.0973405
-4.36489e-06
-4.25018e-06
0.0973367
0.0995889
2.13532e-09
0.0995738
4.26432e-10
0.0995596
-4.93688e-10
0.0995463
4.37031e-10
0.0995337
2.46371e-09
0.0995219
3.98576e-09
0.0995107
3.98334e-09
0.0995001
2.70053e-09
0.0994901
1.32685e-09
0.0994806
8.4972e-10
0.0994715
1.47501e-09
0.0994628
2.77858e-09
0.0994545
4.10159e-09
0.0994464
5.01075e-09
0.0994387
5.37287e-09
0.0994312
5.31819e-09
0.099424
5.1103e-09
0.0994171
4.96209e-09
0.0994104
5.0539e-09
0.0994039
5.43919e-09
0.0993976
6.09502e-09
0.0993915
6.95694e-09
0.0993856
7.90828e-09
0.0993798
8.86751e-09
0.0993742
9.75825e-09
0.0993687
1.05584e-08
0.0993634
1.12921e-08
0.0993582
1.20035e-08
0.0993532
1.27698e-08
0.0993483
1.36443e-08
0.0993436
1.46816e-08
0.099339
1.59036e-08
0.0993345
1.73135e-08
0.0993301
1.88979e-08
2.0623e-08
0.0993258
0.0995889
1.59848e-05
0.0995738
1.50758e-05
0.0995596
1.41756e-05
0.0995463
1.33264e-05
0.0995337
1.25489e-05
0.0995219
1.18406e-05
0.0995107
1.11891e-05
0.0995001
1.05859e-05
0.0994901
1.00318e-05
0.0994806
9.5319e-06
0.0994715
9.08883e-06
0.0994628
8.69839e-06
0.0994545
8.35047e-06
0.0994464
8.03324e-06
0.0994387
7.7371e-06
0.0994312
7.45684e-06
0.099424
7.1914e-06
0.0994171
6.94213e-06
0.0994104
6.71071e-06
0.0994039
6.49766e-06
0.0993976
6.30168e-06
0.0993915
6.11996e-06
0.0993856
5.94896e-06
0.0993798
5.78529e-06
0.0993742
5.62648e-06
0.0993687
5.47123e-06
0.0993634
5.31941e-06
0.0993582
5.17165e-06
0.0993532
5.02891e-06
0.0993483
4.89197e-06
0.0993436
4.7612e-06
0.099339
4.63641e-06
0.0993345
4.517e-06
0.0993301
4.40205e-06
4.29064e-06
0.0993258
0.0975857
3.17126e-05
0.0975709
2.98584e-05
0.097557
2.80385e-05
0.097544
2.63305e-05
0.0975318
2.47697e-05
0.0975203
2.33488e-05
0.0975095
2.20432e-05
0.0974992
2.08366e-05
0.0974895
1.97291e-05
0.0974803
1.87289e-05
0.0974716
1.78391e-05
0.0974632
1.70503e-05
0.0974552
1.63432e-05
0.0974476
1.56956e-05
0.0974402
1.50902e-05
0.0974331
1.45176e-05
0.0974263
1.39759e-05
0.0974198
1.34674e-05
0.0974135
1.29949e-05
0.0974075
1.25586e-05
0.0974016
1.21558e-05
0.097396
1.17809e-05
0.0973905
1.14274e-05
0.0973852
1.10893e-05
0.0973801
1.07622e-05
0.0973751
1.04439e-05
0.0973703
1.01343e-05
0.0973656
9.83435e-06
0.0973611
9.54553e-06
0.0973567
9.26901e-06
0.0973525
9.00515e-06
0.0973483
8.75343e-06
0.0973443
8.51262e-06
0.0973405
8.28106e-06
8.05712e-06
0.0973367
0.0935791
4.68512e-05
0.093565
4.39701e-05
0.0935519
4.11813e-05
0.0935396
3.85827e-05
0.0935282
3.62138e-05
0.0935175
3.40581e-05
0.0935074
3.20793e-05
0.093498
3.02542e-05
0.0934891
2.85814e-05
0.0934808
2.70689e-05
0.0934729
2.57171e-05
0.0934655
2.45104e-05
0.0934584
2.34209e-05
0.0934517
2.24191e-05
0.0934453
2.14819e-05
0.0934392
2.05976e-05
0.0934334
1.97639e-05
0.0934279
1.89834e-05
0.0934226
1.82584e-05
0.0934176
1.75883e-05
0.0934128
1.69681e-05
0.0934082
1.63899e-05
0.0934038
1.58449e-05
0.0933995
1.53252e-05
0.0933955
1.48254e-05
0.0933916
1.43427e-05
0.0933878
1.38767e-05
0.0933842
1.34284e-05
0.0933808
1.29991e-05
0.0933775
1.25896e-05
0.0933743
1.22e-05
0.0933712
1.18291e-05
0.0933682
1.14751e-05
0.0933654
1.11358e-05
1.08093e-05
0.0933626
0.0875691
6.07707e-05
0.0875564
5.66969e-05
0.0875448
5.2821e-05
0.0875341
4.92454e-05
0.0875243
4.59993e-05
0.0875153
4.30506e-05
0.0875071
4.03508e-05
0.0874994
3.78707e-05
0.0874924
3.56057e-05
0.0874859
3.35604e-05
0.0874799
3.17287e-05
0.0874743
3.0087e-05
0.0874692
2.85998e-05
0.0874643
2.72318e-05
0.0874599
2.59571e-05
0.0874557
2.47623e-05
0.0874518
2.36441e-05
0.0874482
2.26035e-05
0.0874448
2.1641e-05
0.0874417
2.07532e-05
0.0874387
1.99325e-05
0.0874359
1.91687e-05
0.0874333
1.84514e-05
0.0874309
1.77717e-05
0.0874286
1.71234e-05
0.0874264
1.65032e-05
0.0874244
1.59099e-05
0.0874225
1.53437e-05
0.0874206
1.48051e-05
0.0874189
1.42939e-05
0.0874173
1.38094e-05
0.0874158
1.33498e-05
0.0874144
1.2913e-05
0.087413
1.24964e-05
1.20977e-05
0.0874117
0.0795581
7.18313e-05
0.0795486
6.62857e-05
0.0795403
6.11324e-05
0.0795331
5.64514e-05
0.0795268
5.22437e-05
0.0795214
4.84539e-05
0.0795167
4.50187e-05
0.0795127
4.18981e-05
0.0795092
3.9078e-05
0.0795062
3.65506e-05
0.0795037
3.42971e-05
0.0795015
3.2283e-05
0.0794996
3.04654e-05
0.079498
2.88044e-05
0.0794967
2.72715e-05
0.0794956
2.58508e-05
0.0794947
2.45359e-05
0.079494
2.33239e-05
0.0794935
2.22109e-05
0.079493
2.11897e-05
0.0794927
2.02501e-05
0.0794925
1.93801e-05
0.0794924
1.85683e-05
0.0794923
1.78051e-05
0.0794924
1.70839e-05
0.0794925
1.64005e-05
0.0794926
1.57526e-05
0.0794928
1.51391e-05
0.0794931
1.45592e-05
0.0794934
1.40117e-05
0.0794937
1.34952e-05
0.079494
1.30074e-05
0.0794944
1.25459e-05
0.0794948
1.21082e-05
1.16917e-05
0.0794952
0.0695585
7.60861e-05
0.0695558
6.89085e-05
0.0695545
6.24787e-05
0.0695541
5.68019e-05
0.0695546
5.18141e-05
0.0695556
4.74139e-05
0.0695571
4.3507e-05
0.069559
4.00298e-05
0.0695611
3.69446e-05
0.0695635
3.42211e-05
0.0695659
3.18212e-05
0.0695685
2.96974e-05
0.0695712
2.77997e-05
0.0695739
2.60852e-05
0.0695766
2.4523e-05
0.0695794
2.30942e-05
0.0695822
2.1788e-05
0.0695849
2.05964e-05
0.0695876
1.95115e-05
0.0695903
1.85229e-05
0.0695929
1.76189e-05
0.0695955
1.67871e-05
0.069598
1.60165e-05
0.0696005
1.52977e-05
0.069603
1.46239e-05
0.0696054
1.39903e-05
0.0696078
1.33939e-05
0.0696101
1.28327e-05
0.0696123
1.23049e-05
0.0696145
1.1809e-05
0.0696167
1.13432e-05
0.0696188
1.09052e-05
0.0696208
1.04929e-05
0.0696228
1.01036e-05
9.73525e-06
0.0696248
0.0576062
6.73663e-05
0.0576157
5.94455e-05
0.0576254
5.27002e-05
0.0576352
4.69829e-05
0.0576449
4.21252e-05
0.0576544
3.79639e-05
0.0576635
3.43676e-05
0.0576723
3.12451e-05
0.0576807
2.85341e-05
0.0576888
2.61837e-05
0.0576964
2.41426e-05
0.0577038
2.23582e-05
0.0577108
2.07816e-05
0.0577175
1.93734e-05
0.0577239
1.81052e-05
0.0577301
1.69586e-05
0.0577359
1.59212e-05
0.0577415
1.49833e-05
0.0577469
1.41356e-05
0.0577521
1.33682e-05
0.057757
1.26703e-05
0.0577618
1.20318e-05
0.0577663
1.14435e-05
0.0577707
1.08977e-05
0.057775
1.03888e-05
0.0577791
9.91269e-06
0.057783
9.46649e-06
0.0577868
9.04836e-06
0.0577904
8.65667e-06
0.0577939
8.2901e-06
0.0577973
7.94701e-06
0.0578006
7.62582e-06
0.0578038
7.32453e-06
0.0578068
7.04132e-06
6.77413e-06
0.0578098
0.0437656
4.35636e-05
0.0437876
3.74158e-05
0.0438079
3.24481e-05
0.0438264
2.84096e-05
0.0438435
2.50906e-05
0.0438591
2.23244e-05
0.0438735
1.99894e-05
0.0438867
1.80039e-05
0.0438989
1.63111e-05
0.0439103
1.48656e-05
0.0439208
1.36255e-05
0.0439306
1.25519e-05
0.0439397
1.16111e-05
0.0439483
1.07772e-05
0.0439564
1.00318e-05
0.043964
9.36292e-06
0.0439712
8.76195e-06
0.0439779
8.22212e-06
0.0439843
7.73691e-06
0.0439904
7.29967e-06
0.0439962
6.90367e-06
0.0440017
6.54254e-06
0.0440069
6.21066e-06
0.0440119
5.90352e-06
0.0440167
5.61768e-06
0.0440212
5.35081e-06
0.0440256
5.10132e-06
0.0440298
4.86812e-06
0.0440338
4.65035e-06
0.0440376
4.44721e-06
0.0440413
4.25773e-06
0.0440448
4.08088e-06
0.0440483
3.91548e-06
0.0440515
3.76032e-06
3.6142e-06
0.0440547
0.0280939
1.51171e-05
0.0281187
1.27048e-05
0.0281403
1.08368e-05
0.0281593
9.36761e-06
0.0281762
8.18954e-06
0.0281913
7.22564e-06
0.0282049
6.42429e-06
0.0282171
5.75222e-06
0.0282283
5.18659e-06
0.0282384
4.70895e-06
0.0282477
4.30268e-06
0.0282563
3.95287e-06
0.0282643
3.64743e-06
0.0282717
3.37742e-06
0.0282786
3.13689e-06
0.028285
2.92188e-06
0.0282911
2.72962e-06
0.0282967
2.55773e-06
0.0283021
2.4039e-06
0.0283071
2.26569e-06
0.0283119
2.14073e-06
0.0283164
2.0268e-06
0.0283207
1.92205e-06
0.0283247
1.82501e-06
0.0283286
1.73467e-06
0.0283323
1.65032e-06
0.0283358
1.57159e-06
0.0283392
1.49815e-06
0.0283424
1.42978e-06
0.0283455
1.3662e-06
0.0283485
1.30709e-06
0.0283513
1.25204e-06
0.028354
1.20065e-06
0.0283566
1.15245e-06
1.10707e-06
0.0283591
0.0105951
0.0106078
0.0106186
0.010628
0.0106362
0.0106434
0.0106498
0.0106556
0.0106608
0.0106655
0.0106698
0.0106737
0.0106774
0.0106808
0.0106839
0.0106868
0.0106896
0.0106921
0.0106945
0.0106968
0.0106989
0.010701
0.0107029
0.0107047
0.0107064
0.0107081
0.0107097
0.0107112
0.0107126
0.0107139
0.0107153
0.0107165
0.0107177
0.0107189
0.01072
0.010721
-1.06269e-06
0.010722
-1.02194e-06
0.010723
-9.83096e-07
0.010724
-9.4602e-07
0.0107249
-9.10596e-07
0.0107257
-8.768e-07
0.0107266
-8.44585e-07
0.0107274
-8.13954e-07
0.0107282
-7.84852e-07
-7.5725e-07
0.0107289
0.0283615
-3.47049e-06
0.0283638
-3.33926e-06
0.028366
-3.21432e-06
0.0283682
-3.09513e-06
0.0283702
-2.98129e-06
0.0283722
-2.87257e-06
0.0283742
-2.76881e-06
0.028376
-2.66991e-06
0.0283778
-2.57575e-06
-2.48617e-06
0.0283795
0.0440577
-6.50998e-06
0.0440606
-6.26931e-06
0.0440634
-6.04002e-06
0.0440661
-5.82113e-06
0.0440688
-5.61192e-06
0.0440713
-5.41192e-06
0.0440738
-5.2208e-06
0.0440761
-5.03831e-06
0.0440784
-4.86422e-06
-4.69824e-06
0.0440806
0.0578126
-9.36758e-06
0.0578153
-9.03347e-06
0.057818
-8.7144e-06
0.0578206
-8.40916e-06
0.0578231
-8.11692e-06
0.0578255
-7.83705e-06
0.0578279
-7.56913e-06
0.0578302
-7.3128e-06
0.0578324
-7.0677e-06
-6.83341e-06
0.0578345
0.0696266
-1.12695e-05
0.0696285
-1.08878e-05
0.0696303
-1.05216e-05
0.069632
-1.017e-05
0.0696338
-9.83234e-06
0.0696354
-9.50807e-06
0.0696371
-9.19685e-06
0.0696386
-8.89832e-06
0.0696402
-8.6121e-06
-8.33767e-06
0.0696417
0.0794955
-1.16835e-05
0.079496
-1.13127e-05
0.0794964
-1.0955e-05
0.0794968
-1.06098e-05
0.0794973
-1.02767e-05
0.0794977
-9.95561e-06
0.0794982
-9.64644e-06
0.0794986
-9.34898e-06
0.0794991
-9.06288e-06
-8.78767e-06
0.0794995
0.0874104
-1.04566e-05
0.0874093
-1.01478e-05
0.0874082
-9.84794e-06
0.0874071
-9.55671e-06
0.0874061
-9.27425e-06
0.0874052
-9.00079e-06
0.0874043
-8.73648e-06
0.0874034
-8.48134e-06
0.0874026
-8.23515e-06
-7.99754e-06
0.0874018
0.0933599
-7.79811e-06
0.0933574
-7.58249e-06
0.0933549
-7.3717e-06
0.0933525
-7.16578e-06
0.0933502
-6.96505e-06
0.093348
-6.76987e-06
0.0933458
-6.58056e-06
0.0933437
-6.39723e-06
0.0933417
-6.21982e-06
-6.04804e-06
0.0933397
0.097333
-4.138e-06
0.0973295
-4.02792e-06
0.097326
-3.91978e-06
0.0973227
-3.81367e-06
0.0973194
-3.70983e-06
0.0973162
-3.60853e-06
0.0973132
-3.50998e-06
0.0973102
-3.41429e-06
0.0973073
-3.32143e-06
-3.23124e-06
0.0973045
0.0993217
2.24571e-08
0.0993176
2.43602e-08
0.0993137
2.63045e-08
0.0993098
2.82717e-08
0.0993061
3.02561e-08
0.0993024
3.22712e-08
0.0992989
3.43353e-08
0.0992954
3.64812e-08
0.0992921
3.87363e-08
4.11295e-08
0.0992888
0.0993217
4.18199e-06
0.0993176
4.07558e-06
0.0993137
3.97122e-06
0.0993098
3.86896e-06
0.0993061
3.76902e-06
0.0993024
3.67171e-06
0.0992989
3.57725e-06
0.0992954
3.48581e-06
0.0992921
3.39741e-06
3.31194e-06
0.0992888
0.097333
7.83943e-06
0.0973295
7.6271e-06
0.097326
7.41974e-06
0.0973227
7.21739e-06
0.0973194
7.02036e-06
0.0973163
6.82901e-06
0.0973132
6.64367e-06
0.0973102
6.46447e-06
0.0973073
6.29137e-06
6.1241e-06
0.0973045
0.09336
1.04936e-05
0.0933574
1.01876e-05
0.0933549
9.89065e-06
0.0933525
9.60259e-06
0.0933502
9.3235e-06
0.093348
9.05359e-06
0.0933459
8.79301e-06
0.0933438
8.54173e-06
0.0933418
8.29955e-06
8.06604e-06
0.0933398
0.0874105
1.17148e-05
0.0874093
1.13462e-05
0.0874082
1.09909e-05
0.0874072
1.06484e-05
0.0874062
1.03182e-05
0.0874053
1.00003e-05
0.0874044
9.69441e-06
0.0874035
9.40035e-06
0.0874027
9.11774e-06
8.84604e-06
0.0874019
0.0794956
1.12943e-05
0.079496
1.09141e-05
0.0794965
1.05498e-05
0.0794969
1.02003e-05
0.0794974
9.865e-06
0.0794978
9.54331e-06
0.0794983
9.23476e-06
0.0794988
8.93901e-06
0.0794992
8.65555e-06
8.3839e-06
0.0794997
0.0696267
9.38545e-06
0.0696286
9.05245e-06
0.0696304
8.73463e-06
0.0696321
8.43091e-06
0.0696339
8.14031e-06
0.0696355
7.86228e-06
0.0696372
7.59626e-06
0.0696388
7.34192e-06
0.0696403
7.09877e-06
6.86646e-06
0.0696419
0.0578127
6.52132e-06
0.0578154
6.2812e-06
0.0578181
6.05265e-06
0.0578207
5.83454e-06
0.0578232
5.62632e-06
0.0578257
5.42735e-06
0.057828
5.23743e-06
0.0578303
5.05612e-06
0.0578325
4.88332e-06
4.71854e-06
0.0578347
0.0440577
3.47606e-06
0.0440607
3.34499e-06
0.0440635
3.22027e-06
0.0440662
3.10137e-06
0.0440689
2.98793e-06
0.0440714
2.8797e-06
0.0440739
2.77652e-06
0.0440763
2.67825e-06
0.0440786
2.58475e-06
2.49583e-06
0.0440808
0.0283615
1.06411e-06
0.0283639
1.02333e-06
0.0283661
9.84484e-07
0.0283682
9.47459e-07
0.0283703
9.12137e-07
0.0283723
8.78498e-07
0.0283743
8.46476e-07
0.0283761
8.16068e-07
0.0283779
7.87193e-07
7.59816e-07
0.0283796
0.010721
0.0107221
0.010723
0.010724
0.0107249
0.0107258
0.0107266
0.0107274
0.0107282
0.010729
0.0107297
-7.31045e-07
0.0107304
-7.06162e-07
0.0107311
-6.82466e-07
0.0107317
-6.59859e-07
0.0107324
-6.38207e-07
0.010733
-6.17433e-07
0.0107336
-5.97431e-07
0.0107342
-5.78163e-07
0.0107347
-5.59561e-07
0.0107353
-5.41625e-07
0.0107358
-5.24312e-07
0.0107363
-5.07641e-07
0.0107368
-4.91579e-07
0.0107373
-4.7614e-07
0.0107377
-4.61286e-07
0.0107382
-4.47021e-07
0.0107386
-4.33295e-07
0.010739
-4.20103e-07
0.0107394
-4.07386e-07
0.0107398
-3.95137e-07
0.0107402
-3.83299e-07
0.0107406
-3.7187e-07
0.0107409
-3.60801e-07
0.0107413
-3.50097e-07
0.0107416
-3.39719e-07
0.0107419
-3.29683e-07
0.0107423
-3.19954e-07
0.0107426
-3.10553e-07
0.0107429
-3.01447e-07
0.0107432
-2.9266e-07
0.0107435
-2.84157e-07
0.0107437
-2.75962e-07
0.010744
-2.68038e-07
0.0107443
-2.60417e-07
-2.53071e-07
0.0107445
0.0283812
-2.40096e-06
0.0283828
-2.31986e-06
0.0283844
-2.24255e-06
0.0283859
-2.16872e-06
0.0283873
-2.09804e-06
0.0283888
-2.03022e-06
0.0283901
-1.96498e-06
0.0283914
-1.90213e-06
0.0283927
-1.84151e-06
0.028394
-1.78301e-06
0.0283952
-1.72656e-06
0.0283963
-1.67212e-06
0.0283975
-1.61964e-06
0.0283986
-1.5691e-06
0.0283996
-1.52043e-06
0.0284006
-1.47359e-06
0.0284016
-1.4285e-06
0.0284026
-1.38507e-06
0.0284035
-1.3432e-06
0.0284044
-1.30282e-06
0.0284053
-1.26381e-06
0.0284062
-1.22609e-06
0.028407
-1.18959e-06
0.0284078
-1.15424e-06
0.0284086
-1.11999e-06
0.0284094
-1.0868e-06
0.0284101
-1.05464e-06
0.0284108
-1.02349e-06
0.0284115
-9.93322e-07
0.0284122
-9.64134e-07
0.0284128
-9.35895e-07
0.0284135
-9.08611e-07
0.0284141
-8.82255e-07
0.0284147
-8.56846e-07
-8.32378e-07
0.0284152
0.0440828
-4.53999e-06
0.0440848
-4.38903e-06
0.0440868
-4.24485e-06
0.0440888
-4.10693e-06
0.0440906
-3.97472e-06
0.0440925
-3.84773e-06
0.0440942
-3.72553e-06
0.0440959
-3.60775e-06
0.0440976
-3.49413e-06
0.0440992
-3.38446e-06
0.0441007
-3.27859e-06
0.0441022
-3.17642e-06
0.0441037
-3.07785e-06
0.0441051
-2.98282e-06
0.0441065
-2.8912e-06
0.0441078
-2.8029e-06
0.0441091
-2.71778e-06
0.0441104
-2.63568e-06
0.0441116
-2.55644e-06
0.0441127
-2.4799e-06
0.0441139
-2.40591e-06
0.044115
-2.33431e-06
0.0441161
-2.26497e-06
0.0441171
-2.19778e-06
0.0441181
-2.13265e-06
0.0441191
-2.06951e-06
0.0441201
-2.00829e-06
0.044121
-1.94896e-06
0.0441219
-1.89146e-06
0.0441228
-1.83577e-06
0.0441236
-1.78185e-06
0.0441244
-1.72969e-06
0.0441252
-1.67925e-06
0.044126
-1.63056e-06
-1.58361e-06
0.0441268
0.0578366
-6.60941e-06
0.0578386
-6.39513e-06
0.0578405
-6.18992e-06
0.0578424
-5.99311e-06
0.0578442
-5.80404e-06
0.057846
-5.62211e-06
0.0578477
-5.44678e-06
0.0578494
-5.27761e-06
0.057851
-5.11427e-06
0.0578526
-4.95648e-06
0.0578541
-4.80404e-06
0.0578556
-4.65679e-06
0.057857
-4.51459e-06
0.0578584
-4.37729e-06
0.0578598
-4.24475e-06
0.0578611
-4.11679e-06
0.0578624
-3.99322e-06
0.0578636
-3.87385e-06
0.0578648
-3.75845e-06
0.057866
-3.64682e-06
0.0578671
-3.53875e-06
0.0578682
-3.43406e-06
0.0578693
-3.33258e-06
0.0578703
-3.23416e-06
0.0578713
-3.13869e-06
0.0578723
-3.04607e-06
0.0578732
-2.9562e-06
0.0578742
-2.86903e-06
0.0578751
-2.78448e-06
0.0578759
-2.70251e-06
0.0578768
-2.62307e-06
0.0578776
-2.54612e-06
0.0578784
-2.47163e-06
0.0578791
-2.3996e-06
-2.33004e-06
0.0578799
0.0696431
-8.07446e-06
0.0696446
-7.8218e-06
0.069646
-7.57899e-06
0.0696473
-7.34534e-06
0.0696486
-7.12018e-06
0.0696499
-6.90292e-06
0.0696512
-6.69305e-06
0.0696524
-6.49017e-06
0.0696536
-6.29394e-06
0.0696547
-6.10411e-06
0.0696558
-5.92047e-06
0.0696569
-5.74283e-06
0.069658
-5.57103e-06
0.069659
-5.4049e-06
0.06966
-5.24423e-06
0.069661
-5.08882e-06
0.0696619
-4.93844e-06
0.0696628
-4.79288e-06
0.0696637
-4.65189e-06
0.0696646
-4.51525e-06
0.0696654
-4.38275e-06
0.0696662
-4.25419e-06
0.069667
-4.12941e-06
0.0696678
-4.00825e-06
0.0696686
-3.89059e-06
0.0696693
-3.77631e-06
0.06967
-3.66533e-06
0.0696707
-3.55756e-06
0.0696714
-3.45293e-06
0.069672
-3.35137e-06
0.0696726
-3.25283e-06
0.0696733
-3.15725e-06
0.0696739
-3.06461e-06
0.0696744
-2.97488e-06
-2.88809e-06
0.069675
0.0795
-8.52275e-06
0.0795004
-8.26747e-06
0.0795009
-8.02114e-06
0.0795013
-7.78314e-06
0.0795017
-7.55289e-06
0.0795022
-7.32991e-06
0.0795026
-7.11385e-06
0.079503
-6.9044e-06
0.0795034
-6.70135e-06
0.0795038
-6.50451e-06
0.0795042
-6.31375e-06
0.0795046
-6.12889e-06
0.079505
-5.94978e-06
0.0795053
-5.77624e-06
0.0795057
-5.60807e-06
0.079506
-5.44505e-06
0.0795064
-5.28696e-06
0.0795067
-5.13356e-06
0.0795071
-4.98465e-06
0.0795074
-4.84002e-06
0.0795077
-4.69947e-06
0.079508
-4.56285e-06
0.0795083
-4.43001e-06
0.0795086
-4.30083e-06
0.0795089
-4.1752e-06
0.0795092
-4.05303e-06
0.0795094
-3.93422e-06
0.0795097
-3.8187e-06
0.07951
-3.70641e-06
0.0795102
-3.59727e-06
0.0795104
-3.49122e-06
0.0795107
-3.38822e-06
0.0795109
-3.28824e-06
0.0795111
-3.19125e-06
-3.09728e-06
0.0795113
0.087401
-7.76796e-06
0.0874003
-7.54584e-06
0.0873996
-7.33059e-06
0.0873989
-7.12169e-06
0.0873983
-6.91872e-06
0.0873977
-6.72136e-06
0.0873971
-6.52942e-06
0.0873965
-6.34276e-06
0.087396
-6.16129e-06
0.0873955
-5.98495e-06
0.087395
-5.81367e-06
0.0873945
-5.64736e-06
0.087394
-5.48589e-06
0.0873936
-5.32911e-06
0.0873932
-5.17684e-06
0.0873927
-5.02889e-06
0.0873923
-4.88505e-06
0.087392
-4.74513e-06
0.0873916
-4.60895e-06
0.0873912
-4.47637e-06