/*--------------------------------*- C++ -*----------------------------------*\
| =========                 |                                                 |
| \\      /  F ield         | OpenFOAM: The Open Source CFD Toolbox           |
|  \\    /   O peration     | Version:  2406                                  |
|   \\  /    A nd           | Website:  www.openfoam.com                      |
|    \\/     M anipulation  |                                                 |
\*---------------------------------------------------------------------------*/
FoamFile
{
    version     2.0;
    format      ascii;
    arch        "LSB;label=32;scalar=64";
    class       volVectorField;
    location    "79";
    object      U;
}
// * * * * * * * * * * * * * * * * * * * * * * * * * * * * * * * * * * * * * //

dimensions      [0 1 -1 0 0 0 0];

internalField   nonuniform List<vector> 
2000
(
(0.0984373 -0.00100669 0)
(0.100336 -0.00104432 0)
(0.101965 -0.000605095 0)
(0.103125 -0.000340423 0)
(0.103922 -0.000216119 0)
(0.104503 -0.00014192 0)
(0.104936 -9.36897e-05 0)
(0.105262 -6.5217e-05 0)
(0.105514 -4.87551e-05 0)
(0.105716 -3.82291e-05 0)
(0.276303 -0.00146129 0)
(0.276387 -0.00233345 0)
(0.276931 -0.00200757 0)
(0.277477 -0.00152737 0)
(0.278077 -0.00116338 0)
(0.278692 -0.000889157 0)
(0.279253 -0.000679189 0)
(0.279735 -0.00052626 0)
(0.280147 -0.000418305 0)
(0.280501 -0.000340638 0)
(0.436564 -0.000795887 0)
(0.436454 -0.00161198 0)
(0.436369 -0.00174257 0)
(0.436144 -0.00162656 0)
(0.436099 -0.00146704 0)
(0.436255 -0.00128983 0)
(0.4365 -0.00110662 0)
(0.436765 -0.000939211 0)
(0.437032 -0.000798443 0)
(0.437293 -0.000682884 0)
(0.576765 -0.000425151 0)
(0.576795 -0.00103848 0)
(0.576732 -0.00130232 0)
(0.576352 -0.00135802 0)
(0.576029 -0.0013355 0)
(0.575879 -0.00126959 0)
(0.575833 -0.00117113 0)
(0.575833 -0.00105936 0)
(0.575868 -0.000950386 0)
(0.575932 -0.000850407 0)
(0.696874 -0.000263557 0)
(0.696984 -0.000705093 0)
(0.697033 -0.000958754 0)
(0.696717 -0.00106117 0)
(0.696366 -0.00109078 0)
(0.696129 -0.00108004 0)
(0.695966 -0.00103699 0)
(0.695834 -0.000973529 0)
(0.695728 -0.000902876 0)
(0.695652 -0.000832393 0)
(0.796943 -0.000174451 0)
(0.797085 -0.000485579 0)
(0.797206 -0.000693742 0)
(0.796967 -0.000801319 0)
(0.796647 -0.000849957 0)
(0.796406 -0.000863582 0)
(0.79622 -0.000849207 0)
(0.796048 -0.000814691 0)
(0.795889 -0.00077003 0)
(0.79575 -0.000722015 0)
(0.876987 -0.000116843 0)
(0.877141 -0.000332145 0)
(0.877299 -0.000490177 0)
(0.877115 -0.000584154 0)
(0.87683 -0.000634243 0)
(0.876603 -0.000655883 0)
(0.876417 -0.000654921 0)
(0.876238 -0.000636872 0)
(0.876064 -0.000608892 0)
(0.875903 -0.000576473 0)
(0.937016 -7.54688e-05 0)
(0.937173 -0.000217068 0)
(0.937351 -0.000326783 0)
(0.937201 -0.000397607 0)
(0.936943 -0.000438817 0)
(0.936728 -0.000459413 0)
(0.936548 -0.000463549 0)
(0.936369 -0.000454923 0)
(0.93619 -0.000438269 0)
(0.936021 -0.000417491 0)
(0.977033 -4.25672e-05 0)
(0.97719 -0.000123178 0)
(0.977378 -0.000187523 0)
(0.977249 -0.000231033 0)
(0.977007 -0.000257657 0)
(0.976802 -0.000271942 0)
(0.976626 -0.000276251 0)
(0.976449 -0.000272703 0)
(0.976269 -0.000263991 0)
(0.976095 -0.000252434 0)
(0.997041 -1.3776e-05 0)
(0.997198 -3.99658e-05 0)
(0.99739 -6.11472e-05 0)
(0.99727 -7.57792e-05 0)
(0.997037 -8.49479e-05 0)
(0.996836 -9.00207e-05 0)
(0.996663 -9.17507e-05 0)
(0.996486 -9.0827e-05 0)
(0.996306 -8.81276e-05 0)
(0.99613 -8.44237e-05 0)
(0.997041 1.37799e-05 0)
(0.997198 3.99748e-05 0)
(0.99739 6.11662e-05 0)
(0.99727 7.58095e-05 0)
(0.997037 8.49821e-05 0)
(0.996836 9.00517e-05 0)
(0.996663 9.17785e-05 0)
(0.996486 9.08602e-05 0)
(0.996306 8.81738e-05 0)
(0.99613 8.44761e-05 0)
(0.977033 4.25713e-05 0)
(0.97719 0.000123187 0)
(0.977378 0.00018754 0)
(0.977249 0.000231062 0)
(0.977007 0.000257691 0)
(0.976802 0.000271972 0)
(0.976626 0.000276277 0)
(0.976449 0.000272733 0)
(0.976269 0.000264033 0)
(0.976095 0.000252483 0)
(0.937016 7.5474e-05 0)
(0.937173 0.000217079 0)
(0.937351 0.000326804 0)
(0.937201 0.000397635 0)
(0.936943 0.000438847 0)
(0.936728 0.000459443 0)
(0.936548 0.00046358 0)
(0.936369 0.000454956 0)
(0.93619 0.000438306 0)
(0.936021 0.00041753 0)
(0.876987 0.000116847 0)
(0.877141 0.000332154 0)
(0.877299 0.000490193 0)
(0.877115 0.000584176 0)
(0.87683 0.00063427 0)
(0.876603 0.000655915 0)
(0.876417 0.000654955 0)
(0.876238 0.000636906 0)
(0.876064 0.000608926 0)
(0.875903 0.000576505 0)
(0.796943 0.000174456 0)
(0.797085 0.000485589 0)
(0.797206 0.000693759 0)
(0.796967 0.000801338 0)
(0.796647 0.000849981 0)
(0.796406 0.000863616 0)
(0.79622 0.000849244 0)
(0.796048 0.000814723 0)
(0.795889 0.000770053 0)
(0.79575 0.000722034 0)
(0.696874 0.000263561 0)
(0.696984 0.000705102 0)
(0.697033 0.000958767 0)
(0.696717 0.00106119 0)
(0.696366 0.00109081 0)
(0.696129 0.00108008 0)
(0.695966 0.00103703 0)
(0.695834 0.000973556 0)
(0.695728 0.000902894 0)
(0.695652 0.000832409 0)
(0.576765 0.000425156 0)
(0.576795 0.00103849 0)
(0.576732 0.00130233 0)
(0.576352 0.00135804 0)
(0.576029 0.00133553 0)
(0.575879 0.00126963 0)
(0.575833 0.00117116 0)
(0.575833 0.00105939 0)
(0.575868 0.0009504 0)
(0.575932 0.00085042 0)
(0.436564 0.000795892 0)
(0.436454 0.00161199 0)
(0.436369 0.00174258 0)
(0.436144 0.00162658 0)
(0.436099 0.00146706 0)
(0.436255 0.00128986 0)
(0.436499 0.00110665 0)
(0.436765 0.000939239 0)
(0.437032 0.000798457 0)
(0.437293 0.000682896 0)
(0.276303 0.0014613 0)
(0.276387 0.00233345 0)
(0.276931 0.00200758 0)
(0.277477 0.00152738 0)
(0.278077 0.0011634 0)
(0.278692 0.000889186 0)
(0.279253 0.000679222 0)
(0.279735 0.000526288 0)
(0.280147 0.000418319 0)
(0.280501 0.000340649 0)
(0.0984373 0.00100669 0)
(0.100336 0.00104433 0)
(0.101964 0.0006051 0)
(0.103125 0.000340428 0)
(0.103922 0.000216129 0)
(0.104503 0.000141938 0)
(0.104936 9.37024e-05 0)
(0.105262 6.52173e-05 0)
(0.105514 4.87551e-05 0)
(0.105716 3.82403e-05 0)
(0.105881 -3.0833e-05 0)
(0.106019 -2.54603e-05 0)
(0.106136 -2.14774e-05 0)
(0.106236 -1.84327e-05 0)
(0.106323 -1.60366e-05 0)
(0.1064 -1.41081e-05 0)
(0.106468 -1.25236e-05 0)
(0.106529 -1.11997e-05 0)
(0.106583 -1.00854e-05 0)
(0.106632 -9.15001e-06 0)
(0.106677 -8.36647e-06 0)
(0.106718 -7.7031e-06 0)
(0.106756 -7.12812e-06 0)
(0.106791 -6.6151e-06 0)
(0.106824 -6.1483e-06 0)
(0.106854 -5.72251e-06 0)
(0.106882 -5.33798e-06 0)
(0.106909 -4.99619e-06 0)
(0.106933 -4.69589e-06 0)
(0.106957 -4.43194e-06 0)
(0.106979 -4.19709e-06 0)
(0.107 -3.98308e-06 0)
(0.107019 -3.78355e-06 0)
(0.107038 -3.59425e-06 0)
(0.107056 -3.41372e-06 0)
(0.107073 -3.24231e-06 0)
(0.107089 -3.08128e-06 0)
(0.107104 -2.93187e-06 0)
(0.107119 -2.79471e-06 0)
(0.107133 -2.66938e-06 0)
(0.107146 -2.55486e-06 0)
(0.107159 -2.44933e-06 0)
(0.107171 -2.35113e-06 0)
(0.107183 -2.25847e-06 0)
(0.107194 -2.17023e-06 0)
(0.280806 -0.000282619 0)
(0.281071 -0.000238148 0)
(0.281301 -0.000203564 0)
(0.281503 -0.000176276 0)
(0.281682 -0.000154332 0)
(0.281841 -0.000136333 0)
(0.281984 -0.000121345 0)
(0.282113 -0.000108759 0)
(0.282229 -9.81518e-05 0)
(0.282335 -8.91769e-05 0)
(0.282432 -8.15265e-05 0)
(0.282522 -7.49313e-05 0)
(0.282604 -6.91716e-05 0)
(0.282681 -6.40839e-05 0)
(0.282752 -5.95532e-05 0)
(0.282819 -5.55004e-05 0)
(0.282881 -5.18695e-05 0)
(0.28294 -4.86146e-05 0)
(0.282995 -4.56945e-05 0)
(0.283046 -4.3068e-05 0)
(0.283095 -4.0694e-05 0)
(0.283142 -3.85337e-05 0)
(0.283185 -3.65517e-05 0)
(0.283227 -3.47191e-05 0)
(0.283267 -3.30141e-05 0)
(0.283305 -3.14213e-05 0)
(0.283341 -2.99313e-05 0)
(0.283375 -2.8538e-05 0)
(0.283408 -2.72375e-05 0)
(0.28344 -2.60256e-05 0)
(0.28347 -2.48976e-05 0)
(0.283499 -2.38472e-05 0)
(0.283526 -2.28671e-05 0)
(0.283553 -2.19496e-05 0)
(0.283578 -2.10865e-05 0)
(0.43754 -0.0005877 0)
(0.43777 -0.000509103 0)
(0.437981 -0.000444346 0)
(0.438175 -0.000390969 0)
(0.438353 -0.000346646 0)
(0.438516 -0.000309394 0)
(0.438666 -0.000277741 0)
(0.438803 -0.000250685 0)
(0.438931 -0.000227522 0)
(0.439048 -0.000207673 0)
(0.439157 -0.000190589 0)
(0.439258 -0.000175759 0)
(0.439353 -0.000162739 0)
(0.439442 -0.000151184 0)
(0.439525 -0.000140847 0)
(0.439603 -0.000131561 0)
(0.439677 -0.000123205 0)
(0.439746 -0.000115683 0)
(0.439812 -0.000108906 0)
(0.439874 -0.000102788 0)
(0.439933 -9.72406e-05 0)
(0.43999 -9.21811e-05 0)
(0.440043 -8.75349e-05 0)
(0.440094 -8.32391e-05 0)
(0.440143 -7.92445e-05 0)
(0.44019 -7.55145e-05 0)
(0.440234 -7.20241e-05 0)
(0.440277 -6.87561e-05 0)
(0.440318 -6.5698e-05 0)
(0.440357 -6.28392e-05 0)
(0.440394 -6.01684e-05 0)
(0.44043 -5.7673e-05 0)
(0.440465 -5.53386e-05 0)
(0.440499 -5.3149e-05 0)
(0.440531 -5.10884e-05 0)
(0.576015 -0.000760271 0)
(0.576107 -0.000679967 0)
(0.576205 -0.0006095 0)
(0.576303 -0.000548376 0)
(0.576401 -0.000495471 0)
(0.576497 -0.000449421 0)
(0.57659 -0.000409062 0)
(0.57668 -0.000373606 0)
(0.576766 -0.000342534 0)
(0.576848 -0.000315398 0)
(0.576927 -0.000291693 0)
(0.577002 -0.000270859 0)
(0.577073 -0.000252358 0)
(0.577142 -0.000235754 0)
(0.577208 -0.000220737 0)
(0.57727 -0.000207108 0)
(0.57733 -0.000194738 0)
(0.577388 -0.000183523 0)
(0.577443 -0.000173361 0)
(0.577495 -0.000164136 0)
(0.577546 -0.000155729 0)
(0.577594 -0.000148021 0)
(0.577641 -0.000140907 0)
(0.577686 -0.000134299 0)
(0.577729 -0.00012813 0)
(0.57777 -0.000122351 0)
(0.57781 -0.00011693 0)
(0.577849 -0.000111841 0)
(0.577886 -0.000107067 0)
(0.577922 -0.00010259 0)
(0.577956 -9.83921e-05 0)
(0.577989 -9.44552e-05 0)
(0.578022 -9.07576e-05 0)
(0.578053 -8.72771e-05 0)
(0.578083 -8.39911e-05 0)
(0.6956 -0.000764651 0)
(0.695568 -0.000700914 0)
(0.695549 -0.000642341 0)
(0.695541 -0.000589577 0)
(0.695542 -0.000542442 0)
(0.695549 -0.000500216 0)
(0.695562 -0.000462158 0)
(0.69558 -0.000427815 0)
(0.6956 -0.000396991 0)
(0.695622 -0.000369536 0)
(0.695647 -0.000345174 0)
(0.695672 -0.000323476 0)
(0.695698 -0.000303959 0)
(0.695725 -0.000286197 0)
(0.695753 -0.000269894 0)
(0.69578 -0.00025488 0)
(0.695808 -0.000241075 0)
(0.695835 -0.000228425 0)
(0.695862 -0.000216864 0)
(0.695889 -0.000206298 0)
(0.695916 -0.000196605 0)
(0.695942 -0.000187659 0)
(0.695967 -0.000179339 0)
(0.695993 -0.00017155 0)
(0.696017 -0.000164222 0)
(0.696042 -0.000157308 0)
(0.696066 -0.000150782 0)
(0.696089 -0.000144624 0)
(0.696112 -0.000138822 0)
(0.696134 -0.000133359 0)
(0.696156 -0.000128217 0)
(0.696177 -0.000123373 0)
(0.696198 -0.000118802 0)
(0.696218 -0.000114478 0)
(0.696238 -0.000110375 0)
(0.795632 -0.00067364 0)
(0.79553 -0.000626471 0)
(0.795441 -0.000581908 0)
(0.795364 -0.000540957 0)
(0.795297 -0.000503841 0)
(0.795239 -0.000470151 0)
(0.795189 -0.000439338 0)
(0.795145 -0.00041108 0)
(0.795108 -0.00038533 0)
(0.795076 -0.000362115 0)
(0.795048 -0.000341337 0)
(0.795025 -0.000322706 0)
(0.795005 -0.000305822 0)
(0.794988 -0.000290298 0)
(0.794973 -0.000275863 0)
(0.794961 -0.000262379 0)
(0.794951 -0.000249811 0)
(0.794943 -0.000238162 0)
(0.794937 -0.000227423 0)
(0.794932 -0.000217541 0)
(0.794928 -0.000208423 0)
(0.794926 -0.000199952 0)
(0.794924 -0.000192014 0)
(0.794923 -0.000184514 0)
(0.794923 -0.000177385 0)
(0.794924 -0.000170593 0)
(0.794925 -0.000164122 0)
(0.794927 -0.00015797 0)
(0.794929 -0.000152136 0)
(0.794932 -0.000146616 0)
(0.794935 -0.000141395 0)
(0.794938 -0.000136454 0)
(0.794942 -0.000131768 0)
(0.794945 -0.000127309 0)
(0.794949 -0.000123052 0)
(0.875757 -0.000542417 0)
(0.875625 -0.000508277 0)
(0.875503 -0.000475403 0)
(0.875392 -0.000444856 0)
(0.87529 -0.000417032 0)
(0.875196 -0.000391712 0)
(0.87511 -0.000368466 0)
(0.875031 -0.000347026 0)
(0.874958 -0.000327373 0)
(0.87489 -0.000309593 0)
(0.874828 -0.00029368 0)
(0.87477 -0.000279442 0)
(0.874717 -0.000266555 0)
(0.874667 -0.000254681 0)
(0.87462 -0.000243566 0)
(0.874577 -0.000233085 0)
(0.874537 -0.000223218 0)
(0.874499 -0.000213996 0)
(0.874464 -0.000205441 0)
(0.874432 -0.000197539 0)
(0.874401 -0.000190227 0)
(0.874372 -0.000183411 0)
(0.874346 -0.000176987 0)
(0.87432 -0.000170869 0)
(0.874297 -0.000164997 0)
(0.874274 -0.000159341 0)
(0.874253 -0.000153899 0)
(0.874234 -0.000148678 0)
(0.874215 -0.000143692 0)
(0.874197 -0.000138946 0)
(0.874181 -0.000134438 0)
(0.874165 -0.000130152 0)
(0.87415 -0.000126067 0)
(0.874136 -0.000122159 0)
(0.874123 -0.000118403 0)
(0.935864 -0.000394797 0)
(0.935718 -0.000371483 0)
(0.935582 -0.000348668 0)
(0.935455 -0.000327271 0)
(0.935337 -0.000307716 0)
(0.935226 -0.000289917 0)
(0.935123 -0.000273575 0)
(0.935026 -0.000258481 0)
(0.934934 -0.000244623 0)
(0.934848 -0.000232091 0)
(0.934768 -0.000220917 0)
(0.934691 -0.000210987 0)
(0.934619 -0.000202065 0)
(0.93455 -0.000193879 0)
(0.934484 -0.000186219 0)
(0.934422 -0.00017897 0)
(0.934362 -0.000172113 0)
(0.934306 -0.000165677 0)
(0.934252 -0.000159694 0)
(0.9342 -0.000154167 0)
(0.934151 -0.000149058 0)
(0.934104 -0.000144298 0)
(0.934059 -0.000139806 0)
(0.934016 -0.000135506 0)
(0.933975 -0.00013135 0)
(0.933935 -0.00012731 0)
(0.933896 -0.000123387 0)
(0.93386 -0.000119593 0)
(0.933825 -0.000115945 0)
(0.933791 -0.000112457 0)
(0.933758 -0.000109129 0)
(0.933727 -0.000105955 0)
(0.933696 -0.000102919 0)
(0.933667 -9.99991e-05 0)
(0.933639 -9.71763e-05 0)
(0.975933 -0.000239427 0)
(0.97578 -0.000225818 0)
(0.975637 -0.000212335 0)
(0.975503 -0.000199593 0)
(0.975377 -0.000187905 0)
(0.975259 -0.000177261 0)
(0.975147 -0.00016749 0)
(0.975042 -0.00015846 0)
(0.974942 -0.000150162 0)
(0.974848 -0.00014266 0)
(0.974758 -0.000135991 0)
(0.974673 -0.000130099 0)
(0.974591 -0.000124844 0)
(0.974513 -0.000120053 0)
(0.974438 -0.000115584 0)
(0.974366 -0.000111359 0)
(0.974297 -0.000107356 0)
(0.97423 -0.000103596 0)
(0.974166 -0.000100101 0)
(0.974104 -9.68788e-05 0)
(0.974045 -9.39094e-05 0)
(0.973987 -9.11508e-05 0)
(0.973932 -8.85505e-05 0)
(0.973878 -8.60592e-05 0)
(0.973826 -8.36407e-05 0)
(0.973775 -8.12772e-05 0)
(0.973726 -7.8967e-05 0)
(0.973679 -7.67197e-05 0)
(0.973633 -7.45486e-05 0)
(0.973588 -7.24645e-05 0)
(0.973545 -7.04715e-05 0)
(0.973504 -6.85661e-05 0)
(0.973463 -6.67382e-05 0)
(0.973424 -6.49743e-05 0)
(0.973385 -6.3261e-05 0)
(0.995966 -8.01934e-05 0)
(0.995811 -7.57278e-05 0)
(0.995665 -7.12705e-05 0)
(0.995527 -6.70304e-05 0)
(0.995398 -6.31262e-05 0)
(0.995276 -5.95685e-05 0)
(0.995161 -5.63087e-05 0)
(0.995053 -5.33023e-05 0)
(0.99495 -5.054e-05 0)
(0.994852 -4.80386e-05 0)
(0.994759 -4.58119e-05 0)
(0.99467 -4.38458e-05 0)
(0.994585 -4.20975e-05 0)
(0.994504 -4.05113e-05 0)
(0.994425 -3.90386e-05 0)
(0.994349 -3.76499e-05 0)
(0.994276 -3.63364e-05 0)
(0.994205 -3.51024e-05 0)
(0.994137 -3.39553e-05 0)
(0.994071 -3.28976e-05 0)
(0.994007 -3.19232e-05 0)
(0.993945 -3.10185e-05 0)
(0.993885 -3.01661e-05 0)
(0.993826 -2.93491e-05 0)
(0.993769 -2.85554e-05 0)
(0.993714 -2.77782e-05 0)
(0.99366 -2.7017e-05 0)
(0.993608 -2.62744e-05 0)
(0.993557 -2.5555e-05 0)
(0.993507 -2.48624e-05 0)
(0.993459 -2.41981e-05 0)
(0.993412 -2.35608e-05 0)
(0.993367 -2.29472e-05 0)
(0.993322 -2.23525e-05 0)
(0.993279 -2.17723e-05 0)
(0.995966 8.02311e-05 0)
(0.995811 7.5737e-05 0)
(0.995665 7.12643e-05 0)
(0.995527 6.70403e-05 0)
(0.995398 6.31728e-05 0)
(0.995276 5.96444e-05 0)
(0.995161 5.63866e-05 0)
(0.995053 5.33583e-05 0)
(0.99495 5.05703e-05 0)
(0.994852 4.80583e-05 0)
(0.994759 4.58416e-05 0)
(0.99467 4.38994e-05 0)
(0.994585 4.21772e-05 0)
(0.994504 4.06102e-05 0)
(0.994425 3.91464e-05 0)
(0.994349 3.77578e-05 0)
(0.994276 3.64402e-05 0)
(0.994205 3.52026e-05 0)
(0.994137 3.40561e-05 0)
(0.994071 3.30051e-05 0)
(0.994007 3.20433e-05 0)
(0.993945 3.11559e-05 0)
(0.993885 3.03232e-05 0)
(0.993826 2.95265e-05 0)
(0.993769 2.87515e-05 0)
(0.993714 2.7991e-05 0)
(0.99366 2.72445e-05 0)
(0.993608 2.65159e-05 0)
(0.993557 2.58111e-05 0)
(0.993507 2.51351e-05 0)
(0.993459 2.44907e-05 0)
(0.993412 2.38773e-05 0)
(0.993367 2.32917e-05 0)
(0.993323 2.27289e-05 0)
(0.993279 2.21836e-05 0)
(0.975933 0.000239465 0)
(0.97578 0.000225833 0)
(0.975638 0.000212338 0)
(0.975503 0.00019961 0)
(0.975377 0.000187953 0)
(0.975259 0.000177329 0)
(0.975147 0.000167555 0)
(0.975042 0.000158507 0)
(0.974942 0.000150191 0)
(0.974848 0.000142685 0)
(0.974758 0.000136028 0)
(0.974673 0.000130158 0)
(0.974591 0.000124923 0)
(0.974513 0.000120146 0)
(0.974438 0.000115684 0)
(0.974366 0.000111458 0)
(0.974297 0.000107454 0)
(0.97423 0.000103694 0)
(0.974166 0.000100203 0)
(0.974105 9.69891e-05 0)
(0.974045 9.40316e-05 0)
(0.973988 9.12874e-05 0)
(0.973932 8.87032e-05 0)
(0.973878 8.62282e-05 0)
(0.973826 8.3826e-05 0)
(0.973775 8.1478e-05 0)
(0.973726 7.91831e-05 0)
(0.973679 7.69512e-05 0)
(0.973633 7.47964e-05 0)
(0.973589 7.27303e-05 0)
(0.973545 7.07578e-05 0)
(0.973504 6.88755e-05 0)
(0.973463 6.70739e-05 0)
(0.973424 6.53393e-05 0)
(0.973386 6.36579e-05 0)
(0.935864 0.000394829 0)
(0.935718 0.000371501 0)
(0.935582 0.000348681 0)
(0.935455 0.000327296 0)
(0.935337 0.000307759 0)
(0.935226 0.000289969 0)
(0.935123 0.000273622 0)
(0.935026 0.000258518 0)
(0.934934 0.000244655 0)
(0.934848 0.000232128 0)
(0.934768 0.000220968 0)
(0.934691 0.000211052 0)
(0.934619 0.000202139 0)
(0.93455 0.000193959 0)
(0.934484 0.000186301 0)
(0.934422 0.000179055 0)
(0.934362 0.000172202 0)
(0.934306 0.000165773 0)
(0.934252 0.000159799 0)
(0.934201 0.000154282 0)
(0.934151 0.000149182 0)
(0.934104 0.000144431 0)
(0.934059 0.000139948 0)
(0.934016 0.00013566 0)
(0.933975 0.000131515 0)
(0.933935 0.00012749 0)
(0.933897 0.000123583 0)
(0.93386 0.000119806 0)
(0.933825 0.000116177 0)
(0.933791 0.000112708 0)
(0.933758 0.000109401 0)
(0.933727 0.000106249 0)
(0.933697 0.000103235 0)
(0.933668 0.00010034 0)
(0.93364 9.75437e-05 0)
(0.875757 0.000542444 0)
(0.875625 0.0005083 0)
(0.875503 0.000475429 0)
(0.875392 0.000444889 0)
(0.87529 0.000417068 0)
(0.875196 0.000391744 0)
(0.87511 0.000368493 0)
(0.875031 0.000347055 0)
(0.874958 0.000327412 0)
(0.87489 0.000309647 0)
(0.874828 0.000293744 0)
(0.87477 0.000279508 0)
(0.874717 0.000266618 0)
(0.874667 0.000254739 0)
(0.87462 0.000243625 0)
(0.874577 0.000233152 0)
(0.874537 0.000223299 0)
(0.874499 0.000214091 0)
(0.874465 0.000205549 0)
(0.874432 0.000197657 0)
(0.874401 0.000190349 0)
(0.874373 0.000183535 0)
(0.874346 0.000177114 0)
(0.87432 0.000171 0)
(0.874297 0.000165137 0)
(0.874275 0.000159494 0)
(0.874254 0.000154068 0)
(0.874234 0.000148867 0)
(0.874215 0.000143901 0)
(0.874198 0.000139176 0)
(0.874181 0.000134686 0)
(0.874166 0.000130419 0)
(0.874151 0.000126353 0)
(0.874137 0.000122463 0)
(0.874124 0.000118726 0)
(0.795632 0.000673661 0)
(0.79553 0.000626502 0)
(0.795441 0.000581949 0)
(0.795364 0.000540996 0)
(0.795297 0.000503866 0)
(0.795239 0.000470161 0)
(0.795189 0.000439347 0)
(0.795146 0.000411106 0)
(0.795108 0.00038538 0)
(0.795076 0.000362182 0)
(0.795049 0.000341406 0)
(0.795025 0.000322764 0)
(0.795005 0.000305866 0)
(0.794988 0.000290335 0)
(0.794973 0.000275903 0)
(0.794961 0.000262434 0)
(0.794951 0.000249885 0)
(0.794943 0.000238255 0)
(0.794937 0.000227528 0)
(0.794932 0.000217651 0)
(0.794928 0.000208532 0)
(0.794926 0.000200059 0)
(0.794924 0.000192119 0)
(0.794923 0.000184621 0)
(0.794923 0.000177499 0)
(0.794924 0.000170719 0)
(0.794925 0.000164264 0)
(0.794927 0.000158131 0)
(0.79493 0.000152316 0)
(0.794932 0.000146813 0)
(0.794935 0.000141608 0)
(0.794938 0.000136682 0)
(0.794942 0.000132008 0)
(0.794946 0.000127562 0)
(0.79495 0.000123319 0)
(0.6956 0.000764677 0)
(0.695568 0.000700957 0)
(0.695549 0.000642391 0)
(0.695541 0.00058961 0)
(0.695542 0.000542446 0)
(0.695549 0.000500204 0)
(0.695562 0.000462157 0)
(0.69558 0.000427845 0)
(0.6956 0.00039705 0)
(0.695622 0.000369604 0)
(0.695647 0.000345231 0)
(0.695672 0.000323513 0)
(0.695698 0.000303981 0)
(0.695725 0.000286217 0)
(0.695753 0.000269925 0)
(0.69578 0.00025493 0)
(0.695808 0.000241144 0)
(0.695835 0.000228507 0)
(0.695862 0.000216953 0)
(0.695889 0.000206386 0)
(0.695916 0.000196691 0)
(0.695942 0.00018774 0)
(0.695968 0.00017942 0)
(0.695993 0.000171634 0)
(0.696018 0.000164313 0)
(0.696042 0.000157409 0)
(0.696066 0.000150896 0)
(0.696089 0.000144752 0)
(0.696112 0.000138964 0)
(0.696134 0.000133514 0)
(0.696156 0.000128383 0)
(0.696177 0.000123548 0)
(0.696198 0.000118986 0)
(0.696218 0.00011467 0)
(0.696238 0.000110577 0)
(0.576015 0.000760303 0)
(0.576107 0.000680021 0)
(0.576205 0.000609552 0)
(0.576303 0.000548396 0)
(0.576401 0.000495456 0)
(0.576497 0.000449398 0)
(0.57659 0.000409064 0)
(0.57668 0.000373643 0)
(0.576766 0.000342591 0)
(0.576848 0.000315452 0)
(0.576927 0.000291727 0)
(0.577002 0.000270874 0)
(0.577074 0.000252366 0)
(0.577142 0.000235768 0)
(0.577208 0.000220765 0)
(0.577271 0.000207152 0)
(0.577331 0.000194792 0)
(0.577388 0.000183583 0)
(0.577443 0.00017342 0)
(0.577495 0.000164195 0)
(0.577546 0.000155786 0)
(0.577594 0.000148079 0)
(0.577641 0.000140966 0)
(0.577686 0.000134362 0)
(0.577729 0.000128198 0)
(0.577771 0.000122426 0)
(0.577811 0.000117011 0)
(0.577849 0.00011193 0)
(0.577886 0.000107163 0)
(0.577922 0.000102694 0)
(0.577957 9.85035e-05 0)
(0.57799 9.45736e-05 0)
(0.578022 9.08819e-05 0)
(0.578053 8.74078e-05 0)
(0.578083 8.41279e-05 0)
(0.43754 0.000587732 0)
(0.43777 0.000509154 0)
(0.437981 0.000444387 0)
(0.438175 0.000390975 0)
(0.438353 0.000346624 0)
(0.438516 0.000309376 0)
(0.438666 0.000277748 0)
(0.438803 0.000250716 0)
(0.438931 0.000227559 0)
(0.439048 0.000207698 0)
(0.439157 0.000190599 0)
(0.439258 0.000175762 0)
(0.439353 0.000162744 0)
(0.439442 0.000151199 0)
(0.439525 0.000140871 0)
(0.439603 0.00013159 0)
(0.439677 0.000123235 0)
(0.439746 0.000115712 0)
(0.439812 0.000108935 0)
(0.439874 0.000102819 0)
(0.439934 9.72748e-05 0)
(0.43999 9.22196e-05 0)
(0.440043 8.75765e-05 0)
(0.440094 8.3283e-05 0)
(0.440143 7.92887e-05 0)
(0.44019 7.55593e-05 0)
(0.440234 7.20692e-05 0)
(0.440277 6.88032e-05 0)
(0.440318 6.57478e-05 0)
(0.440357 6.28936e-05 0)
(0.440395 6.02275e-05 0)
(0.440431 5.77378e-05 0)
(0.440466 5.54079e-05 0)
(0.440499 5.32232e-05 0)
(0.440531 5.11661e-05 0)
(0.280806 0.000282645 0)
(0.281071 0.000238183 0)
(0.281301 0.000203586 0)
(0.281503 0.000176271 0)
(0.281682 0.000154314 0)
(0.281841 0.000136322 0)
(0.281984 0.000121349 0)
(0.282113 0.000108773 0)
(0.282229 9.81644e-05 0)
(0.282335 8.91825e-05 0)
(0.282433 8.15277e-05 0)
(0.282522 7.49326e-05 0)
(0.282605 6.91765e-05 0)
(0.282681 6.40913e-05 0)
(0.282753 5.95613e-05 0)
(0.282819 5.55076e-05 0)
(0.282881 5.18764e-05 0)
(0.28294 4.86229e-05 0)
(0.282995 4.57064e-05 0)
(0.283046 4.30839e-05 0)
(0.283095 4.07137e-05 0)
(0.283142 3.85546e-05 0)
(0.283186 3.65723e-05 0)
(0.283227 3.47371e-05 0)
(0.283267 3.30294e-05 0)
(0.283305 3.1434e-05 0)
(0.283341 2.99435e-05 0)
(0.283376 2.8551e-05 0)
(0.283409 2.72532e-05 0)
(0.28344 2.60444e-05 0)
(0.28347 2.49203e-05 0)
(0.283499 2.38728e-05 0)
(0.283527 2.28954e-05 0)
(0.283553 2.19788e-05 0)
(0.283579 2.11167e-05 0)
(0.105881 3.08478e-05 0)
(0.106019 2.54654e-05 0)
(0.106136 2.1472e-05 0)
(0.106236 1.84269e-05 0)
(0.106323 1.60368e-05 0)
(0.1064 1.41121e-05 0)
(0.106468 1.25258e-05 0)
(0.106529 1.11976e-05 0)
(0.106583 1.00813e-05 0)
(0.106632 9.14756e-06 0)
(0.106677 8.36713e-06 0)
(0.106718 7.70661e-06 0)
(0.106756 7.13222e-06 0)
(0.106791 6.618e-06 0)
(0.106824 6.1491e-06 0)
(0.106854 5.72147e-06 0)
(0.106882 5.3361e-06 0)
(0.106909 4.99484e-06 0)
(0.106933 4.69576e-06 0)
(0.106957 4.43369e-06 0)
(0.106979 4.2002e-06 0)
(0.107 3.98723e-06 0)
(0.107019 3.78761e-06 0)
(0.107038 3.59771e-06 0)
(0.107056 3.41586e-06 0)
(0.107073 3.24319e-06 0)
(0.107089 3.08092e-06 0)
(0.107104 2.93098e-06 0)
(0.107119 2.7936e-06 0)
(0.107133 2.66887e-06 0)
(0.107146 2.555e-06 0)
(0.107159 2.45058e-06 0)
(0.107171 2.35308e-06 0)
(0.107183 2.26119e-06 0)
(0.107194 2.17305e-06 0)
(0.107205 -2.08547e-06 0)
(0.107215 -2.00398e-06 0)
(0.107225 -1.92559e-06 0)
(0.107235 -1.85059e-06 0)
(0.107244 -1.77909e-06 0)
(0.107253 -1.71138e-06 0)
(0.107262 -1.6474e-06 0)
(0.10727 -1.58721e-06 0)
(0.107278 -1.53047e-06 0)
(0.107286 -1.47703e-06 0)
(0.283603 -2.02709e-05 0)
(0.283627 -1.94965e-05 0)
(0.283649 -1.87587e-05 0)
(0.283671 -1.80545e-05 0)
(0.283692 -1.73816e-05 0)
(0.283713 -1.67392e-05 0)
(0.283732 -1.61266e-05 0)
(0.283751 -1.55436e-05 0)
(0.283769 -1.49894e-05 0)
(0.283787 -1.44632e-05 0)
(0.440562 -4.91412e-05 0)
(0.440591 -4.7294e-05 0)
(0.44062 -4.55356e-05 0)
(0.440648 -4.3858e-05 0)
(0.440675 -4.22552e-05 0)
(0.440701 -4.07236e-05 0)
(0.440726 -3.9261e-05 0)
(0.44075 -3.78659e-05 0)
(0.440773 -3.65366e-05 0)
(0.440795 -3.52711e-05 0)
(0.578112 -8.08786e-05 0)
(0.57814 -7.79207e-05 0)
(0.578167 -7.51019e-05 0)
(0.578193 -7.241e-05 0)
(0.578219 -6.98361e-05 0)
(0.578243 -6.73741e-05 0)
(0.578267 -6.50198e-05 0)
(0.57829 -6.27699e-05 0)
(0.578313 -6.06213e-05 0)
(0.578334 -5.85705e-05 0)
(0.696257 -0.000106471 0)
(0.696276 -0.000102745 0)
(0.696294 -9.91819e-05 0)
(0.696312 -9.57697e-05 0)
(0.696329 -9.24994e-05 0)
(0.696346 -8.93648e-05 0)
(0.696362 -8.63612e-05 0)
(0.696379 -8.34844e-05 0)
(0.696394 -8.07303e-05 0)
(0.696409 -7.8094e-05 0)
(0.794953 -0.000118975 0)
(0.794957 -0.000115061 0)
(0.794962 -0.000111296 0)
(0.794966 -0.000107674 0)
(0.794971 -0.000104187 0)
(0.794975 -0.000100835 0)
(0.794979 -9.76123e-05 0)
(0.794984 -9.45172e-05 0)
(0.794988 -9.15453e-05 0)
(0.794993 -8.86913e-05 0)
(0.87411 -0.000114779 0)
(0.874099 -0.000111274 0)
(0.874087 -0.000107879 0)
(0.874076 -0.000104591 0)
(0.874066 -0.00010141 0)
(0.874056 -9.83376e-05 0)
(0.874047 -9.53732e-05 0)
(0.874038 -9.25164e-05 0)
(0.87403 -8.97642e-05 0)
(0.874022 -8.71121e-05 0)
(0.933612 -9.44339e-05 0)
(0.933586 -9.17614e-05 0)
(0.933561 -8.91542e-05 0)
(0.933537 -8.66123e-05 0)
(0.933513 -8.41389e-05 0)
(0.93349 -8.17378e-05 0)
(0.933469 -7.94121e-05 0)
(0.933447 -7.71631e-05 0)
(0.933427 -7.49893e-05 0)
(0.933407 -7.28876e-05 0)
(0.973348 -6.15872e-05 0)
(0.973312 -5.99459e-05 0)
(0.973277 -5.83348e-05 0)
(0.973243 -5.67552e-05 0)
(0.97321 -5.52104e-05 0)
(0.973178 -5.37045e-05 0)
(0.973147 -5.22409e-05 0)
(0.973117 -5.0821e-05 0)
(0.973087 -4.94447e-05 0)
(0.973059 -4.81098e-05 0)
(0.993237 -2.12027e-05 0)
(0.993196 -2.06418e-05 0)
(0.993156 -2.00889e-05 0)
(0.993117 -1.95448e-05 0)
(0.993079 -1.9011e-05 0)
(0.993042 -1.84891e-05 0)
(0.993006 -1.79803e-05 0)
(0.992971 -1.74851e-05 0)
(0.992937 -1.70033e-05 0)
(0.992904 -1.65339e-05 0)
(0.993237 2.16513e-05 0)
(0.993196 2.1129e-05 0)
(0.993156 2.06155e-05 0)
(0.993117 2.0111e-05 0)
(0.993079 1.96169e-05 0)
(0.993042 1.91351e-05 0)
(0.993006 1.86673e-05 0)
(0.992972 1.82146e-05 0)
(0.992937 1.77775e-05 0)
(0.992904 1.73557e-05 0)
(0.973349 6.2018e-05 0)
(0.973312 6.04123e-05 0)
(0.973277 5.88378e-05 0)
(0.973243 5.72957e-05 0)
(0.97321 5.57891e-05 0)
(0.973178 5.43224e-05 0)
(0.973147 5.2899e-05 0)
(0.973117 5.15212e-05 0)
(0.973088 5.01889e-05 0)
(0.973059 4.89005e-05 0)
(0.933613 9.48296e-05 0)
(0.933587 9.21874e-05 0)
(0.933561 8.96121e-05 0)
(0.933537 8.71041e-05 0)
(0.933514 8.46662e-05 0)
(0.933491 8.23023e-05 0)
(0.933469 8.00154e-05 0)
(0.933448 7.78068e-05 0)
(0.933428 7.5675e-05 0)
(0.933408 7.3617e-05 0)
(0.874111 0.000115124 0)
(0.874099 0.000111642 0)
(0.874088 0.000108274 0)
(0.874077 0.000105015 0)
(0.874067 0.000101867 0)
(0.874057 9.88277e-05 0)
(0.874048 9.58994e-05 0)
(0.874039 9.30795e-05 0)
(0.874031 9.03658e-05 0)
(0.874023 8.77524e-05 0)
(0.794954 0.000119257 0)
(0.794958 0.000115361 0)
(0.794963 0.000111617 0)
(0.794967 0.000108019 0)
(0.794971 0.000104559 0)
(0.794976 0.000101236 0)
(0.794981 9.80442e-05 0)
(0.794985 9.49808e-05 0)
(0.79499 9.20408e-05 0)
(0.794994 8.92188e-05 0)
(0.696258 0.000106683 0)
(0.696276 0.000102971 0)
(0.696295 9.94228e-05 0)
(0.696313 9.60295e-05 0)
(0.69633 9.27794e-05 0)
(0.696347 8.96678e-05 0)
(0.696364 8.66872e-05 0)
(0.69638 8.38349e-05 0)
(0.696396 8.11041e-05 0)
(0.696411 7.8492e-05 0)
(0.578113 8.10229e-05 0)
(0.578141 7.80732e-05 0)
(0.578168 7.52648e-05 0)
(0.578194 7.25843e-05 0)
(0.57822 7.0024e-05 0)
(0.578245 6.7576e-05 0)
(0.578269 6.52373e-05 0)
(0.578292 6.30027e-05 0)
(0.578314 6.08702e-05 0)
(0.578336 5.88347e-05 0)
(0.440562 4.9223e-05 0)
(0.440592 4.73792e-05 0)
(0.440621 4.56256e-05 0)
(0.440649 4.39526e-05 0)
(0.440676 4.23563e-05 0)
(0.440702 4.08313e-05 0)
(0.440727 3.93771e-05 0)
(0.440751 3.799e-05 0)
(0.440774 3.66701e-05 0)
(0.440797 3.54131e-05 0)
(0.283604 2.03008e-05 0)
(0.283627 1.95269e-05 0)
(0.28365 1.87891e-05 0)
(0.283672 1.80864e-05 0)
(0.283693 1.74151e-05 0)
(0.283713 1.67758e-05 0)
(0.283733 1.61663e-05 0)
(0.283752 1.55875e-05 0)
(0.28377 1.5037e-05 0)
(0.283788 1.45153e-05 0)
(0.107205 2.08839e-06 0)
(0.107216 2.0064e-06 0)
(0.107226 1.92771e-06 0)
(0.107235 1.85208e-06 0)
(0.107244 1.78042e-06 0)
(0.107253 1.7124e-06 0)
(0.107262 1.6487e-06 0)
(0.10727 1.58866e-06 0)
(0.107278 1.53261e-06 0)
(0.107286 1.47959e-06 0)
(0.107293 -1.42639e-06 0)
(0.1073 -1.37833e-06 0)
(0.107307 -1.33237e-06 0)
(0.107314 -1.28837e-06 0)
(0.10732 -1.24596e-06 0)
(0.107327 -1.20512e-06 0)
(0.107333 -1.16561e-06 0)
(0.107339 -1.12753e-06 0)
(0.107344 -1.09071e-06 0)
(0.10735 -1.0553e-06 0)
(0.107355 -1.02116e-06 0)
(0.10736 -9.88452e-07 0)
(0.107365 -9.5699e-07 0)
(0.10737 -9.26907e-07 0)
(0.107375 -8.97992e-07 0)
(0.107379 -8.70342e-07 0)
(0.107384 -8.43721e-07 0)
(0.107388 -8.1821e-07 0)
(0.107392 -7.93569e-07 0)
(0.107396 -7.69885e-07 0)
(0.1074 -7.46931e-07 0)
(0.107404 -7.24815e-07 0)
(0.107408 -7.03338e-07 0)
(0.107411 -6.82634e-07 0)
(0.107415 -6.62515e-07 0)
(0.107418 -6.43154e-07 0)
(0.107421 -6.24363e-07 0)
(0.107424 -6.06316e-07 0)
(0.107427 -5.88824e-07 0)
(0.10743 -5.72067e-07 0)
(0.107433 -5.55834e-07 0)
(0.107436 -5.40305e-07 0)
(0.107439 -5.2526e-07 0)
(0.107441 -5.10907e-07 0)
(0.107444 -4.97063e-07 0)
(0.283804 -1.39636e-05 0)
(0.28382 -1.34888e-05 0)
(0.283836 -1.30367e-05 0)
(0.283851 -1.26053e-05 0)
(0.283866 -1.21924e-05 0)
(0.283881 -1.17961e-05 0)
(0.283895 -1.14147e-05 0)
(0.283908 -1.10473e-05 0)
(0.283921 -1.06927e-05 0)
(0.283934 -1.03506e-05 0)
(0.283946 -1.00205e-05 0)
(0.283958 -9.70234e-06 0)
(0.283969 -9.39587e-06 0)
(0.28398 -9.10101e-06 0)
(0.283991 -8.81739e-06 0)
(0.284001 -8.54473e-06 0)