/*--------------------------------*- C++ -*----------------------------------*\
| =========                 |                                                 |
| \\      /  F ield         | OpenFOAM: The Open Source CFD Toolbox           |
|  \\    /   O peration     | Version:  2406                                  |
|   \\  /    A nd           | Website:  www.openfoam.com                      |
|    \\/     M anipulation  |                                                 |
\*---------------------------------------------------------------------------*/
FoamFile
{
    version     2.0;
    format      ascii;
    arch        "LSB;label=32;scalar=64";
    class       volVectorField;
    location    "67";
    object      U;
}
// * * * * * * * * * * * * * * * * * * * * * * * * * * * * * * * * * * * * * //

dimensions      [0 1 -1 0 0 0 0];

internalField   nonuniform List<vector> 
1800
(
(0.95018 -0.00680205 0)
(0.966383 -0.0141719 0)
(0.990356 -0.0170136 0)
(1.0185 -0.0184863 0)
(1.05154 -0.0200486 0)
(1.09064 -0.022096 0)
(1.13681 -0.0249267 0)
(1.19082 -0.0295073 0)
(1.258 -0.0344944 0)
(1.3219 -0.0666369 0)
(2.54607 -0.00881088 0)
(2.55047 -0.0232085 0)
(2.56281 -0.0344061 0)
(2.58134 -0.0443667 0)
(2.60705 -0.0544793 0)
(2.64097 -0.0654313 0)
(2.68366 -0.0779189 0)
(2.73567 -0.0932899 0)
(2.7979 -0.113104 0)
(2.86858 -0.142399 0)
(3.74729 -0.00986339 0)
(3.75093 -0.0280923 0)
(3.7596 -0.0447152 0)
(3.7718 -0.0608835 0)
(3.78881 -0.0776626 0)
(3.81172 -0.095765 0)
(3.84075 -0.11597 0)
(3.87577 -0.13946 0)
(3.91627 -0.167663 0)
(3.96056 -0.203036 0)
(4.54766 -0.0107707 0)
(4.54989 -0.0316937 0)
(4.555 -0.0519928 0)
(4.56135 -0.0723393 0)
(4.57009 -0.0934957 0)
(4.58213 -0.116097 0)
(4.59744 -0.140817 0)
(4.61551 -0.168479 0)
(4.63563 -0.199901 0)
(4.65666 -0.235665 0)
(4.94763 -0.01103 0)
(4.94814 -0.0327755 0)
(4.94949 -0.0544071 0)
(4.9499 -0.0764317 0)
(4.95036 -0.0993613 0)
(4.95165 -0.123668 0)
(4.95357 -0.149853 0)
(4.95548 -0.178448 0)
(4.95661 -0.209875 0)
(4.95606 -0.244293 0)
(4.94739 -0.0103536 0)
(4.94603 -0.0309729 0)
(4.94352 -0.0518795 0)
(4.93796 -0.0734338 0)
(4.93029 -0.0958799 0)
(4.92121 -0.119495 0)
(4.91038 -0.14462 0)
(4.89704 -0.171571 0)
(4.88043 -0.200546 0)
(4.85975 -0.231536 0)
(4.54691 -0.00859238 0)
(4.5436 -0.0261568 0)
(4.53728 -0.0445028 0)
(4.52591 -0.0636138 0)
(4.51052 -0.0834208 0)
(4.49169 -0.104061 0)
(4.46894 -0.125759 0)
(4.44145 -0.148676 0)
(4.40845 -0.172849 0)
(4.36915 -0.198167 0)
(3.74606 -0.0055474 0)
(3.74054 -0.0181281 0)
(3.73059 -0.0323574 0)
(3.71394 -0.04738 0)
(3.6916 -0.0626919 0)
(3.66405 -0.078344 0)
(3.63073 -0.094498 0)
(3.59078 -0.111198 0)
(3.54346 -0.128375 0)
(3.48805 -0.145864 0)
(2.5445 -0.00129666 0)
(2.53669 -0.0069717 0)
(2.52438 -0.0154819 0)
(2.50482 -0.0249418 0)
(2.4787 -0.0343683 0)
(2.44638 -0.0436998 0)
(2.40732 -0.0530166 0)
(2.36078 -0.0622597 0)
(2.30624 -0.0712907 0)
(2.24328 -0.0799427 0)
(0.948624 0.00160513 0)
(0.952174 0.000713871 0)
(0.950209 -0.00270661 0)
(0.939368 -0.00617545 0)
(0.921618 -0.00893708 0)
(0.898407 -0.0111772 0)
(0.869861 -0.0130738 0)
(0.835944 -0.0146279 0)
(0.79693 -0.0157957 0)
(0.753263 -0.0165555 0)
(0.000227928 -0.000290095 0)
(-0.00133366 0.000244222 0)
(-0.00493656 0.000651618 0)
(-0.00969714 0.000797116 0)
(-0.0149263 0.000852913 0)
(-0.0204289 0.000893496 0)
(-0.0262105 0.000937844 0)
(-0.0323291 0.000989172 0)
(-0.0388644 0.00104981 0)
(-0.0459302 0.00112189 0)
(-0.0537016 0.00120901 0)
(-0.0624436 0.00131163 0)
(-0.0725442 0.00144465 0)
(-0.0845665 0.00165979 0)
(-0.0993258 0.00207587 0)
(-0.117993 0.00291619 0)
(-0.142193 0.0045162 0)
(-0.174006 0.00732886 0)
(-0.215758 0.0119269 0)
(-0.269463 0.018812 0)
(-0.335819 0.027926 0)
(-0.41294 0.0380059 0)
(-0.495279 0.046252 0)
(-0.57351 0.049009 0)
(-0.635766 0.0437399 0)
(-0.669363 0.0309559 0)
(-0.662323 0.0137055 0)
(-0.611188 -0.00509252 0)
(-0.515827 -0.0243188 0)
(-0.377163 -0.0440514 0)
(-0.19989 -0.0643208 0)
(0.00895788 -0.0821647 0)
(0.244279 -0.0931828 0)
(0.5013 -0.0977205 0)
(0.769534 -0.0971886 0)
(-0.00080565 0.00159932 0)
(-0.00807866 0.00587219 0)
(-0.0195195 0.00877977 0)
(-0.0332478 0.010184 0)
(-0.0479726 0.0109218 0)
(-0.063391 0.0115092 0)
(-0.079543 0.0121515 0)
(-0.0965841 0.0129318 0)
(-0.114754 0.0139173 0)
(-0.134405 0.0152087 0)
(-0.156031 0.016959 0)
(-0.180319 0.0193925 0)
(-0.208175 0.0228258 0)
(-0.240732 0.0276973 0)
(-0.279313 0.0345735 0)
(-0.32529 0.0440799 0)
(-0.379711 0.0567042 0)
(-0.44271 0.072452 0)
(-0.512755 0.0903082 0)
(-0.585919 0.107688 0)
(-0.655516 0.12029 0)
(-0.712437 0.122726 0)
(-0.746168 0.110086 0)
(-0.746169 0.0799482 0)
(-0.703939 0.0336479 0)
(-0.617343 -0.0236685 0)
(-0.49417 -0.0861585 0)
(-0.333248 -0.150892 0)
(-0.133247 -0.215782 0)
(0.102843 -0.278035 0)
(0.371978 -0.334706 0)
(0.670691 -0.382522 0)
(0.991841 -0.416964 0)
(1.32671 -0.43583 0)
(1.66579 -0.438759 0)
(-0.002295 0.00812629 0)
(-0.0169537 0.0193714 0)
(-0.0369696 0.0257865 0)
(-0.0594778 0.028837 0)
(-0.0828443 0.0305363 0)
(-0.106831 0.0319708 0)
(-0.131527 0.0335864 0)
(-0.157127 0.0355925 0)
(-0.183901 0.0381711 0)
(-0.212198 0.0415646 0)
(-0.242437 0.0461039 0)
(-0.275073 0.0521915 0)
(-0.310513 0.0602707 0)
(-0.348977 0.0707448 0)
(-0.390279 0.083814 0)
(-0.433516 0.0992656 0)
(-0.476662 0.116207 0)
(-0.516258 0.132759 0)
(-0.547366 0.145745 0)
(-0.563797 0.150634 0)
(-0.558723 0.14211 0)
(-0.525611 0.115528 0)
(-0.459325 0.0689379 0)
(-0.357633 0.0040219 0)
(-0.224584 -0.0751245 0)
(-0.0638743 -0.163648 0)
(0.128306 -0.258955 0)
(0.351198 -0.358335 0)
(0.605493 -0.457762 0)
(0.889977 -0.552356 0)
(1.20058 -0.636343 0)
(1.53168 -0.704782 0)
(1.87642 -0.753375 0)
(2.22689 -0.778451 0)
(2.57434 -0.77778 0)
(-0.00404657 0.0201164 0)
(-0.0265731 0.0413314 0)
(-0.0546326 0.0514353 0)
(-0.0843484 0.0557071 0)
(-0.113868 0.0579328 0)
(-0.143082 0.0598217 0)
(-0.172083 0.0620211 0)
(-0.200958 0.0648071 0)
(-0.229763 0.0683991 0)
(-0.258477 0.0730536 0)
(-0.286954 0.0790529 0)
(-0.314829 0.0866318 0)
(-0.341389 0.0958811 0)
(-0.365434 0.106596 0)
(-0.385112 0.118106 0)
(-0.397747 0.129132 0)
(-0.399766 0.137674 0)
(-0.386895 0.140876 0)
(-0.354692 0.135069 0)
(-0.299234 0.116284 0)
(-0.217636 0.0808359 0)
(-0.10811 0.0263331 0)
(0.0300625 -0.047436 0)
(0.192464 -0.138604 0)
(0.379482 -0.244383 0)
(0.593644 -0.362209 0)
(0.836513 -0.489024 0)
(1.1069 -0.619632 0)
(1.40197 -0.747628 0)
(1.71762 -0.866637 0)
(2.04883 -0.970286 0)
(2.38988 -1.0524 0)
(2.73486 -1.10753 0)
(3.07715 -1.13073 0)
(3.40915 -1.11863 0)
(-0.00604003 0.0378156 0)
(-0.0360295 0.0709015 0)
(-0.0699276 0.0836225 0)
(-0.103249 0.0875959 0)
(-0.134252 0.088905 0)
(-0.163037 0.0898281 0)
(-0.189667 0.0910822 0)
(-0.214053 0.0928616 0)
(-0.235912 0.0952532 0)
(-0.254736 0.0983375 0)
(-0.269751 0.102119 0)
(-0.279847 0.106422 0)
(-0.283514 0.110798 0)
(-0.278803 0.114427 0)
(-0.263252 0.115998 0)
(-0.233905 0.11371 0)
(-0.187518 0.105354 0)
(-0.120895 0.0883192 0)
(-0.0314891 0.0597448 0)
(0.0815662 0.0169067 0)
(0.22014 -0.0431314 0)
(0.384669 -0.122114 0)
(0.575579 -0.220882 0)
(0.792652 -0.338982 0)
(1.0353 -0.473296 0)
(1.30187 -0.61925 0)
(1.58926 -0.771417 0)
(1.89294 -0.923372 0)
(2.20765 -1.06811 0)
(2.52815 -1.19877 0)
(2.84986 -1.30881 0)
(3.16856 -1.39217 0)
(3.48136 -1.44362 0)
(3.78433 -1.45726 0)
(4.07244 -1.4281 0)
(-0.00836182 0.0612233 0)
(-0.0447037 0.105987 0)
(-0.080121 0.118407 0)
(-0.110897 0.119243 0)
(-0.136251 0.117145 0)
(-0.156748 0.114716 0)
(-0.17251 0.112518 0)
(-0.183343 0.110528 0)
(-0.188714 0.10855 0)
(-0.187793 0.106392 0)
(-0.179469 0.103762 0)
(-0.162309 0.100093 0)
(-0.134542 0.0945071 0)
(-0.0940949 0.0858851 0)
(-0.0384924 0.0727117 0)
(0.0347983 0.0531692 0)
(0.127574 0.0251516 0)
(0.243057 -0.0138745 0)
(0.383588 -0.0664105 0)
(0.55146 -0.135267 0)
(0.747397 -0.222887 0)
(0.970608 -0.330316 0)
(1.21892 -0.456833 0)
(1.48886 -0.599943 0)
(1.77568 -0.755505 0)
(2.07362 -0.918058 0)
(2.37647 -1.08131 0)
(2.67808 -1.2386 0)
(2.97296 -1.38328 0)
(3.25691 -1.50937 0)
(3.52741 -1.61132 0)
(3.7832 -1.68442 0)
(4.02641 -1.72395 0)
(4.25616 -1.72299 0)
(4.47441 -1.67552 0)
(-0.0112322 0.0910917 0)
(-0.0518648 0.142987 0)
(-0.0809041 0.149019 0)
(-0.0990127 0.142496 0)
(-0.108265 0.133859 0)
(-0.110082 0.125293 0)
(-0.104614 0.116969 0)
(-0.091603 0.108487 0)
(-0.0704037 0.0992244 0)
(-0.0400338 0.0886668 0)
(0.000801038 0.0763103 0)
(0.0537772 0.0613201 0)
(0.120782 0.0425878 0)
(0.203646 0.0186751 0)
(0.305718 -0.0124849 0)
(0.429666 -0.0529107 0)
(0.578436 -0.104852 0)
(0.753493 -0.170427 0)
(0.955321 -0.251466 0)
(1.18311 -0.349228 0)
(1.43446 -0.464126 0)
(1.70528 -0.595366 0)
(1.99 -0.740715 0)
(2.28201 -0.89654 0)
(2.57415 -1.05803 0)
(2.85925 -1.21954 0)
(3.13069 -1.37514 0)
(3.383 -1.51914 0)
(3.61207 -1.64648 0)
(3.81614 -1.75327 0)
(3.99506 -1.83595 0)
(4.15218 -1.89227 0)
(4.29365 -1.9172 0)
(4.42278 -1.90167 0)
(4.55729 -1.83986 0)
(-0.0153123 0.131017 0)
(-0.0528947 0.174977 0)
(-0.0582131 0.163258 0)
(-0.045153 0.145101 0)
(-0.0217839 0.127633 0)
(0.0100857 0.110541 0)
(0.0509101 0.0936775 0)
(0.101315 0.0763971 0)
(0.162263 0.0576084 0)
(0.234612 0.0362994 0)
(0.320548 0.0112207 0)
(0.422801 -0.0190238 0)
(0.543771 -0.0558663 0)
(0.685881 -0.100943 0)
(0.850329 -0.155777 0)
(1.03766 -0.221761 0)
(1.24759 -0.30006 0)
(1.47873 -0.391487 0)
(1.72852 -0.496393 0)
(1.99314 -0.614491 0)
(2.26751 -0.744696 0)
(2.54552 -0.884964 0)
(2.8203 -1.03223 0)
(3.08472 -1.18248 0)
(3.33181 -1.33106 0)
(3.55524 -1.47299 0)
(3.74968 -1.60345 0)
(3.91117 -1.71834 0)
(4.03714 -1.81466 0)
(4.12801 -1.89108 0)
(4.18492 -1.94762 0)
(4.21878 -1.98673 0)
(4.23386 -2.0075 0)
(4.25826 -1.9997 0)
(4.31419 -1.97318 0)
(-0.0122199 0.171272 0)
(-0.00948241 0.183123 0)
(0.0514227 0.139664 0)
(0.128355 0.10871 0)
(0.209258 0.083103 0)
(0.29558 0.0568209 0)
(0.390474 0.0289106 0)
(0.496543 -0.000970836 0)
(0.615353 -0.0339568 0)
(0.748759 -0.0714484 0)
(0.898106 -0.114679 0)
(1.06403 -0.164683 0)
(1.24676 -0.222417 0)
(1.44606 -0.288753 0)
(1.66102 -0.364384 0)
(1.89 -0.449782 0)
(2.13052 -0.545137 0)
(2.37924 -0.650252 0)
(2.63202 -0.764463 0)
(2.88397 -0.886545 0)
(3.12955 -1.01464 0)
(3.36282 -1.14619 0)
(3.57769 -1.27799 0)
(3.7682 -1.40625 0)
(3.92886 -1.52689 0)
(4.05483 -1.63577 0)
(4.14212 -1.7292 0)
(4.18782 -1.80433 0)
(4.18998 -1.85983 0)
(4.14943 -1.89665 0)
(4.06639 -1.91931 0)
(3.95836 -1.93709 0)
(3.81829 -1.96714 0)
(3.75568 -2.01344 0)
(3.70114 -2.19304 0)
(0.209693 0.0598311 0)
(0.338639 0.0627666 0)
(0.489851 0.0246161 0)
(0.651305 -0.0115743 0)
(0.805909 -0.0434093 0)
(0.958341 -0.076428 0)
(1.11527 -0.112826 0)
(1.2792 -0.153172 0)
(1.45102 -0.198086 0)
(1.63132 -0.248338 0)
(1.82041 -0.304585 0)
(2.01801 -0.367343 0)
(2.2233 -0.437021 0)
(2.4349 -0.513891 0)
(2.65088 -0.598028 0)
(2.86874 -0.689254 0)
(3.0854 -0.787093 0)
(3.29726 -0.890711 0)
(3.50025 -0.99887 0)
(3.68993 -1.10989 0)
(3.86159 -1.22161 0)
(4.01039 -1.33138 0)
(4.13152 -1.43611 0)
(4.22039 -1.53235 0)
(4.27276 -1.6165 0)
(4.28492 -1.68508 0)
(4.25378 -1.73507 0)
(4.17702 -1.76443 0)
(4.05298 -1.77279 0)
(3.88163 -1.76219 0)
(3.66097 -1.73974 0)
(3.40285 -1.71816 0)
(3.08221 -1.73324 0)
(2.87859 -1.82327 0)
(2.46101 -2.29533 0)
(1.45643 -0.128109 0)
(1.56322 -0.153567 0)
(1.68542 -0.17286 0)
(1.82564 -0.195604 0)
(1.97147 -0.222752 0)
(2.11993 -0.254844 0)
(2.27257 -0.292397 0)
(2.43003 -0.335548 0)
(2.59184 -0.384316 0)
(2.75731 -0.438763 0)
(2.92566 -0.498949 0)
(3.09575 -0.564878 0)
(3.26605 -0.636447 0)
(3.43467 -0.71341 0)
(3.59936 -0.795334 0)
(3.7575 -0.88156 0)
(3.90613 -0.971169 0)
(4.04194 -1.06294 0)
(4.16135 -1.15533 0)
(4.26056 -1.24643 0)
(4.33565 -1.33395 0)
(4.3826 -1.41522 0)
(4.39748 -1.48727 0)
(4.3766 -1.54692 0)
(4.31664 -1.59095 0)
(4.21489 -1.61641 0)
(4.06946 -1.62096 0)
(3.87942 -1.60327 0)
(3.64464 -1.56362 0)
(3.36594 -1.50435 0)
(3.04208 -1.43166 0)
(2.67402 -1.35505 0)
(2.22943 -1.30337 0)
(1.74993 -1.32255 0)
(0.641931 -1.56465 0)
(2.94008 -0.184585 0)
(3.0068 -0.221524 0)
(3.08023 -0.25515 0)
(3.16511 -0.291055 0)
(3.25802 -0.330234 0)
(3.35629 -0.372397 0)
(3.45921 -0.417869 0)
(3.56599 -0.467128 0)
(3.67535 -0.520398 0)
(3.78582 -0.57772 0)
(3.89589 -0.639044 0)
(4.00387 -0.704218 0)
(4.10782 -0.772937 0)
(4.20562 -0.84471 0)
(4.29488 -0.918847 0)
(4.37297 -0.994435 0)
(4.43704 -1.07031 0)
(4.48398 -1.14505 0)
(4.51049 -1.21689 0)
(4.51314 -1.28379 0)
(4.48845 -1.34339 0)
(4.43299 -1.39306 0)
(4.3436 -1.43003 0)
(4.21759 -1.4515 0)
(4.05308 -1.45492 0)
(3.84924 -1.43823 0)
(3.60661 -1.40024 0)
(3.32724 -1.34084 0)
(3.01453 -1.26134 0)
(2.67289 -1.16436 0)
(2.30584 -1.05432 0)
(1.91618 -0.935351 0)
(1.49212 -0.815799 0)
(1.04001 -0.681835 0)
(0.399892 -0.608856 0)
(4.0053 -0.244792 0)
(4.04896 -0.285992 0)
(4.09446 -0.3255 0)
(4.14439 -0.365898 0)
(4.198 -0.408417 0)
(4.25357 -0.45317 0)
(4.31004 -0.500363 0)
(4.36655 -0.550283 0)
(4.42194 -0.603017 0)
(4.47479 -0.658455 0)
(4.52352 -0.716358 0)
(4.5664 -0.77636 0)
(4.60151 -0.837926 0)
(4.62672 -0.900331 0)
(4.6397 -0.96265 0)
(4.6379 -1.02374 0)
(4.61857 -1.08222 0)
(4.57881 -1.13647 0)
(4.51563 -1.18461 0)
(4.42607 -1.22452 0)
(4.30734 -1.25394 0)
(4.1571 -1.27056 0)
(3.97365 -1.27214 0)
(3.75635 -1.25679 0)
(3.50588 -1.22319 0)
(3.22458 -1.17085 0)
(2.91661 -1.10032 0)
(2.58796 -1.01329 0)
(2.2461 -0.912402 0)
(1.89941 -0.800886 0)
(1.55557 -0.681668 0)
(1.21953 -0.554256 0)
(0.884585 -0.412262 0)
(0.555504 -0.238937 0)
(0.165133 -0.110586 0)
(4.67693 -0.275087 0)
(4.69528 -0.315789 0)
(4.71234 -0.356516 0)
(4.72921 -0.397977 0)
(4.74568 -0.440963 0)
(4.76064 -0.485621 0)
(4.77302 -0.531888 0)
(4.78188 -0.579723 0)
(4.78606 -0.629019 0)
(4.78413 -0.679521 0)
(4.77452 -0.730824 0)
(4.75548 -0.782366 0)
(4.72512 -0.833413 0)
(4.68135 -0.883045 0)
(4.62193 -0.930149 0)
(4.5445 -0.973414 0)
(4.4466 -1.01134 0)
(4.32584 -1.04224 0)
(4.18001 -1.06433 0)
(4.00729 -1.07576 0)
(3.80649 -1.07478 0)
(3.57735 -1.05987 0)
(3.3208 -1.02995 0)
(3.03926 -0.984608 0)
(2.73681 -0.924276 0)
(2.41929 -0.850386 0)
(2.09415 -0.765381 0)
(1.77017 -0.672539 0)
(1.45696 -0.575555 0)
(1.16407 -0.477514 0)
(0.898431 -0.378321 0)
(0.660304 -0.269687 0)
(0.4412 -0.132488 0)
(0.245974 0.0462548 0)
(0.0453458 0.144859 0)
(4.95269 -0.281332 0)
(4.94562 -0.319896 0)
(4.93471 -0.358978 0)
(4.92017 -0.398481 0)
(4.90171 -0.438685 0)
(4.87845 -0.479626 0)
(4.84933 -0.521137 0)
(4.81329 -0.563022 0)
(4.76911 -0.60503 0)
(4.71541 -0.64677 0)
(4.65062 -0.687677 0)
(4.57308 -0.727021 0)
(4.48103 -0.763908 0)
(4.37262 -0.797289 0)
(4.24599 -0.825966 0)
(4.0994 -0.84862 0)
(3.93131 -0.86386 0)
(3.74059 -0.870289 0)
(3.52675 -0.866606 0)
(3.29012 -0.851726 0)
(3.03207 -0.824926 0)
(2.75528 -0.785996 0)
(2.46378 -0.735388 0)
(2.16298 -0.674333 0)
(1.85956 -0.604896 0)
(1.56112 -0.529936 0)
(1.27578 -0.452955 0)
(1.01181 -0.377809 0)
(0.777018 -0.307956 0)
(0.577067 -0.244027 0)
(0.411548 -0.17896 0)
(0.272433 -0.0944072 0)
(0.152244 0.0332201 0)
(0.0561213 0.194338 0)
(-0.0107194 0.226683 0)
(4.83409 -0.264226 0)
(4.80265 -0.297945 0)
(4.76493 -0.331984 0)
(4.72061 -0.366019 0)
(4.6692 -0.400009 0)
(4.60986 -0.433852 0)
(4.54156 -0.467297 0)
(4.46323 -0.500004 0)
(4.3737 -0.531554 0)
(4.27173 -0.561403 0)
(4.15601 -0.588868 0)
(4.02523 -0.613143 0)
(3.8782 -0.633322 0)
(3.71384 -0.648425 0)
(3.53141 -0.657439 0)
(3.33059 -0.659379 0)
(3.11164 -0.653373 0)
(2.87561 -0.638749 0)
(2.62444 -0.615147 0)
(2.3611 -0.582615 0)
(2.08961 -0.541699 0)
(1.81501 -0.493502 0)
(1.54315 -0.439696 0)
(1.2803 -0.382463 0)
(1.03273 -0.324383 0)
(0.806178 -0.26831 0)
(0.605528 -0.217352 0)
(0.434781 -0.174604 0)
(0.296231 -0.141341 0)
(0.188014 -0.112393 0)
(0.10228 -0.0720896 0)
(0.0316701 0.000997886 0)
(-0.0242578 0.119131 0)
(-0.0501193 0.236376 0)
(-0.0284402 0.199978 0)
(4.32272 -0.224334 0)
(4.26836 -0.250871 0)
(4.20542 -0.277243 0)
(4.13335 -0.303052 0)
(4.05154 -0.328054 0)
(3.95925 -0.352005 0)
(3.85566 -0.374567 0)
(3.73995 -0.395318 0)
(3.61134 -0.413783 0)
(3.46916 -0.429424 0)
(3.31288 -0.441644 0)
(3.14222 -0.449813 0)
(2.95725 -0.453297 0)
(2.75847 -0.45151 0)
(2.54695 -0.443975 0)
(2.32439 -0.430391 0)
(2.09323 -0.410703 0)
(1.85659 -0.385167 0)
(1.61835 -0.354394 0)
(1.38293 -0.319364 0)
(1.15512 -0.281393 0)
(0.939746 -0.242061 0)
(0.741226 -0.203054 0)
(0.563112 -0.165978 0)
(0.407655 -0.132269 0)
(0.275748 -0.103422 0)
(0.167281 -0.0814552 0)
(0.0813783 -0.0680421 0)
(0.0153982 -0.0609545 0)
(-0.0359013 -0.0499894 0)
(-0.0775735 -0.018077 0)
(-0.108205 0.0468169 0)
(-0.117536 0.136091 0)
(-0.0913336 0.200107 0)
(-0.0265105 0.136549 0)
(3.42381 -0.163393 0)
(3.35007 -0.180581 0)
(3.26626 -0.197 0)
(3.17195 -0.212271 0)
(3.06683 -0.226102 0)
(2.95061 -0.238235 0)
(2.8231 -0.248385 0)
(2.6843 -0.256246 0)
(2.53441 -0.261515 0)
(2.37393 -0.263905 0)
(2.20369 -0.263154 0)
(2.02491 -0.259051 0)
(1.83925 -0.251464 0)
(1.64885 -0.24038 0)
(1.45627 -0.225947 0)
(1.26446 -0.208506 0)
(1.07668 -0.188607 0)
(0.89632 -0.166992 0)
(0.72668 -0.144558 0)
(0.570731 -0.122273 0)
(0.430812 -0.101035 0)
(0.308357 -0.0815279 0)
(0.20376 -0.064108 0)
(0.116381 -0.0488307 0)
(0.0447923 -0.0358639 0)
(-0.0126675 -0.026154 0)
(-0.0578904 -0.0215863 0)
(-0.0933906 -0.0225997 0)
(-0.122512 -0.0251545 0)
(-0.147464 -0.0201105 0)
(-0.165525 0.00303506 0)
(-0.167993 0.048376 0)
(-0.143912 0.103476 0)
(-0.0895556 0.130602 0)
(-0.0185912 0.0764497 0)
(2.17158 -0.0880121 0)
(2.09097 -0.0952531 0)
(2.00146 -0.101407 0)
(1.90332 -0.106256 0)
(1.79701 -0.109659 0)
(1.68318 -0.111533 0)
(1.56267 -0.111825 0)
(1.43652 -0.110508 0)
(1.30601 -0.107599 0)
(1.17265 -0.103165 0)
(1.03816 -0.0973326 0)
(0.904468 -0.0902868 0)
(0.773631 -0.0822721 0)
(0.647762 -0.0735832 0)
(0.528888 -0.064539 0)
(0.41879 -0.0554509 0)
(0.318888 -0.0466167 0)
(0.23011 -0.0383072 0)
(0.152757 -0.0307276 0)
(0.0865881 -0.0239913 0)
(0.030988 -0.0180972 0)
(-0.0148217 -0.0129346 0)
(-0.0516761 -0.0083419 0)
(-0.0804822 -0.00426409 0)
(-0.10224 -0.00101107 0)
(-0.118214 0.000600064 0)
(-0.130403 -0.000469264 0)
(-0.141562 -0.00431047 0)
(-0.153958 -0.00859047 0)
(-0.166606 -0.00822624 0)
(-0.172749 0.00260702 0)
(-0.161532 0.0255686 0)
(-0.125039 0.0520178 0)
(-0.0681425 0.060998 0)
(-0.0117198 0.0318029 0)
(0.705443 -0.0168948 0)
(0.654054 -0.0167951 0)
(0.599822 -0.0162469 0)
(0.543596 -0.0152775 0)
(0.486292 -0.0139599 0)
(0.428828 -0.0123917 0)
(0.37209 -0.0106701 0)
(0.316916 -0.00888748 0)
(0.264076 -0.00713585 0)
(0.214239 -0.00550469 0)
(0.167938 -0.00406994 0)
(0.125556 -0.00288187 0)
(0.0873119 -0.00195379 0)
(0.0532824 -0.00125316 0)
(0.0234274 -0.0006969 0)
(-0.00238383 -0.000178458 0)
(-0.024293 0.00035327 0)
(-0.0424464 0.000887471 0)
(-0.0570524 0.00139174 0)
(-0.0683803 0.00181645 0)
(-0.0767779 0.0021156 0)
(-0.0826037 0.00229037 0)
(-0.0861497 0.0023882 0)
(-0.0876551 0.00247326 0)
(-0.0873866 0.00255378 0)
(-0.0858799 0.00247391 0)
(-0.0843178 0.00193979 0)
(-0.0844722 0.000745195 0)
(-0.0877643 -0.0009229 0)
(-0.0934645 -0.00222915 0)
(-0.0968817 -0.0016947 0)
(-0.0899301 0.00191724 0)
(-0.0671271 0.00739177 0)
(-0.0337364 0.00971165 0)
(-0.00560257 0.00486141 0)
(1.03625 -0.0918145 0)
(1.29007 -0.0818511 0)
(1.52151 -0.0682002 0)
(1.72346 -0.052206 0)
(1.89154 -0.0351482 0)
(2.02383 -0.0179948 0)
(2.12036 -0.00143052 0)
(2.18225 0.0140508 0)
(2.21213 0.0284806 0)
(2.21056 0.0419255 0)
(1.99881 -0.42578 0)
(2.31548 -0.39793 0)
(2.60694 -0.358016 0)
(2.86703 -0.310045 0)
(3.09264 -0.257845 0)
(3.28302 -0.204376 0)
(3.43897 -0.151814 0)
(3.56247 -0.101719 0)
(3.65592 -0.054926 0)
(3.72384 -0.0116578 0)
(2.90925 -0.750961 0)
(3.22157 -0.699904 0)
(3.50287 -0.629852 0)
(3.74862 -0.548017 0)
(3.95825 -0.460878 0)
(4.13336 -0.373215 0)
(4.27644 -0.288529 0)
(4.39057 -0.209284 0)
(4.47918 -0.136967 0)
(4.54576 -0.0722407 0)
(3.72174 -1.07 0)
(4.00466 -0.987852 0)
(4.25049 -0.88173 0)
(4.45789 -0.763259 0)
(4.62988 -0.641218 0)
(4.77027 -0.521361 0)
(4.88246 -0.407796 0)
(4.96995 -0.303336 0)
(5.03648 -0.209447 0)
(5.08576 -0.126447 0)
(4.33657 -1.35116 0)
(4.56661 -1.23018 0)
(4.75771 -1.08343 0)
(4.91273 -0.928473 0)
(5.03703 -0.774644 0)
(5.13422 -0.627026 0)
(5.207 -0.489641 0)
(5.25904 -0.365262 0)
(5.29483 -0.255086 0)
(5.31873 -0.159093 0)
(4.67506 -1.56942 0)
(4.8484 -1.41025 0)
(4.98372 -1.22835 0)
(5.08068 -1.04403 0)
(5.14348 -0.863399 0)
(5.17597 -0.691066 0)
(5.18393 -0.532717 0)
(5.17566 -0.39223 0)
(5.15934 -0.270841 0)
(5.14126 -0.167976 0)
(4.70907 -1.70779 0)
(4.84361 -1.52186 0)
(4.90504 -1.31348 0)
(4.8866 -1.09706 0)
(4.81249 -0.882024 0)
(4.70616 -0.68082 0)
(4.58775 -0.503485 0)
(4.47431 -0.354079 0)
(4.37697 -0.23222 0)
(4.30097 -0.135437 0)
(4.45769 -1.81841 0)
(4.47874 -1.57267 0)
(4.29412 -1.2802 0)
(3.98314 -0.977082 0)
(3.65107 -0.704359 0)
(3.34668 -0.48329 0)
(3.08858 -0.314704 0)
(2.88454 -0.189645 0)
(2.73408 -0.0982777 0)
(2.63197 -0.0338649 0)
(3.81906 -1.94229 0)
(3.34339 -1.3997 0)
(2.60942 -0.87621 0)
(1.98162 -0.477987 0)
(1.51229 -0.210839 0)
(1.18223 -0.0562379 0)
(0.960078 0.0190822 0)
(0.821727 0.0499227 0)
(0.745038 0.0630172 0)
(0.713814 0.0692535 0)
(2.1941 -1.46059 0)
(0.924658 -0.43967 0)
(-0.0650925 0.0868917 0)
(-0.158876 0.113772 0)
(-0.222703 0.084982 0)
(-0.251343 0.0530292 0)
(-0.240284 0.0327249 0)
(-0.218769 0.0216002 0)
(-0.194619 0.00809526 0)
(-0.16124 -0.0410564 0)
(2.17977 0.0537096 0)
(2.12483 0.0628338 0)
(2.05027 0.0687933 0)
(1.96005 0.0716794 0)
(1.85785 0.0719005 0)
(1.74701 0.0699628 0)
(1.63037 0.0663776 0)
(1.51031 0.0616221 0)
(1.38884 0.0561154 0)
(1.26757 0.0502034 0)
(1.14785 0.0441584 0)
(1.03075 0.0381858 0)
(0.917146 0.0324333 0)
(0.807776 0.0269993 0)
(0.703279 0.0219424 0)
(0.604231 0.0172921 0)
(0.511166 0.0130617 0)
(0.424574 0.00926379 0)
(0.344888 0.005923 0)
(0.272453 0.00308388 0)
(0.20748 0.000805811 0)
(0.150001 -0.00085465 0)
(0.0998222 -0.00187442 0)
(0.0565298 -0.00230747 0)
(0.0195204 -0.00233525 0)
(-0.0119451 -0.00221672 0)
(-0.0384199 -0.00212502 0)
(-0.0602895 -0.00221558 0)
(-0.0778161 -0.00256675 0)
(-0.0911349 -0.00306225 0)
(-0.100527 -0.00346489 0)
(-0.106471 -0.00361166 0)
(-0.109559 -0.0035222 0)
(-0.11043 -0.00332015 0)
(-0.10964 -0.00310926 0)
(3.77008 0.0277609 0)
(3.79512 0.0627829 0)
(3.79986 0.0931567 0)
(3.78515 0.11898 0)
(3.75186 0.140531 0)
(3.70088 0.158133 0)
(3.63317 0.172128 0)
(3.54969 0.18287 0)
(3.45143 0.190715 0)
(3.33933 0.196004 0)
(3.21433 0.199049 0)
(3.07735 0.20012 0)
(2.92929 0.199438 0)
(2.77104 0.197168 0)
(2.60355 0.193424 0)
(2.42782 0.188272 0)
(2.24499 0.181747 0)
(2.05637 0.17386 0)
(1.86348 0.164623 0)
(1.66811 0.154068 0)
(1.47231 0.142271 0)
(1.27848 0.129382 0)
(1.08929 0.115644 0)
(0.907663 0.101396 0)
(0.736611 0.0870519 0)
(0.578958 0.0730448 0)
(0.437198 0.0598224 0)
(0.313013 0.0477466 0)
(0.206777 0.0370299 0)
(0.117766 0.0277848 0)
(0.0444699 0.0200599 0)
(-0.0148856 0.0137343 0)
(-0.0619102 0.00852411 0)
(-0.0981418 0.00416626 0)
(-0.125194 0.000540859 0)
(4.59353 -0.0149949 0)
(4.62616 0.0354568 0)
(4.64597 0.079932 0)
(4.65445 0.119225 0)
(4.6524 0.154028 0)
(4.6402 0.184928 0)
(4.61789 0.212432 0)
(4.58526 0.236994 0)
(4.54192 0.25901 0)
(4.48733 0.278817 0)
(4.42088 0.296689 0)
(4.34189 0.312828 0)
(4.24968 0.327354 0)
(4.14357 0.340299 0)
(4.0229 0.351604 0)
(3.88711 0.361127 0)
(3.73576 0.368649 0)
(3.56858 0.373886 0)
(3.38556 0.3765 0)
(3.18701 0.376115 0)
(2.97364 0.37234 0)
(2.74666 0.36479 0)
(2.50788 0.353131 0)
(2.25978 0.337128 0)
(2.00551 0.316716 0)
(1.74893 0.292081 0)
(1.49454 0.263712 0)
(1.24728 0.232444 0)
(1.01226 0.199492 0)
(0.794412 0.166364 0)
(0.598132 0.134674 0)
(0.426703 0.105883 0)
(0.281818 0.0810025 0)
(0.1631 0.0603201 0)
(0.0681298 0.0434686 0)
(5.12104 -0.0538649 0)
(5.14496 0.00935019 0)
(5.15976 0.0645781 0)
(5.16687 0.113142 0)
(5.16726 0.15616 0)
(5.1616 0.194593 0)
(5.15035 0.229323 0)
(5.13371 0.261153 0)
(5.11162 0.290786 0)
(5.08381 0.318818 0)
(5.04981 0.345747 0)
(5.00892 0.371962 0)
(4.96027 0.397732 0)
(4.90283 0.4232 0)
(4.83538 0.448371 0)
(4.75662 0.47311 0)
(4.66511 0.497148 0)
(4.55935 0.52008 0)
(4.43781 0.541367 0)
(4.29897 0.560341 0)
(4.14145 0.576207 0)
(3.96407 0.588061 0)
(3.76599 0.594915 0)
(3.54691 0.595753 0)
(3.30717 0.58961 0)
(3.04798 0.57568 0)
(2.77157 0.553435 0)
(2.48129 0.522746 0)
(2.18174 0.484013 0)
(1.87869 0.438219 0)
(1.5789 0.386942 0)
(1.28982 0.332308 0)
(1.01902 0.276875 0)
(0.773425 0.2234 0)
(0.558476 0.174467 0)
(5.33445 -0.0763978 0)
(5.34474 -0.00535589 0)
(5.35156 0.0561039 0)
(5.35566 0.109899 0)
(5.35726 0.157505 0)
(5.35644 0.200109 0)
(5.35326 0.238772 0)
(5.34767 0.274454 0)
(5.33949 0.30801 0)
(5.32848 0.340187 0)
(5.31433 0.37163 0)
(5.29662 0.402886 0)
(5.27481 0.434395 0)
(5.24826 0.466488 0)
(5.21619 0.499374 0)
(5.17765 0.533138 0)
(5.13156 0.567729 0)
(5.07661 0.60295 0)
(5.01128 0.638446 0)
(4.93381 0.673688 0)
(4.84223 0.707948 0)
(4.73435 0.740284 0)
(4.60784 0.769537 0)
(4.46037 0.794335 0)
(4.28971 0.813146 0)
(4.09398 0.824346 0)
(3.87186 0.826329 0)
(3.62291 0.817643 0)
(3.34786 0.797146 0)
(3.0489 0.764168 0)
(2.7299 0.718669 0)
(2.39658 0.661391 0)
(2.05643 0.593969 0)
(1.71845 0.518983 0)
(1.39257 0.439875 0)
(5.12575 -0.0818401 0)
(5.11556 -0.00930683 0)
(5.11113 0.0529359 0)
(5.11168 0.107331 0)
(5.11613 0.155523 0)
(5.12364 0.198808 0)
(5.13356 0.238317 0)
(5.14518 0.275048 0)
(5.15781 0.309907 0)
(5.17075 0.343722 0)
(5.18333 0.377224 0)
(5.19487 0.411027 0)
(5.20471 0.445623 0)
(5.21215 0.481395 0)
(5.2165 0.518625 0)
(5.21701 0.557499 0)
(5.21286 0.598115 0)
(5.20316 0.640472 0)
(5.18685 0.684464 0)
(5.16269 0.729856 0)
(5.12919 0.776247 0)
(5.08452 0.823037 0)
(5.02654 0.869379 0)
(4.95276 0.914145 0)
(4.86038 0.955918 0)
(4.74633 0.992995 0)
(4.60746 1.02343 0)
(4.44071 1.04509 0)
(4.2434 1.05579 0)
(4.01363 1.05338 0)
(3.75066 1.03598 0)
(3.45543 1.00218 0)
(3.13092 0.951288 0)
(2.7825 0.883655 0)
(2.41803 0.80089 0)
(4.24817 -0.0598802 0)
(4.21825 0.001074 0)
(4.20788 0.053134 0)
(4.2131 0.0991055 0)
(4.23063 0.140431 0)
(4.25824 0.178287 0)
(4.29417 0.213672 0)
(4.33687 0.247388 0)
(4.38498 0.280164 0)
(4.43728 0.312729 0)
(4.49266 0.345777 0)
(4.55005 0.379917 0)
(4.60848 0.415638 0)
(4.66698 0.45331 0)
(4.72464 0.493207 0)
(4.78055 0.53552 0)
(4.8338 0.580372 0)
(4.88344 0.62783 0)
(4.92844 0.677898 0)
(4.96769 0.730506 0)
(4.99991 0.78548 0)
(5.02362 0.842506 0)
(5.03711 0.901079 0)
(5.03835 0.960463 0)
(5.025 1.01965 0)
(4.99436 1.07735 0)
(4.94333 1.13195 0)
(4.86845 1.18149 0)
(4.76597 1.22369 0)
(4.63205 1.25597 0)
(4.46304 1.27547 0)
(4.25599 1.27929 0)
(4.00911 1.26465 0)
(3.72249 1.2293 0)
(3.3986 1.17193 0)
(2.57078 0.0085511 0)
(2.55061 0.0400375 0)
(2.5649 0.0673417 0)
(2.60338 0.092546 0)
(2.65952 0.116379 0)
(2.72963 0.139563 0)
(2.8109 0.162749 0)
(2.90108 0.186449 0)
(2.99853 0.211117 0)
(3.10207 0.237233 0)
(3.21069 0.265288 0)
(3.32349 0.295749 0)
(3.43966 0.329001 0)
(3.55841 0.365341 0)
(3.679 0.404986 0)
(3.80066 0.448102 0)
(3.92255 0.494818 0)
(4.04374 0.545243 0)
(4.1632 0.599459 0)
(4.27971 0.65751 0)
(4.39188 0.719367 0)
(4.49807 0.784884 0)
(4.59646 0.853749 0)
(4.68499 0.925443 0)
(4.76137 0.999227 0)
(4.82311 1.07413 0)
(4.8674 1.14895 0)
(4.89111 1.22217 0)
(4.89069 1.29196 0)
(4.86216 1.35604 0)
(4.80121 1.41163 0)
(4.70337 1.45545 0)
(4.56441 1.4838 0)
(4.38082 1.49281 0)
(4.15049 1.47884 0)
(0.719165 0.0435106 0)
(0.785841 0.0229489 0)
(0.882023 0.0139915 0)
(0.983482 0.0147353 0)
(1.08572 0.0224875 0)
(1.19052 0.0347058 0)
(1.29908 0.0496548 0)
(1.41204 0.0665787 0)
(1.52993 0.0853965 0)
(1.65314 0.106324 0)
(1.78191 0.129704 0)
(1.91636 0.155923 0)
(2.05654 0.185354 0)
(2.20251 0.218305 0)
(2.35425 0.255028 0)
(2.5117 0.295754 0)
(2.67464 0.340732 0)
(2.84271 0.390232 0)
(3.01526 0.444551 0)
(3.19139 0.503989 0)
(3.3698 0.568806 0)
(3.54882 0.639153 0)
(3.72638 0.714986 0)
(3.90004 0.796014 0)
(4.0671 0.881694 0)
(4.22461 0.971253 0)
(4.36934 1.06371 0)
(4.49778 1.15789 0)
(4.60609 1.25232 0)
(4.69005 1.34517 0)
(4.74504 1.43404 0)
(4.76614 1.51587 0)
(4.74826 1.58688 0)
(4.68644 1.6427 0)
(4.57626 1.67856 0)
(-0.0859483 -0.1547 0)
(0.0395092 -0.140771 0)
(0.140494 -0.123753 0)
(0.220729 -0.106893 0)
(0.291532 -0.0895125 0)
(0.360967 -0.0727469 0)
(0.432501 -0.0573048 0)
(0.507624 -0.0427006 0)
(0.587638 -0.0280495 0)
(0.673563 -0.0125557 0)
(0.766075 0.00450596 0)
(0.865694 0.0237433 0)
(0.973019 0.0456236 0)
(1.089 0.0705415 0)
(1.21431 0.0988874 0)
(1.34973 0.131005 0)
(1.49605 0.167296 0)
(1.65395 0.208262 0)
(1.8239 0.254507 0)
(2.00601 0.306709 0)
(2.19989 0.365591 0)
(2.40459 0.431787 0)
(2.61853 0.505721 0)
(2.83959 0.58752 0)
(3.06515 0.677017 0)
(3.29211 0.773786 0)
(3.51688 0.877176 0)
(3.73537 0.986346 0)
(3.9429 1.10022 0)
(4.13424 1.21734 0)
(4.30364 1.33564 0)
(4.44501 1.45228 0)
(4.55216 1.56352 0)
(4.619 1.66478 0)
(4.63981 1.75082 0)
(-0.0430135 -0.15237 0)
(-0.0607347 -0.178271 0)
(-0.0461955 -0.16142 0)
(-0.023869 -0.143361 0)
(0.000928414 -0.127594 0)
(0.028979 -0.114679 0)
(0.0610129 -0.104244 0)
(0.0975041 -0.0953414 0)
(0.138838 -0.0869334 0)
(0.185141 -0.0780031 0)
(0.236348 -0.0677099 0)
(0.29241 -0.0555774 0)
(0.353681 -0.0414865 0)
(0.420322 -0.0254396 0)
(0.494062 -0.00731875 0)
(0.576628 0.0130698 0)
(0.669935 0.0360751 0)
(0.776269 0.0624125 0)
(0.897583 0.0930406 0)
(1.03551 0.129089 0)
(1.19119 0.171856 0)
(1.36521 0.22265 0)
(1.55754 0.282536 0)
(1.76764 0.352224 0)
(1.99446 0.432124 0)
(2.23628 0.522423 0)
(2.49062 0.623158 0)
(2.75406 0.73426 0)
(3.02207 0.855461 0)
(3.28891 0.98602 0)
(3.54774 1.12443 0)
(3.79091 1.26816 0)
(4.01041 1.41345 0)
(4.19834 1.55543 0)
(4.34724 1.68835 0)
(-0.0172325 -0.108856 0)
(-0.0570881 -0.155811 0)
(-0.079067 -0.156025 0)
(-0.0898107 -0.14631 0)
(-0.0937487 -0.136257 0)
(-0.0926938 -0.128278 0)
(-0.0874453 -0.122495 0)
(-0.0783904 -0.118129 0)
(-0.0656407 -0.114118 0)
(-0.0491127 -0.109364 0)
(-0.0286118 -0.102969 0)
(-0.00399051 -0.0945582 0)
(0.0245952 -0.0842586 0)
(0.0570986 -0.0725652 0)
(0.0940454 -0.0601012 0)
(0.136357 -0.0472238 0)
(0.185443 -0.0340734 0)
(0.242745 -0.0204862 0)
(0.311435 -0.0053721 0)