/*--------------------------------*- C++ -*----------------------------------*\
| =========                 |                                                 |
| \\      /  F ield         | OpenFOAM: The Open Source CFD Toolbox           |
|  \\    /   O peration     | Version:  2406                                  |
|   \\  /    A nd           | Website:  www.openfoam.com                      |
|    \\/     M anipulation  |                                                 |
\*---------------------------------------------------------------------------*/
FoamFile
{
    version     2.0;
    format      ascii;
    arch        "LSB;label=32;scalar=64";
    class       volScalarField;
    location    "60";
    object      p;
}
// * * * * * * * * * * * * * * * * * * * * * * * * * * * * * * * * * * * * * //

dimensions      [0 2 -2 0 0 0 0];

internalField   nonuniform List<scalar> 
2000
(
1.79401
1.77754
1.76038
1.74322
1.72566
1.70785
1.68992
1.67195
1.65393
1.6359
1.79825
1.7789
1.76055
1.7432
1.7256
1.70777
1.68985
1.67189
1.65389
1.63586
1.80035
1.77963
1.76063
1.74321
1.72559
1.70772
1.6898
1.67184
1.65385
1.63583
1.80135
1.78013
1.76075
1.74327
1.72563
1.70772
1.68977
1.67181
1.65382
1.63581
1.80202
1.78055
1.76089
1.74336
1.72568
1.70773
1.68976
1.67179
1.6538
1.63578
1.8025
1.78088
1.76102
1.74343
1.72574
1.70775
1.68975
1.67178
1.65378
1.63576
1.80284
1.78113
1.76112
1.7435
1.72579
1.70777
1.68975
1.67176
1.65376
1.63575
1.80308
1.78132
1.76121
1.74356
1.72583
1.70779
1.68975
1.67175
1.65375
1.63573
1.80323
1.78144
1.76126
1.7436
1.72587
1.70781
1.68975
1.67175
1.65374
1.63572
1.8033
1.7815
1.76129
1.74362
1.72588
1.70782
1.68976
1.67175
1.65374
1.63571
1.8033
1.7815
1.76129
1.74362
1.72588
1.70782
1.68976
1.67175
1.65374
1.63571
1.80323
1.78144
1.76126
1.7436
1.72586
1.70781
1.68975
1.67175
1.65374
1.63572
1.80307
1.78132
1.76121
1.74356
1.72583
1.70779
1.68975
1.67175
1.65375
1.63573
1.80284
1.78113
1.76112
1.7435
1.72579
1.70777
1.68975
1.67176
1.65376
1.63574
1.8025
1.78088
1.76102
1.74343
1.72573
1.70775
1.68975
1.67177
1.65378
1.63576
1.80202
1.78055
1.76089
1.74335
1.72568
1.70773
1.68976
1.67179
1.6538
1.63578
1.80135
1.78013
1.76075
1.74327
1.72563
1.70772
1.68977
1.67181
1.65382
1.6358
1.80035
1.77963
1.76063
1.7432
1.72559
1.70772
1.68979
1.67184
1.65384
1.63583
1.79825
1.7789
1.76055
1.7432
1.7256
1.70777
1.68985
1.67189
1.65389
1.63586
1.79401
1.77754
1.76038
1.74321
1.72566
1.70785
1.68992
1.67195
1.65393
1.6359
1.61785
1.59979
1.58173
1.56366
1.54559
1.52752
1.50944
1.49137
1.47329
1.45522
1.43714
1.41906
1.40098
1.38291
1.36483
1.34675
1.32868
1.3106
1.29252
1.27445
1.25637
1.23829
1.22021
1.20214
1.18406
1.16598
1.14791
1.12983
1.11175
1.09367
1.0756
1.05752
1.03944
1.02136
1.00329
1.61782
1.59977
1.58171
1.56365
1.54558
1.52751
1.50944
1.49136
1.47329
1.45521
1.43714
1.41906
1.40098
1.38291
1.36483
1.34675
1.32868
1.3106
1.29252
1.27445
1.25637
1.23829
1.22021
1.20214
1.18406
1.16598
1.14791
1.12983
1.11175
1.09367
1.0756
1.05752
1.03944
1.02136
1.00329
1.61779
1.59975
1.58169
1.56363
1.54557
1.5275
1.50943
1.49136
1.47328
1.45521
1.43713
1.41906
1.40098
1.38291
1.36483
1.34675
1.32868
1.3106
1.29252
1.27445
1.25637
1.23829
1.22021
1.20214
1.18406
1.16598
1.14791
1.12983
1.11175
1.09367
1.0756
1.05752
1.03944
1.02136
1.00329
1.61777
1.59973
1.58168
1.56362
1.54556
1.52749
1.50942
1.49135
1.47328
1.45521
1.43713
1.41906
1.40098
1.3829
1.36483
1.34675
1.32868
1.3106
1.29252
1.27445
1.25637
1.23829
1.22021
1.20214
1.18406
1.16598
1.14791
1.12983
1.11175
1.09367
1.0756
1.05752
1.03944
1.02136
1.00329
1.61775
1.59971
1.58166
1.56361
1.54555
1.52748
1.50942
1.49135
1.47328
1.4552
1.43713
1.41905
1.40098
1.3829
1.36483
1.34675
1.32868
1.3106
1.29252
1.27445
1.25637
1.23829
1.22021
1.20214
1.18406
1.16598
1.14791
1.12983
1.11175
1.09367
1.0756
1.05752
1.03944
1.02136
1.00329
1.61773
1.5997
1.58165
1.5636
1.54554
1.52747
1.50941
1.49134
1.47327
1.4552
1.43713
1.41905
1.40098
1.3829
1.36483
1.34675
1.32867
1.3106
1.29252
1.27444
1.25637
1.23829
1.22021
1.20214
1.18406
1.16598
1.14791
1.12983
1.11175
1.09367
1.0756
1.05752
1.03944
1.02136
1.00329
1.61772
1.59968
1.58163
1.56358
1.54553
1.52746
1.5094
1.49133
1.47326
1.45519
1.43712
1.41905
1.40097
1.3829
1.36482
1.34675
1.32867
1.3106
1.29252
1.27444
1.25637
1.23829
1.22021
1.20214
1.18406
1.16598
1.14791
1.12983
1.11175
1.09367
1.0756
1.05752
1.03944
1.02136
1.00329
1.6177
1.59966
1.58162
1.56357
1.54552
1.52746
1.50939
1.49133
1.47326
1.45519
1.43712
1.41905
1.40097
1.3829
1.36482
1.34675
1.32867
1.3106
1.29252
1.27444
1.25637
1.23829
1.22021
1.20214
1.18406
1.16598
1.14791
1.12983
1.11175
1.09367
1.0756
1.05752
1.03944
1.02137
1.00329
1.61769
1.59965
1.58161
1.56356
1.54551
1.52745
1.50939
1.49132
1.47326
1.45519
1.43712
1.41904
1.40097
1.3829
1.36482
1.34675
1.32867
1.3106
1.29252
1.27444
1.25637
1.23829
1.22021
1.20214
1.18406
1.16598
1.14791
1.12983
1.11175
1.09367
1.0756
1.05752
1.03944
1.02137
1.00329
1.61768
1.59964
1.5816
1.56356
1.5455
1.52744
1.50938
1.49132
1.47325
1.45518
1.43711
1.41904
1.40097
1.3829
1.36482
1.34675
1.32867
1.31059
1.29252
1.27444
1.25637
1.23829
1.22021
1.20214
1.18406
1.16598
1.14791
1.12983
1.11175
1.09367
1.0756
1.05752
1.03944
1.02137
1.00329
1.61768
1.59964
1.5816
1.56356
1.5455
1.52744
1.50938
1.49132
1.47325
1.45518
1.43711
1.41904
1.40097
1.38289
1.36482
1.34674
1.32867
1.31059
1.29252
1.27444
1.25637
1.23829
1.22021
1.20214
1.18406
1.16598
1.1479
1.12983
1.11175
1.09367
1.0756
1.05752
1.03944
1.02137
1.00329
1.61769
1.59965
1.58161
1.56356
1.54551
1.52745
1.50939
1.49132
1.47325
1.45518
1.43711
1.41904
1.40097
1.38289
1.36482
1.34674
1.32867
1.31059
1.29252
1.27444
1.25636
1.23829
1.22021
1.20213
1.18406
1.16598
1.1479
1.12983
1.11175
1.09367
1.0756
1.05752
1.03944
1.02137
1.00329
1.6177
1.59966
1.58162
1.56357
1.54551
1.52745
1.50939
1.49133
1.47326
1.45519
1.43712
1.41904
1.40097
1.3829
1.36482
1.34674
1.32867
1.31059
1.29252
1.27444
1.25636
1.23829
1.22021
1.20213
1.18406
1.16598
1.1479
1.12983
1.11175
1.09367
1.0756
1.05752
1.03944
1.02137
1.00329
1.61771
1.59968
1.58163
1.56358
1.54552
1.52746
1.5094
1.49133
1.47326
1.45519
1.43712
1.41905
1.40097
1.3829
1.36482
1.34675
1.32867
1.31059
1.29252
1.27444
1.25636
1.23829
1.22021
1.20213
1.18406
1.16598
1.1479
1.12983
1.11175
1.09367
1.0756
1.05752
1.03944
1.02137
1.00329
1.61773
1.59969
1.58165
1.56359
1.54554
1.52747
1.50941
1.49134
1.47327
1.4552
1.43712
1.41905
1.40097
1.3829
1.36482
1.34675
1.32867
1.31059
1.29252
1.27444
1.25636
1.23829
1.22021
1.20213
1.18406
1.16598
1.1479
1.12983
1.11175
1.09367
1.0756
1.05752
1.03944
1.02137
1.00329
1.61775
1.59971
1.58166
1.56361
1.54555
1.52748
1.50941
1.49134
1.47327
1.4552
1.43713
1.41905
1.40097
1.3829
1.36482
1.34675
1.32867
1.31059
1.29252
1.27444
1.25636
1.23829
1.22021
1.20213
1.18406
1.16598
1.1479
1.12983
1.11175
1.09367
1.0756
1.05752
1.03944
1.02137
1.00329
1.61777
1.59973
1.58168
1.56362
1.54556
1.52749
1.50942
1.49135
1.47328
1.4552
1.43713
1.41905
1.40098
1.3829
1.36482
1.34675
1.32867
1.31059
1.29252
1.27444
1.25636
1.23829
1.22021
1.20213
1.18406
1.16598
1.1479
1.12983
1.11175
1.09367
1.0756
1.05752
1.03944
1.02137
1.00329
1.61779
1.59975
1.58169
1.56363
1.54557
1.5275
1.50943
1.49135
1.47328
1.45521
1.43713
1.41905
1.40098
1.3829
1.36483
1.34675
1.32867
1.31059
1.29252
1.27444
1.25636
1.23829
1.22021
1.20213
1.18406
1.16598
1.1479
1.12983
1.11175
1.09367
1.0756
1.05752
1.03944
1.02137
1.00329
1.61782
1.59977
1.58171
1.56365
1.54558
1.52751
1.50943
1.49136
1.47329
1.45521
1.43713
1.41906
1.40098
1.3829
1.36483
1.34675
1.32867
1.3106
1.29252
1.27444
1.25636
1.23829
1.22021
1.20213
1.18406
1.16598
1.1479
1.12983
1.11175
1.09367
1.0756
1.05752
1.03944
1.02137
1.00329
1.61785
1.59979
1.58173
1.56366
1.54559
1.52752
1.50944
1.49137
1.47329
1.45521
1.43714
1.41906
1.40098
1.3829
1.36483
1.34675
1.32867
1.3106
1.29252
1.27444
1.25637
1.23829
1.22021
1.20213
1.18406
1.16598
1.1479
1.12983
1.11175
1.09367
1.0756
1.05752
1.03944
1.02137
1.00329
0.985208
0.967131
0.949053
0.930976
0.912898
0.894821
0.876744
0.858666
0.840589
0.822512
0.985208
0.967131
0.949053
0.930976
0.912898
0.894821
0.876744
0.858666
0.840589
0.822512
0.985209
0.967131
0.949054
0.930976
0.912899
0.894821
0.876744
0.858666
0.840589
0.822512
0.985209
0.967131
0.949054
0.930976
0.912899
0.894821
0.876744
0.858667
0.840589
0.822512
0.985209
0.967132
0.949054
0.930976
0.912899
0.894822
0.876744
0.858667
0.840589
0.822512
0.985209
0.967132
0.949054
0.930977
0.912899
0.894822
0.876744
0.858667
0.84059
0.822512
0.98521
0.967132
0.949055
0.930977
0.9129
0.894822
0.876745
0.858667
0.84059
0.822513
0.98521
0.967133
0.949055
0.930978
0.9129
0.894823
0.876745
0.858668
0.840591
0.822513
0.98521
0.967133
0.949056
0.930978
0.912901
0.894823
0.876746
0.858669
0.840591
0.822514
0.985211
0.967133
0.949056
0.930979
0.912901
0.894824
0.876747
0.858669
0.840592
0.822515
0.985211
0.967134
0.949057
0.930979
0.912902
0.894825
0.876747
0.85867
0.840593
0.822515
0.985211
0.967134
0.949057
0.93098
0.912903
0.894825
0.876748
0.858671
0.840593
0.822516
0.985212
0.967135
0.949058
0.93098
0.912903
0.894826
0.876749
0.858671
0.840594
0.822517
0.985212
0.967135
0.949058
0.930981
0.912904
0.894827
0.876749
0.858672
0.840595
0.822517
0.985212
0.967135
0.949058
0.930981
0.912904
0.894827
0.87675
0.858672
0.840595
0.822518
0.985212
0.967135
0.949058
0.930982
0.912904
0.894827
0.87675
0.858673
0.840595
0.822518
0.985213
0.967136
0.949059
0.930982
0.912905
0.894828
0.87675
0.858673
0.840596
0.822518
0.985213
0.967136
0.949059
0.930982
0.912905
0.894828
0.876751
0.858673
0.840596
0.822518
0.985213
0.967136
0.949059
0.930982
0.912905
0.894828
0.876751
0.858673
0.840596
0.822518
0.985214
0.967137
0.94906
0.930983
0.912905
0.894828
0.876751
0.858673
0.840596
0.822518
0.804435
0.786358
0.768281
0.750204
0.732127
0.71405
0.695973
0.677896
0.659818
0.641741
0.623664
0.605587
0.58751
0.569433
0.551356
0.533278
0.515201
0.497124
0.479047
0.460969
0.442892
0.424814
0.406737
0.38866
0.370582
0.352505
0.334428
0.31635
0.298273
0.280196
0.262118
0.244041
0.225964
0.207886
0.189809
0.804435
0.786358
0.768281
0.750204
0.732127
0.714049
0.695972
0.677895
0.659818
0.641741
0.623664
0.605587
0.58751
0.569433
0.551356
0.533278
0.515201
0.497124
0.479046
0.460969
0.442892
0.424814
0.406737
0.38866
0.370582
0.352505
0.334428
0.31635
0.298273
0.280196
0.262118
0.244041
0.225964
0.207886
0.189809
0.804435
0.786358
0.768281
0.750203
0.732126
0.714049
0.695972
0.677895
0.659818
0.641741
0.623664
0.605587
0.58751
0.569433
0.551356
0.533278
0.515201
0.497124
0.479046
0.460969
0.442892
0.424814
0.406737
0.38866
0.370582
0.352505
0.334428
0.31635
0.298273
0.280196
0.262118
0.244041
0.225964
0.207886
0.189809
0.804435
0.786358
0.768281
0.750203
0.732126
0.714049
0.695972
0.677895
0.659818
0.641741
0.623664
0.605587
0.58751
0.569433
0.551355
0.533278
0.515201
0.497124
0.479046
0.460969
0.442892
0.424814
0.406737
0.38866
0.370582
0.352505
0.334428
0.31635
0.298273
0.280196
0.262118
0.244041
0.225964
0.207886
0.189809
0.804435
0.786358
0.768281
0.750203
0.732126
0.714049
0.695972
0.677895
0.659818
0.641741
0.623664
0.605587
0.58751
0.569433
0.551355
0.533278
0.515201
0.497124
0.479046
0.460969
0.442892
0.424814
0.406737
0.38866
0.370582
0.352505
0.334428
0.31635
0.298273
0.280196
0.262118
0.244041
0.225964
0.207886
0.189809
0.804435
0.786358
0.768281
0.750204
0.732127
0.714049
0.695972
0.677895
0.659818
0.641741
0.623664
0.605587
0.58751
0.569432
0.551355
0.533278
0.515201
0.497124
0.479046
0.460969
0.442892
0.424814
0.406737
0.38866
0.370582
0.352505
0.334427
0.31635
0.298273
0.280196
0.262118
0.244041
0.225964
0.207886
0.189809
0.804436
0.786358
0.768281
0.750204
0.732127
0.71405
0.695972
0.677895
0.659818
0.641741
0.623664
0.605587
0.58751
0.569432
0.551355
0.533278
0.515201
0.497123
0.479046
0.460969
0.442891
0.424814
0.406737
0.388659
0.370582
0.352505
0.334427
0.31635
0.298273
0.280195
0.262118
0.244041
0.225964
0.207886
0.189809
0.804436
0.786359
0.768281
0.750204
0.732127
0.71405
0.695973
0.677895
0.659818
0.641741
0.623664
0.605587
0.58751
0.569432
0.551355
0.533278
0.5152
0.497123
0.479046
0.460969
0.442891
0.424814
0.406737
0.388659
0.370582
0.352505
0.334427
0.31635
0.298273
0.280195
0.262118
0.244041
0.225964
0.207886
0.189809
0.804437
0.786359
0.768282
0.750205
0.732127
0.71405
0.695973
0.677896
0.659818
0.641741
0.623664
0.605587
0.587509
0.569432
0.551355
0.533278
0.5152
0.497123
0.479046
0.460968
0.442891
0.424814
0.406736
0.388659
0.370582
0.352505
0.334427
0.31635
0.298273
0.280195
0.262118
0.244041
0.225964
0.207886
0.189809
0.804437
0.78636
0.768283
0.750205
0.732128
0.714051
0.695973
0.677896
0.659819
0.641741
0.623664
0.605587
0.587509
0.569432
0.551355
0.533277
0.5152
0.497123
0.479045
0.460968
0.442891
0.424814
0.406736
0.388659
0.370582
0.352504
0.334427
0.31635
0.298273
0.280195
0.262118
0.244041
0.225964
0.207886
0.189809
0.804438
0.786361
0.768283
0.750206
0.732128
0.714051
0.695974
0.677896
0.659819
0.641741
0.623664
0.605587
0.587509
0.569432
0.551355
0.533277
0.5152
0.497123
0.479045
0.460968
0.442891
0.424813
0.406736
0.388659
0.370582
0.352504
0.334427
0.31635
0.298273
0.280195
0.262118
0.244041
0.225964
0.207886
0.189809
0.804439
0.786361
0.768284
0.750206
0.732129
0.714051
0.695974
0.677896
0.659819
0.641742
0.623664
0.605587
0.587509
0.569432
0.551354
0.533277
0.5152
0.497122
0.479045
0.460968
0.44289
0.424813
0.406736
0.388659
0.370581
0.352504
0.334427
0.31635
0.298273
0.280195
0.262118
0.244041
0.225964
0.207887
0.189809
0.804439
0.786362
0.768284
0.750207
0.732129
0.714052
0.695974
0.677897
0.659819
0.641742
0.623664
0.605587
0.587509
0.569432
0.551354
0.533277
0.5152
0.497122
0.479045
0.460968
0.44289
0.424813
0.406736
0.388659
0.370581
0.352504
0.334427
0.31635
0.298273
0.280195
0.262118
0.244041
0.225964
0.207887
0.189809
0.80444
0.786362
0.768285
0.750207
0.73213
0.714052
0.695974
0.677897
0.659819
0.641742
0.623664
0.605587
0.587509
0.569432
0.551354
0.533277
0.515199
0.497122
0.479045
0.460967
0.44289
0.424813
0.406736
0.388658
0.370581
0.352504
0.334427
0.31635
0.298273
0.280195
0.262118
0.244041
0.225964
0.207887
0.18981
0.80444
0.786363
0.768285
0.750208
0.73213
0.714052
0.695975
0.677897
0.659819
0.641742
0.623664
0.605587
0.587509
0.569432
0.551354
0.533277
0.515199
0.497122
0.479045
0.460967
0.44289
0.424813
0.406736
0.388658
0.370581
0.352504
0.334427
0.31635
0.298273
0.280195
0.262118
0.244041
0.225964
0.207887
0.18981
0.804441
0.786363
0.768285
0.750208
0.73213
0.714052
0.695975
0.677897
0.659819
0.641742
0.623664
0.605587
0.587509
0.569431
0.551354
0.533277
0.515199
0.497122
0.479044
0.460967
0.44289
0.424813
0.406736
0.388658
0.370581
0.352504
0.334427
0.31635
0.298272
0.280195
0.262118
0.244041
0.225964
0.207887
0.18981
0.804441
0.786363
0.768286
0.750208
0.73213
0.714053
0.695975
0.677897
0.659819
0.641742
0.623664
0.605587
0.587509
0.569431
0.551354
0.533277
0.515199
0.497122
0.479044
0.460967
0.44289
0.424813
0.406735
0.388658
0.370581
0.352504
0.334427
0.31635
0.298272
0.280195
0.262118
0.244041
0.225964
0.207887
0.18981
0.804441
0.786363
0.768286
0.750208
0.73213
0.714052
0.695975
0.677897
0.659819
0.641742
0.623664
0.605586
0.587509
0.569431
0.551354
0.533276
0.515199
0.497122
0.479044
0.460967
0.44289
0.424813
0.406735
0.388658
0.370581
0.352504
0.334427
0.31635
0.298273
0.280195
0.262118
0.244041
0.225964
0.207887
0.18981
0.804441
0.786363
0.768285
0.750208
0.73213
0.714052
0.695975
0.677897
0.659819
0.641742
0.623664
0.605586
0.587509
0.569431
0.551354
0.533276
0.515199
0.497122
0.479044
0.460967
0.44289
0.424813
0.406735
0.388658
0.370581
0.352504
0.334427
0.31635
0.298273
0.280195
0.262118
0.244041
0.225964
0.207887
0.18981
0.804441
0.786363
0.768285
0.750208
0.73213
0.714052
0.695975
0.677897
0.659819
0.641741
0.623664
0.605586
0.587509
0.569431
0.551354
0.533276
0.515199
0.497122
0.479044
0.460967
0.44289
0.424813
0.406735
0.388658
0.370581
0.352504
0.334427
0.31635
0.298273
0.280195
0.262118
0.244041
0.225964
0.207887
0.18981
0.171732
0.153655
0.135578
0.117501
0.0994235
0.0813463
0.0632694
0.0451925
0.0271147
0.00903759
0.171732
0.153655
0.135578
0.117501
0.0994236
0.0813463
0.0632692
0.0451935
0.0271143
0.00903593
0.171732
0.153655
0.135578
0.117501
0.0994237
0.0813463
0.0632689
0.0451942
0.0271145
0.00903596
0.171732
0.153655
0.135578
0.117501
0.0994236
0.0813462
0.063269
0.0451939
0.027114
0.009036
0.171732
0.153655
0.135578
0.117501
0.0994236
0.0813462
0.063269
0.0451941
0.0271135
0.00903604
0.171732
0.153655
0.135578
0.117501
0.0994235
0.0813461
0.0632691
0.0451941
0.0271131
0.00903624
0.171732
0.153655
0.135578
0.117501
0.0994235
0.081346
0.063269
0.0451942
0.0271127
0.00903644
0.171732
0.153655
0.135578
0.1175
0.0994234
0.081346
0.063269
0.0451942
0.0271124
0.00903663
0.171732
0.153655
0.135578
0.1175
0.0994234
0.081346
0.063269
0.0451943
0.0271122
0.00903681
0.171732
0.153655
0.135578
0.117501
0.0994235
0.081346
0.0632691
0.0451944
0.0271122
0.00903694
0.171732
0.153655
0.135578
0.117501
0.0994235
0.0813461
0.0632692
0.0451945
0.0271124
0.00903702
0.171732
0.153655
0.135578
0.117501
0.0994237
0.0813463
0.0632694
0.0451947
0.0271127
0.00903703
0.171732
0.153655
0.135578
0.117501
0.0994239
0.0813465
0.0632696
0.0451947
0.0271132
0.00903698
0.171732
0.153655
0.135578
0.117501
0.0994241
0.0813467
0.0632697
0.045195
0.0271136
0.00903688
0.171732
0.153655
0.135578
0.117501
0.0994242
0.0813469
0.0632698
0.045195
0.0271142
0.00903675
0.171733
0.153655
0.135578
0.117501
0.0994243
0.081347
0.0632698
0.045195
0.0271146
0.00903656
0.171733
0.153655
0.135578
0.117501
0.0994244
0.081347
0.0632699
0.0451948
0.027115
0.00903656
0.171733
0.153656
0.135578
0.117501
0.0994244
0.0813472
0.0632696
0.045195
0.0271156
0.00903647
0.171733
0.153655
0.135578
0.117501
0.0994243
0.081347
0.0632699
0.0451943
0.0271151
0.00903633
0.171733
0.153655
0.135578
0.117501
0.0994242
0.0813471
0.0632701
0.0451932
0.0271154
0.00903791
)
;

boundaryField
{
    inlet
    {
        type            zeroGradient;
    }
    outlet
    {
        type            fixedValue;
        value           uniform 0;
    }
    upperWall
    {
        type            zeroGradient;
    }
    lowerWall
    {
        type            zeroGradient;
    }
    frontAndBack
    {
        type            empty;
    }
}


// ************************************************************************* //
