/*--------------------------------*- C++ -*----------------------------------*\
| =========                 |                                                 |
| \\      /  F ield         | OpenFOAM: The Open Source CFD Toolbox           |
|  \\    /   O peration     | Version:  2406                                  |
|   \\  /    A nd           | Website:  www.openfoam.com                      |
|    \\/     M anipulation  |                                                 |
\*---------------------------------------------------------------------------*/
FoamFile
{
    version     2.0;
    format      ascii;
    arch        "LSB;label=32;scalar=64";
    class       volScalarField;
    location    "82";
    object      p;
}
// * * * * * * * * * * * * * * * * * * * * * * * * * * * * * * * * * * * * * //

dimensions      [0 2 -2 0 0 0 0];

internalField   nonuniform List<scalar> 
1916
(
3.89705
3.89678
3.89596
3.8948
3.89348
3.89206
3.89056
3.88902
3.88745
3.88585
3.88424
3.88261
3.88098
3.87934
3.87769
3.87603
3.87438
3.87272
3.87106
3.8694
3.86774
3.86608
3.86443
3.86279
3.86115
3.85953
3.85793
3.85636
3.85483
3.85334
3.85191
3.85057
3.84934
3.84826
3.84735
3.84668
3.84629
3.84626
3.84666
3.84754
3.84895
3.85091
3.85336
3.85618
3.85913
3.86188
3.86353
3.89834
3.89721
3.896
3.89478
3.89345
3.89202
3.89053
3.88899
3.88742
3.88583
3.88422
3.8826
3.88097
3.87933
3.87768
3.87603
3.87437
3.87271
3.87105
3.86939
3.86773
3.86608
3.86443
3.86278
3.86115
3.85953
3.85793
3.85636
3.85483
3.85334
3.85192
3.85058
3.84936
3.84828
3.8474
3.84675
3.84642
3.84647
3.84697
3.84802
3.84966
3.85192
3.85473
3.85793
3.86126
3.86441
3.86631
3.89912
3.89746
3.89595
3.89471
3.89341
3.89198
3.89048
3.88895
3.88739
3.8858
3.8842
3.88258
3.88095
3.87931
3.87766
3.87601
3.87436
3.8727
3.87104
3.86938
3.86771
3.86606
3.8644
3.86275
3.86111
3.85947
3.85786
3.85626
3.8547
3.85317
3.8517
3.8503
3.84899
3.84781
3.8468
3.846
3.84549
3.84536
3.84569
3.84661
3.84821
3.85059
3.85374
3.85757
3.86172
3.86584
3.86794
3.89963
3.89773
3.89601
3.8947
3.89339
3.89194
3.89043
3.8889
3.88734
3.88576
3.88416
3.88255
3.88092
3.87928
3.87764
3.87599
3.87433
3.87267
3.87101
3.86934
3.86767
3.866
3.86433
3.86266
3.86099
3.85933
3.85766
3.85601
3.85436
3.85272
3.85111
3.84952
3.84797
3.84647
3.84505
3.84375
3.8426
3.8417
3.84113
3.84104
3.8416
3.84303
3.84552
3.8492
3.85374
3.85857
3.85944
3.90003
3.89802
3.89613
3.89472
3.89338
3.89192
3.89039
3.88885
3.88729
3.88571
3.88412
3.8825
3.88088
3.87925
3.8776
3.87595
3.87429
3.87263
3.87096
3.86929
3.8676
3.86592
3.86422
3.86252
3.86081
3.85908
3.85734
3.85559
3.8538
3.85199
3.85013
3.84822
3.84625
3.8442
3.84205
3.83979
3.83741
3.83492
3.83235
3.82977
3.82733
3.82528
3.82393
3.82374
3.82436
3.82539
3.81742
3.90033
3.89827
3.89627
3.89477
3.89339
3.89191
3.89036
3.88881
3.88725
3.88567
3.88407
3.88246
3.88084
3.87921
3.87756
3.87591
3.87425
3.87258
3.8709
3.86921
3.86751
3.8658
3.86408
3.86233
3.86057
3.85877
3.85693
3.85504
3.85307
3.85101
3.84884
3.8465
3.84395
3.84113
3.83795
3.83431
3.83008
3.82512
3.81924
3.81224
3.80393
3.79412
3.78253
3.76912
3.75161
3.72799
3.66578
3.90057
3.89847
3.8964
3.89484
3.89342
3.89191
3.89034
3.88878
3.88721
3.88563
3.88403
3.88242
3.8808
3.87916
3.87752
3.87586
3.8742
3.87252
3.87084
3.86914
3.86742
3.86568
3.86392
3.86213
3.8603
3.85842
3.85647
3.85442
3.85226
3.84993
3.84739
3.84456
3.84135
3.83763
3.83323
3.82792
3.82139
3.81324
3.80291
3.78963
3.77229
3.74938
3.71819
3.67571
3.61017
3.52038
3.21402
3.90073
3.89862
3.8965
3.8949
3.89345
3.89192
3.89034
3.88876
3.88718
3.88559
3.88399
3.88238
3.88076
3.87913
3.87748
3.87582
3.87415
3.87247
3.87077
3.86906
3.86732
3.86556
3.86377
3.86194
3.86005
3.85809
3.85603
3.85384
3.85148
3.8489
3.846
3.8427
3.83884
3.83423
3.82861
3.8216
3.81268
3.80113
3.78588
3.76536
3.73705
3.69698
3.63713
3.54379
3.36624
3.01684
1.84121
3.90084
3.89872
3.89657
3.89494
3.89347
3.89193
3.89033
3.88874
3.88716
3.88557
3.88397
3.88236
3.88073
3.8791
3.87745
3.87578
3.87411
3.87242
3.87072
3.869
3.86725
3.86547
3.86365
3.86178
3.85984
3.85782
3.85568
3.85338
3.85087
3.84808
3.84491
3.84122
3.83685
3.83152
3.8249
3.81649
3.80557
3.79113
3.77162
3.74467
3.70644
3.65056
3.56489
3.42782
3.18666
2.76458
1.99297
3.90089
3.89877
3.8966
3.89496
3.89348
3.89193
3.89033
3.88873
3.88715
3.88556
3.88395
3.88234
3.88071
3.87908
3.87742
3.87576
3.87408
3.8724
3.87069
3.86896
3.8672
3.86541
3.86357
3.86168
3.85972
3.85767
3.85548
3.85312
3.85052
3.84761
3.84429
3.84039
3.83572
3.83
3.82281
3.8136
3.80154
3.78543
3.76343
3.73274
3.68883
3.62432
3.52667
3.37529
3.13659
2.76133
2.21453
3.90089
3.89876
3.8966
3.89495
3.89347
3.89192
3.89032
3.88873
3.88714
3.88555
3.88395
3.88233
3.88071
3.87907
3.87742
3.87575
3.87407
3.87239
3.87068
3.86895
3.86719
3.86539
3.86356
3.86167
3.8597
3.85764
3.85545
3.85309
3.85049
3.84758
3.84425
3.84035
3.83567
3.82994
3.82274
3.81351
3.80144
3.7853
3.76326
3.73251
3.68849
3.62379
3.5258
3.37379
3.13395
2.75657
2.20698
3.90083
3.89871
3.89656
3.89493
3.89346
3.89191
3.89032
3.88873
3.88714
3.88555
3.88395
3.88234
3.88071
3.87907
3.87742
3.87576
3.87408
3.87239
3.87069
3.86896
3.86721
3.86542
3.8636
3.86172
3.85978
3.85775
3.85561
3.8533
3.85078
3.84797
3.84479
3.84109
3.8367
3.83135
3.8247
3.81625
3.80528
3.79076
3.77114
3.74401
3.70551
3.64914
3.56259
3.42379
3.17886
2.74856
1.96063
3.90071
3.8986
3.89648
3.89487
3.89343
3.8919
3.89031
3.88873
3.88716
3.88557
3.88397
3.88235
3.88073
3.87909
3.87744
3.87578
3.8741
3.87242
3.87072
3.869
3.86726
3.86549
3.86369
3.86185
3.85995
3.85798
3.85591
3.85371
3.85134
3.84873
3.84582
3.84249
3.8386
3.83396
3.82829
3.82122
3.81223
3.80058
3.78518
3.76444
3.73579
3.69517
3.63434
3.53924
3.35737
2.99801
1.77959
3.90054
3.89845
3.89637
3.89481
3.89339
3.89188
3.89031
3.88874
3.88718
3.88559
3.88399
3.88238
3.88075
3.87912
3.87747
3.8758
3.87413
3.87246
3.87076
3.86906
3.86733
3.86558
3.86381
3.86201
3.86017
3.85828
3.85631
3.85425
3.85206
3.84971
3.84714
3.84429
3.84104
3.83728
3.83282
3.82745
3.82084
3.81258
3.8021
3.78861
3.77098
3.74763
3.71576
3.67225
3.60487
3.51278
3.19591
3.9003
3.89824
3.89623
3.89474
3.89336
3.89187
3.89032
3.88877
3.88721
3.88562
3.88403
3.88241
3.88079
3.87915
3.8775
3.87584
3.87417
3.8725
3.87081
3.86912
3.86741
3.86569
3.86395
3.86219
3.86041
3.8586
3.85674
3.85482
3.85284
3.85075
3.84855
3.84617
3.84359
3.84072
3.83748
3.83378
3.82948
3.82441
3.81841
3.81125
3.80273
3.79264
3.78069
3.76681
3.74862
3.7241
3.65959
3.89999
3.89798
3.89609
3.89468
3.89334
3.89188
3.89035
3.8888
3.88725
3.88567
3.88407
3.88245
3.88082
3.87918
3.87753
3.87588
3.87421
3.87254
3.87086
3.86918
3.86748
3.86578
3.86408
3.86236
3.86063
3.85889
3.85713
3.85535
3.85354
3.8517
3.84981
3.84786
3.84585
3.84375
3.84155
3.83924
3.83679
3.83422
3.83156
3.82887
3.82631
3.82411
3.82261
3.82227
3.82274
3.82363
3.81533
3.89959
3.89769
3.89596
3.89465
3.89334
3.8919
3.89039
3.88885
3.88729
3.88571
3.88411
3.88249
3.88086
3.87921
3.87756
3.87591
3.87424
3.87257
3.8709
3.86922
3.86754
3.86586
3.86418
3.86249
3.8608
3.85912
3.85743
3.85575
3.85408
3.85242
3.85077
3.84914
3.84755
3.84601
3.84454
3.84319
3.84199
3.84102
3.84038
3.84023
3.84072
3.84209
3.84454
3.84821
3.85275
3.85762
3.85844
3.89908
3.89741
3.89591
3.89467
3.89337
3.89193
3.89043
3.8889
3.88734
3.88575
3.88414
3.88252
3.88088
3.87924
3.87759
3.87593
3.87427
3.8726
3.87093
3.86926
3.86758
3.86591
3.86424
3.86257
3.86091
3.85926
3.85762
3.856
3.85441
3.85286
3.85135
3.84991
3.84857
3.84735
3.84629
3.84545
3.84489
3.8447
3.84499
3.84586
3.84743
3.84979
3.85294
3.85677
3.86096
3.86513
3.86723
3.89829
3.89717
3.89596
3.89474
3.89341
3.89198
3.89048
3.88894
3.88737
3.88578
3.88416
3.88254
3.8809
3.87925
3.8776
3.87594
3.87428
3.87261
3.87094
3.86927
3.8676
3.86593
3.86427
3.86261
3.86095
3.85932
3.8577
3.8561
3.85454
3.85302
3.85157
3.8502
3.84894
3.84782
3.84689
3.84621
3.84583
3.84583
3.8463
3.84731
3.84893
3.85117
3.85397
3.85719
3.86054
3.86372
3.86564
3.89701
3.89674
3.89591
3.89475
3.89344
3.89201
3.89052
3.88897
3.8874
3.8858
3.88418
3.88255
3.88091
3.87927
3.87761
3.87595
3.87429
3.87262
3.87095
3.86928
3.86761
3.86594
3.86427
3.86261
3.86096
3.85932
3.8577
3.8561
3.85454
3.85302
3.85157
3.8502
3.84893
3.8478
3.84685
3.84614
3.84571
3.84564
3.84599
3.84684
3.84822
3.85016
3.85261
3.85543
3.8584
3.86116
3.86282
-0.673118
-0.625446
-0.175079
-0.0942766
-0.165605
-0.193069
0.758343
0.217104
0.124951
0.0325068
-0.0900289
-0.156782
1.35771
0.571021
0.192967
0.0412438
-0.0763239
-0.166479
1.34262
0.546163
0.159217
-0.00392739
-0.139052
-0.250542
0.69075
0.124798
0.0171112
-0.100961
-0.268308
-0.393979
-0.850461
-0.826417
-0.359813
-0.295388
-0.424148
-0.528715
-0.0873467
-0.0878568
-0.0880688
-0.0878157
-0.0871995
-0.0862656
-0.0850319
-0.0835188
-0.0817542
-0.0797709
-0.0776048
-0.0752932
-0.0728735
-0.0703823
-0.067855
-0.0653246
-0.0628214
-0.0603721
-0.0579995
-0.0557208
-0.0535476
-0.0514867
-0.0495391
-0.0477016
-0.0459664
-0.0443225
-0.042756
-0.0412513
-0.039791
-0.0383568
-0.0369299
-0.035491
-0.0340208
-0.0325011
-0.0309141
-0.0292433
-0.0274728
-0.0255894
-0.0235855
-0.0214605
-0.0192143
-0.0168473
-0.0143699
-0.0118038
-0.00916209
-0.00636282
-0.00264519
-0.0865888
-0.0871274
-0.0873475
-0.0871313
-0.0865955
-0.0857539
-0.0846064
-0.0831681
-0.0814666
-0.0795364
-0.077415
-0.0751412
-0.0727534
-0.0702892
-0.0677841
-0.0652713
-0.062781
-0.0603405
-0.0579729
-0.0556962
-0.053522
-0.0514576
-0.0495048
-0.0476604
-0.0459172
-0.0442645
-0.0426888
-0.0411747
-0.0397051
-0.0382622
-0.0368274
-0.0353817
-0.0339052
-0.0323799
-0.030789
-0.0291179
-0.0273507
-0.0254718
-0.023472
-0.0213605
-0.0191465
-0.0168008
-0.0142975
-0.0117194
-0.00913711
-0.00640925
-0.0031267
-0.0868716
-0.0873627
-0.0875322
-0.0872895
-0.0867615
-0.0859295
-0.084782
-0.0833348
-0.0816178
-0.079669
-0.0775278
-0.0752347
-0.0728289
-0.0703481
-0.0678269
-0.0652981
-0.0627912
-0.0603329
-0.0579461
-0.0556505
-0.053459
-0.0513786
-0.0494115
-0.0475543
-0.0458008
-0.0441399
-0.0425589
-0.0410417
-0.0395712
-0.0381301
-0.0366995
-0.0352609
-0.0337936
-0.0322788
-0.0307018
-0.0290516
-0.027312
-0.025459
-0.0234795
-0.0213965
-0.0192253
-0.0168934
-0.0143425
-0.0117299
-0.00919396
-0.00650208
-0.00333424
-0.0897475
-0.0898421
-0.0896617
-0.0891593
-0.088413
-0.0873714
-0.0860233
-0.0843889
-0.0825019
-0.0804008
-0.0781261
-0.0757161
-0.0732079
-0.0706357
-0.0680317
-0.0654266
-0.0628485
-0.0603233
-0.0578743
-0.0555237
-0.0532858
-0.0511669
-0.0491692
-0.0472906
-0.0455245
-0.0438597
-0.0422826
-0.0407766
-0.0393249
-0.0379093
-0.036511
-0.0351098
-0.0336838
-0.0322134
-0.0306865
-0.0290947
-0.027421
-0.0256305
-0.0237012
-0.0216592
-0.0195248
-0.0172133
-0.0146562
-0.0120048
-0.00934589
-0.00653907
-0.00340265
-0.0971763
-0.0954763
-0.093945
-0.0926454
-0.0913284
-0.089811
-0.0880531
-0.0860694
-0.0838869
-0.0815357
-0.0790483
-0.0764563
-0.0737903
-0.0710774
-0.0683466
-0.0656247
-0.0629378
-0.0603124
-0.0577734
-0.0553438
-0.0530373
-0.050861
-0.0488172
-0.0469059
-0.0451206
-0.0434506
-0.0418818
-0.0403972
-0.0389795
-0.0376093
-0.0362661
-0.0349277
-0.0335714
-0.0321773
-0.0307347
-0.0292367
-0.0276668
-0.0259814
-0.0241445
-0.0221694
-0.020073
-0.0177905
-0.0152635
-0.0125588
-0.00965595
-0.00654082
-0.0033274
-0.11433
-0.104141
-0.0984694
-0.095823
-0.0938235
-0.0918009
-0.0896632
-0.0873837
-0.0849584
-0.0824034
-0.0797418
-0.0769986
-0.074199
-0.0713682
-0.0685328
-0.065715
-0.0629341
-0.060218
-0.0575968
-0.0550904
-0.0527144
-0.0504784
-0.0483863
-0.0464386
-0.0446351
-0.0429647
-0.0414145
-0.0399659
-0.0385955
-0.0372833
-0.0360064
-0.0347448
-0.033477
-0.0321849
-0.0308541
-0.0294761
-0.0280344
-0.0264873
-0.0247873
-0.0229185
-0.0208789
-0.0186188
-0.0160878
-0.0132845
-0.0101041
-0.00661215
-0.00310062
-0.146085
-0.110675
-0.0973733
-0.0950822
-0.0933533
-0.091242
-0.0891824
-0.0870391
-0.0846912
-0.0821642
-0.0795069
-0.0767542
-0.0739368
-0.0710874
-0.0682341
-0.0653869
-0.0625623
-0.0598076
-0.0571572
-0.0546252
-0.0522344
-0.0499933
-0.0478936
-0.0459411
-0.0441466
-0.042496
-0.0409749
-0.0395671
-0.0382504
-0.037004
-0.0358054
-0.034635
-0.0334723
-0.0322964
-0.0310883
-0.0298365
-0.0285228
-0.027117
-0.0255668
-0.0238262
-0.0218601
-0.019616
-0.0170472
-0.01412
-0.0107147
-0.00681912
-0.0027022
-0.156215
-0.113401
-0.0998088
-0.0988376
-0.0969749
-0.0939069
-0.0911599
-0.0886033
-0.0858692
-0.0829467
-0.0799268
-0.0768566
-0.0737651
-0.0706844
-0.0676433
-0.0646622
-0.0617706
-0.0590072
-0.0563874
-0.0539194
-0.0516074
-0.0494243
-0.0473595
-0.0454516
-0.0437079
-0.0421037
-0.0406382
-0.0393022
-0.0380657
-0.0368957
-0.0357739
-0.0346845
-0.0336106
-0.0325302
-0.0314277
-0.0302874
-0.0290842
-0.0277896
-0.0263533
-0.024719
-0.0228296
-0.0206239
-0.0180416
-0.0150191
-0.0114295
-0.00714306
-0.0022739
-0.14869
-0.113564
-0.0973048
-0.0952433
-0.0943258
-0.0920753
-0.0898872
-0.0879261
-0.0857042
-0.0830774
-0.0801679
-0.0770964
-0.0739334
-0.0707313
-0.0675363
-0.0643916
-0.061341
-0.0584289
-0.0556883
-0.0531395
-0.0507873
-0.0486233
-0.0466519
-0.0448708
-0.0432493
-0.0417689
-0.0404269
-0.0392038
-0.0380619
-0.0369676
-0.0359191
-0.0349013
-0.0338915
-0.0328687
-0.0318227
-0.0307334
-0.0295732
-0.0283168
-0.0269222
-0.0253377
-0.0234967
-0.0213214
-0.0187245
-0.0156118
-0.0118477
-0.00729854
-0.00217994
-0.198975
-0.192285
-0.181191
-0.175965
-0.170574
-0.161779
-0.151355
-0.140977
-0.13079
-0.120644
-0.110705
-0.101246
-0.0924473
-0.0843928
-0.0771218
-0.0706516
-0.0649849
-0.0601122
-0.0560008
-0.0525814
-0.0497535
-0.0474044
-0.0454297
-0.0437412
-0.0422701
-0.0409695
-0.0398016
-0.0387306
-0.0377285
-0.0367701
-0.0358381
-0.034909
-0.03397
-0.0330042
-0.0320009
-0.0309447
-0.0298084
-0.0285636
-0.0271725
-0.0255892
-0.0237474
-0.0215636
-0.0189372
-0.0157651
-0.0119346
-0.00755777
-0.00202444
-0.30144
-0.301887
-0.290487
-0.284734
-0.278738
-0.267591
-0.253192
-0.237813
-0.221652
-0.204437
-0.186434
-0.168188
-0.15017
-0.132732
-0.116184
-0.100826
-0.0869521
-0.0748211
-0.0646121
-0.056374
-0.0500121
-0.045311
-0.0419802
-0.0397082
-0.0381962
-0.0371787
-0.036448
-0.0358612
-0.0353246
-0.0347751
-0.0341757
-0.0335084
-0.0327693
-0.0319544
-0.0310617
-0.0300868
-0.0290107
-0.0278084
-0.0264479
-0.0248849
-0.0230547
-0.0208797
-0.0182688
-0.015156
-0.011397
-0.00738197
-0.00141089
-0.438297
-0.41518
-0.393965
-0.389106
-0.38393
-0.37255
-0.358375
-0.343326
-0.326691
-0.307745
-0.286585
-0.263624
-0.239227
-0.213722
-0.187514
-0.16115
-0.135342
-0.110938
-0.0888186
-0.0697354
-0.0541724
-0.0422677
-0.0338209
-0.0283668
-0.0252831
-0.0239098
-0.0236517
-0.0240286
-0.0246805
-0.0253615
-0.0259254
-0.0263018
-0.0264669
-0.0264189
-0.0261669
-0.0257278
-0.025107
-0.0242992
-0.0232885
-0.0220359
-0.0204744
-0.0185463
-0.0161895
-0.0134085
-0.010021
-0.00679741
-0.000521336
-0.561217
-0.502618
-0.474614
-0.473837
-0.47055
-0.460494
-0.448654
-0.436278
-0.422074
-0.405165
-0.385415
-0.362801
-0.337191
-0.30842
-0.27645
-0.241513
-0.20428
-0.165948
-0.12817
-0.0928063
-0.0615762
-0.0357557
-0.0159864
-0.00223423
0.00610585
0.0100121
0.0106134
0.00900788
0.00613623
0.00271888
-0.000751322
-0.00397268
-0.00678893
-0.00913863
-0.0110131
-0.012439
-0.0134551
-0.0140984
-0.0143943
-0.0143187
-0.0138004
-0.012822
-0.0113816
-0.00956581
-0.00719261
-0.0053046
0.000376263
-0.57507
-0.509823
-0.484048
-0.482132
-0.480717
-0.476834
-0.472533
-0.46758
-0.46083
-0.451584
-0.439485
-0.4241
-0.40478
-0.380701
-0.350981
-0.314915
-0.272364
-0.224137
-0.172134
-0.11913
-0.0683135
-0.0227343
0.0152134
0.0441475
0.0637977
0.0748649
0.078732
0.0771213
0.0717697
0.0642009
0.0556132
0.0468644
0.0385085
0.0308581
0.0240595
0.018156
0.0131195
0.00888839
0.00539411
0.0025934
0.000495387
-0.00092717
-0.00173456
-0.00207058
-0.00184441
-0.00197806
0.00105904
-0.51334
-0.496138
-0.486697
-0.483182
-0.481018
-0.478829
-0.476596
-0.473832
-0.469969
-0.464619
-0.457354
-0.44765
-0.434676
-0.417166
-0.393414
-0.361481
-0.319795
-0.267889
-0.206926
-0.139701
-0.0702493
-0.00323449
0.0568684
0.106552
0.143762
0.168002
0.180163
0.182118
0.176219
0.164855
0.150162
0.133868
0.117253
0.101178
0.0861645
0.0724883
0.0602571
0.0494669
0.0400626
0.0319378
0.0249779
0.0190964
0.0141809
0.0100919
0.00669989
0.00366562
0.00157795
-0.485487
-0.482978
-0.481082
-0.479855
-0.478871
-0.477613
-0.475764
-0.473125
-0.469475
-0.464699
-0.458664
-0.451015
-0.441115
-0.427696
-0.408685
-0.381296
-0.342669
-0.290867
-0.22582
-0.149543
-0.066004
0.0193398
0.100462
0.17187
0.229427
0.270824
0.295724
0.305471
0.302499
0.289754
0.270214
0.246549
0.22093
0.19498
0.169818
0.146143
0.124349
0.10461
0.0869605
0.0713203
0.0575254
0.0454248
0.0348551
0.0256962
0.0175469
0.0107895
0.00227193
-0.472584
-0.472881
-0.4732
-0.473344
-0.473244
-0.472659
-0.471383
-0.469194
-0.465881
-0.461305
-0.455299
-0.447595
-0.437865
-0.425306
-0.407971
-0.382859
-0.346398
-0.295684
-0.229515
-0.148714
-0.0566253
0.041175
0.137906
0.226841
0.302204
0.359959
0.398361
0.417816
0.420319
0.408898
0.387038
0.358134
0.325142
0.290429
0.255755
0.22233
0.190917
0.161947
0.135606
0.111909
0.0907576
0.0720111
0.0554687
0.0410088
0.0280184
0.0173545
0.0032297
-0.467216
-0.468015
-0.46861
-0.468829
-0.46869
-0.468004
-0.466591
-0.464259
-0.460797
-0.455992
-0.44961
-0.441405
-0.43103
-0.41769
-0.399666
-0.374025
-0.336789
-0.285293
-0.218555
-0.136269
-0.040715
0.0629105
0.167817
0.266892
0.353398
0.422092
0.470227
0.497387
0.504972
0.495791
0.47348
0.441803
0.404199
0.363549
0.322102
0.281486
0.242792
0.206679
0.173497
0.14337
0.116297
0.0922051
0.0708872
0.0522088
0.0354755
0.0217027
0.00409774
-0.466624
-0.467476
-0.468051
-0.468161
-0.467839
-0.466932
-0.465253
-0.462602
-0.45875
-0.453411
-0.446211
-0.436677
-0.424207
-0.40796
-0.386656
-0.358245
-0.319731
-0.267752
-0.199914
-0.116337
-0.01966
0.0851627
0.191789
0.293891
0.384383
0.457481
0.509914
0.540626
0.550608
0.542573
0.520162
0.487209
0.447314
0.403586
0.358512
0.313947
0.271172
0.230963
0.19379
0.159925
0.12943
0.102247
0.0781813
0.0570818
0.0383332
0.0228522
0.00458244
-0.467923
-0.468765
-0.469397
-0.469555
-0.469251
-0.46837
-0.466738
-0.46415
-0.460353
-0.455011
-0.447646
-0.437587
-0.423917
-0.405424
-0.380573
-0.347497
-0.304153
-0.248686
-0.179801
-0.0969673
-0.00147462
0.102473
0.208575
0.309704
0.398891
0.471027
0.523586
0.554805
0.564965
0.556914
0.534315
0.50096
0.460443
0.415899
0.369855
0.324208
0.28029
0.238976
0.200654
0.165475
0.133613
0.105133
0.0799146
0.0577771
0.0382802
0.021668
0.00495286
)
;

boundaryField
{
    inlet
    {
        type            zeroGradient;
    }
    outlet
    {
        type            fixedValue;
        value           uniform 0;
    }
    upperWall
    {
        type            zeroGradient;
    }
    lowerWall
    {
        type            zeroGradient;
    }
    frontAndBack
    {
        type            empty;
    }
}


// ************************************************************************* //
