/*--------------------------------*- C++ -*----------------------------------*\
| =========                 |                                                 |
| \\      /  F ield         | OpenFOAM: The Open Source CFD Toolbox           |
|  \\    /   O peration     | Version:  2406                                  |
|   \\  /    A nd           | Website:  www.openfoam.com                      |
|    \\/     M anipulation  |                                                 |
\*---------------------------------------------------------------------------*/
FoamFile
{
    version     2.0;
    format      ascii;
    arch        "LSB;label=32;scalar=64";
    class       surfaceScalarField;
    location    "82";
    object      phi;
}
// * * * * * * * * * * * * * * * * * * * * * * * * * * * * * * * * * * * * * //

dimensions      [0 3 -1 0 0 0 0];

oriented        oriented;

internalField   nonuniform List<scalar> 
3698
(
0.00994072
-0.000190745
0.0101448
-0.000204167
0.0102912
-0.000146483
0.0103943
-0.00010313
0.0104696
-7.54191e-05
0.0105254
-5.5871e-05
0.0105671
-4.17275e-05
0.0105989
-3.18698e-05
0.0106238
-2.50616e-05
0.010644
-2.01875e-05
0.0106604
-1.65345e-05
0.010674
-1.3704e-05
0.0106854
-1.14451e-05
0.0106949
-9.57599e-06
0.0107028
-7.96259e-06
0.0107092
-6.50908e-06
0.0107142
-5.13835e-06
0.0107179
-3.77686e-06
0.0107202
-2.34324e-06
0.0107209
-7.45881e-07
0.0107197
1.11849e-06
0.0107162
3.36808e-06
0.01071
6.15545e-06
0.0107002
9.68085e-06
0.0106859
1.42083e-05
0.0106658
2.0081e-05
0.0106379
2.77469e-05
0.0106001
3.77843e-05
0.0105491
5.094e-05
0.0104808
6.81658e-05
0.0103901
9.06652e-05
0.0102701
0.000119929
0.0101123
0.000157764
0.00990593
0.000206276
0.00963807
0.000267801
0.00929332
0.0003447
0.00885427
0.000438989
0.00830253
0.000551687
0.00762068
0.00068181
0.0067957
0.000824946
0.0058242
0.000971475
0.00471968
0.00110452
0.0035211
0.00119858
0.00230239
0.00121871
0.00118115
0.00112131
0.000360392
0.000820836
0.000360402
0.0276656
-0.000106415
0.0276578
-0.00019652
0.0277023
-0.000191073
0.027764
-0.00016503
0.0278287
-0.000140252
0.0278899
-0.000117221
0.0279446
-9.65836e-05
0.0279921
-7.95491e-05
0.028033
-6.60852e-05
0.0280681
-5.54093e-05
0.0280982
-4.67844e-05
0.028124
-3.9707e-05
0.0281462
-3.38064e-05
0.0281652
-2.87689e-05
0.0281814
-2.43308e-05
0.028195
-2.02778e-05
0.0282062
-1.6426e-05
0.0282148
-1.25932e-05
0.0282209
-8.57867e-06
0.0282241
-4.15173e-06
0.0282241
9.58338e-07
0.0282202
7.0814e-06
0.0282116
1.4632e-05
0.028197
2.41482e-05
0.0281747
3.63342e-05
0.0281425
5.2116e-05
0.0280974
7.27069e-05
0.0280353
9.96948e-05
0.027951
0.000135149
0.0278373
0.000181754
0.0276848
0.000242967
0.0274814
0.000323198
0.0272111
0.000427989
0.0268531
0.000564165
0.0263808
0.0007399
0.0257609
0.000964579
0.0249514
0.00124828
0.0239024
0.0016006
0.0225558
0.00202837
0.0208489
0.00253181
0.0187219
0.00309839
0.0161325
0.00369394
0.0130782
0.00425285
0.00962993
0.00466707
0.00596167
0.00478956
0.00244514
0.0043375
0.00280563
0.0437005
-5.69742e-05
0.0436395
-0.000135653
0.0436063
-0.000158
0.0435965
-0.000155325
0.0436026
-0.00014643
0.0436195
-0.000134235
0.0436426
-0.000119827
0.0436683
-0.000105366
0.0436943
-9.22147e-05
0.0437194
-8.06239e-05
0.0437429
-7.04348e-05
0.0437645
-6.14729e-05
0.0437841
-5.3562e-05
0.0438017
-4.64864e-05
0.0438173
-4.00103e-05
0.0438308
-3.39076e-05
0.0438422
-2.79588e-05
0.0438514
-2.19248e-05
0.0438582
-1.55215e-05
0.0438623
-8.40492e-06
0.0438633
-1.54975e-07
0.0438605
9.74943e-06
0.043853
2.1973e-05
0.0438396
3.7381e-05
0.0438187
5.71126e-05
0.043788
8.26708e-05
0.0437446
0.000116039
0.0436843
0.00015983
0.0436019
0.000217481
0.04349
0.0002935
0.0433391
0.000393781
0.0431362
0.000525981
0.0428641
0.000699975
0.0424998
0.000928356
0.0420127
0.00122694
0.041362
0.00161516
0.0404941
0.00211617
0.0393384
0.00275619
0.0378041
0.00356254
0.0357768
0.00455905
0.0331177
0.00575744
0.0296702
0.00714135
0.0252787
0.00864441
0.0198335
0.0101122
0.0133306
0.0112926
0.00609052
0.011578
0.00889614
0.057727
-3.40316e-05
0.057681
-8.97454e-05
0.0576399
-0.000116974
0.0576092
-0.000124801
0.0575877
-0.000125003
0.0575744
-0.00012107
0.0575683
-0.000113746
0.0575674
-0.000104576
0.0575701
-9.50476e-05
0.0575752
-8.58359e-05
0.0575818
-7.71165e-05
0.0575891
-6.89426e-05
0.0575968
-6.1315e-05
0.0576043
-5.41506e-05
0.0576115
-4.72981e-05
0.0576181
-4.05768e-05
0.0576238
-3.37863e-05
0.0576284
-2.6683e-05
0.0576317
-1.89527e-05
0.0576334
-1.01911e-05
0.057633
1.13102e-07
0.05763
1.26095e-05
0.0576238
2.81368e-05
0.0576132
4.77967e-05
0.0575972
7.30476e-05
0.0575739
0.000105826
0.0575412
0.000148702
0.0574958
0.000205083
0.0574337
0.000279486
0.0573492
0.000377893
0.0572347
0.000508219
0.0570797
0.000680912
0.0568698
0.00090972
0.0565855
0.00121265
0.0561992
0.00161313
0.0556729
0.00214139
0.0549531
0.00283585
0.0539647
0.0037445
0.0526018
0.00492542
0.0507154
0.00644535
0.0480982
0.00837462
0.0444679
0.0107716
0.0394529
0.0136593
0.0326122
0.0169529
0.0234634
0.0204415
0.0117787
0.0232626
0.0206752
0.0697377
-2.17932e-05
0.0697084
-6.05297e-05
0.069676
-8.46614e-05
0.0696466
-9.54754e-05
0.0696208
-9.92799e-05
0.0695988
-9.918e-05
0.0695809
-9.5937e-05
0.0695668
-9.05209e-05
0.0695557
-8.41011e-05
0.0695472
-7.73912e-05
0.0695406
-7.06741e-05
0.0695357
-6.40749e-05
0.0695319
-5.76552e-05
0.0695291
-5.13911e-05
0.0695268
-4.51782e-05
0.069525
-3.88662e-05
0.0695234
-3.22723e-05
0.0695218
-2.51618e-05
0.0695199
-1.72172e-05
0.0695177
-8.01544e-06
0.0695147
2.99173e-06
0.0695107
1.65104e-05
0.0695053
3.34606e-05
0.0694979
5.50563e-05
0.0694879
8.29139e-05
0.0694745
0.000119189
0.0694563
0.000166759
0.0694319
0.000229457
0.0693989
0.000312403
0.0693543
0.00042243
0.0692937
0.000568677
0.0692112
0.000763367
0.069098
0.00102286
0.0689415
0.00136906
0.0687233
0.00183128
0.0684159
0.00244874
0.0679778
0.00327383
0.0673459
0.00437629
0.0664228
0.00584852
0.0650568
0.00781125
0.0630108
0.0104205
0.059916
0.0138663
0.0551941
0.0183811
0.0479921
0.0241547
0.0369839
0.0314495
0.0206252
0.0396226
0.0413005
0.0797426
-1.44478e-05
0.0797233
-4.12831e-05
0.0796988
-6.02489e-05
0.0796738
-7.06065e-05
0.0796499
-7.53897e-05
0.0796274
-7.68027e-05
0.079607
-7.55846e-05
0.0795888
-7.23836e-05
0.0795726
-6.80346e-05
0.0795583
-6.31544e-05
0.0795456
-5.80458e-05
0.0795342
-5.28544e-05
0.0795242
-4.7656e-05
0.0795151
-4.24484e-05
0.079507
-3.71525e-05
0.0794997
-3.16388e-05
0.0794931
-2.57414e-05
0.079487
-1.92421e-05
0.0794816
-1.18407e-05
0.0794766
-3.13117e-06
0.0794721
7.41915e-06
0.079468
2.05011e-05
0.0794644
3.70172e-05
0.0794612
5.81619e-05
0.0794585
8.55296e-05
0.0794563
0.000121255
0.0794548
0.000168195
0.079454
0.00023018
0.079454
0.000312349
0.0794547
0.000421612
0.079456
0.000567289
0.0794574
0.00076199
0.0794573
0.00102283
0.0794532
0.00137315
0.0794395
0.00184489
0.0794061
0.00248207
0.0793342
0.00334567
0.0791895
0.00452084
0.0789104
0.00612753
0.0783861
0.00833553
0.0774164
0.0113901
0.0756453
0.0156373
0.0724152
0.0216111
0.0666173
0.0299525
0.0560038
0.0420637
0.0368308
0.0587956
0.0781315
0.087745
-9.49735e-06
0.0877312
-2.75322e-05
0.087712
-4.11854e-05
0.0876909
-4.95159e-05
0.0876693
-5.38726e-05
0.087648
-5.55972e-05
0.0876276
-5.52793e-05
0.0876085
-5.33675e-05
0.0875908
-5.04229e-05
0.0875745
-4.69105e-05
0.0875595
-4.30954e-05
0.0875456
-3.9115e-05
0.087533
-3.50411e-05
0.0875213
-3.08805e-05
0.0875106
-2.65753e-05
0.0875009
-2.20209e-05
0.0874922
-1.70784e-05
0.0874844
-1.15623e-05
0.0874777
-5.21561e-06
0.0874722
2.31154e-06
0.087468
1.14817e-05
0.0874656
2.28969e-05
0.0874651
3.73446e-05
0.0874674
5.58679e-05
0.0874729
7.98612e-05
0.0874829
0.000111195
0.0874987
0.00015238
0.087522
0.000206795
0.0875553
0.000278992
0.0876017
0.000375126
0.0876654
0.00050356
0.0877516
0.000675708
0.0878671
0.000907242
0.0880204
0.00121983
0.0882215
0.00164369
0.0884822
0.00222134
0.0888144
0.00301337
0.0892279
0.00410725
0.0897239
0.00563147
0.0902816
0.0077777
0.0908297
0.010842
0.0911843
0.0152825
0.09089
0.0219054
0.0888594
0.0319831
0.0819874
0.0489354
0.0626024
0.0781811
0.140734
0.0937462
-5.75783e-06
0.0937355
-1.68258e-05
0.0937197
-2.54991e-05
0.0937012
-3.11119e-05
0.0936815
-3.42215e-05
0.0936614
-3.55481e-05
0.0936415
-3.54783e-05
0.0936223
-3.43014e-05
0.0936042
-3.23599e-05
0.0935872
-2.99554e-05
0.0935713
-2.72768e-05
0.0935565
-2.44284e-05
0.0935429
-2.14641e-05
0.0935303
-1.83911e-05
0.0935188
-1.517e-05
0.0935084
-1.17265e-05
0.0934992
-7.95923e-06
0.0934913
-3.73146e-06
0.0934849
1.14598e-06
0.0934802
6.93195e-06
0.0934776
1.39694e-05
0.0934777
2.27055e-05
0.0934813
3.37256e-05
0.0934892
4.78047e-05
0.093503
6.59788e-05
0.0935245
8.9639e-05
0.0935562
0.000120657
0.0936014
0.000161554
0.0936646
0.00021574
0.0937518
0.000287845
0.0938711
0.000384189
0.0940333
0.000513454
0.0942528
0.000687664
0.094549
0.000923609
0.0949476
0.00124499
0.0954832
0.00168571
0.0962016
0.0022949
0.0971637
0.00314504
0.0984501
0.00434498
0.100166
0.00606166
0.102452
0.00855626
0.105485
0.0122493
0.109569
0.0178206
0.115157
0.0263949
0.124495
0.0395981
0.144602
0.058073
0.0871957
0.19814
0.0977469
-2.63476e-06
0.0977377
-7.75771e-06
0.0977239
-1.1779e-05
0.0977071
-1.44002e-05
0.0976887
-1.58171e-05
0.0976694
-1.63354e-05
0.09765
-1.61401e-05
0.097631
-1.53722e-05
0.0976127
-1.41923e-05
0.0975954
-1.27453e-05
0.0975792
-1.11262e-05
0.0975641
-9.38846e-06
0.0975501
-7.55821e-06
0.0975373
-5.63717e-06
0.0975256
-3.60281e-06
0.0975152
-1.41369e-06
0.0975062
9.87165e-07
0.0974987
3.67596e-06
0.097493
6.75723e-06
0.0974895
1.03726e-05
0.0974887
1.47094e-05
0.0974913
2.00111e-05
0.0974984
2.65955e-05
0.0975112
3.48825e-05
0.0975317
4.5432e-05
0.0975623
5.89943e-05
0.0976063
7.65787e-05
0.0976682
9.95454e-05
0.0977542
0.000129735
0.0978723
0.000169651
0.0980338
0.000222719
0.0982535
0.000293665
0.098552
0.00038906
0.0989575
0.000518138
0.0995084
0.000694032
0.100258
0.000935678
0.101282
0.0012708
0.102687
0.00174071
0.104624
0.00240784
0.107317
0.00336852
0.111104
0.00476899
0.116513
0.00683976
0.124462
0.00987213
0.136541
0.0143155
0.155888
0.0202508
0.186875
0.0270854
0.0397022
0.234368
0.0997471
2.206e-07
0.0997387
5.82883e-07
0.0997258
1.02812e-06
0.0997099
1.4818e-06
0.099692
1.94436e-06
0.0996732
2.41803e-06
0.0996541
2.9061e-06
0.0996352
3.41245e-06
0.099617
3.94135e-06
0.0995997
4.49706e-06
0.0995834
5.08432e-06
0.0995683
5.70888e-06
0.0995543
6.37722e-06
0.0995415
7.09587e-06
0.0995299
7.87151e-06
0.0995197
8.71163e-06
0.099511
9.62495e-06
0.099504
1.06212e-05
0.0994989
1.17109e-05
0.0994963
1.29052e-05
0.0994968
1.42163e-05
0.099501
1.56583e-05
0.0995103
1.72469e-05
0.0995261
1.9e-05
0.0995505
2.09378e-05
0.0995864
2.30832e-05
0.0996374
2.54634e-05
0.0997088
2.81102e-05
0.0998074
3.10626e-05
0.0999427
3.43685e-05
0.100127
3.8089e-05
0.100379
4.23031e-05
0.10072
4.71171e-05
0.101186
5.26772e-05
0.101821
5.91913e-05
0.102689
6.69622e-05
0.103884
7.64468e-05
0.105536
8.83507e-05
0.10784
0.000103804
0.111083
0.000124658
0.115698
0.000154071
0.12234
0.000197522
0.131948
0.000264557
0.14589
0.000373176
0.165594
0.000545919
0.191828
0.00085177
0.00129331
0.230236
0.0997471
3.07055e-06
0.0997387
8.90679e-06
0.0997259
1.38067e-05
0.09971
1.73233e-05
0.0996922
1.96529e-05
0.0996734
2.11056e-05
0.0996544
2.18726e-05
0.0996356
2.2103e-05
0.0996175
2.19658e-05
0.0996003
2.1614e-05
0.0995842
2.1152e-05
0.0995692
2.06445e-05
0.0995554
2.01308e-05
0.0995428
1.96255e-05
0.0995315
1.91191e-05
0.0995215
1.85849e-05
0.0995131
1.79829e-05
0.0995063
1.72563e-05
0.0995017
1.63209e-05
0.0994994
1.50575e-05
0.0995003
1.33028e-05
0.099505
1.08406e-05
0.0995148
7.38388e-06
0.0995312
2.54761e-06
0.0995563
-4.18873e-06
0.0995928
-1.35306e-05
0.0996447
-2.6435e-05
0.0997169
-4.42006e-05
0.0998165
-6.85939e-05
0.0999529
-0.000102027
0.100139
-0.000147812
0.100391
-0.000210525
0.100735
-0.000296543
0.101203
-0.000414834
0.10184
-0.000578157
0.102712
-0.000804911
0.10391
-0.00112203
0.105568
-0.00156961
0.10788
-0.00220822
0.111136
-0.00313118
0.115769
-0.0044797
0.122443
-0.00647596
0.132102
-0.00939507
0.146133
-0.0136579
0.165971
-0.0192926
0.192367
-0.0255451
-0.0374147
0.231075
0.0977469
6.17559e-06
0.0977378
1.79247e-05
0.0977241
2.7442e-05
0.0977074
3.39143e-05
0.0976891
3.78995e-05
0.09767
4.01216e-05
0.0976508
4.09735e-05
0.0976321
4.07517e-05
0.0976142
3.9807e-05
0.0975973
3.84489e-05
0.0975815
3.68757e-05
0.0975669
3.52024e-05
0.0975534
3.34949e-05
0.0975412
3.17727e-05
0.0975302
3.00094e-05
0.0975206
2.81449e-05
0.0975124
2.60941e-05
0.0975059
2.37384e-05
0.0975012
2.0908e-05
0.0974988
1.73648e-05
0.0974993
1.27892e-05
0.0975033
6.75962e-06
0.0975119
-1.28011e-06
0.0975264
-1.20729e-05
0.0975488
-2.66183e-05
0.0975815
-4.62666e-05
0.0976278
-7.28416e-05
0.0976924
-0.000108811
0.0977812
-0.00015752
0.0979027
-0.000223521
0.0980679
-0.000313039
0.0982919
-0.00043464
0.0985955
-0.000600195
0.0990069
-0.000826302
0.0995651
-0.0011364
0.100324
-0.00156404
0.10136
-0.00215786
0.10278
-0.00298968
0.104739
-0.0041674
0.107464
-0.00585669
0.111302
-0.00831696
0.116793
-0.0119669
0.124881
-0.0174833
0.137213
-0.025991
0.157027
-0.0391065
0.188855
-0.0573731
-0.0863767
0.237816
0.0937463
9.8865e-06
0.0937356
2.85488e-05
0.0937199
4.29885e-05
0.0937017
5.21195e-05
0.0936822
5.72904e-05
0.0936624
5.98463e-05
0.0936429
6.03827e-05
0.0936243
5.93548e-05
0.0936067
5.73315e-05
0.0935902
5.47855e-05
0.0935751
5.19905e-05
0.0935611
4.90936e-05
0.0935483
4.6178e-05
0.0935368
4.32617e-05
0.0935264
4.02992e-05
0.0935173
3.7199e-05
0.0935094
3.38374e-05
0.0935031
3.00448e-05
0.0934983
2.55825e-05
0.0934955
2.01192e-05
0.093495
1.32141e-05
0.0934974
4.288e-06
0.0935035
-7.42028e-06
0.0935142
-2.29261e-05
0.0935312
-4.35913e-05
0.0935561
-7.12517e-05
0.0935916
-0.000108379
0.093641
-0.000158307
0.093709
-0.000225536
0.0938016
-0.000316168
0.093927
-0.000438496
0.0940961
-0.000603862
0.0943238
-0.000827849
0.0946294
-0.00113203
0.0950395
-0.0015465
0.095589
-0.00211367
0.0963251
-0.00289401
0.0973103
-0.00397495
0.0986279
-0.00548507
0.100388
-0.00761654
0.102738
-0.0106668
0.105868
-0.0150976
0.110109
-0.0217248
0.115957
-0.0318383
0.125792
-0.0489422
0.146971
-0.0785522
-0.142704
0.203298
0.0877451
1.47963e-05
0.0877314
4.21867e-05
0.0877124
6.18601e-05
0.0876915
7.2937e-05
0.0876703
7.84494e-05
0.0876494
8.06054e-05
0.0876296
8.01484e-05
0.0876112
7.77335e-05
0.0875942
7.42013e-05
0.0875787
7.01773e-05
0.0875647
6.5971e-05
0.087552
6.17381e-05
0.0875405
5.75622e-05
0.0875302
5.34532e-05
0.0875211
4.93416e-05
0.0875131
4.51118e-05
0.0875063
4.06092e-05
0.0875006
3.56315e-05
0.0874962
2.98916e-05
0.0874933
2.30027e-05
0.087492
1.44483e-05
0.0874926
3.56029e-06
0.0874957
-1.05447e-05
0.0875017
-2.90347e-05
0.0875115
-5.34815e-05
0.0875262
-8.59879e-05
0.0875471
-0.000129385
0.0875762
-0.000187468
0.087616
-0.000265344
0.0876697
-0.000369886
0.0877415
-0.000510385
0.087837
-0.000699416
0.0879632
-0.00095408
0.0881288
-0.0012977
0.0883445
-0.00176227
0.0886227
-0.00239188
0.0889764
-0.00324776
0.0894168
-0.00441545
0.0899474
-0.00601576
0.0905509
-0.00822004
0.0911606
-0.0112766
0.0915995
-0.0155365
0.0914199
-0.0215453
0.0895389
-0.0299573
0.0828179
-0.0422214
0.0634708
-0.0592045
-0.0792333
0.0797427
2.20918e-05
0.0797235
6.12925e-05
0.0796992
8.60328e-05
0.0796746
9.74633e-05
0.0796511
0.000101891
0.0796292
0.000102422
0.0796095
9.98232e-05
0.0795921
9.50694e-05
0.0795768
8.93363e-05
0.0795636
8.33437e-05
0.0795521
7.73826e-05
0.0795422
7.15844e-05
0.0795336
6.60192e-05
0.0795263
6.06712e-05
0.0795202
5.54476e-05
0.079515
5.02069e-05
0.0795107
4.47786e-05
0.0795073
3.89376e-05
0.0795048
3.23807e-05
0.079503
2.46973e-05
0.079502
1.53564e-05
0.0795018
3.6659e-06
0.0795025
-1.12744e-05
0.079504
-3.0663e-05
0.0795066
-5.60942e-05
0.0795102
-8.97067e-05
0.0795151
-0.000134353
0.0795215
-0.000193852
0.0795294
-0.000273301
0.079539
-0.000379526
0.0795502
-0.000521656
0.0795626
-0.000711929
0.0795753
-0.000966735
0.0795856
-0.00130805
0.0795886
-0.00176534
0.0795747
-0.00237805
0.0795259
-0.003199
0.079409
-0.00429861
0.0791635
-0.0057704
0.0786804
-0.00773697
0.0777612
-0.0103574
0.0760508
-0.0138262
0.0728892
-0.0183837
0.0671609
-0.024229
0.0565838
-0.0316439
0.037371
-0.0399913
-0.0418621
0.0697378
3.427e-05
0.0697087
9.03429e-05
0.0696765
0.000118063
0.0696475
0.000126385
0.0696223
0.000127084
0.069601
0.000123648
0.0695839
0.000116831
0.0695707
0.000108178
0.0695607
9.91826e-05
0.0695535
9.05259e-05
0.0695484
8.23916e-05
0.069545
7.48355e-05
0.0695431
6.78673e-05
0.0695423
6.14085e-05
0.0695423
5.53194e-05
0.069543
4.94246e-05
0.0695442
4.35346e-05
0.0695456
3.74108e-05
0.0695472
3.07527e-05
0.0695486
2.3163e-05
0.0695497
1.4146e-05
0.0695503
3.05974e-06
0.0695498
-1.09176e-05
0.069548
-2.88799e-05
0.0695441
-5.22675e-05
0.0695373
-8.30099e-05
0.0695265
-0.000123659
0.0695103
-0.000177622
0.0694863
-0.000249403
0.0694517
-0.000344999
0.0694023
-0.000472333
0.0693323
-0.0006419
0.069233
-0.00086751
0.0690922
-0.0011673
0.0688917
-0.00156488
0.0686043
-0.00209078
0.0681892
-0.00278391
0.0675835
-0.00369296
0.0666901
-0.0048771
0.0653577
-0.00640462
0.0633485
-0.00834811
0.0602911
-0.0107689
0.055601
-0.0136936
0.0484126
-0.0170406
0.0373705
-0.0206017
0.0208897
-0.02351
-0.0209724
0.0577271
5.71446e-05
0.0576813
0.000136068
0.0576405
0.000158774
0.0576103
0.000156456
0.0575894
0.000147913
0.0575769
0.000136069
0.0575716
0.000122012
0.0575718
0.000107908
0.0575758
9.51202e-05
0.0575823
8.39096e-05
0.0575904
7.41173e-05
0.0575996
6.5578e-05
0.0576093
5.81132e-05
0.0576191
5.15198e-05
0.0576287
4.55614e-05
0.057638
4.00254e-05
0.0576468
3.4689e-05
0.0576548
2.93276e-05
0.0576618
2.36548e-05
0.0576675
1.73435e-05
0.0576716
9.97082e-06
0.0576735
1.03431e-06
0.0576727
-1.01348e-05
0.0576681
-2.4382e-05
0.0576586
-4.2852e-05
0.0576425
-6.7028e-05
0.0576177
-9.89039e-05
0.0575811
-0.000141077
0.0575286
-0.000197007
0.0574548
-0.000271199
0.057352
-0.000369594
0.0572099
-0.000499881
0.0570144
-0.000672037
0.0567458
-0.000898757
0.0563769
-0.00119607
0.0558698
-0.00158367
0.0551709
-0.00208514
0.0542051
-0.00272725
0.0528661
-0.00353812
0.051004
-0.00454257
0.0484094
-0.00575356
0.0447965
-0.00715595
0.0397872
-0.00868425
0.0329301
-0.0101835
0.0237282
-0.0113995
0.0119362
-0.0117176
-0.00903615
0.0437006
0.000106511
0.0436398
0.000196739
0.043607
0.00019151
0.0435976
0.000165678
0.0436043
0.000141103
0.043622
0.000118269
0.0436461
9.78275e-05
0.0436729
8.09866e-05
0.0437002
6.77213e-05
0.0437268
5.72495e-05
0.0437519
4.88414e-05
0.0437754
4.1991e-05
0.0437971
3.63348e-05
0.0438169
3.15574e-05
0.043835
2.74045e-05
0.0438512
2.3659e-05
0.0438657
2.0146e-05
0.0438782
1.66799e-05
0.0438887
1.3071e-05
0.0438968
9.08482e-06
0.0439022
4.46187e-06
0.0439043
-1.13192e-06
0.0439021
-8.09988e-06
0.0438946
-1.69849e-05
0.0438802
-2.84788e-05
0.0438566
-4.35153e-05
0.0438209
-6.32983e-05
0.0437692
-8.94302e-05
0.0436961
-0.000123978
0.0435944
-0.000169656
0.0434547
-0.000229935
0.0432641
-0.000309282
0.0430052
-0.000413288
0.0426553
-0.00054889
0.0421836
-0.000724386
0.0415492
-0.000949364
0.0406981
-0.00123415
0.0395595
-0.00158866
0.0380414
-0.00202015
0.0360281
-0.00252925
0.0333783
-0.0031038
0.0299322
-0.00370976
0.0255291
-0.00428115
0.0200542
-0.00470853
0.013498
-0.00484298
0.00617875
-0.00439798
-0.00285734
0.0276657
0.000190769
0.0276581
0.000204228
0.0277029
0.00014663
0.0277651
0.000103354
0.0278304
7.57134e-05
0.0278923
5.62326e-05
0.0279479
4.2153e-05
0.0279964
3.2357e-05
0.0280384
2.56108e-05
0.0280747
2.0802e-05
0.0281062
1.7218e-05
0.0281337
1.44609e-05
0.0281576
1.22801e-05
0.0281786
1.04955e-05
0.0281969
8.97422e-06
0.0282128
7.62183e-06
0.0282265
6.36177e-06
0.0282379
5.12233e-06
0.0282471
3.82359e-06
0.0282537
2.3771e-06
0.0282574
6.77273e-07
0.0282575
-1.39712e-06
0.0282533
-3.99635e-06
0.0282435
-7.31616e-06
0.0282266
-1.162e-05
0.0282002
-1.72513e-05
0.0281615
-2.46603e-05
0.0281064
-3.44287e-05
0.0280297
-4.73093e-05
0.0279242
-6.42633e-05
0.0277807
-8.65084e-05
0.027587
-0.000115556
0.0273268
-0.000153243
0.0269796
-0.000201718
0.0265185
-0.00026337
0.0259097
-0.000340635
0.0251111
-0.000435614
0.0240718
-0.000549423
0.0227328
-0.000681168
0.02103
-0.000826496
0.018902
-0.000975768
0.0163042
-0.00111194
0.0132323
-0.00120917
0.00975577
-0.00123192
0.00604907
-0.001136
0.00248637
-0.000834974
-0.000370924
0.00994075
0.010145
0.0102916
0.0103949
0.0104706
0.0105268
0.0105689
0.0106013
0.0106269
0.0106476
0.0106648
0.0106793
0.0106915
0.010702
0.010711
0.0107186
0.0107249
0.01073
0.0107338
0.0107362
0.0107368
0.0107354
0.0107314
0.0107241
0.0107124
0.0106951
0.0106705
0.010636
0.0105887
0.0105244
0.0104379
0.0103223
0.0101691
0.00996735
0.00970396
0.00936331
0.00892769
0.00837825
0.00769707
0.00687057
0.00589481
0.00478288
0.00357371
0.00234181
0.00120585
0.000370924
0.144344
0.0537962
0.118069
0.0262744
0.102967
0.0151009
0.0938071
0.00916067
0.0880201
0.00578577
0.00370463
0.0843155
0.254254
0.0339103
0.259509
0.0210196
0.259102
0.0155071
0.255399
0.0128632
0.250015
0.0111697
0.0108156
0.242904
0.261999
0.00214754
0.279566
0.00345228
0.290105
0.00496732
0.296323
0.00664548
0.298862
0.0086308
0.011088
0.29859
0.262965
-0.0297429
0.280533
-0.014115
0.291323
-0.00582373
0.298368
-0.000398893
0.302404
0.00459483
0.00927036
0.304222
0.259136
-0.0510628
0.266989
-0.0219677
0.270956
-0.0097913
0.272947
-0.00238975
0.274272
0.00327017
0.00856213
0.274981
0.152236
0.130268
0.120476
0.118087
0.121357
0.129919
-0.000328747
0.000328121
-0.00102594
0.000695592
-0.00182129
0.000793929
-0.00257774
0.000755234
-0.00325914
0.000680382
-0.00386013
0.000600081
-0.00438276
0.000521834
-0.00483082
0.000447314
-0.00520857
0.000377084
-0.00552056
0.000311378
-0.0057714
0.000250295
-0.00596565
0.000193775
-0.0061078
0.000141776
-0.00620244
9.43316e-05
-0.00625431
5.16492e-05
-0.00626852
1.40412e-05
-0.00625056
-1.80615e-05
-0.00620646
-4.4113e-05
-0.00614276
-6.36277e-05
-0.0060661
-7.64959e-05
-0.00598298
-8.28857e-05
-0.0058996
-8.31001e-05
-0.00582164
-7.76276e-05
-0.00575419
-6.71203e-05
-0.00570151
-5.23592e-05
-0.00566704
-3.41995e-05
-0.00565329
-1.35329e-05
-0.00566202
8.8535e-06
-0.00569423
3.22221e-05
-0.0057502
5.58528e-05
-0.00582948
7.90533e-05
-0.00593092
0.000101104
-0.00605258
0.000121271
-0.00619198
0.000138937
-0.00634604
0.000153556
-0.00651101
0.000164437
-0.00668205
0.000170556
-0.00685341
0.00017098
-0.00701961
0.000165918
-0.00717687
0.000156886
-0.00732215
0.000144873
-0.00745267
0.000129917
-0.00757086
0.000117691
-0.00769335
0.000120949
-0.00784658
0.000151187
-0.0080721
0.000223239
0.000254679
-0.00110769
0.0014341
-0.00293828
0.00252189
-0.00485426
0.00270637
-0.00662529
0.00252342
-0.00819258
0.00224527
-0.00955378
0.00195926
-0.0107221
0.00168834
-0.0117134
0.00143707
-0.012543
0.00120532
-0.0132249
0.000992
-0.0137713
0.000795745
-0.0141937
0.000615397
-0.0145027
0.000450158
-0.0147088
0.000299985
-0.014823
0.000165565
-0.0148573
4.81755e-05
-0.0148248
-5.06242e-05
-0.0147394
-0.000129375
-0.0146156
-0.000187091
-0.014468
-0.000223633
-0.0143109
-0.000239421
-0.0141578
-0.000235586
-0.014021
-0.00021368
-0.0139115
-0.000175895
-0.0138384
-0.000124843
-0.0138087
-6.33445e-05
-0.0138277
5.82058e-06
-0.0138987
8.00399e-05
-0.0140232
0.000156519
-0.0142006
0.00023283
-0.0144289
0.00030669
-0.0147045
0.00037588
-0.0150224
0.000438086
-0.0153757
0.000491144
-0.0157563
0.000532928
-0.0161543
0.000561306
-0.0165588
0.000573922
-0.0169576
0.000569086
-0.0173395
0.00054709
-0.017694
0.000510477
-0.0180127
0.000462302
-0.0182916
0.000407436
-0.0185326
0.000356894
-0.0187415
0.000326213
-0.018926
0.000331181
-0.0190698
0.000363215
0.000312864
-0.00189945
0.00333159
-0.00466107
0.00527973
-0.0073262
0.00536837
-0.00968382
0.00487853
-0.0117192
0.00427862
-0.0134607
0.00369905
-0.014944
0.00317029
-0.016202
0.00269378
-0.0172615
0.0022638
-0.0181444
0.001874
-0.0188683
0.00151899
-0.019448
0.00119453
-0.0198963
0.000898075
-0.0202253
0.000628772
-0.0204475
0.000387591
-0.0205762
0.000176881
-0.0206263
-4.8557e-07
-0.0206138
-0.000141758
-0.0205553
-0.000245388
-0.0204676
-0.000310903
-0.0203676
-0.000339124
-0.020271
-0.000331689
-0.0201929
-0.000291355
-0.0201464
-0.000221926
-0.0201426
-0.000128306
-0.02019
-1.564e-05
-0.0202949
0.000110791
-0.0204605
0.000245561
-0.0206877
0.000383486
-0.0209754
0.000520085
-0.0213205
0.000651097
-0.0217177
0.000772324
-0.02216
0.000879551
-0.0226385
0.000968714
-0.0231425
0.00103591
-0.0236597
0.00107746
-0.0241765
0.00108989
-0.024679
0.00107092
-0.0251532
0.00102065
-0.0255855
0.000941993
-0.0259646
0.000840391
-0.0262832
0.000725154
-0.026539
0.00061077
-0.0267302
0.000515452
-0.0268594
0.000456632
-0.0269387
0.000439991
0.00038193
-0.00259353
0.00592339
-0.00586938
0.00855177
-0.0087036
0.00819978
-0.01108
0.00725271
-0.0130948
0.00629162
-0.0148208
0.00542348
-0.016314
0.00466224
-0.0176161
0.00399479
-0.0187554
0.00340223
-0.0197509
0.00286879
-0.0206153
0.00238289
-0.0213577
0.00193659
-0.0219849
0.00152512
-0.022503
0.001147
-0.022919
0.000803685
-0.0232413
0.000499372
-0.0234807
0.000239262
-0.0236506
2.83634e-05
-0.0237656
-0.000130037
-0.0238416
-0.000234537
-0.0238946
-0.000285801
-0.0239408
-0.000285232
-0.023996
-0.000235824
-0.0240749
-0.000142812
-0.0241898
-1.32103e-05
-0.0243503
0.000144944
-0.0245628
0.00032328
-0.0248306
0.000513178
-0.0251547
0.000707247
-0.0255337
0.000898554
-0.025964
0.0010809
-0.0264404
0.00124798
-0.0269555
0.00139386
-0.0275002
0.00151262
-0.0280639
0.00159878
-0.0286346
0.00164729
-0.0291993
0.00165392
-0.0297447
0.0016158
-0.0302568
0.00153232
-0.0307214
0.00140614
-0.0311257
0.00124407
-0.0314598
0.00105841
-0.031716
0.000866503
-0.0318925
0.00068968
-0.0319959
0.000557503
-0.0320574
0.000500193
0.000485192
-0.00305405
0.00897578
-0.00593042
0.0114249
-0.00791167
0.0101783
-0.00948442
0.0088233
-0.0108788
0.00768415
-0.0121666
0.00670963
-0.0133875
0.00588174
-0.0145659
0.00517198
-0.0157097
0.00454498
-0.0168163
0.00397457
-0.0178784
0.00344431
-0.0188865
0.00294417
-0.0198306
0.00246896
-0.0207016
0.00201769
-0.0214916
0.00159363
-0.0221964
0.00120391
-0.0228151
0.000857832
-0.0233512
0.000564138
-0.0238119
0.000330425
-0.0242081
0.000161352
-0.0245527
5.85245e-05
-0.0248603
2.21932e-05
-0.0251473
5.08175e-05
-0.0254293
0.000139137
-0.0257208
0.00027792
-0.0260328
0.000456736
-0.0263737
0.000663724
-0.0267483
0.000887534
-0.0271592
0.00111757
-0.0276058
0.00134481
-0.0280863
0.00156077
-0.0285965
0.00175765
-0.029131
0.00192777
-0.0296829
0.00206402
-0.0302444
0.00215964
-0.0308063
0.00220863
-0.0313591
0.00220618
-0.0318925
0.00214882
-0.0323957
0.00203516
-0.0328568
0.00186672
-0.0332633
0.00165025
-0.0336029
0.00139778
-0.0338644
0.00112704
-0.034041
0.000865183
-0.0341362
0.000652035
-0.0341804
0.000543942
0.000587649
-0.00246025
0.011434
-0.00255609
0.0115174
-0.00195438
0.00957425
-0.00171586
0.00858273
-0.00191247
0.00787898
-0.00244738
0.00724285
-0.00326454
0.00669741
-0.00432138
0.0062274
-0.00557086
0.00579319
-0.00696475
0.00536724
-0.00845729
0.00493577
-0.0100065
0.00449244
-0.0115743
0.00403585
-0.0131263
0.00356884
-0.0146324
0.0030988
-0.016067
0.00263759
-0.0174082
0.00219799
-0.0186398
0.00179488
-0.0197542
0.00144408
-0.0207505
0.00115703
-0.0216333
0.000940732
-0.0224129
0.000801283
-0.0231056
0.000743082
-0.0237303
0.000763332
-0.0243051
0.000852278
-0.0248462
0.000997305
-0.0253665
0.00118362
-0.0258757
0.00139618
-0.0263797
0.00162111
-0.0268824
0.00184696
-0.0273855
0.00206335
-0.0278891
0.00226072
-0.0283918
0.00242993
-0.0288912
0.00256295
-0.0293843
0.00265233
-0.0298677
0.00269154
-0.0303375
0.00267552
-0.0307896
0.00260058
-0.0312194
0.00246454
-0.0316206
0.00226763
-0.0319849
0.0020142
-0.0323006
0.0017131
-0.0325535
0.00138023
-0.0327319
0.00104325
-0.0328277
0.000747281
-0.0328521
0.000569156
0.000636104
0.00891302
0.00251975
0.0154118
0.00501718
0.0190306
0.00595429
0.0209846
0.00662759
0.0217164
0.00714604
0.0214931
0.00746507
0.020535
0.00765448
0.0190024
0.00775899
0.0170162
0.00777841
0.0146775
0.00770502
0.0120755
0.00753686
0.00929082
0.00727618
0.00639769
0.00692809
0.00346496
0.00650059
0.000559699
0.006003
-0.00225644
0.00545261
-0.00493777
0.00487839
-0.00745067
0.00430708
-0.00976773
0.00376079
-0.0118699
0.00325904
-0.013747
0.00281798
-0.0153998
0.00245403
-0.0168417
0.00218501
-0.0180948
0.00201615
-0.0191837
0.00194118
-0.0201337
0.00194699
-0.0209676
0.0020175
-0.0217052
0.00213339
-0.0223618
0.00227755
-0.0229507
0.00243536
-0.0234821
0.00259447
-0.0239639
0.00274216
-0.0244013
0.00286726
-0.024799
0.00296048
-0.0251608
0.00301408
-0.0254907
0.00302145
-0.0257929
0.0029776
-0.0260713
0.00287901
-0.0263302
0.00272333
-0.0265726
0.00250997
-0.0267992
0.00224054
-0.0270059
0.00192026
-0.0271846
0.00155833
-0.0273196
0.00117757
-0.0273863
0.000813509
-0.0273628
0.00054414
0.000548518
0.0833054
0.00352968
0.0831947
0.00512775
0.0825078
0.0066409
0.0810836
0.00805141
0.078861
0.00936809
0.0758244
0.0105011
0.0720665
0.0114119
0.0677138
0.0121111
0.0628828
0.0126089
0.0576811
0.0129062
0.0522123
0.0130051
0.0465749
0.0129131
0.0408611
0.0126414
0.0351572
0.012204
0.0295415
0.0116181
0.0240884
0.0109051
0.0188736
0.0100927
0.0139683
0.00921208
0.00943235
0.00829682
0.00530981
0.00738204
0.00162478
0.0065035
-0.00162098
0.00570056
-0.00444501
0.00500943
-0.00687267
0.00444462
-0.00893643
0.00400542
-0.0106739
0.00368543
-0.0121255
0.00346975
-0.0133285
0.00333723
-0.0143159
0.00326545
-0.0151176
0.00323772
-0.0157622
0.0032394
-0.0162721
0.00325266
-0.0166646
0.00326041
-0.0169546
0.00325125
-0.0171561
0.00321627
-0.0172824
0.00314835
-0.0173466
0.0030423
-0.0173618
0.00289464
-0.0173417
0.00270361
-0.0173001
0.00246836
-0.0172491
0.00218986
-0.0171991
0.00186987
-0.0171542
0.00151319
-0.0171087
0.00112996
-0.0170318
0.000732083
-0.0168427
0.00035109
0.000210123
0.234481
0.0119533
0.225598
0.0140107
0.216126
0.0161136
0.206134
0.0180433
0.195678
0.0198236
0.184778
0.0214002
0.173484
0.0227058
0.161875
0.0237195
0.150046
0.0244377
0.138098
0.0248535
0.126141
0.0249616
0.114289
0.0247653
0.102654
0.024276
0.0913451
0.0235122
0.0804643