/*--------------------------------*- C++ -*----------------------------------*\
| =========                 |                                                 |
| \\      /  F ield         | OpenFOAM: The Open Source CFD Toolbox           |
|  \\    /   O peration     | Version:  2406                                  |
|   \\  /    A nd           | Website:  www.openfoam.com                      |
|    \\/     M anipulation  |                                                 |
\*---------------------------------------------------------------------------*/
FoamFile
{
    version     2.0;
    format      ascii;
    arch        "LSB;label=32;scalar=64";
    class       volScalarField;
    location    "38";
    object      p;
}
// * * * * * * * * * * * * * * * * * * * * * * * * * * * * * * * * * * * * * //

dimensions      [0 2 -2 0 0 0 0];

internalField   nonuniform List<scalar> 
1900
(
0.189626
0.17648
0.161121
0.14515
0.127911
0.109062
0.0883666
0.0653011
0.0391287
0.00586948
0.195124
0.178409
0.161204
0.145046
0.127935
0.109228
0.0889636
0.0669586
0.04288
0.0168703
0.199528
0.180701
0.162305
0.146376
0.129892
0.111944
0.0929655
0.0734012
0.0538573
0.03598
0.204158
0.18453
0.165511
0.149928
0.134344
0.117616
0.100448
0.083639
0.0679233
0.0545063
0.209212
0.189321
0.17013
0.154971
0.140301
0.124849
0.10941
0.0948663
0.0817825
0.0708239
0.2139
0.194005
0.175046
0.160385
0.146484
0.1321
0.118028
0.105073
0.093608
0.0839386
0.217306
0.197669
0.179283
0.165085
0.151677
0.138025
0.12487
0.112861
0.102227
0.0930972
0.218683
0.199829
0.18229
0.168328
0.155047
0.141758
0.129084
0.117493
0.107135
0.0980926
0.217171
0.200314
0.183896
0.169826
0.156318
0.143056
0.130479
0.118901
0.108457
0.0992435
0.212294
0.198839
0.184027
0.169939
0.156187
0.142808
0.130114
0.118351
0.107681
0.0982281
0.0377075
0.0370169
0.0369104
0.03783
0.0397388
0.0425457
0.0461656
0.0505137
0.0554985
0.0610187
0.0669609
0.0732013
0.0796077
0.0860446
0.0923783
0.0984823
0.104242
0.10956
0.114355
0.118569
0.122164
0.12512
0.127435
0.129128
0.130225
0.130768
0.130802
0.130381
0.129559
0.128388
0.126922
0.125209
0.123296
0.121223
0.119026
0.0384576
0.0377552
0.037706
0.0386471
0.0404812
0.0431358
0.0465602
0.0506956
0.0554666
0.0607817
0.0665338
0.0726025
0.078857
0.0851628
0.0913868
0.0974024
0.103095
0.108365
0.113131
0.117334
0.120931
0.123902
0.126245
0.127976
0.129121
0.129719
0.129816
0.129461
0.128708
0.127608
0.126213
0.124571
0.122727
0.12072
0.118585
0.038481
0.0377172
0.03769
0.0386607
0.0404527
0.0430031
0.0462907
0.0502793
0.0549084
0.0600949
0.065736
0.0717116
0.0778907
0.0841375
0.0903167
0.0963003
0.101972
0.107231
0.111994
0.116198
0.119805
0.122792
0.125158
0.126917
0.128097
0.128734
0.128875
0.128569
0.127868
0.126824
0.125486
0.123903
0.122118
0.12017
0.118093
0.0370155
0.036284
0.0363527
0.0374281
0.0392807
0.041853
0.0451427
0.0491282
0.0537582
0.0589536
0.064612
0.070612
0.0768207
0.0831002
0.0893128
0.0953268
0.101024
0.106302
0.11108
0.115295
0.118908
0.121899
0.124267
0.12603
0.127214
0.12786
0.128015
0.127727
0.12705
0.126035
0.124732
0.123188
0.121446
0.119543
0.117514
0.0337312
0.0333046
0.0337349
0.0351246
0.0372214
0.0399841
0.0434287
0.0475466
0.052294
0.0575963
0.0633534
0.069443
0.0757301
0.0820751
0.0883395
0.0943916
0.100112
0.105401
0.110175
0.114378
0.11797
0.120936
0.123278
0.125016
0.126181
0.126815
0.126964
0.126681
0.126018
0.125026
0.123755
0.122251
0.120555
0.118703
0.11673
0.0283744
0.0287375
0.0300124
0.0320816
0.034697
0.0378578
0.0416122
0.0459721
0.0509111
0.0563688
0.0622505
0.0684382
0.0747985
0.0811918
0.0874793
0.0935305
0.0992286
0.104476
0.109195
0.113332
0.116854
0.11975
0.122027
0.123708
0.124828
0.125429
0.125561
0.125276
0.124627
0.123663
0.122433
0.12098
0.119345
0.117563
0.115664
0.0206157
0.022615
0.0255417
0.0288066
0.0322588
0.0360095
0.0401749
0.0448262
0.0499813
0.0555971
0.0615866
0.0678364
0.0742175
0.0805939
0.0868307
0.0928013
0.0983946
0.103519
0.108104
0.112103
0.11549
0.11826
0.120426
0.122014
0.123063
0.123616
0.123724
0.123438
0.122809
0.121885
0.120712
0.119332
0.11778
0.11609
0.114289
0.00887801
0.0147252
0.0208733
0.0259345
0.0304581
0.0349046
0.0395154
0.0444554
0.0497977
0.0555244
0.0615578
0.0677906
0.0741006
0.0803592
0.0864387
0.0922208
0.0976032
0.102504
0.106862
0.110641
0.113823
0.11641
0.118421
0.119886
0.120845
0.121342
0.121426
0.121148
0.120554
0.11969
0.118598
0.117314
0.115872
0.114301
0.112625
-0.0136128
0.00393136
0.0165943
0.0239152
0.0295406
0.0347575
0.039842
0.0450311
0.0504933
0.0562516
0.0622369
0.068347
0.0744691
0.0804862
0.0862832
0.0917544
0.0968105
0.101382
0.105422
0.108903
0.111818
0.114177
0.116001
0.117323
0.118185
0.118629
0.118702
0.118448
0.117912
0.117133
0.116148
0.114989
0.113685
0.11226
0.110734
-0.0468558
-0.0078798
0.0136098
0.0230355
0.0296315
0.0356542
0.0412162
0.0465973
0.0520903
0.0577763
0.0635984
0.0694607
0.0752631
0.0809055
0.0862905
0.0913302
0.0959521
0.100103
0.103748
0.106873
0.10948
0.111582
0.113207
0.114386
0.11516
0.115567
0.115648
0.115445
0.114992
0.114326
0.113475
0.112466
0.111324
0.110067
0.108713
-0.0226919
-0.00135385
0.0172783
0.0258205
0.0319908
0.0380921
0.043819
0.0492229
0.0545951
0.0600537
0.0655589
0.0710248
0.0763661
0.081502
0.0863567
0.0908629
0.094967
0.0986321
0.101838
0.104579
0.106864
0.108711
0.110147
0.111202
0.11191
0.112306
0.112424
0.112297
0.111955
0.111424
0.110729
0.10989
0.108926
0.107851
0.10668
0.0013717
0.0108483
0.0235817
0.0310516
0.0366625
0.0423108
0.0477769
0.0529316
0.0579585
0.0629774
0.0679725
0.0728754
0.077616
0.0821318
0.0863671
0.0902744
0.0938179
0.0969749
0.0997357
0.102102
0.104086
0.105705
0.106983
0.107947
0.108623
0.109039
0.109222
0.109196
0.108984
0.108605
0.108077
0.107416
0.106634
0.105744
0.104754
0.0253118
0.0270012
0.0336857
0.0392192
0.0437839
0.0484175
0.0530781
0.057576
0.0619549
0.0662912
0.070581
0.0747717
0.0788053
0.0826318
0.0862099
0.0895069
0.0924997
0.0951751
0.0975295
0.0995671
0.101299
0.102739
0.103907
0.10482
0.105501
0.105966
0.106236
0.106327
0.106254
0.106032
0.105671
0.105183
0.104576
0.103859
0.103039
0.0457652
0.0438429
0.0462117
0.0493337
0.0523604
0.0556113
0.0590764
0.0625753
0.0660553
0.0695331
0.0729974
0.076403
0.0796984
0.0828394
0.0857919
0.0885306
0.0910387
0.0933063
0.0953306
0.097114
0.0986629
0.0999864
0.101096
0.102002
0.102718
0.103256
0.103626
0.103839
0.103904
0.103829
0.103623
0.103291
0.10284
0.102276
0.101604
0.0630483
0.0593312
0.0587492
0.0595325
0.0608439
0.0626041
0.0647412
0.0670998
0.0695853
0.0721655
0.0748086
0.077467
0.080089
0.0826311
0.0850594
0.0873498
0.0894846
0.0914528
0.0932475
0.0948665
0.0963096
0.0975794
0.0986795
0.0996149
0.100391
0.101012
0.101485
0.101815
0.102005
0.102061
0.101988
0.101789
0.101468
0.101031
0.10048
0.0765197
0.0717051
0.069153
0.0680402
0.0677866
0.0681789
0.0690933
0.0703925
0.071971
0.0737631
0.0757144
0.077767
0.0798648
0.0819602
0.0840159
0.0860031
0.0879001
0.0896904
0.0913616
0.092905
0.0943143
0.0955857
0.0967169
0.0977071
0.0985563
0.0992655
0.0998359
0.100269
0.100567
0.100732
0.100767
0.100674
0.100455
0.100116
0.0996581
0.0856692
0.080096
0.0762531
0.0737662
0.0722833
0.0715929
0.0715541
0.0720374
0.0729334
0.074154
0.0756246
0.0772748
0.0790419
0.0808716
0.0827212
0.0845552
0.0863462
0.0880711
0.0897124
0.091255
0.0926882
0.0940029
0.0951933
0.0962539
0.0971824
0.0979759
0.0986342
0.0991562
0.0995429
0.0997946
0.0999134
0.0999008
0.0997598
0.0994926
0.0991034
0.0904747
0.084362
0.0797081
0.0763374
0.0740393
0.0726405
0.0719986
0.0719855
0.0724836
0.0733907
0.0746156
0.0760783
0.0777075
0.0794443
0.0812385
0.0830499
0.0848444
0.086595
0.0882784
0.0898772
0.0913761
0.0927641
0.0940318
0.0951731
0.0961824
0.097057
0.0977939
0.0983926
0.0988522
0.0991738
0.099358
0.0994072
0.0993232
0.0991096
0.0987692
0.0913575
0.0848597
0.0797352
0.075887
0.0731717
0.0714382
0.0705427
0.0703489
0.0707301
0.0715713
0.072771
0.0742404
0.075903
0.0776941
0.0795595
0.081454
0.0833406
0.0851882
0.0869721
0.0886718
0.0902711
0.0917572
0.0931202
0.0943525
0.0954488
0.0964049
0.0972186
0.0978885
0.0984142
0.0987964
0.0990363
0.099136
0.0990981
0.0989258
0.0986228
0.0900935
0.0833394
0.0779679
0.0739112
0.0710472
0.0692282
0.0683023
0.0681222
0.0685508
0.0694645
0.0707547
0.0723277
0.0741031
0.076013
0.0780001
0.0800171
0.0820246
0.0839904
0.0858883
0.0876973
0.0894005
0.0909846
0.0924396
0.0937578
0.0949336
0.0959632
0.0968441
0.0975753
0.0981568
0.0985892
0.0988742
0.0990142
0.099012
0.0988711
0.0985956
0.116737
0.114382
0.111984
0.109561
0.107127
0.104695
0.102273
0.0998668
0.0974821
0.0951214
0.116355
0.114054
0.111706
0.109328
0.106936
0.10454
0.10215
0.0997721
0.097412
0.0950725
0.115918
0.11367
0.111372
0.109041
0.106691
0.104335
0.101981
0.0996358
0.0973045
0.0949906
0.115387
0.113189
0.110939
0.108654
0.10635
0.104037
0.101723
0.0994148
0.097118
0.0948354
0.114662
0.112523
0.110333
0.108108
0.105861
0.103603
0.101342
0.0990834
0.0968324
0.0945922
0.113673
0.111614
0.109504
0.107357
0.105187
0.103003
0.100812
0.0986191
0.0964295
0.0942458
0.1124
0.110445
0.108438
0.106393
0.104321
0.10223
0.100128
0.0980189
0.0959069
0.0937947
0.110865
0.109038
0.107158
0.105237
0.103284
0.101306
0.0993106
0.0973011
0.0952814
0.0932542
0.109127
0.10745
0.105718
0.10394
0.102123
0.100274
0.0983991
0.0965017
0.0945855
0.0926532
0.107276
0.105767
0.104197
0.102574
0.100904
0.0991932
0.0974468
0.0956684
0.0938617
0.0920294
0.105422
0.104087
0.102685
0.10122
0.0996999
0.098129
0.0965121
0.0948531
0.0931556
0.0914228
0.103673
0.102509
0.101269
0.0999577
0.0985809
0.0971433
0.0956494
0.0941033
0.0925087
0.0908692
0.102122
0.101115
0.100022
0.0988498
0.0976023
0.0962845
0.0949006
0.093455
0.0919519
0.0903952
0.100829
0.0999564
0.0989906
0.0979364
0.0967986
0.0955818
0.0942905
0.0929295
0.0915031
0.0900157
0.0998201
0.0990558
0.0981916
0.0972318
0.0961813
0.0950447
0.0938269
0.0925327
0.0911669
0.0897341
0.0990863
0.0984044
0.0976167
0.0967278
0.0957427
0.094666
0.0935029
0.0922582
0.0909372
0.0895447
0.0985951
0.0979724
0.0972393
0.096401
0.0954618
0.0944273
0.0933021
0.0920921
0.0908018
0.0894371
0.0983064
0.0977248
0.0970298
0.0962254
0.0953174
0.0943104
0.0932104
0.0920222
0.0907519
0.0894043
0.0981931
0.0976414
0.0969724
0.0961912
0.0953031
0.0943137
0.0932284
0.0920531
0.0907933
0.0894547
0.0981898
0.0976586
0.097007
0.0962404
0.0953644
0.0943849
0.0933075
0.0921382
0.0908829
0.0895474
0.0927864
0.0904778
0.0881955
0.0859387
0.0837063
0.0814968
0.0793086
0.07714
0.0749891
0.0728542
0.0707336
0.0686256
0.0665288
0.0644417
0.062363
0.0602916
0.0582264
0.0561666
0.0541111
0.0520595
0.0500109
0.0479648
0.0459209
0.0438785
0.0418375
0.0397974
0.0377581
0.0357191
0.0336805
0.031642
0.0296034
0.0275646
0.0255256
0.0234861
0.0214463
0.0927558
0.0904626
0.0881932
0.0859471
0.0837235
0.0815211
0.0793386
0.0771743
0.0750266
0.0728941
0.070775
0.0686679
0.0665713
0.0644841
0.0624048
0.0603326
0.0582662
0.056205
0.0541481
0.0520947
0.0500444
0.0479965
0.0459507
0.0439064
0.0418634
0.0398214
0.0377801
0.0357393
0.0336988
0.0316585
0.0296182
0.0275777
0.0255371
0.0234962
0.0214549
0.0926962
0.0904224
0.0881697
0.0859379
0.0837263
0.081534
0.0793596
0.077202
0.0750596
0.0729311
0.070815
0.0687099
0.0666147
0.064528
0.0624488
0.0603761
0.0583089
0.0562465
0.0541881
0.0521332
0.050081
0.0480312
0.0459833
0.043937
0.0418919
0.0398477
0.0378043
0.0357614
0.0337189
0.0316766
0.0296344
0.0275921
0.0255497
0.0235072
0.0214643
0.0925693
0.090321
0.0880909
0.0858791
0.083685
0.0815078
0.0793465
0.0772
0.075067
0.0729463
0.0708366
0.0687367
0.0666456
0.064562
0.0624851
0.0604139
0.0583477
0.0562857
0.0542272
0.0521718
0.0501188
0.0480679
0.0460187
0.0439709
0.0419241
0.0398783
0.037833
0.0357883
0.0337438
0.0316996
0.0296555
0.0276113
0.0255671
0.0235227
0.0214781
0.0923647
0.0901514
0.0879528
0.085769
0.0835998
0.0814445
0.0793023
0.0771722
0.0750534
0.0729447
0.0708451
0.0687536
0.0666693
0.0645913
0.0625188
0.060451
0.0583872
0.0563268
0.0542693
0.0522143
0.0501612
0.0481098
0.0460598
0.0440108
0.0419627
0.0399152
0.0378683
0.0358216
0.0337752
0.031729
0.0296827
0.0276365
0.0255901
0.0235436
0.0214969
0.0920701
0.0899038
0.0877477
0.0856019
0.0834665
0.081341
0.079225
0.0771177
0.0750186
0.0729268
0.0708415
0.0687622
0.0666879
0.0646182
0.0625524
0.0604899
0.0584302
0.0563728
0.0543175
0.0522637
0.0502113
0.04816
0.0461095
0.0440596
0.0420103
0.0399613
0.0379125
0.0358639
0.0338154
0.0317669
0.0297183
0.0276695
0.0256207
0.0235716
0.0215224
0.0916845
0.0895778
0.0874753
0.0853777
0.0832852
0.0811977
0.0791151
0.077037
0.0749632
0.0728933
0.0708267
0.0687632
0.0667024
0.0646437
0.062587
0.0605318
0.0584779
0.056425
0.0543729
0.0523215
0.0502704
0.0482197
0.0461692
0.0441187
0.0420683
0.0400178
0.0379672
0.0359165
0.0338656
0.0318145
0.0297632
0.0277116
0.0256598
0.0236078
0.0215554
0.0912216
0.0891853
0.0871465
0.0851058
0.0830641
0.0810215
0.0789785
0.0769352
0.0748915
0.0728477
0.0708035
0.0687591
0.0667144
0.0646692
0.0626237
0.0605776
0.058531
0.0564838
0.054436
0.0523876
0.0503387
0.0482891
0.0462388
0.044188
0.0421367
0.0400847
0.0380323
0.0359793
0.0339258
0.0318719
0.0298176
0.0277628
0.0257076
0.023652
0.0215961
0.0907071
0.0887492
0.0867808
0.0848034
0.0828178
0.0808251
0.0788259
0.076821
0.0748108
0.0727959
0.0707767
0.0687536
0.0667269
0.0646969
0.0626639
0.0606281
0.0585898
0.0565492
0.0545064
0.0524617
0.0504152
0.048367
0.0463174
0.0442664
0.0422141
0.0401607
0.0381063
0.0360509
0.0339947
0.0319377
0.02988
0.0278217
0.0257627
0.0237032
0.0216433
0.0901742
0.0882983
0.0864036
0.084492
0.082565
0.0806241
0.0786706
0.0767055
0.0747302
0.0727454
0.0707521
0.0687511
0.0667431
0.0647289
0.062709
0.060684
0.0586544
0.0566206
0.0545831
0.0525422
0.0504983
0.0484517
0.0464027
0.0443514
0.0422982
0.0402433
0.0381868
0.0361289
0.0340698
0.0320095
0.0299482
0.0278861
0.0258231
0.0237594
0.0216951
0.0896576
0.0878628
0.0860408
0.084194
0.0823246
0.0804345
0.0785256
0.0765997
0.0746583
0.0727029
0.0707349
0.0687555
0.0667658
0.0647669
0.0627597
0.0607451
0.0587238
0.0566966
0.0546641
0.0526269
0.0505854
0.0485402
0.0464916
0.04444
0.0423858
0.0403291
0.0382704
0.0362099
0.0341477
0.032084
0.030019
0.0279529
0.0258858
0.0238178
0.021749
0.0891883
0.0874693
0.085715
0.0839285
0.0821125
0.0802695
0.078402
0.0765122
0.0746021
0.0726737
0.0707289
0.0687692
0.0667961
0.0648112
0.0628155
0.0608102
0.0587965
0.0567751
0.054747
0.0527128
0.0506733
0.048629
0.0465805
0.0445283
0.0424728
0.0404144
0.0383533
0.03629
0.0342246
0.0321575
0.0300888
0.0280188
0.0259475
0.0238752
0.021802
0.088789
0.0871368
0.0854422
0.0837088
0.0819396
0.0801379
0.0783064
0.076448
0.0745652
0.0726602
0.0707354
0.0687926
0.0668338
0.0648607
0.0628747
0.0608773
0.0588697
0.056853
0.0548283
0.0527965
0.0507583
0.0487145
0.0466657
0.0446125
0.0425555
0.040495
0.0384316
0.0363654
0.034297
0.0322265
0.0301542
0.0280803
0.0260051
0.0239286
0.0218512
0.0884717
0.0868753
0.0852304
0.083541
0.0818106
0.080043
0.0782413
0.0764087
0.0745481
0.0726622
0.0707536
0.0688245
0.0668771
0.0649134
0.062935
0.0609436
0.0589406
0.0569273
0.054905
0.0528745
0.0508369
0.048793
0.0467435
0.0446891
0.0426304
0.0405678
0.0385019
0.036433
0.0343615
0.0322878
0.0302121
0.0281347
0.0260558
0.0239756
0.0218944
0.0882391
0.0866863
0.0850804
0.0834252
0.0817252
0.0799839
0.0782052
0.0763924
0.074549
0.0726776
0.0707813
0.0688624
0.0669235
0.0649665
0.0629936
0.0610063
0.0590065
0.0569953
0.0549743
0.0529444
0.0509067
0.0488622
0.0468116
0.0447557
0.0426951
0.0406303
0.038562
0.0364904
0.0344162
0.0323395
0.0302608
0.0281802
0.0260981
0.0240146
0.0219301
0.0880857
0.0865651
0.0849875
0.0833574
0.0816792
0.0799571
0.078195
0.0763964
0.074565
0.0727039
0.070816
0.0689042
0.0669709
0.0650184
0.0630488
0.0610641
0.0590659
0.0570557
0.0550349
0.0530048
0.0509665
0.0489209
0.0468689
0.0448113
0.0427488
0.0406819
0.0386113
0.0365373
0.0344605
0.0323812
0.0302997
0.0282164
0.0261315
0.0240453
0.0219579
0.0880026
0.0865039
0.0849453
0.0833322
0.0816685
0.0799591
0.0782076
0.0764184
0.0745945
0.0727398
0.070857
0.0689494
0.0670191
0.0650691
0.063101
0.0611173
0.0591194
0.0571092
0.0550879
0.053057
0.0510174
0.0489705
0.0469167
0.0448574
0.0427927
0.0407238
0.0386509
0.0365748
0.0344955
0.032414
0.03033
0.0282445
0.0261571
0.0240687
0.0219789
0.0879852
0.0864995
0.0849526
0.083349
0.0816939
0.0799912
0.0782458
0.076461
0.074641
0.072789
0.0709085
0.069002
0.0670728
0.0651229
0.0631549
0.0611704
0.0591718
0.0571602
0.0551377
0.0531049
0.0510637
0.0490146
0.046959
0.0448972
0.0428306
0.0407592
0.0386842
0.0366056
0.0345243
0.0324402
0.0303543
0.0282663
0.0261771
0.0240864
0.0219949
0.0880428
0.086563
0.0850204
0.0834204
0.0817674
0.0800664
0.0783215
0.0765368
0.0747162
0.0728633
0.0709812
0.0690731
0.0671416
0.0651895
0.0632188
0.0612318
0.0592303
0.057216
0.0551903
0.0531548
0.0511104
0.0490585
0.0469998
0.0449353
0.0428657
0.0407916
0.0387138
0.0366327
0.0345487
0.0324624
0.030374
0.028284
0.0261926
0.0241001
0.0220066
0.0881374
0.0866585
0.085116
0.0835152
0.081861
0.0801582
0.078411
0.0766238
0.0748004
0.0729445
0.0710593
0.0691479
0.0672132
0.0652577
0.0632838
0.0612934
0.0592886
0.057271
0.0552422
0.0532035
0.0511561
0.0491011
0.0470395
0.0449721
0.0428997
0.0408229
0.0387425
0.0366588
0.0345724
0.0324838
0.0303933
0.0283011
0.0262078
0.0241134
0.0220182
0.0194059
0.017365
0.0153235
0.0132816
0.0112391
0.00919604
0.00715258
0.00510928
0.00306586
0.00102218
0.0194132
0.0173711
0.0153286
0.0132856
0.0112423
0.00919821
0.00715388
0.00511326
0.00306568
0.00102065
0.0194212
0.0173777
0.0153339
0.0132899
0.0112456
0.00920046
0.0071551
0.0051147
0.00306613
0.00102174
0.0194332
0.0173881
0.0153428
0.0132972
0.0112515
0.00920508
0.00715845
0.00511642
0.00306585
0.00102176
0.01945
0.0174029
0.0153556
0.013308
0.0112604
0.00921211
0.00716379
0.00511964
0.00306605
0.00102147
0.0194729
0.0174232
0.0153733
0.0133232
0.011273
0.00922223
0.0071715
0.0051247
0.00306757
0.00102146
0.0195028
0.01745
0.0153969
0.0133436
0.0112901
0.00923607
0.00718215
0.00513192
0.00307059
0.00102181
0.0195398
0.0174832
0.0154263
0.0133691
0.0113117
0.0092538
0.00719595
0.0051416
0.00307545
0.00102282
0.0195828
0.017522
0.0154608
0.0133993
0.0113375
0.00927503
0.00721265
0.0051536
0.00308217
0.00102467
0.0196302
0.0175648
0.015499
0.0134327
0.0113661
0.00929879
0.00723148
0.00516734
0.00309042
0.00102727
0.0196795
0.0176094
0.0155387
0.0134676
0.011396
0.00932372
0.0072513
0.00518195
0.00309956
0.00103029
0.0197279
0.0176532
0.0155778
0.0135019
0.0114255
0.00934821
0.00727081
0.00519637
0.00310885
0.00103331
0.0197728
0.0176937
0.0156139
0.0135335
0.0114526
0.00937078
0.00728872
0.00520962
0.00311752
0.00103591
0.0198121
0.0177291
0.0156453
0.013561
0.011476
0.00939018
0.00730406
0.00522088
0.00312499
0.00103782
0.0198444
0.0177581
0.0156709
0.0135833
0.0114949
0.00940582
0.0073162
0.00522978
0.00313089
0.00103893
0.0198696
0.0177805
0.0156906
0.0136002
0.0115093
0.00941751
0.00732523
0.00523621
0.0031352
0.00103944
0.0198885
0.017797
0.0157051
0.0136126
0.0115198
0.00942586
0.00733156
0.00524085
0.00313854
0.00103995
0.0199023
0.0178093
0.0157155
0.0136215
0.011527
0.00943176
0.00733597
0.00524428
0.00314091
0.00104047
0.0199125
0.0178178
0.0157226
0.0136272
0.0115316
0.00943515
0.00733862
0.00524508
0.00314114
0.00104033
0.0199224
0.0178262
0.0157297
0.0136331
0.0115362
0.00943924
0.00734221
0.00524531
0.00314642
0.00104749
)
;

boundaryField
{
    inlet
    {
        type            zeroGradient;
    }
    outlet
    {
        type            fixedValue;
        value           uniform 0;
    }
    upperWall
    {
        type            zeroGradient;
    }
    lowerWall
    {
        type            zeroGradient;
    }
    frontAndBack
    {
        type            empty;
    }
}


// ************************************************************************* //
