/*--------------------------------*- C++ -*----------------------------------*\
| =========                 |                                                 |
| \\      /  F ield         | OpenFOAM: The Open Source CFD Toolbox           |
|  \\    /   O peration     | Version:  2406                                  |
|   \\  /    A nd           | Website:  www.openfoam.com                      |
|    \\/     M anipulation  |                                                 |
\*---------------------------------------------------------------------------*/
FoamFile
{
    version     2.0;
    format      ascii;
    arch        "LSB;label=32;scalar=64";
    class       surfaceScalarField;
    location    "83";
    object      phi;
}
// * * * * * * * * * * * * * * * * * * * * * * * * * * * * * * * * * * * * * //

dimensions      [0 3 -1 0 0 0 0];

oriented        oriented;

internalField   nonuniform List<scalar> 
3698
(
0.00993281
-0.000182799
0.0101251
-0.000192317
0.0102603
-0.000135099
0.0103541
-9.38045e-05
0.0104222
-6.8113e-05
0.0104724
-5.01386e-05
0.0105096
-3.71992e-05
0.0105379
-2.82613e-05
0.01056
-2.21385e-05
0.0105778
-1.77717e-05
0.0105924
-1.45037e-05
0.0106044
-1.19744e-05
0.0106143
-9.95752e-06
0.0106227
-8.28787e-06
0.0106295
-6.84548e-06
0.0106351
-5.5436e-06
0.0106394
-4.31161e-06
0.0106425
-3.07983e-06
0.0106443
-1.77278e-06
0.0106447
-3.04977e-07
0.0106433
1.41807e-06
0.0106398
3.50891e-06
0.0106337
6.11363e-06
0.0106244
9.42518e-06
0.0106107
1.36957e-05
0.0105915
1.92557e-05
0.010565
2.65346e-05
0.0105289
3.60914e-05
0.0104803
4.86472e-05
0.0104153
6.51278e-05
0.0103286
8.67053e-05
0.0102138
0.000114841
0.0100626
0.000151312
0.00986443
0.000198207
0.00960663
0.000257861
0.00927401
0.00033268
0.00884929
0.000424783
0.00831396
0.000535393
0.00765016
0.000663869
0.00684391
0.000806316
0.00589013
0.000953841
0.00479966
0.00109053
0.00360758
0.00119213
0.00238238
0.00122525
0.00123656
0.00114589
0.000378919
0.000857748
0.00037894
0.0276717
-0.00010444
0.0276694
-0.000189981
0.027716
-0.000181679
0.0277769
-0.000154721
0.0278391
-0.000130191
0.0278969
-0.000107921
0.027948
-8.82374e-05
0.0279919
-7.2187e-05
0.0280295
-5.96357e-05
0.0280615
-4.97604e-05
0.0280889
-4.18259e-05
0.0281123
-3.53433e-05
0.0281323
-2.99553e-05
0.0281495
-2.53628e-05
0.028164
-2.13183e-05
0.0281761
-1.76222e-05
0.0281859
-1.4101e-05
0.0281935
-1.058e-05
0.0281987
-6.86751e-06
0.0282012
-2.74407e-06
0.0282006
2.04801e-06
0.0281964
7.8246e-06
0.0281876
1.49864e-05
0.028173
2.40558e-05
0.0281511
3.57186e-05
0.0281195
5.08769e-05
0.0280754
7.07149e-05
0.0280148
9.6785e-05
0.0279325
0.000131115
0.0278214
0.000176344
0.0276723
0.000235877
0.0274732
0.000314072
0.0272082
0.00041642
0.0268568
0.000549706
0.0263927
0.000722094
0.0257825
0.000943007
0.0249847
0.00122266
0.0239493
0.00157092
0.0226182
0.00199517
0.0209281
0.00249651
0.0188182
0.0030639
0.0162433
0.00366557
0.0131959
0.00423963
0.00973785
0.00468341
0.00603315
0.00485075
0.00246159
0.00442947
0.00284058
0.0437019
-5.63008e-05
0.0436445
-0.000132595
0.0436156
-0.000152743
0.0436096
-0.000148707
0.0436186
-0.00013914
0.0436374
-0.000126669
0.0436615
-0.000112275
0.0436874
-9.80553e-05
0.0437131
-8.52875e-05
0.0437375
-7.41446e-05
0.0437601
-6.44267e-05
0.0437807
-5.59376e-05
0.0437993
-4.84857e-05
0.0438158
-4.18478e-05
0.0438304
-3.57897e-05
0.0438429
-3.00912e-05
0.0438533
-2.45374e-05
0.0438617
-1.88921e-05
0.0438678
-1.2877e-05
0.0438712
-6.15756e-06
0.0438717
1.67201e-06
0.0438684
1.11174e-05
0.0438606
2.28269e-05
0.0438471
3.76484e-05
0.0438262
5.67002e-05
0.0437957
8.14598e-05
0.0437526
0.000113879
0.0436929
0.000156533
0.0436113
0.000212815
0.0435006
0.000287186
0.043351
0.000385492
0.0431499
0.000515341
0.0428798
0.000686565
0.0425179
0.000911731
0.0420334
0.00120665
0.0413857
0.00159083
0.0405209
0.00208755
0.0393686
0.00272336
0.0378377
0.00352611
0.0358137
0.00452059
0.0331575
0.00572019
0.0297117
0.00711147
0.0253184
0.008633
0.0198626
0.0101392
0.0133303
0.0113832
0.00605117
0.0117089
0.00889176
0.0577273
-3.35431e-05
0.0576826
-8.78804e-05
0.0576435
-0.000113649
0.0576153
-0.000120452
0.0575963
-0.000120105
0.0575855
-0.000115853
0.0575816
-0.000108346
0.0575827
-9.9131e-05
0.0575871
-8.96725e-05
0.0575936
-8.06051e-05
0.0576013
-7.20792e-05
0.0576095
-6.41349e-05
0.0576178
-5.67613e-05
0.0576259
-4.98656e-05
0.0576334
-4.32945e-05
0.0576402
-3.68702e-05
0.0576461
-3.03935e-05
0.0576509
-2.36202e-05
0.0576543
-1.62374e-05
0.057656
-7.84757e-06
0.0576557
2.04892e-06
0.0576528
1.40871e-05
0.0576466
2.90909e-05
0.0576361
4.81461e-05
0.0576202
7.26935e-05
0.0575971
0.000104648
0.0575644
0.000146551
0.0575193
0.000201779
0.0574573
0.000274813
0.057373
0.000371603
0.0572585
0.000500028
0.0571034
0.000670514
0.0568933
0.000896798
0.0566082
0.0011969
0.0562206
0.00159431
0.0556922
0.00211936
0.0549691
0.00281071
0.0539758
0.00371672
0.052606
0.00489608
0.0507101
0.00641652
0.0480804
0.00834993
0.0444345
0.0107575
0.0394009
0.0136666
0.0325374
0.0170028
0.023357
0.0205638
0.0116466
0.0234193
0.0205385
0.0697379
-2.13984e-05
0.0697092
-5.9193e-05
0.0696779
-8.22838e-05
0.0696497
-9.22932e-05
0.0696253
-9.56749e-05
0.0696049
-9.53684e-05
0.0695886
-9.20148e-05
0.069576
-8.65721e-05
0.0695666
-8.02016e-05
0.0695596
-7.35898e-05
0.0695545
-6.69996e-05
0.069551
-6.05487e-05
0.0695486
-5.42931e-05
0.0695469
-4.82044e-05
0.0695458
-4.21791e-05
0.0695451
-3.60724e-05
0.0695444
-2.97055e-05
0.0695437
-2.28444e-05
0.0695427
-1.51725e-05
0.0695411
-6.2727e-06
0.0695388
4.39255e-06
0.0695354
1.75158e-05
0.0695306
3.40031e-05
0.0695237
5.50555e-05
0.0695142
8.22749e-05
0.0695011
0.0001178
0.0694832
0.000164487
0.0694589
0.000226147
0.0694259
0.000307876
0.0693811
0.000416488
0.0693201
0.00056111
0.0692367
0.000753968
0.0691221
0.00101145
0.0689636
0.00135552
0.0687423
0.00181562
0.0684306
0.00243116
0.0679865
0.00325488
0.0673463
0.00435702
0.0664117
0.00583074
0.0650303
0.00779798
0.0629639
0.0104164
0.0598425
0.0138789
0.0550883
0.0184209
0.0478485
0.0242426
0.0368043
0.031608
0.020412
0.0398123
0.0409506
0.0797428
-1.41414e-05
0.0797239
-4.02912e-05
0.0797001
-5.8514e-05
0.0796761
-6.82428e-05
0.0796531
-7.26707e-05
0.0796317
-7.3922e-05
0.0796123
-7.26343e-05
0.0795952
-6.94327e-05
0.0795802
-6.51475e-05
0.079567
-6.03754e-05
0.0795554
-5.53994e-05
0.0795453
-5.03559e-05
0.0795363
-4.53142e-05
0.0795284
-4.0268e-05
0.0795214
-3.51391e-05
0.0795152
-2.98032e-05
0.0795096
-2.40995e-05
0.0795046
-1.78112e-05
0.0795001
-1.06396e-05
0.079496
-2.18351e-06
0.0794924
8.07984e-06
0.0794891
2.08286e-05
0.0794862
3.69528e-05
0.0794837
5.76358e-05
0.0794815
8.4461e-05
0.0794798
0.00011955
0.0794786
0.000165748
0.079478
0.000226867
0.0794779
0.000308034
0.0794783
0.000416152
0.0794789
0.000560548
0.0794791
0.000753853
0.0794774
0.00101324
0.0794708
0.00136214
0.0794538
0.00183268
0.0794159
0.00246913
0.079338
0.0033329
0.0791853
0.00450976
0.0788955
0.0061206
0.0783568
0.00833672
0.077368
0.0114052
0.0755708
0.0156761
0.0723067
0.021685
0.066456
0.0300933
0.0557702
0.0422943
0.0363415
0.059241
0.0772922
0.0877451
-9.2759e-06
0.0877317
-2.68179e-05
0.0877132
-3.99638e-05
0.0876928
-4.78386e-05
0.087672
-5.19158e-05
0.0876517
-5.35095e-05
0.0876322
-5.31403e-05
0.087614
-5.12331e-05
0.0875972
-4.83459e-05
0.0875818
-4.49314e-05
0.0875677
-4.12393e-05
0.0875547
-3.73974e-05
0.0875429
-3.34713e-05
0.0875322
-2.94634e-05
0.0875224
-2.53152e-05
0.0875135
-2.09259e-05
0.0875056
-1.61602e-05
0.0874987
-1.08338e-05
0.0874927
-4.69055e-06
0.087488
2.6161e-06
0.0874846
1.15411e-05
0.0874827
2.2676e-05
0.0874829
3.67983e-05
0.0874857
5.49425e-05
0.0874917
7.84949e-05
0.087502
0.000109317
0.0875179
0.000149913
0.0875411
0.00020365
0.0875741
0.000275074
0.08762
0.000370343
0.0876828
0.000497832
0.0877677
0.00066899
0.0878815
0.000899554
0.0880324
0.0012113
0.0882305
0.00163462
0.0884874
0.00221232
0.0888149
0.00300541
0.0892227
0.00410202
0.0897117
0.00563163
0.090261
0.00778752
0.0907984
0.0108678
0.0911387
0.0153359
0.0908244
0.0219993
0.0887604
0.0321574
0.0818707
0.0491838
0.0624098
0.0787022
0.139702
0.0937463
-5.61676e-06
0.0937359
-1.63539e-05
0.0937207
-2.47172e-05
0.0937029
-3.00428e-05
0.093684
-3.29679e-05
0.0936647
-3.42078e-05
0.0936457
-3.41087e-05
0.0936274
-3.29418e-05
0.0936102
-3.10471e-05
0.093594
-2.872e-05
0.0935789
-2.61397e-05
0.0935649
-2.34032e-05
0.093552
-2.05599e-05
0.0935402
-1.76134e-05
0.0935294
-1.45236e-05
0.0935198
-1.12183e-05
0.0935112
-7.59841e-06
0.093504
-3.52806e-06
0.0934981
1.1819e-06
0.093494
6.7884e-06
0.0934919
1.36294e-05
0.0934925
2.21453e-05
0.0934964
3.29141e-05
0.0935047
4.6705e-05
0.0935187
6.45492e-05
0.0935402
8.78328e-05
0.0935718
0.000118422
0.0936166
0.000158835
0.0936793
0.000212478
0.0937657
0.000283986
0.0938839
0.000379692
0.0940446
0.000508312
0.0942623
0.000681921
0.0945563
0.000917403
0.0949524
0.00123861
0.0954851
0.00167965
0.0962005
0.00229002
0.0971599
0.00314271
0.0984442
0.00434736
0.10016
0.00607205
0.102448
0.00857973
0.105491
0.0122933
0.109594
0.0178957
0.115232
0.0265194
0.12464
0.0397758
0.1448
0.0585426
0.0871719
0.197329
0.097747
-2.56989e-06
0.0977381
-7.50899e-06
0.0977248
-1.13948e-05
0.0977087
-1.38903e-05
0.097691
-1.52287e-05
0.0976725
-1.5717e-05
0.097654
-1.55221e-05
0.0976358
-1.47756e-05
0.0976184
-1.36364e-05
0.097602
-1.2247e-05
0.0975866
-1.06979e-05
0.0975722
-9.03871e-06
0.097559
-7.29325e-06
0.0975469
-5.46146e-06
0.0975359
-3.52036e-06
0.0975261
-1.42935e-06
0.0975177
8.67416e-07
0.0975107
3.44578e-06
0.0975055
6.41022e-06
0.0975025
9.90159e-06
0.097502
1.41047e-05
0.0975049
1.92596e-05
0.0975122
2.56807e-05
0.0975252
3.37847e-05
0.0975456
4.41291e-05
0.097576
5.74621e-05
0.0976197
7.47905e-05
0.0976811
9.74726e-05
0.0977663
0.000127349
0.0978834
0.000166925
0.0980436
0.000219635
0.0982617
0.000290223
0.0985584
0.00038529
0.0989617
0.000514121
0.0995105
0.000689926
0.100258
0.000931763
0.101281
0.00126754
0.102685
0.00173883
0.104624
0.00240847
0.107323
0.00337322
0.111122
0.00478037
0.116555
0.00686057
0.124541
0.00990996
0.136681
0.014379
0.156107
0.0203493
0.187295
0.0273551
0.0398662
0.2346
0.0997472
2.11741e-07
0.0997391
6.17854e-07
0.0997267
1.03421e-06
0.0997114
1.45704e-06
0.0996943
1.88826e-06
0.0996763
2.32938e-06
0.099658
2.78311e-06
0.09964
3.25344e-06
0.0996226
3.74456e-06
0.0996061
4.26064e-06
0.0995906
4.80641e-06
0.0995762
5.3876e-06
0.099563
6.01054e-06
0.0995509
6.68166e-06
0.09954
7.40764e-06
0.0995304
8.19613e-06
0.0995222
9.05594e-06
0.0995157
9.99675e-06
0.0995111
1.10289e-05
0.0995089
1.21636e-05
0.0995096
1.34131e-05
0.0995141
1.47914e-05
0.0995235
1.63143e-05
0.0995393
1.79994e-05
0.0995636
1.98668e-05
0.0995992
2.19393e-05
0.0996498
2.42437e-05
0.0997205
2.68117e-05
0.0998182
2.96814e-05
0.0999523
3.29003e-05
0.100135
3.6528e-05
0.100385
4.06422e-05
0.100725
4.53468e-05
0.101189
5.07842e-05
0.101821
5.71568e-05
0.102688
6.47592e-05
0.103882
7.40345e-05
0.105535
8.56674e-05
0.107843
0.000100752
0.111095
0.000121082
0.115726
0.000149714
0.122395
0.00019194
0.132047
0.000257039
0.146064
0.000362243
0.165883
0.000530118
0.192412
0.000826285
0.00125729
0.231021
0.0997472
2.9883e-06
0.0997391
8.7281e-06
0.0997268
1.34359e-05
0.0997115
1.67659e-05
0.0996944
1.89552e-05
0.0996765
2.03135e-05
0.0996583
2.10132e-05
0.0996403
2.11938e-05
0.0996231
2.10227e-05
0.0996067
2.06502e-05
0.0995914
2.01763e-05
0.0995771
1.96619e-05
0.099564
1.91434e-05
0.0995521
1.86334e-05
0.0995414
1.81222e-05
0.099532
1.7584e-05
0.0995241
1.69804e-05
0.0995179
1.62545e-05
0.0995136
1.53224e-05
0.0995118
1.40651e-05
0.0995129
1.23222e-05
0.0995179
9.88087e-06
0.0995278
6.45744e-06
0.0995441
1.66975e-06
0.099569
-5.00055e-06
0.0996053
-1.42571e-05
0.0996566
-2.70552e-05
0.0997282
-4.4692e-05
0.0998268
-6.89345e-05
0.099962
-0.000102199
0.100146
-0.000147808
0.100397
-0.000210359
0.100739
-0.000296262
0.101205
-0.000414543
0.10184
-0.000578049
0.10271
-0.000805314
0.103907
-0.00112348
0.105566
-0.00157294
0.107882
-0.00221473
0.111145
-0.00314269
0.115794
-0.00449924
0.122493
-0.00650696
0.132197
-0.00944633
0.1463
-0.0137407
0.166249
-0.0194187
0.192939
-0.0258646
-0.0376466
0.231843
0.097747
6.01842e-06
0.0977382
1.75245e-05
0.097725
2.6677e-05
0.097709
3.28036e-05
0.0976914
3.65448e-05
0.0976731
3.86184e-05
0.0976548
3.93758e-05
0.0976369
3.90957e-05
0.0976198
3.81261e-05
0.0976037
3.67704e-05
0.0975887
3.52168e-05
0.0975748
3.35732e-05
0.0975621
3.19004e-05
0.0975505
3.02144e-05
0.0975402
2.84881e-05
0.0975311
2.66636e-05
0.0975235
2.46582e-05
0.0975174
2.23542e-05
0.0975132
1.95815e-05
0.0975112
1.61041e-05
0.0975119
1.16073e-05
0.0975162
5.67658e-06
0.0975249
-2.23749e-06
0.0975395
-1.28719e-05
0.0975618
-2.72216e-05
0.0975942
-4.66321e-05
0.0976401
-7.29229e-05
0.097704
-0.000108557
0.097792
-0.000156879
0.0979123
-0.000222446
0.0980761
-0.000311498
0.0982984
-0.000432636
0.0986
-0.000597787
0.0990092
-0.000823644
0.099565
-0.0011338
0.100322
-0.00156204
0.101356
-0.00215736
0.102775
-0.00299211
0.104735
-0.00417502
0.107466
-0.00587295
0.111313
-0.00834712
0.116825
-0.0120186
0.124947
-0.0175676
0.137332
-0.0261265
0.15721
-0.0392967
0.189213
-0.057868
-0.0863804
0.237947
0.0937464
9.6509e-06
0.093736
2.7908e-05
0.0937209
4.17895e-05
0.0937033
5.04103e-05
0.0936847
5.52462e-05
0.0936657
5.76135e-05
0.093647
5.80376e-05
0.0936292
5.69506e-05
0.0936124
5.49179e-05
0.0935968
5.23999e-05
0.0935824
4.96545e-05
0.0935692
4.68195e-05
0.0935572
4.39712e-05
0.0935463
4.11234e-05
0.0935366
3.82297e-05
0.0935281
3.52028e-05
0.0935208
3.19224e-05
0.093515
2.82203e-05
0.0935107
2.38585e-05
0.0935084
1.85091e-05
0.0935083
1.17387e-05
0.093511
2.97873e-06
0.0935173
-8.52234e-06
0.0935283
-2.37708e-05
0.0935452
-4.41211e-05
0.09357
-7.14007e-05
0.0936052
-0.000108073
0.0936542
-0.000157461
0.0937214
-0.000224063
0.093813
-0.000313979
0.0939371
-0.000435519
0.0941046
-0.000600057
0.0943301
-0.000823243
0.0946333
-0.00112676
0.0950404
-0.00154088
0.0955867
-0.0021083
0.0963193
-0.00288992
0.0973011
-0.00397383
0.0986157
-0.00548957
0.100374
-0.00763094
0.102724
-0.0106974
0.105861
-0.0151558
0.110117
-0.021823
0.116006
-0.0320158
0.125896
-0.0491868
0.147091
-0.0790623
-0.141592
0.202302
0.0877452
1.44787e-05
0.0877318
4.12712e-05
0.0877135
6.01555e-05
0.0876934
7.05542e-05
0.087673
7.56614e-05
0.087653
7.76032e-05
0.087634
7.70218e-05
0.0876165
7.45486e-05
0.0876004
7.10206e-05
0.0875858
6.70417e-05
0.0875726
6.29026e-05
0.0875607
5.87483e-05
0.08755
5.4657e-05
0.0875405
5.06333e-05
0.0875322
4.66097e-05
0.0875249
4.24746e-05
0.0875188
3.80796e-05
0.0875138
3.32225e-05
0.0875101
2.76194e-05
0.0875078
2.08867e-05
0.087507
1.25195e-05
0.0875082
1.86049e-06
0.0875116
-1.19594e-05
0.087518
-3.00992e-05
0.0875281
-5.41174e-05
0.0875428
-8.6107e-05
0.0875637
-0.000128882
0.0875925
-0.000186225
0.0876317
-0.000263228
0.0876846
-0.000366758
0.0877552
-0.00050611
0.0878491
-0.000693883
0.0879732
-0.00094723
0.088136
-0.00128958
0.0883483
-0.00175307
0.0886221
-0.00238208
0.0889705
-0.00323822
0.0894044
-0.00440768
0.089927
-0.00601214
0.0905205
-0.00822443
0.0911177
-0.0112945
0.0915395
-0.0155775
0.0913362
-0.0216197
0.0894162
-0.0300958
0.0826726
-0.0424431
0.0632466
-0.0596361
-0.0783454
0.0797428
2.16891e-05
0.0797241
6.00342e-05
0.0797005
8.36943e-05
0.0796768
9.42779e-05
0.0796543
9.82386e-05
0.0796334
9.85179e-05
0.0796147
9.57611e-05
0.0795983
9.09315e-05
0.0795842
8.51964e-05
0.079572
7.92487e-05
0.0795616
7.33582e-05
0.0795527
6.76496e-05
0.0795452
6.21864e-05
0.0795389
5.69492e-05
0.0795337
5.18448e-05
0.0795295
4.67384e-05
0.0795261
4.1462e-05
0.0795236
3.57928e-05
0.0795218
2.94273e-05
0.0795208
2.19625e-05
0.0795205
1.2876e-05
0.0795209
1.49139e-06
0.079522
-1.308e-05
0.079524
-3.20212e-05
0.0795268
-5.69145e-05
0.0795307
-8.98789e-05
0.0795356
-0.000133749
0.0795417
-0.000192317
0.0795492
-0.00027066
0.0795581
-0.00037558
0.0795683
-0.000516196
0.0795792
-0.000704745
0.0795897
-0.000957643
0.0795971
-0.00129693
0.0795962
-0.00175216
0.0795772
-0.00236301
0.0795217
-0.00318258
0.0793958
-0.00428179
0.0791386
-0.00575489
0.0786398
-0.0077256
0.0776998
-0.0103545
0.0759612
-0.0138389
0.0727633
-0.0184217
0.0669795
-0.024312
0.056329
-0.0317925
0.0368577
-0.0401646
-0.0414877
0.0697379
3.37776e-05
0.0697094
8.85587e-05
0.0696783
0.000114788
0.0696506
0.000122051
0.0696267
0.000122163
0.0696069
0.000118373
0.0695913
0.000111333
0.0695797
0.000102596
0.0695713
9.36301e-05
0.0695655
8.50761e-05
0.0695618
7.70905e-05
0.0695597
6.97177e-05
0.069559
6.29538e-05
0.0695593
5.67125e-05
0.0695603
5.08501e-05
0.0695619
4.51953e-05
0.0695638
3.95583e-05
0.0695659
3.37021e-05
0.0695681
2.73255e-05
0.06957
2.004e-05
0.0695716
1.13595e-05
0.0695725
6.5863e-07
0.0695723
-1.28721e-05
0.0695707
-3.03077e-05
0.0695669
-5.3074e-05
0.0695601
-8.30743e-05
0.0695493
-0.000122837
0.0695328
-0.000175733
0.0695084
-0.000246235
0.0694732
-0.000340298
0.0694229
-0.000465817
0.0693515
-0.000633252
0.0692503
-0.000856405
0.0691068
-0.00115341
0.0689027
-0.00154794
0.0686104
-0.00207061
0.0681884
-0.00276054
0.0675734
-0.00366677
0.0666676
-0.00484903
0.0653186
-0.00637655
0.0632876
-0.00832337
0.0602023
-0.0107535
0.0554786
-0.0136979
0.0482517
-0.017085
0.0371751
-0.0207157
0.0206663
-0.0236555
-0.0208214
0.0577273
5.64718e-05
0.0576828
0.000133091
0.057644
0.000153575
0.0576163
0.00014987
0.0575978
0.000140628
0.0575877
0.000128481
0.0575847
0.000114409
0.0575868
0.000100519
0.0575924
8.80872e-05
0.0576002
7.72948e-05
0.0576094
6.79437e-05
0.0576193
5.98433e-05
0.0576294
5.28039e-05
0.0576396
4.66105e-05
0.0576494
4.10327e-05
0.0576588
3.58585e-05
0.0576675
3.0875e-05
0.0576754
2.58555e-05
0.0576823
2.05249e-05
0.0576878
1.45595e-05
0.0576916
7.55741e-06
0.0576933
-9.75734e-07
0.0576922
-1.16844e-05
0.0576873
-2.5405e-05
0.0576776
-4.32523e-05
0.0576613
-6.66933e-05
0.0576362
-9.76794e-05
0.0575993
-0.000138781
0.0575465
-0.0001934
0.0574723
-0.000266007
0.057369
-0.000362478
0.0572263
-0.000490462
0.0570299
-0.000659873
0.0567599
-0.000883387
0.0563891
-0.00117701
0.055879
-0.00156049
0.0551761
-0.00205752
0.0542045
-0.00269518
0.0528577
-0.00350207
0.0509851
-0.00450396
0.0483772
-0.00571539
0.0447479
-0.0071241
0.0397197
-0.00866959
0.0328406
-0.0102058
0.0236093
-0.0114841
0.0117962
-0.0118422
-0.0090252
0.0437019
0.000104542
0.0436448
0.000190282
0.0436162
0.000182186
0.0436107
0.000155421
0.0436202
0.000131077
0.0436398
0.000108987
0.0436647
8.94829e-05
0.0436917
7.36118e-05
0.0437186
6.12438e-05
0.0437443
5.15578e-05
0.0437685
4.38226e-05
0.0437908
3.75494e-05
0.0438113
3.23854e-05
0.0438299
2.80332e-05
0.0438467
2.42508e-05
0.0438618
2.08394e-05
0.043875
1.76307e-05
0.0438865
1.44511e-05
0.043896
1.11151e-05
0.0439032
7.40421e-06
0.0439077
3.06702e-06
0.043909
-2.21111e-06
0.0439062
-8.82514e-06
0.0438981
-1.72961e-05
0.0438833
-2.83037e-05
0.0438594
-4.2751e-05
0.0438236
-6.18197e-05
0.043772
-8.70682e-05
0.0436992
-0.00012053
0.0435981
-0.00016486
0.0434592
-0.000223487
0.0432697
-0.00030081
0.0430123
-0.000402376
0.042664
-0.000535065
0.0421943
-0.000707162
0.0415621
-0.000928276
0.0407135
-0.00120886
0.0395775
-0.00155909
0.0380623
-0.00198674
0.0360517
-0.00249331
0.0334046
-0.00306814
0.0299602
-0.0036796
0.0255562
-0.00426547
0.0200724
-0.00472192
0.0134895
-0.00490106
0.00613493
-0.00448728
-0.00289023
0.0276717
0.000182834
0.0276696
0.000192433
0.0277165
0.000135293
0.0277779
9.40651e-05
0.0278406
6.84359e-05
0.0278991
5.05221e-05
0.0279509
3.76417e-05
0.0279958
2.87618e-05
0.0280344
2.26973e-05
0.0280676
1.83916e-05
0.0280963
1.51875e-05
0.0281211
1.27259e-05
0.0281428
1.07804e-05
0.0281616
9.18829e-06
0.0281781
7.83015e-06
0.0281924
6.62115e-06
0.0282045
5.49068e-06
0.0282147
4.37149e-06
0.0282226
3.18874e-06
0.0282282
1.86044e-06
0.0282311
2.88492e-07
0.0282305
-1.64001e-06
0.0282258
-4.0686e-06
0.0282158
-7.18617e-06
0.0281988
-1.12459e-05
0.0281727
-1.65772e-05
0.0281346
-2.36127e-05
0.0280805
-3.29128e-05
0.0280052
-4.52056e-05
0.0279019
-6.14232e-05
0.0277612
-8.27519e-05
0.0275712
-0.00011067
0.0273159
-0.000146984
0.0269747
-0.000193818
0.0265212
-0.000253562
0.0259217
-0.000328686
0.0251343
-0.000421393
0.0241083
-0.000532995
0.0227845
-0.000662941
0.0210987
-0.0008074
0.0189881
-0.000957472
0.0164057
-0.0010971
0.0133421
-0.00120174
0.00985777
-0.00123745
0.00611669
-0.00115975
0.002501
-0.000871373
-0.000389193
0.00993284
0.0101253
0.0102606
0.0103546
0.0104231
0.0104736
0.0105113
0.01054
0.0105627
0.0105811
0.0105963
0.0106091
0.0106198
0.010629
0.0106369
0.0106435
0.010649
0.0106534
0.0106566
0.0106585
0.0106587
0.0106571
0.0106531
0.0106459
0.0106347
0.0106181
0.0105945
0.0105616
0.0105164
0.010455
0.0103723
0.0102616
0.0101146
0.00992083
0.00966729
0.00933861
0.00891723
0.00838425
0.00772132
0.00691394
0.00595648
0.00485939
0.00365767
0.00242025
0.00126053
0.000389193
0.143705
0.0536245
0.117745
0.0259597
0.103079
0.0146658
0.0943664
0.0087131
0.0889664
0.00539898
0.00328945
0.0856769
0.254327
0.0338981
0.25935
0.0209365
0.258706
0.01531
0.254826
0.0125924
0.249337
0.010888
0.0105177
0.242109
0.262831
0.00208774
0.280411
0.00335701
0.290875
0.00484536
0.296949
0.00651864
0.299315
0.00852171
0.0110169
0.298816
0.263799
-0.0298683
0.281432
-0.014276
0.292224
-0.00594672
0.299209
-0.000465511
0.303162
0.00456859
0.00932815
0.304851
0.259113
-0.0510337
0.266723
-0.0218864
0.270374
-0.00959767
0.272077
-0.00216865
0.273221
0.00342498
0.00878114
0.273769
0.151269
0.129382
0.119785
0.117616
0.121041
0.129823
-0.000352296
0.000351946
-0.00110619
0.000753064
-0.00196645
0.000859675
-0.00278218
0.000815438
-0.00351364
0.00073142
-0.00415582
0.000642342
-0.00471237
0.000556848
-0.00518876
0.000476791
-0.00559081
0.000402514
-0.0059243
0.000334
-0.0061948
0.000271054
-0.00640755
0.000213327
-0.00656742
0.000160481
-0.00667909
0.000112287
-0.00674718
6.8731e-05
-0.0067765
2.99492e-05
-0.00677216
-3.70197e-06
-0.00673988
-3.16495e-05
-0.00668581
-5.3443e-05
-0.00661626
-6.89294e-05
-0.00653749
-7.81915e-05
-0.00645545
-8.15197e-05
-0.00637562
-7.93735e-05
-0.00630294
-7.23202e-05
-0.00624165
-6.10153e-05
-0.00619531
-4.61665e-05
-0.00616674
-2.84813e-05
-0.00615813
-8.61907e-06
-0.00617106
1.28362e-05
-0.00620658
3.53367e-05
-0.00626514
5.83238e-05
-0.00634664
8.12207e-05
-0.00645034
0.0001034
-0.00657492
0.000124263
-0.00671838
0.000143119
-0.00687778
0.000159049
-0.00704874
0.000170681
-0.00722545
0.000176495
-0.0074014
0.000175818
-0.0075706
0.000168918
-0.00772632
0.000155488
-0.00786046
0.000133447
-0.00796691
0.00010448
-0.00804821
7.7555e-05
-0.00811606
6.38635e-05
-0.00821692
9.61837e-05
0.000126316
-0.00118094
0.00153194
-0.0031482
0.00271807
-0.00521135
0.00292145
-0.00711572
0.00271926
-0.00879553
0.00241129
-0.0102488
0.0020962
-0.0114916
0.00180049
-0.0125431
0.00152933
-0.0134215
0.00128221
-0.0141436
0.00105741
-0.0147241
0.000852968
-0.0151763
0.000667055
-0.0155126
0.000498289
-0.0157447
0.000345895
-0.0158844
0.000209938
-0.015944
9.1017e-05
-0.0159365
-9.71533e-06
-0.0158756
-9.11479e-05
-0.0157752
-0.000152459
-0.0156493
-0.00019356
-0.0155114
-0.000214917
-0.0153742
-0.000217727
-0.0152492
-0.000203517
-0.0151467
-0.000174228
-0.0150752
-0.000132036
-0.0150418
-7.92935e-05
-0.015052
-1.83262e-05
-0.0151095
4.87454e-05
-0.0152169
0.000119868
-0.0153752
0.000193036
-0.0155839
0.000266332
-0.0158412
0.000337788
-0.0161438
0.000405292
-0.0164868
0.000466533
-0.0168634
0.000518954
-0.0172646
0.000559504
-0.017679
0.000584585
-0.0180936
0.000590684
-0.0184939
0.000575706
-0.0188649
0.000539272
-0.0191922
0.000481483
-0.0194655
0.000404283
-0.0196814
0.000315895
-0.0198431
0.000230733
-0.0199612
0.000172281
-0.0200402
0.000170035
0.000165545
-0.00200461
0.00353539
-0.00494569
0.00565721
-0.00779148
0.00576606
-0.0103071
0.00523443
-0.0124741
0.00457855
-0.0143239
0.00394653
-0.0158964
0.00337396
-0.0172286
0.00286268
-0.018351
0.00240588
-0.0192881
0.00199588
-0.0200598
0.00162603
-0.0206824
0.00129107
-0.02117
0.000987351
-0.0215357
0.000713076
-0.0217925
0.000468039
-0.0219538
0.000253642
-0.0220342
7.19645e-05
-0.0220494
-7.47595e-05
-0.0220154
-0.000185348
-0.0219485
-0.000259353
-0.021865
-0.000297599
-0.02178
-0.000301917
-0.0217079
-0.000275026
-0.0216614
-0.000220292
-0.0216514
-0.000141759
-0.0216867
-4.38357e-05
-0.0217742
6.91284e-05
-0.0219186
0.000192889
-0.0221224
0.000323335
-0.0223865
0.000456661
-0.0227098
0.000589147
-0.0230895
0.00071693
-0.0235206
0.000835926
-0.0239963
0.000941658
-0.0245071
0.00102923
-0.0250413
0.0010932
-0.0255849
0.00112779
-0.0261222
0.00112761
-0.026636
0.00108915
-0.0271088
0.00101131
-0.0275246
0.000896052
-0.0278725
0.000750133
-0.0281492
0.000587633
-0.0283544
0.000430431
-0.0284951
0.000307395
-0.0285844
0.000255486
0.000265158
-0.00270287
0.00623728
-0.00615004
0.00910233
-0.00913798
0.00875293
-0.0116398
0.00773587
-0.0137565
0.00669548
-0.0155666
0.00575728
-0.0171312
0.00493953
-0.0184959
0.00422861
-0.0196922
0.0036034
-0.0207407
0.00304587
-0.0216557
0.0025425
-0.022447
0.00208385
-0.023122
0.00166386
-0.0236872
0.00127979
-0.0241493
0.000931632
-0.0245164
0.000622126
-0.0247987
0.000355582
-0.0250086
0.000136344
-0.0251601
-3.27116e-05
-0.0252683
-0.000150219
-0.0253483
-0.000216793
-0.0254156
-0.000234038
-0.025485
-0.000205035
-0.0255707
-0.000134256
-0.0256847
-2.74535e-05
-0.0258372
0.000108727
-0.0260355
0.000267418
-0.0262845
0.00044183
-0.0265872
0.000625753
-0.0269442
0.000813306
-0.0273541
0.000998642
-0.0278135
0.00117604
-0.0283173
0.00133941
-0.0288583
0.00148233
-0.0294271
0.00159764
-0.0300122
0.00167807
-0.0306008
0.00171601
-0.0311783
0.00170496
-0.0317294
0.00163976
-0.0322375
0.00151891
-0.0326878
0.00134533
-0.0330689
0.00112926
-0.0333727
0.000888448
-0.0335956
0.000648741
-0.0337401
0.000446876
-0.0338233
0.000337902
0.000383312
-0.00312981
0.00936607
-0.00608942
0.0120602
-0.00811638
0.0107789
-0.00971604
0.00933522
-0.0111331
0.00811275
-0.0124447
0.00706955
-0.0136931
0.00618886
-0.0149041
0.00544083
-0.0160866
0.0047873
-0.0172384
0.00419901
-0.0183516
0.00365723
-0.0194164
0.00314999
-0.0204217
0.00267074
-0.0213575
0.002217
-0.0222149
0.00179038
-0.0229877
0.00139605
-0.0236738
0.00104276
-0.0242754
0.000738784
-0.0247984
0.00049102
-0.0252522
0.000304213
-0.0256487
0.000180208
-0.026001
0.000118802
-0.0263237
0.000118039
-0.0266315
0.0001739
-0.0269381
0.000279411
-0.027255
0.000425855
-0.0275913
0.000603795
-0.0279535
0.00080403
-0.0283457
0.00101784
-0.0287695
0.00123691
-0.0292244
0.00145341
-0.0297084
0.00165975
-0.0302176
0.00184854
-0.0307472
0.0020117
-0.0312905
0.00214089
-0.0318401
0.0022273
-0.032387
0.00226272
-0.0329219
0.00223939
-0.033434
0.00215144
-0.0339117
0.00199564
-0.0343422
0.0017749
-0.0347134
0.00149872
-0.0350131
0.00118535
-0.0352329
0.000864538
-0.0353669
0.000580653
-0.0354313
0.000402648
0.000484733
-0.00241237
0.0117772
-0.00235574
0.0120017
-0.00160173
0.010024
-0.0012413
0.00897461
-0.00135368
0.00822545
-0.00183824
0.00755482
-0.00263315
0.00698475
-0.00369128
0.00650018
-0.00496272
0.00606002
-0.00639689
0.00563455
-0.00794617
0.00520781
-0.00956638
0.00477162
-0.0112171
0.00432277
-0.0128613
0.00386253
-0.0144656
0.00339575
-0.0160005
0.00293198
-0.0174427
0.00248569
-0.0187749
0.00207182
-0.0199872
0.001704
-0.0210766
0.00139418
-0.0220462
0.00115046
-0.0229045
0.00097759
-0.0236645
0.000878603
-0.0243432
0.000852994
-0.0249578
0.000894371
-0.0255237
0.000992072
-0.0260542
0.00113441
-0.0265597
0.00130958
-0.027048
0.00150613
-0.0275241
0.00171303
-0.0279911
0.00192027
-0.02845
0.00211872
-0.0289015
0.00229998
-0.029345
0.00245524
-0.0297796
0.00257544
-0.0302038
0.00265141
-0.0306162
0.00267472
-0.0310147
0.00263748
-0.0313971
0.00253307
-0.031759
0.00235672
-0.0320941
0.00210896
-0.0323926
0.00179586
-0.0326422
0.00143335
-0.0328297
0.00105075
-0.0329445
0.000694376
-0.032984
0.000443447
0.000531241
0.00950255
0.00227376
0.016465
0.00503848
0.0204265
0.00606223
0.0226265
0.00677467
0.023523
0.00732916
0.0233983
0.00768001
0.0224862
0.00789758
0.0209574
0.00802982
0.0189408
0.00807762
0.0165442
0.00803215
0.0138633
0.00788985
0.0109847
0.00765146
0.00798781
0.00732101
0.0049455
0.00690619
0.00192433
0.00641832
-0.00101664
0.0058743
-0.00382907
0.00529946
-0.00647433
0.00471849
-0.00892145
0.00415259
-0.0111489
0.00362309
-0.0131457
0.00314873
-0.0149102
0.00274341
-0.0164509
0.00242057
-0.0177875
0.00219049
-0.018944
0.00205179
-0.0199436
0.00199242
-0.0208079
0.00199935
-0.0215563
0.0020586
-0.0222054
0.00215567
-0.0227683
0.00227648
-0.0232555
0.0024079
-0.0236752
0.00253905
-0.024035
0.00266019
-0.0243412
0.00276219
-0.0246008
0.00283525
-0.0248198
0.00287083
-0.0250058
0.00286042
-0.0251659
0.00279737
-0.0253085
0.00267464
-0.0254396
0.00248724
-0.0255641
0.00223208
-0.0256814
0.00191321
-0.0257892
0.00153889
-0.0258762
0.00113409
-0.0259247
0.000739991
-0.0259139
0.000428099
0.000442626
0.0848912
0.00305914
0.0851396
0.00479003
0.0847559
0.00644597
0.0835638
0.00796686
0.0815113
0.00938187
0.0785856
0.010606
0.0748851
0.0115986
0.0705444
0.012371
0.0656882
0.0129344
0.0604315
0.0132895
0.0548847
0.0134373
0.0491528
0.0133842
0.0433345
0.0131403
0.0375221
0.0127195
0.0318016
0.0121399
0.026253
0.011424
0.0209536
0.0106003
0.0159729
0.00970077
0.0113669
0.00876048
0.00717525
0.00781684
0.00341879
0.00690737
9.54996e-05
0.00606893
-0.00281399
0.00533206
-0.00532911
0.00470747
-0.00747218
0.00419655
-0.00927509
0.00379693
-0.0107734
0.00349921
-0.0120027
0.00328928
-0.0129959
0.00315032
-0.0137824
0.00306416
-0.0143866
0.0030134
-0.0148297
0.00298326
-0.015131
0.00296287
-0.0153087
0.00294082
-0.0153787
0.00290628
-0.0153574
0.00284973
-0.0152605
0.00276372
-0.0151055
0.00264168
-0.0149104
0.00247885
-0.0146934
0.0022687
-0.0144694
0.00200772
-0.0142542
0.00169655
-0.0140597
0.00134165
-0.0138905
0.000957695
-0.013734
0.000570835
-0.0135496
0.000232631
9.14959e-05
0.233529
0.0116387
0.224582
0.0137372
0.215124
0.0159047
0.205204
0.017887
0.194872
0.0197133
0.184143
0.0213359
0.173055
0.0226869
0.161681
0.0237445
0.15011
0.0245062
0.138435
0.024965
0.126757
0.0251152
0.115183
0.0249587
0.103818
0.0245059