/*--------------------------------*- C++ -*----------------------------------*\
| =========                 |                                                 |
| \\      /  F ield         | OpenFOAM: The Open Source CFD Toolbox           |
|  \\    /   O peration     | Version:  2406                                  |
|   \\  /    A nd           | Website:  www.openfoam.com                      |
|    \\/     M anipulation  |                                                 |
\*---------------------------------------------------------------------------*/
FoamFile
{
    version     2.0;
    format      ascii;
    arch        "LSB;label=32;scalar=64";
    class       volScalarField;
    location    "153";
    object      p;
}
// * * * * * * * * * * * * * * * * * * * * * * * * * * * * * * * * * * * * * //

dimensions      [0 2 -2 0 0 0 0];

internalField   nonuniform List<scalar> 
1916
(
94.9484
94.9473
94.9439
94.939
94.9331
94.9264
94.919
94.9111
94.9028
94.8942
94.8854
94.8764
94.8673
94.858
94.8487
94.8393
94.8299
94.8205
94.811
94.8016
94.7922
94.7829
94.7736
94.7645
94.7555
94.7467
94.7383
94.7303
94.7228
94.716
94.7101
94.7053
94.702
94.7005
94.7012
94.7047
94.7115
94.722
94.7368
94.756
94.7797
94.8073
94.8378
94.8694
94.9
94.9267
94.9414
94.9553
94.95
94.9445
94.9392
94.9332
94.9263
94.9188
94.9109
94.9026
94.894
94.8852
94.8762
94.8671
94.8579
94.8486
94.8392
94.8298
94.8204
94.8109
94.8015
94.7921
94.7827
94.7734
94.7642
94.7551
94.7463
94.7378
94.7296
94.7219
94.7149
94.7087
94.7036
94.6999
94.698
94.6984
94.7016
94.7083
94.7191
94.7347
94.7556
94.7818
94.8127
94.8468
94.8816
94.9147
94.9458
94.9649
94.9612
94.9522
94.9442
94.9384
94.9325
94.9257
94.9181
94.9102
94.902
94.8935
94.8848
94.8759
94.8668
94.8576
94.8483
94.8389
94.8295
94.82
94.8105
94.801
94.7914
94.7819
94.7724
94.7629
94.7535
94.7442
94.735
94.726
94.7173
94.709
94.7011
94.6938
94.6874
94.6822
94.6785
94.677
94.6784
94.6837
94.694
94.7108
94.7352
94.7682
94.8096
94.8576
94.9084
94.9618
94.995
94.9657
94.955
94.9452
94.9386
94.9325
94.9255
94.9177
94.9097
94.9015
94.893
94.8843
94.8753
94.8663
94.857
94.8477
94.8383
94.8288
94.8192
94.8096
94.7998
94.79
94.7801
94.7702
94.7601
94.7498
94.7395
94.7289
94.7181
94.707
94.6955
94.6836
94.6711
94.6581
94.6444
94.6301
94.6154
94.6007
94.5866
94.5747
94.5673
94.5675
94.5801
94.6105
94.6646
94.7418
94.8395
94.8913
94.9694
94.9578
94.9466
94.9391
94.9326
94.9252
94.9173
94.9091
94.9008
94.8923
94.8836
94.8746
94.8655
94.8563
94.8469
94.8375
94.8278
94.8181
94.8082
94.7982
94.7879
94.7775
94.7668
94.7557
94.7442
94.7322
94.7194
94.7057
94.6908
94.6745
94.6561
94.6353
94.6113
94.5835
94.5508
94.5124
94.4674
94.415
94.3551
94.2887
94.2186
94.1516
94.0972
94.0743
94.0885
94.1586
94.1184
94.9723
94.9602
94.9481
94.9398
94.9328
94.9252
94.917
94.9086
94.9002
94.8916
94.8829
94.8739
94.8648
94.8555
94.846
94.8364
94.8266
94.8167
94.8065
94.796
94.7853
94.7741
94.7625
94.7502
94.7371
94.7229
94.7074
94.69
94.6703
94.6476
94.6208
94.589
94.5504
94.5033
94.4452
94.3732
94.2835
94.1719
94.0333
93.8627
93.6547
93.4065
93.1137
92.7859
92.3799
91.9001
90.7482
94.9745
94.9621
94.9495
94.9405
94.9331
94.9252
94.9167
94.9082
94.8997
94.891
94.8822
94.8731
94.864
94.8546
94.845
94.8353
94.8253
94.8151
94.8046
94.7937
94.7824
94.7705
94.7578
94.7442
94.7294
94.7129
94.6943
94.6729
94.6479
94.6181
94.5821
94.5379
94.4828
94.4136
94.3257
94.2133
94.0686
93.8812
93.6374
93.3187
92.8984
92.3427
91.5836
90.5754
88.9819
87.1281
79.9689
94.9761
94.9635
94.9505
94.9411
94.9333
94.9252
94.9165
94.9078
94.8992
94.8905
94.8816
94.8725
94.8632
94.8538
94.8441
94.8343
94.8241
94.8137
94.8028
94.7916
94.7797
94.767
94.7534
94.7386
94.7221
94.7035
94.682
94.6569
94.6268
94.5904
94.5455
94.4894
94.4183
94.3274
94.21
94.0568
93.8551
93.5872
93.2274
92.7384
92.0601
91.1042
89.6714
87.494
83.2332
75.273
47.3155
94.977
94.9644
94.9511
94.9415
94.9335
94.9251
94.9164
94.9075
94.8988
94.89
94.881
94.8719
94.8626
94.8531
94.8433
94.8334
94.8231
94.8124
94.8014
94.7898
94.7775
94.7643
94.7499
94.7341
94.7163
94.696
94.6723
94.6442
94.6103
94.5687
94.5168
94.4513
94.3675
94.2592
94.1177
93.931
93.6818
93.3454
92.8848
92.2438
91.3307
89.9976
87.9504
84.6981
78.9552
68.9639
51.2814
94.9774
94.9647
94.9513
94.9416
94.9334
94.925
94.9161
94.9073
94.8985
94.8896
94.8806
94.8714
94.8621
94.8525
94.8428
94.8327
94.8223
94.8116
94.8004
94.7886
94.776
94.7625
94.7478
94.7314
94.7129
94.6916
94.6667
94.637
94.6009
94.5564
94.5006
94.4298
94.339
94.2209
94.0659
93.8601
93.5837
93.2076
92.6881
91.9577
90.9083
89.3639
87.0279
83.4138
77.7748
68.9271
56.4938
94.9771
94.9644
94.9511
94.9414
94.9332
94.9248
94.9159
94.907
94.8982
94.8894
94.8804
94.8712
94.8618
94.8522
94.8424
94.8324
94.822
94.8112
94.8
94.7882
94.7756
94.762
94.7473
94.7308
94.7123
94.691
94.666
94.6362
94.6001
94.5554
94.4996
94.4287
94.3377
94.2194
94.0642
93.858
93.5811
93.2043
92.6836
91.9514
90.8989
89.3492
87.0033
83.3705
77.6998
68.7924
56.2903
94.9764
94.9637
94.9505
94.9408
94.9328
94.9245
94.9157
94.9068
94.8981
94.8892
94.8803
94.8711
94.8617
94.8522
94.8424
94.8324
94.8221
94.8114
94.8002
94.7885
94.7761
94.7629
94.7484
94.7325
94.7146
94.6941
94.6703
94.642
94.6079
94.566
94.5138
94.448
94.3638
94.2549
94.1127
93.925
93.6744
93.336
92.8723
92.2265
91.3056
89.9586
87.8858
84.5828
78.7326
68.5023
50.3828
94.975
94.9625
94.9494
94.9401
94.9323
94.9241
94.9154
94.9067
94.898
94.8893
94.8803
94.8712
94.8619
94.8524
94.8426
94.8327
94.8225
94.8119
94.801
94.7896
94.7776
94.7648
94.751
94.736
94.7193
94.7004
94.6787
94.6533
94.6229
94.5861
94.5408
94.4841
94.4124
94.3207
94.2022
94.0476
93.844
93.5733
93.2095
92.7144
92.0264
91.0546
89.5933
87.3653
82.9772
74.7319
45.552
94.9731
94.9607
94.9481
94.9391
94.9316
94.9237
94.9153
94.9067
94.8981
94.8894
94.8805
94.8714
94.8622
94.8527
94.8431
94.8332
94.8231
94.8128
94.8021
94.7911
94.7796
94.7675
94.7546
94.7407
94.7256
94.7088
94.6899
94.6682
94.6428
94.6125
94.5759
94.531
94.4752
94.405
94.3159
94.2019
94.0551
93.8649
93.6171
93.2927
92.8639
92.2955
91.5162
90.4776
88.8268
86.9061
79.4475
94.9706
94.9585
94.9464
94.9381
94.931
94.9234
94.9152
94.9068
94.8983
94.8897
94.8809
94.8718
94.8626
94.8532
94.8436
94.8339
94.824
94.8138
94.8035
94.7928
94.7819
94.7705
94.7586
94.746
94.7326
94.7181
94.7021
94.6843
94.6642
94.6408
94.6135
94.5809
94.5415
94.4934
94.4341
94.3606
94.269
94.1549
94.0131
93.8382
93.6243
93.3683
93.0648
92.7229
92.2967
91.7905
90.5802
94.9674
94.9558
94.9447
94.9371
94.9306
94.9232
94.9152
94.907
94.8987
94.8901
94.8813
94.8723
94.8631
94.8537
94.8442
94.8346
94.8248
94.8149
94.8048
94.7945
94.7841
94.7734
94.7623
94.751
94.7391
94.7267
94.7135
94.6993
94.684
94.667
94.648
94.6264
94.6016
94.5728
94.5391
94.4994
94.4528
94.3986
94.3364
94.2672
94.1939
94.1231
94.0644
94.0373
94.0476
94.1153
94.0701
94.9636
94.9528
94.943
94.9365
94.9304
94.9233
94.9155
94.9074
94.8992
94.8906
94.8818
94.8728
94.8636
94.8543
94.8448
94.8352
94.8256
94.8158
94.8059
94.7959
94.7859
94.7757
94.7654
94.755
94.7444
94.7336
94.7226
94.7113
94.6996
94.6875
94.675
94.6618
94.648
94.6335
94.6183
94.6025
94.5866
94.5713
94.558
94.5491
94.5479
94.5592
94.5887
94.6426
94.7205
94.8199
94.8726
94.9589
94.9499
94.9419
94.9361
94.9303
94.9234
94.9158
94.9079
94.8996
94.8911
94.8822
94.8732
94.864
94.8547
94.8453
94.8357
94.8261
94.8164
94.8067
94.7969
94.7871
94.7773
94.7674
94.7576
94.7478
94.7381
94.7285
94.719
94.7097
94.7008
94.6923
94.6843
94.6772
94.6713
94.6668
94.6645
94.6651
94.6695
94.6791
94.6952
94.7191
94.752
94.7935
94.8421
94.894
94.9485
94.9824
94.953
94.9478
94.9422
94.9369
94.9309
94.924
94.9165
94.9085
94.9001
94.8915
94.8826
94.8735
94.8643
94.8549
94.8455
94.836
94.8264
94.8167
94.8071
94.7974
94.7877
94.778
94.7684
94.7588
94.7494
94.7401
94.7311
94.7225
94.7143
94.7067
94.6999
94.6942
94.6898
94.6873
94.687
94.6895
94.6955
94.7057
94.7208
94.7413
94.7672
94.7982
94.8325
94.8677
94.9013
94.9328
94.9523
94.9461
94.945
94.9416
94.9367
94.9308
94.9241
94.9166
94.9087
94.9003
94.8917
94.8828
94.8737
94.8644
94.8551
94.8456
94.8361
94.8265
94.8169
94.8072
94.7975
94.7878
94.7782
94.7686
94.7591
94.7497
94.7406
94.7317
94.7232
94.7152
94.7078
94.7013
94.6959
94.692
94.6898
94.6899
94.6928
94.6989
94.7088
94.7231
94.742
94.7654
94.793
94.8236
94.8554
94.8863
94.9134
94.9283
-16.2783
-14.2731
-0.802321
2.51408
0.619757
-0.576324
21.8095
9.69054
8.69157
6.6777
2.95203
0.529417
36.7969
18.1319
9.17477
5.75308
2.90859
0.450271
36.3961
17.4984
8.40555
4.85655
1.76647
-1.00577
19.9749
7.37609
6.41046
4.35283
0.122898
-3.09857
-21.5261
-20.105
-5.55014
-1.79421
-4.39798
-6.54512
-0.0452091
-0.0465531
-0.0478977
-0.0487038
-0.0488899
-0.0483131
-0.0469198
-0.0448474
-0.0424186
-0.0400452
-0.0380796
-0.0366907
-0.0358242
-0.0352549
-0.0346715
-0.0337569
-0.0322604
-0.0300639
-0.0272066
-0.0238438
-0.0201557
-0.0162717
-0.0122585
-0.00816273
-0.00405371
-3.12574e-05
0.00379494
0.00732741
0.0104887
0.01322
0.0154825
0.0172593
0.018554
0.019388
0.0197943
0.0198111
0.0194763
0.018825
0.0178911
0.0167052
0.0152863
0.0136382
0.0117557
0.00962798
0.00726673
0.00476167
0.00193687
-0.0430596
-0.0445178
-0.0460076
-0.0470594
-0.0476353
-0.0475053
-0.0465212
-0.0447313
-0.0424011
-0.0399443
-0.037772
-0.036136
-0.0350634
-0.0343962
-0.0338612
-0.0331337
-0.0319047
-0.0299687
-0.0272969
-0.0240337
-0.0203981
-0.0165666
-0.0126256
-0.00860782
-0.00455963
-0.000574139
0.00323528
0.00676742
0.00994334
0.0127017
0.0150011
0.016823
0.0181661
0.019046
0.0194934
0.0195486
0.019254
0.0186411
0.0177281
0.0165494
0.0151485
0.0135283
0.0116553
0.00952266
0.0071365
0.00446944
0.00175114
-0.043099
-0.0445397
-0.0462718
-0.0477165
-0.0487918
-0.0491019
-0.0483357
-0.046394
-0.043487
-0.0401319
-0.0369858
-0.0345936
-0.0331973
-0.0327157
-0.0328162
-0.0329846
-0.0326318
-0.0312744
-0.0287521
-0.0253065
-0.0214045
-0.0174291
-0.0134984
-0.00954474
-0.00551698
-0.00147882
0.00243264
0.0060843
0.00938295
0.0122678
0.0146913
0.0166268
0.018064
0.0190059
0.0194826
0.0195569
0.019292
0.0186866
0.017721
0.0164766
0.0150794
0.0134539
0.0114438
0.00924173
0.00695379
0.00411445
0.00154444
-0.0505268
-0.0511825
-0.0526618
-0.054174
-0.0554382
-0.0558164
-0.054717
-0.0517391
-0.0469637
-0.0411208
-0.0354379
-0.0312005
-0.0292075
-0.0294963
-0.0314409
-0.0339405
-0.035657
-0.0354374
-0.032867
-0.0285393
-0.0236404
-0.0191055
-0.0151181
-0.0113079
-0.00729968
-0.00304793
0.00121048
0.00521379
0.00883905
0.0120417
0.0147708
0.0169764
0.0186115
0.0196542
0.0201507
0.0202293
0.0199941
0.019362
0.0182241
0.0167657
0.0153152
0.0136885
0.0114625
0.00914716
0.00709196
0.00409125
0.00108172
-0.0732458
-0.0696087
-0.0679901
-0.0679892
-0.0686009
-0.0685551
-0.0666324
-0.0617849
-0.053669
-0.0431742
-0.0325089
-0.0246304
-0.0216746
-0.0237822
-0.0295567
-0.0366559
-0.0422774
-0.0439989
-0.0409185
-0.0343509
-0.0270711
-0.0213167
-0.0174112
-0.0141692
-0.0103447
-0.0056526
-0.000656644
0.00402926
0.00823384
0.0120172
0.0153351
0.0180507
0.0200601
0.021303
0.0218477
0.0219161
0.0216831
0.0209694
0.0195191
0.0176261
0.0158818
0.0140635
0.0115266
0.00906744
0.00729289
0.00396125
0.000198325
-0.132367
-0.104884
-0.0897879
-0.0848171
-0.0836711
-0.0827046
-0.0796909
-0.0726251
-0.0602656
-0.0433413
-0.0254873
-0.0127377
-0.00949875
-0.0155579
-0.0280121
-0.0426354
-0.0545108
-0.0592035
-0.0546954
-0.0432108
-0.0307519
-0.0225894
-0.0193745
-0.0179585
-0.0149889
-0.00962287
-0.00327031
0.00257473
0.00765279
0.0123574
0.0166911
0.0202605
0.0228317
0.0243806
0.0250472
0.0251086
0.0247693
0.0238183
0.0219036
0.0193451
0.016917
0.0145235
0.0115696
0.00896462
0.00711878
0.00321423
-0.00117554
-0.258164
-0.118842
-0.0735858
-0.0706521
-0.0701411
-0.0698442
-0.068773
-0.0628425
-0.0496753
-0.0306605
-0.0112875
0.00169286
0.00364276
-0.00717784
-0.0279896
-0.0527873
-0.0736604
-0.0824084
-0.074234
-0.0526812
-0.0303153
-0.0185334
-0.0183591
-0.0223687
-0.0224256
-0.0160704
-0.00688933
0.00115178
0.00747387
0.0133305
0.0190785
0.023902
0.0272507
0.0292107
0.0300869
0.0301631
0.0295687
0.0280976
0.025461
0.0219767
0.018429
0.0148934
0.011184
0.00832867
0.00615232
0.00139313
-0.00305012
-0.340504
-0.128186
-0.120384
-0.141329
-0.136644
-0.126773
-0.120226
-0.111383
-0.0961123
-0.0753624
-0.0540198
-0.039609
-0.0377566
-0.0489343
-0.069123
-0.091376
-0.106757
-0.106016
-0.0848444
-0.0506257
-0.0195364
-0.00646752
-0.0142784
-0.0298923
-0.0359087
-0.0259544
-0.00939597
0.00280009
0.00949355
0.0152022
0.022326
0.0290489
0.0334973
0.0358295
0.0368344
0.0369177
0.03595
0.0336601
0.0299486
0.0252055
0.0201174
0.0149459
0.0100093
0.00646206
0.00359306
-0.00164304
-0.00530343
-0.0501785
-0.0444403
-0.0848185
-0.129307
-0.121266
-0.0925021
-0.0689152
-0.0495252
-0.0282767
-0.00447039
0.0189518
0.0382308
0.0499345
0.0500312
0.0349853
0.0062354
-0.0266075
-0.0487571
-0.0497791
-0.0330956
-0.0176251
-0.0221964
-0.04348
-0.0601753
-0.0550741
-0.0309867
-0.00436828
0.00998727
0.0122155
0.0148189
0.0248465
0.0360098
0.0419858
0.0437095
0.0441141
0.0442411
0.043145
0.0399895
0.0348448
0.0284004
0.0213818
0.0142237
0.00763271
0.00284453
-0.000861234
-0.00594014
-0.00769035
-0.779275
-1.14335
-1.28838
-1.39314
-1.41164
-1.34518
-1.2376
-1.11437
-0.980292
-0.838127
-0.694383
-0.556921
-0.433372
-0.330884
-0.254123
-0.201467
-0.163879
-0.129067
-0.0891882
-0.0462687
-0.0108943
0.00650213
0.00467651
-0.00709593
-0.0130197
-0.00491043
0.00415507
0.000277285
-0.0053061
0.00429888
0.025273
0.0435959
0.0500292
0.0489025
0.0483052
0.049849
0.0498681
0.0460838
0.0391377
0.0305228
0.0213265
0.0121263
0.00368344
-0.0028981
-0.00772324
-0.0116269
-0.0100461
-2.47941
-2.943
-3.12461
-3.26762
-3.31608
-3.25976
-3.14894
-3.01308
-2.853
-2.66588
-2.45515
-2.22863
-1.99631
-1.76882
-1.55305
-1.34929
-1.15226
-0.956275
-0.760742
-0.573933
-0.409487
-0.278339
-0.183592
-0.118783
-0.0702453
-0.0277996
0.00590201
0.0243514
0.031464
0.0373105
0.0448726
0.0455814
0.0392704
0.037356
0.04333
0.0506687
0.0531721
0.0490253
0.040318
0.0298143
0.0190495
0.00855818
-0.00127971
-0.00964113
-0.015717
-0.0173412
-0.0113553
-4.3417
-4.57893
-4.73452
-4.88359
-4.91055
-4.84204
-4.74559
-4.64207
-4.52186
-4.3746
-4.19641
-3.98948
-3.76272
-3.52838
-3.29344
-3.05472
-2.80151
-2.52257
-2.2153
-1.89349
-1.5826
-1.30578
-1.07203
-0.871486
-0.682775
-0.491745
-0.305334
-0.145021
-0.0290919
0.0393777
0.0707683
0.078603
0.074583
0.0671449
0.05987
0.0533424
0.0462119
0.0382139
0.0301833
0.0222424
0.0139095
0.00491477
-0.00459752
-0.0133172
-0.0199143
-0.0185051
-0.0107919
-6.82877
-6.51972
-6.51509
-6.60431
-6.59802
-6.52981
-6.45655
-6.38798
-6.30997
-6.20606
-6.06281
-5.87803
-5.66742
-5.45403
-5.24934
-5.04596
-4.82137
-4.54458
-4.199
-3.80307
-3.40213
-3.04138
-2.73987
-2.47431
-2.18381
-1.81234
-1.35549
-0.868079
-0.428592
-0.0951664
0.114065
0.213738
0.234517
0.209727
0.168224
0.129109
0.0986183
0.0748829
0.0548573
0.0370773
0.0211811
0.00729822
-0.00494724
-0.013918
-0.0212263
-0.0147461
-0.0157244
-6.89733
-6.63868
-6.55127
-6.55281
-6.54784
-6.54003
-6.54645
-6.57084
-6.60724
-6.63381
-6.62138
-6.55813
-6.46752
-6.39119
-6.34746
-6.32577
-6.28618
-6.16248
-5.91138
-5.55831
-5.18348
-4.87807
-4.69563
-4.59237
-4.41487
-3.99241
-3.25458
-2.2803
-1.24624
-0.327725
0.365186
0.795578
0.983972
0.988511
0.881632
0.727353
0.568317
0.426464
0.309913
0.219213
0.150863
0.100447
0.0624673
0.0375605
0.0153909
0.0288923
-0.0327039
-6.56824
-6.54439
-6.5277
-6.51851
-6.5149
-6.51672
-6.52904
-6.55886
-6.60743
-6.6571
-6.67394
-6.63987
-6.58375
-6.56349
-6.61149
-6.72942
-6.86766
-6.91515
-6.7841
-6.50677
-6.20456
-6.038
-6.14525
-6.47305
-6.71452
-6.49355
-5.5957
-4.09486
-2.28257
-0.485909
1.04758
2.17255
2.8418
3.09421
3.02585
2.75042
2.36955
1.95938
1.56904
1.22424
0.933382
0.695383
0.502434
0.35401
0.2268
0.18348
-0.0442242
-6.47276
-6.47439
-6.4803
-6.48628
-6.49169
-6.49895
-6.51419
-6.54486
-6.59108
-6.63561
-6.64662
-6.60967
-6.56079
-6.55046
-6.61561
-6.78131
-6.99884
-7.12381
-7.03051
-6.75199
-6.43651
-6.33279
-6.72785
-7.60993
-8.48603
-8.69895
-7.80163
-5.84302
-3.23284
-0.437607
2.16062
4.27854
5.75135
6.54908
6.7522
6.49942
5.94196
5.21745
4.43471
3.6674
2.95737
2.32376
1.76884
1.29367
0.872657
0.56164
0.0669591
-6.44733
-6.45102
-6.4583
-6.46638
-6.47465
-6.48341
-6.49543
-6.51591
-6.54855
-6.58728
-6.61218
-6.60435
-6.57324
-6.56005
-6.61495
-6.77313
-6.98432
-7.09297
-6.98264
-6.67784
-6.29574
-6.17116
-6.74264
-8.0571
-9.51954
-10.2006
-9.34736
-7.00763
-3.72743
-0.056719
3.54626
6.67961
9.05541
10.5564
11.2188
11.1681
10.5702
9.60876
8.45076
7.22287
6.00986
4.86197
3.80252
2.83611
1.95353
1.14406
0.36159
-6.44795
-6.45137
-6.4575
-6.46502
-6.47381
-6.48362
-6.49471
-6.50855
-6.52765
-6.55311
-6.58106
-6.60286
-6.61301
-6.61905
-6.64617
-6.72781
-6.86201
-6.9707
-6.93574
-6.70332
-6.3664
-6.26732
-6.9363
-8.44853
-10.2545
-11.2029
-10.3066
-7.61316
-3.81056
0.522195
4.89368
8.8167
11.9169
14.0115
15.1124
15.3217
14.7858
13.7075
12.2901
10.6986
9.0545
7.43816
5.89623
4.43767
3.0786
1.72175
0.690272
-6.45354
-6.45638
-6.46175
-6.46897
-6.47801
-6.48883
-6.50132
-6.51552
-6.53198
-6.55185
-6.57624
-6.60509
-6.63674
-6.66891
-6.70121
-6.73748
-6.78423
-6.84098
-6.88278
-6.85391
-6.7206
-6.6325
-7.05887
-8.41175
-10.2261
-11.15
-10.1076
-7.24009
-3.2445
1.35956
6.08892
10.3976
13.8864
16.3382
17.705
18.0637
17.5696
16.4426
14.8924
13.0955
11.193
9.28451
7.43171
5.64765
3.96386
2.2305
0.942241
-6.45704
-6.45956
-6.4648
-6.47212
-6.48132
-6.4925
-6.50581
-6.52137
-6.53927
-6.5598
-6.58378
-6.61264
-6.64754
-6.68843
-6.7336
-6.77966
-6.8217
-6.85458
-6.87446
-6.8768
-6.86209
-6.87039
-7.03038
-7.53573
-8.40798
-9.13046
-8.66807
-6.35021
-2.47231
2.19397
6.97614
11.272
14.655
17.1497
18.6814
19.0776
18.557
17.3865
15.774
13.8935
11.8926
9.87829
7.91643
6.02513
4.23051
2.42731
0.948276
)
;

boundaryField
{
    inlet
    {
        type            zeroGradient;
    }
    outlet
    {
        type            fixedValue;
        value           uniform 0;
    }
    upperWall
    {
        type            zeroGradient;
    }
    lowerWall
    {
        type            zeroGradient;
    }
    frontAndBack
    {
        type            empty;
    }
}


// ************************************************************************* //
