/*--------------------------------*- C++ -*----------------------------------*\
| =========                 |                                                 |
| \\      /  F ield         | OpenFOAM: The Open Source CFD Toolbox           |
|  \\    /   O peration     | Version:  2406                                  |
|   \\  /    A nd           | Website:  www.openfoam.com                      |
|    \\/     M anipulation  |                                                 |
\*---------------------------------------------------------------------------*/
FoamFile
{
    version     2.0;
    format      ascii;
    arch        "LSB;label=32;scalar=64";
    class       surfaceScalarField;
    location    "153";
    object      phi;
}
// * * * * * * * * * * * * * * * * * * * * * * * * * * * * * * * * * * * * * //

dimensions      [0 3 -1 0 0 0 0];

oriented        oriented;

internalField   nonuniform List<scalar> 
3698
(
0.0491481
-0.000397738
0.0496567
-0.000507716
0.0501057
-0.00044803
0.0504825
-0.000375916
0.0507989
-0.0003155
0.0510615
-0.000261705
0.0512761
-0.000213774
0.0514507
-0.000173636
0.0515931
-0.000141487
0.0517099
-0.000115903
0.0518061
-9.52725e-05
0.0518854
-7.83694e-05
0.0519507
-6.42808e-05
0.0520039
-5.22234e-05
0.0520464
-4.1513e-05
0.052079
-3.15304e-05
0.0521017
-2.17186e-05
0.0521143
-1.15097e-05
0.0521156
-2.81716e-07
0.0521041
1.26356e-05
0.0520772
2.79573e-05
0.0520317
4.66272e-05
0.051963
6.98379e-05
0.051865
9.91299e-05
0.0517298
0.000136442
0.0515467
0.000184273
0.0513021
0.000245775
0.0509784
0.000324961
0.0505527
0.00042683
0.0499964
0.000557581
0.0492729
0.000724691
0.0483371
0.000936977
0.047134
0.00120434
0.045598
0.00153721
0.043654
0.0019452
0.0412204
0.00243489
0.0382156
0.00300594
0.0345713
0.00364549
0.0302518
0.00432067
0.0252828
0.00497025
0.0197845
0.00549935
0.0140052
0.00578047
0.00833633
0.00567021
0.00333009
0.00500762
-0.000225043
0.00355661
-0.00107327
0.000849518
-0.00107286
0.138538
-0.000185337
0.138409
-0.000377287
0.138378
-0.000415789
0.138407
-0.000403714
0.138474
-0.000381558
0.138565
-0.000352012
0.138669
-0.000316583
0.138777
-0.000280277
0.138883
-0.000246534
0.138985
-0.000216142
0.139079
-0.000188746
0.139166
-0.00016388
0.139244
-0.000141082
0.139313
-0.000119801
0.139372
-9.93774e-05
0.139421
-7.90795e-05
0.139459
-5.80926e-05
0.139484
-3.54906e-05
0.139496
-1.01728e-05
0.13949
1.91976e-05
0.139466
5.42994e-05
0.139416
9.72453e-05
0.139337
0.000150755
0.139219
0.000218323
0.139053
0.000304473
0.138823
0.000415033
0.138513
0.000557536
0.138098
0.000741652
0.137547
0.000979769
0.136818
0.00128762
0.13586
0.00168499
0.134602
0.00219646
0.132956
0.00285197
0.130807
0.00368699
0.128012
0.00474198
0.124389
0.00606007
0.119714
0.00768228
0.113723
0.00963798
0.106116
0.011929
0.0965847
0.0145034
0.0848676
0.0172181
0.0708659
0.0197838
0.0548303
0.0217078
0.0376456
0.0221946
0.0210296
0.0201753
0.00760577
0.0142762
0.00653296
0.218663
-9.8494e-05
0.218537
-0.000249857
0.218435
-0.00031308
0.218359
-0.000327232
0.218304
-0.000325106
0.218267
-0.00031404
0.218246
-0.000294912
0.218237
-0.000271059
0.218238
-0.000246017
0.218244
-0.000221441
0.218254
-0.00019765
0.218265
-0.000174569
0.218277
-0.00015201
0.218288
-0.000129613
0.218296
-0.000106809
0.218301
-8.28441e-05
0.218301
-5.6782e-05
0.218294
-2.74588e-05
0.218278
6.58339e-06
0.218251
4.72002e-05
0.218209
9.6771e-05
0.218149
0.000158364
0.218065
0.000235952
0.21795
0.000334703
0.217794
0.000461339
0.217586
0.000624606
0.217308
0.00083588
0.216941
0.00110993
0.216456
0.00146589
0.215817
0.00192845
0.214973
0.00252933
0.213862
0.00330899
0.212396
0.00431859
0.210463
0.00562203
0.207908
0.00729773
0.20453
0.00943949
0.200058
0.0121552
0.194136
0.0155611
0.186298
0.0197677
0.175953
0.0248492
0.162382
0.0307904
0.144789
0.0373781
0.122439
0.0440585
0.0950088
0.0496265
0.0630858
0.0520999
0.0290137
0.0483485
0.0355472
0.288713
-6.08443e-05
0.28863
-0.000166771
0.288546
-0.000228376
0.288473
-0.000253597
0.28841
-0.000260996
0.288355
-0.000258769
0.288309
-0.000248558
0.288271
-0.000232438
0.288239
-0.000213247
0.288211
-0.000192873
0.288187
-0.000172024
0.288164
-0.000150838
0.288142
-0.00012924
0.28812
-0.000106947
0.288097
-8.34268e-05
0.288073
-5.78976e-05
0.288046
-2.93241e-05
0.288016
3.62432e-06
0.287981
4.26613e-05
0.287939
8.99946e-05
0.287888
0.000148481
0.287825
0.000221829
0.287747
0.00031487
0.287649
0.000433908
0.287524
0.000587183
0.287364
0.000785464
0.287158
0.00104284
0.286891
0.00137774
0.286543
0.00181422
0.286089
0.00238372
0.285492
0.0031272
0.284704
0.0040979
0.283659
0.00536487
0.282264
0.0070172
0.280394
0.00916912
0.277868
0.0119658
0.274435
0.0155893
0.269735
0.0202625
0.263253
0.0262502
0.254258
0.0338446
0.241714
0.0433356
0.224192
0.0549006
0.199781
0.0684709
0.166214
0.0831944
0.121205
0.0971087
0.0638651
0.10569
0.0994113
0.348729
-4.00409e-05
0.348677
-0.000113565
0.348614
-0.000164699
0.348552
-0.000191649
0.348495
-0.000202764
0.348441
-0.000204456
0.348392
-0.000198951
0.348348
-0.000187732
0.348308
-0.000172795
0.348271
-0.00015579
0.348237
-0.000137541
0.348206
-0.000118299
0.348175
-9.80412e-05
0.348145
-7.65289e-05
0.348116
-5.32736e-05
0.348086
-2.7515e-05
0.348055
1.79232e-06
0.348024
3.60267e-05
0.34799
7.69837e-05
0.347954
0.000126999
0.347914
0.000189114
0.347869
0.000267293
0.347818
0.000366718
0.347759
0.000494173
0.347688
0.00065855
0.347603
0.000871523
0.347498
0.00114843
0.347367
0.00150945
0.347201
0.00198113
0.346987
0.00259848
0.346707
0.00340765
0.346336
0.00446959
0.345837
0.00586483
0.345155
0.00769996
0.344209
0.0101161
0.342875
0.0133001
0.340965
0.0174997
0.338187
0.0230415
0.334082
0.030356
0.32793
0.0399976
0.31858
0.0526857
0.304233
0.069248
0.28196
0.0907449
0.247407
0.117748
0.193256
0.151261
0.11097
0.187973
0.210382
0.398737
-2.68126e-05
0.398701
-7.73717e-05
0.398653
-0.000115925
0.398601
-0.000139157
0.398549
-0.000150201
0.398498
-0.00015311
0.39845
-0.000149946
0.398404
-0.000141862
0.398362
-0.000130176
0.398323
-0.000116132
0.398287
-0.000100485
0.398252
-8.35176e-05
0.39822
-6.52333e-05
0.398189
-4.5428e-05
0.39816
-2.36695e-05
0.398133
7.30686e-07
0.398106
2.8743e-05
0.398081
6.16651e-05
0.398058
0.000101203
0.398036
0.000149586
0.398016
0.000209732
0.397998
0.000285452
0.397984
0.000381743
0.397974
0.000505157
0.397969
0.000664312
0.39797
0.000870553
0.397981
0.00113885
0.398002
0.00148898
0.398036
0.00194716
0.398087
0.0025482
0.398157
0.00333848
0.398247
0.00437999
0.398357
0.00575603
0.398479
0.007579
0.398594
0.0100016
0.398662
0.0132324
0.398603
0.0175595
0.398263
0.0233819
0.397356
0.0312635
0.395363
0.0419911
0.391316
0.0567335
0.383529
0.0770358
0.36865
0.105624
0.341635
0.144764
0.290271
0.202624
0.203545
0.2747
0.413928
0.438741
-1.73818e-05
0.438714
-5.0558e-05
0.438676
-7.70429e-05
0.438631
-9.41477e-05
0.438584
-0.000102775
0.438537
-0.000105128
0.43849
-0.000102722
0.438445
-9.64379e-05
0.438403
-8.7134e-05
0.438363
-7.56622e-05
0.438325
-6.26074e-05
0.438291
-4.82209e-05
0.438258
-3.25115e-05
0.438229
-1.53074e-05
0.438202
3.75041e-06
0.438178
2.52365e-05
0.438157
4.99683e-05
0.43814
7.9048e-05
0.438128
0.000113931
0.438122
0.000156524
0.438123
0.000209328
0.438133
0.000275615
0.438156
0.000359681
0.438195
0.000467171
0.438254
0.000605519
0.438341
0.000784541
0.438463
0.00101723
0.438632
0.00132081
0.438861
0.00171825
0.43917
0.00224021
0.439581
0.00292791
0.440125
0.003837
0.440838
0.00504317
0.441768
0.00665021
0.442968
0.00880189
0.444501
0.0116994
0.446433
0.0156288
0.448814
0.0210009
0.451656
0.028422
0.454864
0.0387839
0.45809
0.0535081
0.460485
0.0746407
0.459775
0.106335
0.451046
0.153493
0.41697
0.236701
0.322097
0.369574
0.736025
0.468743
-9.95733e-06
0.468722
-2.90561e-05
0.46869
-4.45264e-05
0.468651
-5.46156e-05
0.468608
-5.94342e-05
0.468563
-6.00418e-05
0.468518
-5.73687e-05
0.468474
-5.20097e-05
0.468432
-4.44873e-05
0.468392
-3.53163e-05
0.468355
-2.48763e-05
0.46832
-1.33413e-05
0.468289
-7.12443e-07
0.468261
1.31425e-05
0.468237
2.84899e-05
0.468217
4.575e-05
0.468202
6.55215e-05
0.468193
8.86127e-05
0.468191
0.000116091
0.468199
0.000149359
0.468219
0.00019025
0.468254
0.00024117
0.468309
0.000305274
0.46839
0.000386712
0.468505
0.000490957
0.468665
0.000625244
0.468883
0.000799165
0.469179
0.00102549
0.469577
0.00132127
0.470108
0.00170943
0.470816
0.00222092
0.471755
0.00289787
0.473001
0.00379808
0.47465
0.00500176
0.476831
0.00662149
0.479713
0.00881765
0.483521
0.0118223
0.488544
0.0159779
0.495168
0.0217986
0.503876
0.0300768
0.515328
0.0420561
0.530224
0.0597454
0.550047
0.0865123
0.57619
0.12735
0.620469
0.192423
0.718008
0.272036
0.434515
1.01952
0.488744
-3.60993e-06
0.488726
-1.05127e-05
0.488697
-1.58227e-05
0.488662
-1.86638e-05
0.488622
-1.89759e-05
0.488579
-1.71663e-05
0.488536
-1.36596e-05
0.488493
-8.7456e-06
0.488452
-2.66402e-06
0.488413
4.35434e-06
0.488376
1.21359e-05
0.488343
2.06036e-05
0.488313
2.97698e-05
0.488287
3.97188e-05
0.488265
5.06052e-05
0.488248
6.26654e-05
0.488238
7.62303e-05
0.488236
9.17434e-05
0.488243
0.000109787
0.488261
0.000131121
0.488295
0.000156737
0.488349
0.00018793
0.488429
0.000226396
0.488541
0.000274361
0.488698
0.000334757
0.488913
0.000411459
0.489203
0.000509607
0.489593
0.000636048
0.490115
0.000799947
0.490811
0.00101364
0.491739
0.00129386
0.492974
0.00166347
0.494618
0.00215403
0.496811
0.0028096
0.49974
0.00369258
0.503666
0.00489276
0.508947
0.00654134
0.516091
0.00883507
0.52582
0.0120698
0.539183
0.0167142
0.557783
0.0234561
0.584074
0.0334553
0.622572
0.0480144
0.680788
0.0691353
0.775207
0.098004
0.921967
0.125277
0.191273
1.16521
0.498744
2.23872e-06
0.498728
6.63812e-06
0.498701
1.09976e-05
0.498668
1.53854e-05
0.498629
1.98113e-05
0.498588
2.42915e-05
0.498546
2.88415e-05
0.498504
3.34803e-05
0.498464
3.82293e-05
0.498425
4.31119e-05
0.49839
4.81527e-05
0.498358
5.33784e-05
0.498329
5.88177e-05
0.498305
6.45015e-05
0.498285
7.04628e-05
0.498272
7.67369e-05
0.498265
8.33618e-05
0.498267
9.03779e-05
0.498279
9.78296e-05
0.498305
0.000105765
0.498348
0.000114235
0.498414
0.0001233
0.498507
0.000133022
0.498639
0.000143476
0.498819
0.000154745
0.499065
0.000166926
0.499395
0.000180136
0.499837
0.000194518
0.500427
0.000210247
0.501214
0.000227552
0.502261
0.000246731
0.503657
0.000268188
0.505519
0.000292479
0.508009
0.000320394
0.511349
0.000353073
0.51585
0.000392211
0.521952
0.000440381
0.530286
0.000501597
0.541774
0.000582288
0.557795
0.000693189
0.580399
0.000852195
0.612763
0.00109249
0.659312
0.00146484
0.726362
0.00208622
0.821322
0.00304396
0.941806
0.00479322
0.00717917
1.1259
0.498744
8.03652e-06
0.498728
2.36387e-05
0.498702
3.7569e-05
0.498668
4.90848e-05
0.49863
5.8145e-05
0.49859
6.51893e-05
0.498549
7.06725e-05
0.498508
7.49225e-05
0.498468
7.82214e-05
0.498431
8.08458e-05
0.498396
8.30183e-05
0.498365
8.48685e-05
0.498338
8.64412e-05
0.498315
8.77129e-05
0.498298
8.85941e-05
0.498286
8.89183e-05
0.498281
8.84291e-05
0.498285
8.67633e-05
0.4983
8.34254e-05
0.498329
7.77493e-05
0.498375
6.88467e-05
0.498443
5.55354e-05
0.498541
3.62458e-05
0.498676
8.89375e-06
0.49886
-2.92906e-05
0.49911
-8.19937e-05
0.499445
-0.000154132
0.499892
-0.000252283
0.500488
-0.000385274
0.501281
-0.00056502
0.502336
-0.000807689
0.50374
-0.0011354
0.505612
-0.00157869
0.508113
-0.00218021
0.511467
-0.00300029
0.515986
-0.00412575
0.52211
-0.0056833
0.530475
-0.00786287
0.542007
-0.0109496
0.558096
-0.015395
0.580806
-0.0218579
0.613349
-0.0314501
0.660198
-0.0453835
0.727755
-0.0654714
0.823476
-0.0926765
0.944715
-0.116444
-0.178459
1.13035
0.488744
1.42329e-05
0.488726
4.17356e-05
0.488699
6.55284e-05
0.488664
8.399e-05
0.488626
9.72469e-05
0.488585
0.00010639
0.488544
0.000112377
0.488503
0.000115843
0.488464
0.000117348
0.488428
0.000117454
0.488395
0.000116586
0.488365
0.00011497
0.48834
0.000112662
0.488318
0.000109589
0.488302
0.000105546
0.488291
0.000100181
0.488287
9.29651e-05
0.488291
8.31687e-05
0.488305
6.98051e-05
0.488332
5.15632e-05
0.488375
2.67039e-05
0.488438
-7.07056e-06
0.488527
-5.27997e-05
0.488651
-0.000114502
0.48882
-0.000197504
0.489048
-0.00030887
0.489352
-0.000457998
0.489758
-0.000657422
0.490297
-0.000923923
0.491013
-0.00128006
0.491962
-0.00175635
0.493221
-0.00239434
0.494894
-0.00325108
0.49712
-0.00440575
0.50009
-0.00596954
0.504066
-0.00810086
0.509412
-0.0110291
0.516642
-0.0150927
0.526494
-0.0208007
0.540038
-0.0289382
0.558918
-0.0407383
0.58567
-0.058201
0.624964
-0.0846773
0.684639
-0.125147
0.781761
-0.189798
0.933282
-0.267966
-0.429936
1.18476
0.468743
2.14063e-05
0.468723
6.24962e-05
0.468692
9.68126e-05
0.468654
0.000121789
0.468614
0.000138341
0.468572
0.0001487
0.46853
0.00015441
0.46849
0.000156386
0.468452
0.000155526
0.468418
0.000152724
0.468386
0.000148609
0.468358
0.000143482
0.468334
0.000137401
0.468314
0.000130252
0.468298
0.000121732
0.468287
0.000111331
0.468283
9.82965e-05
0.468285
8.15982e-05
0.468295
5.98562e-05
0.468316
3.12438e-05
0.46835
-6.65106e-06
0.4684
-5.7007e-05
0.468472
-0.000124016
0.468572
-0.000213209
0.468706
-0.000331897
0.468888
-0.000489757
0.46913
-0.000699623
0.469452
-0.000978555
0.469878
-0.0013493
0.470441
-0.00184231
0.471183
-0.0024985
0.472163
-0.00337319
0.473454
-0.00454169
0.475156
-0.00610731
0.4774
-0.00821326
0.48036
-0.0110602
0.484265
-0.0149334
0.489416
-0.0202436
0.496214
-0.0275977
0.505166
-0.03789
0.51698
-0.0525514
0.532422
-0.0736436
0.553135
-0.10539
0.580741
-0.152752
0.627899
-0.236957
0.731694
-0.37176
-0.748142
1.0499
0.438741
3.04888e-05
0.438716
8.82824e-05
0.438679
0.000133986
0.438637
0.000164394
0.438593
0.00018265
0.438549
0.000192829
0.438507
0.000197024
0.438468
0.000196417
0.438431
0.000192365
0.438398
0.000186148
0.438369
0.000178565
0.438343
0.00016994
0.438321
0.000160327
0.438302
0.000149568
0.438287
0.000137288
0.438276
0.000122851
0.438269
0.000105351
0.438268
8.35469e-05
0.438272
5.58061e-05
0.438284
1.99617e-05
0.438305
-2.68204e-05
0.438337
-8.82799e-05
0.438383
-0.000169319
0.438447
-0.000276408
0.438533
-0.000418058
0.43865
-0.000605523
0.438804
-0.000853655
0.439009
-0.00118214
0.439277
-0.00161706
0.439628
-0.00219314
0.440087
-0.00295665
0.440684
-0.00396952
0.441458
-0.00531503
0.442457
-0.00710566
0.443739
-0.00949437
0.44537
-0.0126905
0.44742
-0.0169832
0.449951
-0.0227744
0.452987
-0.0306325
0.45645
-0.0413534
0.460024
-0.0561244
0.462899
-0.0765187
0.462847
-0.105338
0.455004
-0.144909
0.421796
-0.203748
0.327239
-0.277203
-0.420903
0.398737
4.32726e-05
0.398703
0.00012317
0.398657
0.000180593
0.398608
0.000213838
0.39856
0.000231255
0.398514
0.000239281
0.398471
0.00024017
0.398433
0.000235435
0.398398
0.0002271
0.398368
0.000216854
0.398342
0.000205555
0.398319
0.000193496
0.398299
0.000180692
0.398282
0.000166953
0.398268
0.000151833
0.398257
0.000134623
0.398249
0.000114325
0.398243
8.96177e-05
0.398241
5.87573e-05
0.398242
1.94699e-05
0.398247
-3.12303e-05
0.398257
-9.72395e-05
0.398272
-0.000183679
0.398293
-0.000297259
0.398323
-0.000446812
0.398362
-0.000643943
0.398413
-0.000903943
0.398478
-0.00124694
0.398561
-0.00169947
0.398665
-0.00229654
0.398794
-0.00308441
0.398949
-0.00412416
0.399131
-0.00549666
0.399335
-0.00730904
0.399545
-0.00970334
0.399723
-0.012868
0.399793
-0.0170532
0.399609
-0.0225896
0.398892
-0.0299146
0.397132
-0.0395933
0.393372
-0.0523637
0.385934
-0.0690804
0.371451
-0.0908538
0.344853
-0.118311
0.293691
-0.152586
0.206888
-0.1904
-0.214016
0.34873
6.35402e-05
0.348679
0.00017481
0.348618
0.000241669
0.348561
0.000272122
0.348508
0.000284725
0.34846
0.000287705
0.348418
0.000282724
0.348382
0.000271889
0.348352
0.00025806
0.348326
0.000243161
0.348304
0.000227924
0.348286
0.00021253
0.34827
0.00019693
0.348257
0.000180886
0.348245
0.000163895
0.348235
0.000145224
0.348226
0.000123869
0.348218
9.85513e-05
0.34821
6.75881e-05
0.348201
2.88292e-05
0.348191
-2.05534e-05
0.348179
-8.4206e-05
0.348163
-0.000166931
0.348141
-0.000274971
0.348112
-0.000416549
0.348071
-0.000602389
0.348014
-0.000846593
0.347936
-0.00116758
0.347826
-0.0015895
0.347675
-0.00214387
0.347463
-0.00287188
0.347166
-0.00382711
0.34675
-0.00507917
0.346159
-0.00671797
0.345316
-0.00885909
0.344098
-0.0116496
0.34232
-0.0152746
0.339693
-0.0199616
0.33576
-0.0259818
0.329805
-0.0336371
0.320673
-0.0432315
0.306554
-0.0549606
0.284481
-0.0687802
0.250028
-0.083857
0.195679
-0.0982366
0.112604
-0.107325
-0.101412
0.288713
0.000100561
0.288633
0.000256082
0.288551
0.000323369
0.288483
0.000341514
0.288425
0.000343319
0.288377
0.000336145
0.288339
0.000320903
0.288311
0.000300943
0.28829
0.000279835
0.288275
0.000259247
0.288264
0.000239538
0.288256
0.000220645
0.288251
0.000202424
0.288248
0.000184525
0.288247
0.000166429
0.288245
0.000147389
0.288243
0.000126522
0.28824
0.000102671
0.288234
7.44289e-05
0.288224
3.99396e-05
0.288207
-3.11584e-06
0.288181
-5.78045e-05
0.288143
-0.000128046
0.288088
-0.000219019
0.28801
-0.000337401
0.2879
-0.00049198
0.287749
-0.000694121
0.28754
-0.000958696
0.287257
-0.00130491
0.286871
-0.00175767
0.286349
-0.00234895
0.285643
-0.00311969
0.284686
-0.00412165
0.283388
-0.00541976
0.281624
-0.00709375
0.279215
-0.00923947
0.275908
-0.0119676
0.271346
-0.0153982
0.265011
-0.0196468
0.256169
-0.0247944
0.243772
-0.0308332
0.226369
-0.0375575
0.202008
-0.0444177
0.168352
-0.0502007
0.123011
-0.052895
0.0649846
-0.0492976
-0.0364271
0.218664
0.000186684
0.21854
0.000381522
0.218441
0.000422748
0.21837
0.000413272
0.218321
0.000393611
0.218291
0.000366493
0.218279
0.000333448
0.218282
0.000299503
0.218294
0.000268116
0.218314
0.000240097
0.218339
0.00021511
0.218368
0.000192711
0.218399
0.000172452
0.218431
0.000153808
0.218462
0.000136132
0.218492
0.000118717
0.218518
0.000100764
0.218541
8.13719e-05
0.218557
5.94464e-05
0.218564
3.36658e-05
0.218559
2.35863e-06
0.218539
-3.65766e-05
0.218498
-8.58564e-05
0.218429
-0.000148961
0.218323
-0.000230428
0.218168
-0.000336105
0.217949
-0.000473579
0.217644
-0.000652596
0.217225
-0.00088568
0.216657
-0.00118875
0.215891
-0.00158189
0.214863
-0.00209009
0.213486
-0.0027439
0.211647
-0.00357962
0.209193
-0.00463885
0.205921
-0.00596623
0.201559
-0.00760474
0.195748
-0.00958611
0.188017
-0.0119148
0.177765
-0.0145412
0.164256
-0.0173237
0.146671
-0.0199714
0.124239
-0.0219849
0.0965928
-0.0225529
0.0642804
-0.0205812
0.0296421
-0.0146584
-0.00678475
0.138539
0.000398328
0.138411
0.000509759
0.138384
0.000451333
0.138418
0.000380333
0.138491
0.000320918
0.138591
0.000268055
0.138704
0.000221009
0.138823
0.000181729
0.138942
0.00015042
0.139057
0.000125676
0.139167
0.000105888
0.139271
8.98512e-05
0.139368
7.66489e-05
0.139458
6.5518e-05
0.139539
5.577e-05
0.139612
4.68075e-05
0.139676
3.80703e-05
0.139729
2.90208e-05
0.139771
1.90653e-05
0.139798
7.52614e-06
0.139808
-6.42234e-06
0.139796
-2.37063e-05
0.139757
-4.54884e-05
0.139683
-7.32747e-05
0.139563
-0.00010904
0.139383
-0.000155286
0.139126
-0.000215231
0.138767
-0.000292928
0.138276
-0.00039349
0.137612
-0.000523223
0.136721
-0.00068981
0.135535
-0.00090229
0.133963
-0.00117093
0.131891
-0.00150656
0.129173
-0.00191937
0.125624
-0.00241654
0.121019
-0.00299844
0.115087
-0.00365275
0.10752
-0.00434685
0.0979992
-0.00501885
0.0862486
-0.00557193
0.0721532
-0.0058747
0.0559482
-0.0057784
0.0385139
-0.00511694
0.0215866
-0.00365226
0.00783829
-0.000908748
0.00105375
0.0491486
0.0496587
0.0501104
0.050491
0.0508123
0.0510807
0.0513021
0.0514842
0.0516349
0.051761
0.0518672
0.0519575
0.0520345
0.0521004
0.0521566
0.0522038
0.0522422
0.0522717
0.0522911
0.0522991
0.0522931
0.0522698
0.0522247
0.0521519
0.0520433
0.0518884
0.0516736
0.0513811
0.0509881
0.0504653
0.0497759
0.0488741
0.0477036
0.0461974
0.0442785
0.0418624
0.0388644
0.035212
0.0308656
0.0258471
0.0202755
0.0144012
0.00862328
0.00350675
-0.000145217
-0.00105375
0.747252
0.272269
0.606464
0.140789
0.514757
0.0917089
0.450088
0.0646698
0.403929
0.0461598
0.0354189
0.368509
1.26939
0.168086
1.30421
0.105973
1.31291
0.0830037
1.30478
0.072805
1.287
0.0639424
0.0606795
1.26173
1.28206
0.0119254
1.36883
0.0191998
1.42477
0.0270629
1.463
0.0345752
1.48463
0.0423111
0.0511556
1.49416
1.28644
-0.144165
1.37098
-0.0653433
1.42462
-0.0265761
1.46245
-0.00325387
1.48608
0.0186825
0.0375353
1.49969
1.29491
-0.25432
1.34104
-0.11147
1.37166
-0.057204
1.39324
-0.0248372
1.4088
0.00312111
0.0258798
1.42045
0.795579
0.684106
0.626899
0.602058
0.605175
0.631051
-0.000496009
0.000494713
-0.00157142
0.00107208
-0.00285595
0.00128146
-0.00414476
0.00128598
-0.0053397
0.00119239
-0.00635185
0.00100976
-0.00710118
0.000747032
-0.00754425
0.000440696
-0.00770016
0.000153316
-0.00765643
-4.65471e-05
-0.00754621
-0.000113125
-0.00750496
-4.39983e-05
-0.00762845
0.000121113
-0.00795088
0.00032072
-0.00844467
0.00049295
-0.00903461
0.000589922
-0.00962238
0.00058853
-0.0101187
0.000497689
-0.0104719
0.000355129
-0.0106776
0.000208317
-0.0107632
8.87556e-05
-0.0107588
-5.43491e-07
-0.0106788
-7.56551e-05
-0.0105214
-0.000152353
-0.0102816
-0.000234031
-0.00996208
-0.000313195
-0.00957449
-0.000380782
-0.009135
-0.000432242
-0.00866057
-0.000466898
-0.00816808
-0.000484766
-0.00767408
-0.000486243
-0.00719355
-0.000472729
-0.00673869
-0.000446818
-0.00631784
-0.000412178
-0.00593527
-0.000373422
-0.00559162
-0.00033468
-0.00528504
-0.000297828
-0.00501202
-0.000263267
-0.00476701
-0.000233536
-0.00454147
-0.000213879
-0.00432601
-0.000205366
-0.00411382
-0.00020176
-0.00390153
-0.000201631
-0.00368818
-0.000206325
-0.00347974
-0.000202857
-0.00327126
-0.000202135
-0.000246671
-0.00207729
0.00256872
-0.00536982
0.00435694
-0.00881372
0.00471842
-0.0120318
0.00449781
-0.0148388
0.00399352
-0.0170938
0.00325935
-0.0187049
0.00235271
-0.0196652
0.00139551
-0.0200806
0.000562599
-0.0201625
2.87686e-05
-0.0201803
-0.00010228
-0.0203835
0.000152921
-0.020928
0.000660339
-0.0218383
0.00122755
-0.0230178
0.00167076
-0.0242891
0.00186139
-0.0254537
0.00175497
-0.0263559
0.00140306
-0.0269271
0.000930586
-0.0271895
0.000475981
-0.0272151
0.000120533
-0.0270692
-0.000138728
-0.0267795
-0.000356142
-0.0263426
-0.000578384
-0.0257521
-0.000812279
-0.025018
-0.00103379
-0.0241675
-0.00121665
-0.0232345
-0.0013498
-0.0222519
-0.00143341
-0.0212509
-0.0014693
-0.0202614
-0.00145884
-0.0193105
-0.00140634
-0.018419
-0.00132021
-0.0176009
-0.00121134
-0.0168635
-0.00109113
-0.0162084
-0.000969513
-0.0156319
-0.00085292
-0.0151261
-0.000746029
-0.0146788
-0.00065642
-0.0142744
-0.000593118
-0.0138969
-0.000556691
-0.0135343
-0.000540292
-0.0131753
-0.000542269
-0.0128076
-0.000556332
-0.0124351
-0.000560151
-0.0120452
-0.000579826
-0.000631367
-0.00405813
0.00662385
-0.0095821
0.00987487
-0.0148099
0.00994062
-0.0193971
0.00907983
-0.0232404
0.00783195
-0.0262643
0.00627874
-0.02843
0.00451391
-0.0297737
0.00273415
-0.0304445
0.00122768
-0.0307138
0.000291252
-0.0309285
0.000105812
-0.0314118
0.000630041
-0.0323521
0.00159612
-0.0337522
0.00262436
-0.03545
0.00336711
-0.0371875
0.0035991
-0.0386968
0.00326585
-0.0397845
0.00249288
-0.0403875
0.00153643
-0.0405744
0.000666289
-0.0404793
3.03577e-05
-0.0402117
-0.000400234
-0.0398068
-0.000753524
-0.0392444
-0.00113183
-0.0385008
-0.00154545
-0.037585
-0.00193804
-0.0365364
-0.00225292
-0.0354019
-0.00247123
-0.0342219
-0.00259981
-0.033032
-0.00264522
-0.0318674
-0.00260913
-0.0307608
-0.00249845
-0.0297377
-0.00232862
-0.0288138
-0.00211942
-0.0279972
-0.00189063
-0.0272898
-0.00165957
-0.0266875
-0.00143811
-0.0261798
-0.0012351
-0.0257507
-0.00106352
-0.0253815
-0.000939049
-0.0250526
-0.000864578
-0.0247442
-0.000829048
-0.0244372
-0.000829729
-0.0241201
-0.000859618
-0.0237832
-0.000879302
-0.0234483
-0.000904324
-0.00094323
-0.00628065
0.0129029
-0.0136276
0.0172177
-0.019803
0.0161117
-0.0248945
0.0141667
-0.0290835
0.0120164
-0.0324379
0.0096284
-0.0349665
0.00703755
-0.0366788
0.00444098
-0.0376665
0.0022094
-0.0381716
0.000790156
-0.0385782
0.000506242
-0.0392991
0.00134539
-0.0406001
0.00289312
-0.0424882
0.00450951
-0.0447398
0.00561718
-0.0470048
0.00586374
-0.0489245
0.00518612
-0.0502447
0.00381446
-0.0509019
0.00219558
-0.0510358
0.000802661
-0.0508895
-0.000112557
-0.0506478
-0.000636951
-0.0503466
-0.00104758
-0.0499118
-0.00155747
-0.0492669
-0.00218057
-0.0484068
-0.002788
-0.0473907
-0.00325809
-0.0462882
-0.00356217
-0.0451465
-0.00372948
-0.0440002
-0.00377912
-0.0428873
-0.00370946
-0.0418472
-0.00352564
-0.0409101
-0.00325246
-0.040093
-0.00292268
-0.0394046
-0.00256473
-0.0388478
-0.00220148
-0.0384192
-0.00185066
-0.0381076
-0.00152881
-0.0378958
-0.00125629
-0.0377632
-0.00105298
-0.037685
-0.000923972
-0.0376346
-0.000861313
-0.0375893
-0.000860095
-0.0375303
-0.000903767
-0.037451
-0.000948204
-0.0373649
-0.000973938
-0.000998845
-0.00866586
0.021567
-0.0164149
0.0249637
-0.0215941
0.0212869
-0.0255579
0.0181258
-0.0289414
0.0153942
-0.0319479
0.0126289
-0.0346115
0.00969458
-0.0368466
0.00666989
-0.0385486
0.0039046
-0.0397464
0.00198182
-0.0407058
0.00145936
-0.0419033
0.00253874
-0.0437675
0.0047532
-0.046368
0.00710729
-0.049436
0.00868277
-0.0525136
0.00894009
-0.0551153
0.00778695
-0.056888
0.00558706
-0.0577533
0.00306085
-0.0579511
0.00100131
-0.0579057
-0.000154863
-0.0579397
-0.00059657
-0.058081
-0.00089717
-0.0581332
-0.00149576
-0.0578968
-0.00240726
-0.0573358
-0.00333888
-0.0565593
-0.00402422
-0.05569
-0.00442097
-0.0547861
-0.00462217
-0.0538713
-0.00468203
-0.052984
-0.00458419
-0.0521778
-0.00431923
-0.0514932
-0.00392498
-0.0509474
-0.00345585
-0.0505466
-0.00295146
-0.0502954
-0.00243716
-0.0501937
-0.00193621
-0.0502314
-0.00147483
-0.0503893
-0.00108157
-0.0506439
-0.000781021
-0.0509674
-0.000584178
-0.0513256
-0.00048865
-0.0516895
-0.000484805
-0.0520416
-0.000543199
-0.0523597
-0.000612051
-0.0526552
-0.000674876
-0.000714671
-0.0102833
0.03185
-0.0134462
0.0281247
-0.0131698
0.0210073
-0.0132345
0.0181854
-0.0141186
0.0162718
-0.0157721
0.0142745
-0.0182462
0.0121609
-0.0214492
0.00986513
-0.0250397
0.00748892
-0.0285594
0.00549527
-0.0317173
0.00461197
-0.0347504
0.00556453
-0.0381697
0.00816571
-0.0421431
0.0110738
-0.0464749
0.013009
-0.0507182
0.0131799
-0.0543399
0.0114075
-0.056922
0.00817002
-0.0583501
0.00449111
-0.0589195
0.0015745
-0.0592914
0.000222255
-0.0600452
0.000164255
-0.061208
0.000274685
-0.0623495
-0.000343601
-0.0630234
-0.00172206
-0.0631233
-0.00322828
-0.0628648
-0.00427147
-0.0624876
-0.00478633
-0.062067
-0.00503164
-0.0615914
-0.00514661
-0.061098
-0.00506605
-0.0606756
-0.00472891
-0.0603884
-0.00419847
-0.0602518
-0.0035781
-0.0602641
-0.00292424
-0.0604305
-0.00225511
-0.0607575
-0.00159324
-0.0612382
-0.000977588
-0.0618516
-0.000451555
-0.0625692
-4.81565e-05
-0.0633558
0.000214909
-0.0641706
0.00033685
-0.0649791
0.000332985
-0.065755
0.000239989
-0.0664744
0.000106097
-0.0671196
-2.12031e-05
-0.00012233
0.0183787
0.0134704
0.0334892
0.0130124
0.0409393
0.0135551
0.044268
0.0148536
0.0446968
0.015839
0.0426551
0.0163117
0.0383765
0.016435
0.0319747
0.0162625
0.0236402
0.015818
0.0138716
0.015256
0.00353912
0.0149331
-0.00615596
0.0152467
-0.0144162
0.0164141
-0.021408
0.0180562
-0.027565
0.0191604
-0.0331172
0.0187298
-0.0380431
0.0163351
-0.0421548
0.0122856
-0.0452527
0.00759505
-0.0474163
0.00374473
-0.0493966
0.00221005
-0.0520587
0.00283711
-0.0554406
0.00366922
-0.0588023
0.00303131
-0.061372
0.000860151
-0.0628974
-0.00168873
-0.0637548
-0.00340044
-0.0644138
-0.00411617
-0.0649752
-0.00446047
-0.0653348
-0.00477676
-0.0655115
-0.00487611
-0.0656772
-0.00454767
-0.0659621
-0.00389739
-0.0663826
-0.00314169
-0.0669204
-0.00236971
-0.0675845
-0.00157395
-0.0683982
-0.000762301
-0.0693665
6.70047e-06
-0.070466
0.000662497
-0.0716585
0.00115684
-0.0728991
0.00146701
-0.0741427
0.00158905
-0.0753504
0.0015433
-0.0764847
0.00137335
-0.0775032
0.00113092
-0.078409
0.000880493
0.000698275
0.349026
0.0329525
0.328344
0.0336934
0.306792
0.0351074
0.284357
0.0372882
0.260654
0.0395407
0.235649
0.0413143
0.209644
0.0424384
0.183012
0.0428931
0.156158
0.0426697
0.129637
0.041775
0.104321
0.040245
0.0814109
0.0381505
0.0621847
0.0356318
0.0473621
0.0328694
0.0365324
0.0299844
0.0283035
0.0269586
0.0209775
0.023669
0.0132365
0.0200407
0.0045832
0.0162653
-0.00468047
0.0130233
-0.0138968
0.011439
-0.0227746
0.0117234
-0.0313762
0.0122773
-0.03929
0.0109531
-0.0456897
0.00727375
-0.0502336
0.00287145
-0.0536802
6.26514e-05
-0.056827
-0.000953535
-0.0597112
-0.00156267
-0.0619984
-0.00247508
-0.0635793
-0.00328003
-0.0648046
-0.00330531
-0.0660103
-0.00267304
-0.0672532
-0.00187904
-0.0684941
-0.0011092
-0.0697552
-0.000293787
-0.0711059
0.000605419
-0.0725832
0.00149893
-0.074173
0.00226597
-0.0758325
0.00282741
-0.0775101
0.00315156
-0.0791577
0.00323937
-0.0807322
0.00311633
-0.082183
0.00281852
-0.0834614
0.00239741
-0.0845643
0.00197989
0.00169691
1.23087
0.0638195
1.19486
0.0696958
1.15405
0.075922
1.10903
0.0823009
1.05998
0.0885976
1.00694
0.0943454
0.950132
0.0992517
0.889821
0.103204
0.826363
0.106129
0.760194
0.107944
0.691866
0.10857
0.622073
0.10794
0.551695
0.106006
0.481806
0.102756
0.413566
0.098225
0.348043
0.0924869
0.286062
0.0856573
0.228211
0.0779
0.175042
0.0694413
0.127502
0.0605673
0.0873175
0.0516252
0.0560388
0.0430025
0.033304
0.0350142
0.0166257
0.0276376
0.00316513
0.0207441
-0.00882003
0.0148709
-0.0198044
0.0110639
-0.0297649
0.00902415
-0.0384869
0.00717894
-0.0453955
0.00445339
-0.050249
0.00159461
-0.0538517
0.000319927
-0.0570029
0.000499836
-0.0598438
0.000983824
-0.0622828
0.0013518
-0.0643835
0.00182735
-0.0663711
0.00260973
-0.0684061
0.00354813
-0.0705111
0.00438063
-0.0726399
0.0049625
-0.0747429
0.00525596
-0.0767822
0.0052739
-0.0787229
0.00504465
-0.0805082
0.00458775
-0.0820625
0.00393762
-0.0833732
0.00327577
0.00285687
1.49674
0.0612364
1.49452
0.0719123
1.48777
0.0826699
1.47656
0.0935124
1.46081
0.104349
1.4402
0.11495
1.41432
0.125133
1.38275
0.134771
1.34515
0.143736
1.30123
0.151867
1.25082
0.158977
1.1939
0.164855
1.13062
0.169285
1.0613
0.172074
0.986464
0.173063
0.906814
0.172141
0.823234
0.169244
0.736782
0.164362
0.648699
0.15753
0.560433
0.148837
0.473641
0.138418
0.390163
0.126476
0.311862