/*--------------------------------*- C++ -*----------------------------------*\
| =========                 |                                                 |
| \\      /  F ield         | OpenFOAM: The Open Source CFD Toolbox           |
|  \\    /   O peration     | Version:  2406                                  |
|   \\  /    A nd           | Website:  www.openfoam.com                      |
|    \\/     M anipulation  |                                                 |
\*---------------------------------------------------------------------------*/
FoamFile
{
    version     2.0;
    format      ascii;
    arch        "LSB;label=32;scalar=64";
    class       volVectorField;
    location    "153";
    object      U;
}
// * * * * * * * * * * * * * * * * * * * * * * * * * * * * * * * * * * * * * //

dimensions      [0 1 -1 0 0 0 0];

internalField   nonuniform List<vector> 
1916
(
(0.489391 -0.00256025 0)
(0.494051 -0.00388311 0)
(0.498825 -0.00317215 0)
(0.50304 -0.00226266 0)
(0.506522 -0.00162266 0)
(0.509394 -0.00116449 0)
(0.511764 -0.000814618 0)
(0.513701 -0.000560141 0)
(0.515274 -0.000386689 0)
(0.51656 -0.000269698 0)
(0.517617 -0.000188363 0)
(0.518488 -0.00013002 0)
(0.519207 -8.69968e-05 0)
(0.519796 -5.36589e-05 0)
(0.520273 -2.56247e-05 0)
(0.520647 5.21869e-07 0)
(0.520924 2.74824e-05 0)
(0.521102 5.77759e-05 0)
(0.521175 9.41025e-05 0)
(0.521128 0.000139285 0)
(0.520942 0.000196163 0)
(0.520589 0.000268443 0)
(0.520029 0.000361016 0)
(0.519211 0.000480294 0)
(0.518064 0.000634354 0)
(0.516498 0.000833508 0)
(0.514393 0.00109064 0)
(0.511594 0.00142185 0)
(0.507903 0.00184675 0)
(0.503063 0.00238876 0)
(0.496752 0.00307469 0)
(0.488566 0.00393361 0)
(0.478006 0.0049937 0)
(0.464469 0.00627683 0)
(0.447251 0.00778861 0)
(0.42556 0.00950332 0)
(0.398561 0.011342 0)
(0.365473 0.0131461 0)
(0.325727 0.0146534 0)
(0.279207 0.0154963 0)
(0.226577 0.0152597 0)
(0.169636 0.013613 0)
(0.111493 0.0104987 0)
(0.0566993 0.00600683 0)
(0.0123345 -0.000401641 0)
(-0.00994081 -0.0115641 0)
(-0.0110375 -0.0158731 0)
(1.38541 -0.00241319 0)
(1.38418 -0.00488406 0)
(1.38388 -0.0052938 0)
(1.38388 -0.00494773 0)
(1.3843 -0.00447039 0)
(1.38512 -0.00395502 0)
(1.38614 -0.00341738 0)
(1.38722 -0.00290596 0)
(1.3883 -0.00245624 0)
(1.38935 -0.00207315 0)
(1.39033 -0.00174726 0)
(1.39125 -0.0014681 0)
(1.39207 -0.00122664 0)
(1.39281 -0.00101414 0)
(1.39345 -0.000821778 0)
(1.39399 -0.000640879 0)
(1.39443 -0.000462937 0)
(1.39475 -0.00027908 0)
(1.39493 -7.95305e-05 0)
(1.39497 0.000146896 0)
(1.39483 0.000413199 0)
(1.39447 0.000735561 0)
(1.39385 0.00113442 0)
(1.39288 0.00163595 0)
(1.39149 0.00227357 0)
(1.38955 0.00309024 0)
(1.3869 0.00414087 0)
(1.38334 0.00549566 0)
(1.37859 0.00724346 0)
(1.3723 0.00949596 0)
(1.36401 0.0123914 0)
(1.35311 0.0160977 0)
(1.33883 0.0208133 0)
(1.32016 0.0267632 0)
(1.29584 0.0341855 0)
(1.26423 0.043304 0)
(1.22335 0.0542745 0)
(1.17073 0.0670958 0)
(1.10355 0.081471 0)
(1.01868 0.0966094 0)
(0.913098 0.110991 0)
(0.784664 0.122105 0)
(0.633456 0.12638 0)
(0.464153 0.119013 0)
(0.289074 0.0944717 0)
(0.138702 0.0466837 0)
(0.0194567 0.00630517 0)
(2.1861 -0.00131206 0)
(2.18552 -0.0029403 0)
(2.18501 -0.00349304 0)
(2.18409 -0.00354277 0)
(2.18326 -0.00345809 0)
(2.18276 -0.00330364 0)
(2.18251 -0.00307858 0)
(2.18239 -0.00281442 0)
(2.18236 -0.00254687 0)
(2.18239 -0.00229126 0)
(2.18248 -0.00204868 0)
(2.18259 -0.00181693 0)
(2.18271 -0.00159356 0)
(2.18283 -0.001375 0)
(2.18293 -0.0011559 0)
(2.18299 -0.000929398 0)
(2.18302 -0.000687144 0)
(2.18299 -0.000418946 0)
(2.18288 -0.000112136 0)
(2.18267 0.000249234 0)
(2.18234 0.000685598 0)
(2.18184 0.00122325 0)
(2.18114 0.00189623 0)
(2.18016 0.00274864 0)
(2.17883 0.00383773 0)
(2.17704 0.00523777 0)
(2.17466 0.00704506 0)
(2.1715 0.00938409 0)
(2.16731 0.0124153 0)
(2.16179 0.0163443 0)
(2.15451 0.0214329 0)
(2.14492 0.0280111 0)
(2.13227 0.0364898 0)
(2.11559 0.0473707 0)
(2.09356 0.061251 0)
(2.06446 0.0788129 0)
(2.02596 0.100787 0)
(1.97498 0.127864 0)
(1.90748 0.160525 0)
(1.81822 0.198721 0)
(1.70063 0.241372 0)
(1.54699 0.285482 0)
(1.349 0.325094 0)
(1.10052 0.349465 0)
(0.799649 0.343415 0)
(0.470299 0.288292 0)
(0.119385 0.197639 0)
(2.88646 -0.000757589 0)
(2.88625 -0.0019441 0)
(2.88604 -0.00259859 0)
(2.88526 -0.00286352 0)
(2.8844 -0.00293668 0)
(2.88376 -0.00289879 0)
(2.88329 -0.00277129 0)
(2.88289 -0.00258229 0)
(2.88254 -0.00236485 0)
(2.88224 -0.00213952 0)
(2.88198 -0.00191366 0)
(2.88175 -0.00168864 0)
(2.88152 -0.00146364 0)
(2.88131 -0.00123579 0)
(2.88108 -0.000999691 0)
(2.88085 -0.000747616 0)
(2.8806 -0.000469503 0)
(2.88032 -0.000152597 0)
(2.88 0.00021932 0)
(2.87962 0.000667019 0)
(2.87916 0.00121727 0)
(2.8786 0.00190468 0)
(2.87791 0.0027742 0)
(2.87704 0.00388436 0)
(2.87594 0.00531147 0)
(2.87454 0.00715509 0)
(2.87274 0.00954512 0)
(2.87042 0.0126508 0)
(2.86741 0.0166925 0)
(2.86347 0.0219562 0)
(2.85832 0.0288125 0)
(2.85153 0.0377388 0)
(2.84255 0.0493472 0)
(2.83061 0.0644161 0)
(2.81465 0.0839246 0)
(2.79317 0.109084 0)
(2.76409 0.141359 0)
(2.72443 0.182451 0)
(2.66996 0.234215 0)
(2.59465 0.298406 0)
(2.48987 0.376195 0)
(2.34364 0.466968 0)
(2.13924 0.566758 0)
(1.85627 0.663729 0)
(1.468 0.736716 0)
(0.969365 0.745162 0)
(0.313561 0.643159 0)
(3.48664 -0.000488935 0)
(3.4866 -0.00134134 0)
(3.48658 -0.00190757 0)
(3.486 -0.00219178 0)
(3.48525 -0.00229837 0)
(3.48463 -0.0023006 0)
(3.48414 -0.00222595 0)
(3.48369 -0.00209361 0)
(3.48327 -0.00192626 0)
(3.48289 -0.00174137 0)
(3.48254 -0.00154718 0)
(3.48221 -0.00134591 0)
(3.4819 -0.00113701 0)
(3.4816 -0.000917801 0)
(3.4813 -0.000683096 0)
(3.48101 -0.000425093 0)
(3.48071 -0.000133226 0)
(3.4804 0.000206272 0)
(3.48008 0.000611242 0)
(3.47973 0.00110481 0)
(3.47935 0.00171699 0)
(3.47893 0.00248683 0)
(3.47846 0.00346533 0)
(3.47791 0.00471912 0)
(3.47727 0.00633546 0)
(3.47651 0.00842871 0)
(3.47557 0.0111488 0)
(3.47442 0.0146924 0)
(3.47296 0.0193175 0)
(3.4711 0.0253627 0)
(3.46869 0.0332721 0)
(3.46552 0.043628 0)
(3.46129 0.0571934 0)
(3.45555 0.0749662 0)
(3.44765 0.0982492 0)
(3.43662 0.128736 0)
(3.42096 0.168618 0)
(3.39836 0.220692 0)
(3.36526 0.288486 0)
(3.31606 0.376273 0)
(3.24181 0.489049 0)
(3.12875 0.631667 0)
(2.95388 0.808144 0)
(2.68462 1.01596 0)
(2.26114 1.24422 0)
(1.62496 1.45798 0)
(0.573064 1.59141 0)
(3.98675 -0.000328384 0)
(3.98678 -0.000925275 0)
(3.98687 -0.00136516 0)
(3.98644 -0.00162242 0)
(3.98578 -0.00174308 0)
(3.9852 -0.00177436 0)
(3.98472 -0.00173864 0)
(3.98427 -0.00164924 0)
(3.98383 -0.00152154 0)
(3.98342 -0.00136955 0)
(3.98304 -0.00120151 0)
(3.98269 -0.00102057 0)
(3.98236 -0.00082688 0)
(3.98204 -0.000618372 0)
(3.98175 -0.00039055 0)
(3.98146 -0.00013622 0)
(3.98119 0.000154748 0)
(3.98094 0.000495884 0)
(3.9807 0.00090495 0)
(3.98047 0.00140515 0)
(3.98026 0.00202677 0)
(3.98007 0.0028094 0)
(3.97991 0.00380484 0)
(3.97979 0.00508099 0)
(3.97971 0.00672702 0)
(3.97969 0.00886018 0)
(3.97975 0.0116348 0)
(3.97991 0.0152546 0)
(3.98019 0.0199884 0)
(3.98063 0.0261921 0)
(3.98124 0.0343377 0)
(3.98206 0.0450527 0)
(3.98308 0.0591734 0)
(3.98429 0.0778189 0)
(3.98557 0.102492 0)
(3.98666 0.135217 0)
(3.98699 0.178739 0)
(3.98552 0.236781 0)
(3.9802 0.314443 0)
(3.96738 0.418612 0)
(3.94006 0.558938 0)
(3.88657 0.747589 0)
(3.78305 1.00342 0)
(3.59356 1.34044 0)
(3.23869 1.80034 0)
(2.61851 2.31093 0)
(1.28329 2.88645 0)
(4.38682 -0.000218453 0)
(4.38688 -0.000623831 0)
(4.38703 -0.000941675 0)
(4.38669 -0.00114502 0)
(4.38612 -0.00124937 0)
(4.38558 -0.00128114 0)
(4.38512 -0.00125732 0)
(4.38468 -0.0011886 0)
(4.38424 -0.00108586 0)
(4.38382 -0.0009594 0)
(4.38343 -0.00081605 0)
(4.38307 -0.000658757 0)
(4.38274 -0.000487734 0)
(4.38243 -0.000301138 0)
(4.38215 -9.50018e-05 0)
(4.38189 0.000137041 0)
(4.38167 0.000404044 0)
(4.38148 0.000718191 0)
(4.38133 0.00109555 0)
(4.38124 0.00155716 0)
(4.38121 0.00213057 0)
(4.38126 0.00285184 0)
(4.38142 0.00376824 0)
(4.38172 0.00494187 0)
(4.3822 0.00645443 0)
(4.38292 0.00841368 0)
(4.38395 0.010962 0)
(4.38539 0.014288 0)
(4.38735 0.0186423 0)
(4.39001 0.0243587 0)
(4.39357 0.0318843 0)
(4.39829 0.0418199 0)
(4.40451 0.0549782 0)
(4.41265 0.0724655 0)
(4.42322 0.0958011 0)
(4.43682 0.12709 0)
(4.4541 0.169283 0)
(4.47572 0.226558 0)
(4.50205 0.304967 0)
(4.53315 0.413198 0)
(4.56659 0.564758 0)
(4.60005 0.778248 0)
(4.61222 1.08975 0)
(4.60553 1.53699 0)
(4.39154 2.26213 0)
(4.25584 3.39987 0)
(1.45274 5.92566 0)
(4.68687 -0.000135557 0)
(4.68695 -0.000389554 0)
(4.68713 -0.000594477 0)
(4.68685 -0.00073008 0)
(4.68633 -0.000799841 0)
(4.68583 -0.000817519 0)
(4.68539 -0.000794487 0)
(4.68496 -0.000738369 0)
(4.68453 -0.000656101 0)
(4.68411 -0.000554263 0)
(4.68373 -0.000437543 0)
(4.68337 -0.000308108 0)
(4.68304 -0.000166068 0)
(4.68274 -9.90886e-06 0)
(4.68248 0.000163516 0)
(4.68226 0.000359217 0)
(4.68208 0.000584348 0)
(4.68196 0.000848581 0)
(4.6819 0.00116472 0)
(4.68193 0.00154955 0)
(4.68206 0.00202512 0)
(4.68233 0.0026203 0)
(4.68277 0.00337297 0)
(4.68344 0.00433298 0)
(4.6844 0.00556602 0)
(4.68575 0.00715889 0)
(4.68762 0.0092266 0)
(4.69015 0.011922 0)
(4.69357 0.0154491 0)
(4.69815 0.0200812 0)
(4.70425 0.0261867 0)
(4.71238 0.034265 0)
(4.72316 0.0449993 0)
(4.73744 0.059332 0)
(4.75633 0.0785788 0)
(4.78133 0.104599 0)
(4.81437 0.140066 0)
(4.85806 0.188874 0)
(4.91565 0.256847 0)
(4.99209 0.352754 0)
(5.09148 0.490608 0)
(5.22815 0.691603 0)
(5.39173 0.996076 0)
(5.68546 1.45518 0)
(5.90724 2.24283 0)
(7.17852 3.31648 0)
(7.38183 6.446 0)
(4.88689 -6.7427e-05 0)
(4.88698 -0.000193615 0)
(4.88718 -0.000294699 0)
(4.88694 -0.00035857 0)
(4.88646 -0.000385111 0)
(4.88599 -0.000380529 0)
(4.88556 -0.000350951 0)
(4.88515 -0.000300734 0)
(4.88473 -0.00023366 0)
(4.88432 -0.00015332 0)
(4.88394 -6.23923e-05 0)
(4.88359 3.78372e-05 0)
(4.88327 0.000147367 0)
(4.88299 0.000267255 0)
(4.88275 0.000399606 0)
(4.88255 0.000547726 0)
(4.88242 0.000716306 0)
(4.88235 0.000911685 0)
(4.88237 0.00114224 0)
(4.88249 0.00141894 0)
(4.88275 0.00175615 0)
(4.88318 0.00217269 0)
(4.88383 0.00269324 0)
(4.88478 0.00335024 0)
(4.8861 0.00418645 0)
(4.88793 0.00525844 0)
(4.89041 0.00664124 0)
(4.89376 0.00843477 0)
(4.89825 0.0107727 0)
(4.90425 0.0138349 0)
(4.91225 0.0178647 0)
(4.9229 0.0231942 0)
(4.93709 0.0302806 0)
(4.95599 0.0397607 0)
(4.98121 0.0525327 0)
(5.01496 0.0698838 0)
(5.06029 0.0936879 0)
(5.12147 0.126738 0)
(5.20447 0.17324 0)
(5.3184 0.239808 0)
(5.4751 0.336554 0)
(5.69892 0.480482 0)
(6.00991 0.696509 0)
(6.50684 1.02327 0)
(7.17622 1.53085 0)
(8.43668 2.10694 0)
(10.0643 3.30475 0)
(4.98691 -6.91544e-06 0)
(4.987 -1.80976e-05 0)
(4.9872 -2.17806e-05 0)
(4.98698 -1.357e-05 0)
(4.98653 6.93794e-06 0)
(4.98607 3.81152e-05 0)
(4.98566 7.81546e-05 0)
(4.98525 0.000125754 0)
(4.98484 0.000179822 0)
(4.98444 0.000239346 3.79387e-33)
(4.98407 0.000303601 0)
(4.98373 0.000372324 0)
(4.98342 0.000445706 0)
(4.98316 0.000524319 0)
(4.98294 0.000609112 0)
(4.98277 0.000701459 3.79243e-33)
(4.98267 0.000803229 0)
(4.98264 0.000916877 0)
(4.98271 0.00104558 0)
(4.98289 0.00119345 0)
(4.98323 0.00136578 0)
(4.98376 0.00156945 0)
(4.98454 0.0018134 0)
(4.98565 0.00210934 -3.78533e-33)
(4.98718 0.0024726 0)
(4.98928 0.0029234 0)
(4.99211 0.0034885 0)
(4.99591 0.00420351 0)
(5.00099 0.00511603 0)
(5.00777 0.00629016 0)
(5.01681 0.00781282 0)
(5.02884 0.0098029 0)
(5.04488 0.0124247 0)
(5.0663 0.0159082 0)
(5.09498 0.0205794 0)
(5.13356 0.0269095 0)
(5.18569 0.0355884 0)
(5.25665 0.0476583 0)
(5.35402 0.0646879 0)
(5.4891 0.0892136 0)
(5.6786 0.124919 0)
(5.94794 0.178449 -2.94538e-33)
(6.33478 0.256715 0)
(6.88786 0.37284 0)
(7.68772 0.523977 0)
(8.73531 0.661871 0)
(10.2157 0.767955 0)
(4.98691 5.09229e-05 0)
(4.987 0.000150074 0)
(4.98721 0.000240945 0)
(4.98699 0.00032048 0)
(4.98654 0.000388473 0)
(4.98609 0.000446882 0)
(4.98568 0.000497819 0)
(4.98528 0.00054297 0)
(4.98488 0.000583855 0)
(4.98449 0.000621947 -3.79357e-33)
(4.98413 0.00065847 0)
(4.9838 0.000694217 0)
(4.98351 0.000729573 0)
(4.98326 0.000764582 0)
(4.98305 0.000798954 0)
(4.9829 0.000832022 -3.79224e-33)
(4.98282 0.000862673 0)
(4.98281 0.000889264 0)
(4.98291 0.000909497 0)
(4.98312 0.000920224 0)
(4.98348 0.000917188 0)
(4.98404 0.000894666 0)
(4.98485 0.000844999 0)
(4.986 0.000757948 3.78601e-33)
(4.98757 0.000619837 0)
(4.98971 0.000412391 0)
(4.99258 0.000111162 0)
(4.99644 -0.000316639 0)
(5.00157 -0.000915115 0)
(5.00842 -0.00174387 0)
(5.01752 -0.00288392 0)
(5.02963 -0.00444623 0)
(5.04575 -0.00658416 0)
(5.06728 -0.00951219 0)
(5.09609 -0.0135341 0)
(5.13482 -0.019088 0)
(5.18715 -0.0268141 0)
(5.25837 -0.0376771 0)
(5.35611 -0.0531222 0)
(5.49173 -0.0754827 0)
(5.68208 -0.108099 0)
(5.95274 -0.156997 2.94765e-33)
(6.342 -0.228041 0)
(6.89857 -0.332035 0)
(7.70563 -0.463294 0)
(8.75958 -0.563394 0)
(10.2544 -0.612866 0)
(4.8869 0.000110434 0)
(4.88698 0.000322612 0)
(4.88719 0.000508897 0)
(4.88696 0.000658492 0)
(4.88649 0.000771463 0)
(4.88603 0.000854337 0)
(4.88563 0.000913536 0)
(4.88523 0.000953799 0)
(4.88484 0.000979323 0)
(4.88446 0.000994153 0)
(4.88411 0.00100145 0)
(4.88379 0.00100303 0)
(4.88352 0.000999441 0)
(4.88328 0.000990239 0)
(4.88309 0.000973954 0)
(4.88295 0.000947974 0)
(4.88287 0.000908337 0)
(4.88287 0.000849499 0)
(4.88296 0.000763934 0)
(4.88316 0.000641592 0)
(4.8835 0.000469109 0)
(4.88402 0.000228784 0)
(4.88477 -0.000102838 0)
(4.88582 -0.00055682 0)
(4.88726 -0.00117437 0)
(4.88921 -0.00201024 0)
(4.89183 -0.00313733 0)
(4.89533 -0.00465301 0)
(4.89998 -0.00668782 0)
(4.90617 -0.00941761 0)
(4.91437 -0.0130807 0)
(4.92525 -0.0180023 0)
(4.9397 -0.0246307 0)
(4.9589 -0.0335898 0)
(4.98449 -0.0457602 0)
(5.01869 -0.0624034 0)
(5.06458 -0.085356 0)
(5.12651 -0.117356 0)
(5.21052 -0.162524 0)
(5.32593 -0.227348 0)
(5.48485 -0.321728 0)
(5.71226 -0.462382 0)
(6.02923 -0.673639 0)
(6.53695 -0.993171 0)
(7.22613 -1.49019 0)
(8.51914 -2.04095 0)
(10.2148 -3.20947 0)
(4.68687 0.000176573 0)
(4.68695 0.00051262 0)
(4.68714 0.000798791 0)
(4.68688 0.00101609 0)
(4.68638 0.00116816 0)
(4.68591 0.00126905 0)
(4.6855 0.00133041 0)
(4.6851 0.00136025 0)
(4.68471 0.00136589 0)
(4.68434 0.00135435 0)
(4.68401 0.00133078 0)
(4.68371 0.00129784 0)
(4.68345 0.00125618 0)
(4.68323 0.00120486 0)
(4.68305 0.00114135 0)
(4.68292 0.00106127 0)
(4.68284 0.000958179 0)
(4.68282 0.00082314 0)
(4.68288 0.000644146 0)
(4.68303 0.00040526 0)
(4.6833 8.53771e-05 0)
(4.68372 -0.000343354 0)
(4.68432 -0.000917729 0)
(4.68516 -0.00168635 0)
(4.68631 -0.00271354 0)
(4.68787 -0.00408453 0)
(4.68996 -0.00591258 0)
(4.69274 -0.00834845 0)
(4.69643 -0.0115937 0)
(4.70131 -0.0159186 0)
(4.70775 -0.0216878 0)
(4.71624 -0.0293963 0)
(4.72744 -0.0397212 0)
(4.74221 -0.0535972 0)
(4.76169 -0.0723299 0)
(4.78738 -0.0977661 0)
(4.82128 -0.13256 0)
(4.86608 -0.180588 0)
(4.92514 -0.247647 0)
(5.00363 -0.342486 0)
(5.10592 -0.479116 0)
(5.24718 -0.678771 0)
(5.41717 -0.982118 0)
(5.72463 -1.44052 0)
(5.96203 -2.23218 0)
(7.29755 -3.30643 0)
(7.55279 -6.49883 0)
(4.38683 0.000256504 0)
(4.38689 0.000738067 0)
(4.38705 0.00113128 0)
(4.38673 0.00141034 0)
(4.38619 0.00159084 0)
(4.38568 0.00169948 0)
(4.38526 0.00175355 0)
(4.38487 0.00176404 0)
(4.38449 0.00174223 0)
(4.38414 0.0016988 0)
(4.38383 0.00164104 0)
(4.38355 0.00157235 0)
(4.38331 0.00149344 0)
(4.3831 0.00140299 0)
(4.38293 0.00129761 0)
(4.3828 0.00117151 0)
(4.38271 0.0010163 0)
(4.38267 0.00082043 0)
(4.38269 0.000568589 0)
(4.38277 0.000240461 0)
(4.38293 -0.00019065 0)
(4.38319 -0.000759953 0)
(4.38357 -0.00151374 0)
(4.38411 -0.0025131 0)
(4.38486 -0.0038386 0)
(4.38586 -0.00559681 0)
(4.3872 -0.00792876 0)
(4.38897 -0.0110217 0)
(4.39131 -0.0151245 0)
(4.39437 -0.0205694 0)
(4.39838 -0.0278015 0)
(4.4036 -0.0374196 0)
(4.41039 -0.0502342 0)
(4.41918 -0.0673499 0)
(4.43049 -0.0902846 0)
(4.44497 -0.121143 0)
(4.46332 -0.162882 0)
(4.48627 -0.21969 0)
(4.51429 -0.29765 0)
(4.5476 -0.405513 0)
(4.58397 -0.556942 0)
(4.62157 -0.770773 0)
(4.63912 -1.08391 0)
(4.64106 -1.53479 0)
(4.43402 -2.27056 0)
(4.32026 -3.43044 0)
(1.46965 -6.04063 0)
(3.98676 0.000362522 0)
(3.98679 0.00102787 0)
(3.9869 0.00153538 0)
(3.98649 0.00186045 0)
(3.98587 0.00204914 0)
(3.98533 0.00214893 0)
(3.9849 0.00218246 0)
(3.98451 0.00216337 0)
(3.98415 0.00210738 0)
(3.98382 0.00202885 0)
(3.98354 0.00193644 0)
(3.98329 0.00183369 0)
(3.98308 0.00172123 0)
(3.9829 0.00159743 0)
(3.98275 0.00145833 0)
(3.98262 0.00129723 0)
(3.98252 0.00110457 0)
(3.98245 0.000867408 0)
(3.98241 0.0005686 0)
(3.98241 0.00018558 0)
(3.98244 -0.000311256 0)
(3.98251 -0.000960784 0)
(3.98263 -0.00181403 0)
(3.98282 -0.00293811 0)
(3.98307 -0.00442136 0)
(3.98341 -0.00638022 0)
(3.98386 -0.00896824 0)
(3.98444 -0.0123883 0)
(3.98519 -0.0169086 0)
(3.98613 -0.0228847 0)
(3.9873 -0.0307883 0)
(3.98873 -0.0412476 0)
(3.99044 -0.0551006 0)
(3.99242 -0.0734695 0)
(3.99458 -0.0978634 0)
(3.99668 -0.130319 0)
(3.9982 -0.1736 0)
(3.99814 -0.231465 0)
(3.99452 -0.309077 0)
(3.9838 -0.413429 0)
(3.95906 -0.554365 0)
(3.90876 -0.744356 0)
(3.80901 -1.00291 0)
(3.62382 -1.34472 0)
(3.27277 -1.81388 0)
(2.65444 -2.33713 0)
(1.30823 -2.93032 0)
(3.48664 0.000518251 0)
(3.48661 0.00142962 0)
(3.48661 0.00205396 0)
(3.48606 0.00239624 0)
(3.48535 0.00256081 0)
(3.48479 0.00262123 0)
(3.48436 0.00260517 0)
(3.48399 0.00253216 0)
(3.48366 0.00242512 0)
(3.48337 0.00230191 0)
(3.48314 0.00217104 0)
(3.48294 0.00203518 0)
(3.48277 0.00189409 0)
(3.48263 0.00174556 0)
(3.48251 0.00158477 0)
(3.4824 0.00140441 0)
(3.48231 0.00119432 0)
(3.48222 0.000941284 0)
(3.48214 0.000627863 0)
(3.48206 0.000231553 0)
(3.48197 -0.000277237 0)
(3.48186 -0.000936917 0)
(3.48173 -0.00179803 0)
(3.48154 -0.00292654 0)
(3.4813 -0.00440933 0)
(3.48096 -0.00636016 0)
(3.48049 -0.00892878 0)
(3.47983 -0.0123116 0)
(3.47892 -0.0167671 0)
(3.47766 -0.0226342 0)
(3.4759 -0.0303589 0)
(3.47343 -0.0405258 0)
(3.46998 -0.0539026 0)
(3.46511 -0.0714943 0)
(3.45818 -0.0946155 0)
(3.44824 -0.124978 0)
(3.4338 -0.164802 0)
(3.41262 -0.216929 0)
(3.38112 -0.284958 0)
(3.33377 -0.373268 0)
(3.26161 -0.487027 0)
(3.15081 -0.631328 0)
(2.97819 -0.810554 0)
(2.71072 -1.02258 0)
(2.28733 -1.25702 0)
(1.64752 -1.47872 0)
(0.582234 -1.62275 0)
(2.88646 0.000781221 0)
(2.88627 0.00201553 0)
(2.88607 0.00271698 0)
(2.88533 0.00302846 0)
(2.88452 0.00314774 0)
(2.88394 0.00315581 0)
(2.88354 0.00307436 0)
(2.88324 0.00293173 0)
(2.88299 0.00276123 0)
(2.88281 0.0025837 0)
(2.88268 0.00240678 0)
(2.88259 0.00223214 0)
(2.88253 0.0020593 0)
(2.88249 0.00188567 0)
(2.88247 0.00170625 0)
(2.88246 0.00151361 0)
(2.88245 0.00129808 0)
(2.88242 0.00104723 0)
(2.88238 0.000745225 0)
(2.8823 0.0003716 0)
(2.88217 -9.9967e-05 0)
(2.88197 -0.000703743 0)
(2.88166 -0.00148428 0)
(2.88121 -0.00249986 0)
(2.88056 -0.00382653 0)
(2.87964 -0.00556381 0)
(2.87837 -0.00784163 0)
(2.87661 -0.0108298 0)
(2.87421 -0.0147493 0)
(2.87094 -0.019888 0)
(2.8665 -0.0266189 0)
(2.86049 -0.0354235 0)
(2.85236 -0.0469202 0)
(2.84135 -0.0618968 0)
(2.8264 -0.0813463 0)
(2.80603 -0.106501 0)
(2.77816 -0.138855 0)
(2.73982 -0.180154 0)
(2.68678 -0.232315 0)
(2.61298 -0.297176 0)
(2.50973 -0.376022 0)
(2.36491 -0.468368 0)
(2.16148 -0.570383 0)
(1.87854 -0.670257 0)
(1.48847 -0.746648 0)
(0.985159 -0.758109 0)
(0.320195 -0.656688 0)
(2.1861 0.00132925 0)
(2.18553 0.00299272 0)
(2.18505 0.00357972 0)
(2.18417 0.00366279 0)
(2.18339 0.00361058 0)
(2.18297 0.00348803 0)
(2.1828 0.00329461 0)
(2.18278 0.00306199 0)
(2.18285 0.00282613 0)
(2.18302 0.00260254 0)
(2.18325 0.00239261 0)
(2.18353 0.00219429 0)
(2.18383 0.00200545 0)
(2.18415 0.00182268 0)
(2.18446 0.00164095 0)
(2.18477 0.00145356 0)
(2.18506 0.00125252 0)
(2.18531 0.00102778 0)
(2.1855 0.000766963 0)
(2.18563 0.000454122 0)
(2.18565 6.91848e-05 0)
(2.18554 -0.000414037 0)
(2.18524 -0.00102922 0)
(2.18471 -0.00182052 0)
(2.18386 -0.00284504 0)
(2.18259 -0.00417743 0)
(2.18076 -0.00591421 0)
(2.1782 -0.00818082 0)
(2.17466 -0.0111388 0)
(2.16983 -0.0149959 0)
(2.16329 -0.0200169 0)
(2.1545 -0.0265365 0)
(2.14271 -0.0349718 0)
(2.12694 -0.0458343 0)
(2.1059 -0.0597341 0)
(2.07783 -0.0773725 0)
(2.04041 -0.0995045 0)
(1.99055 -0.126854 0)
(1.92415 -0.159941 0)
(1.83591 -0.198766 0)
(1.71915 -0.242291 0)
(1.56594 -0.287545 0)
(1.36768 -0.328543 0)
(1.11784 -0.354389 0)
(0.814029 -0.349583 0)
(0.479897 -0.29494 0)
(0.122515 -0.203569 0)
(1.38541 0.00242381 0)
(1.3842 0.00491668 0)
(1.38392 0.0053469 0)
(1.38397 0.00501989 0)
(1.38444 0.00456028 0)
(1.38533 0.00406175 0)
(1.38644 0.00354029 0)
(1.38762 0.00304465 0)
(1.38882 0.00261045 0)
(1.39 0.00224286 0)
(1.39113 0.00193256 0)
(1.39221 0.00166933 0)
(1.39321 0.0014442 0)
(1.39415 0.00124868 0)
(1.395 0.00107396 0)
(1.39578 0.000911653 0)
(1.39646 0.000753268 0)
(1.39705 0.000590245 0)
(1.39753 0.000412909 0)
(1.39788 0.00021026 0)
(1.39808 -3.12242e-05 0)
(1.39808 -0.000327671 0)
(1.39784 -0.000699532 0)
(1.39729 -0.00117268 0)
(1.39635 -0.00178084 0)
(1.39489 -0.00256705 0)
(1.39275 -0.00358695 0)
(1.38974 -0.0049113 0)
(1.38557 -0.00663044 0)
(1.37991 -0.00885761 0)
(1.37227 -0.0117339 0)
(1.36207 -0.0154307 0)
(1.34852 -0.0201517 0)
(1.33061 -0.0261285 0)
(1.30706 -0.033609 0)
(1.27622 -0.042828 0)
(1.23607 -0.053956 0)
(1.18411 -0.0670067 0)
(1.11745 -0.0816979 0)
(1.03286 -0.0972455 0)
(0.927197 -0.11212 0)
(0.798173 -0.12377 0)
(0.64569 -0.128538 0)
(0.4743 -0.121484 0)
(0.296308 -0.0969392 0)
(0.142669 -0.0486806 0)
(0.0202925 -0.00747401 0)
(0.489392 0.00256519 0)
(0.494061 0.00389571 0)
(0.498856 0.00318998 0)
(0.503104 0.00228406 0)
(0.50663 0.00164671 0)
(0.509555 0.00119078 0)
(0.511988 0.000842919 0)
(0.513996 0.000590339 0)
(0.515649 0.000418715 0)
(0.517023 0.000303581 0)
(0.518176 0.000224159 0)
(0.519152 0.000167843 0)
(0.519984 0.000126947 0)
(0.520696 9.58937e-05 0)
(0.521304 7.02881e-05 0)
(0.52182 4.67839e-05 0)
(0.522249 2.26747e-05 0)
(0.522589 -4.42636e-06 0)
(0.522837 -3.70293e-05 0)
(0.522978 -7.80193e-05 0)
(0.522994 -0.000130912 0)
(0.522856 -0.000199586 0)
(0.522525 -0.000288736 0)
(0.52195 -0.000404513 0)
(0.521062 -0.000555114 0)
(0.519771 -0.000750968 0)
(0.517956 -0.00100532 0)
(0.515463 -0.00133459 0)
(0.512091 -0.00175902 0)
(0.507582 -0.0023027 0)
(0.501611 -0.00299352 0)
(0.493767 -0.00386179 0)
(0.483542 -0.0049375 0)
(0.470321 -0.00624446 0)
(0.453383 -0.00779069 0)
(0.431911 -0.00955255 0)
(0.405041 -0.0114527 0)
(0.371956 -0.0133315 0)
(0.332043 -0.0149222 0)
(0.285148 -0.0158452 0)
(0.231904 -0.0156653 0)
(0.174112 -0.0140272 0)
(0.114931 -0.0108589 0)
(0.0590209 -0.00626451 0)
(0.0135984 0.000248877 0)
(-0.00946508 0.0115627 0)
(-0.0110747 0.0159621 0)
(9.18393 5.00533 0)
(7.86962 2.87935 0)
(5.59825 1.49088 0)
(4.41681 0.720925 0)
(4.10905 0.284494 0)
(3.89086 0.028254 0)
(12.3335 2.74089 0)
(13.2373 1.76536 0)
(13.2228 1.27332 0)
(13.0579 1.0639 0)
(12.9414 0.924227 0)
(12.7799 0.828205 0)
(11.9898 0.436612 0)
(13.381 0.158809 0)
(14.1343 0.14267 0)
(14.5109 0.230183 0)
(14.7549 0.309376 0)
(14.914 0.385332 0)
(12.0355 -0.173777 0)
(13.4151 0.241837 0)
(14.1466 0.398545 0)
(14.5021 0.45046 0)
(14.7514 0.519983 0)
(14.9424 0.616911 0)
(12.5466 -2.4904 0)
(13.5311 -1.31185 0)
(13.6848 -0.65661 0)
(13.7823 -0.327463 0)
(13.9835 -0.0719964 0)
(14.1639 0.156523 0)
(9.52959 -5.05121 0)
(8.48109 -2.91442 0)
(6.55755 -1.52917 0)
(5.74204 -0.752699 0)
(5.8467 -0.263711 0)
(6.1653 0.0934307 0)
(-0.00101329 0.000710777 0)
(-0.00987798 0.00190838 0)
(-0.0219925 0.00258605 0)
(-0.0351812 0.00280784 0)
(-0.0478139 0.0028508 0)
(-0.0590102 0.00265137 0)
(-0.0679147 0.00215588 0)
(-0.0738634 0.00140044 0)
(-0.0767138 0.000533858 0)
(-0.0770266 -0.000220113 0)
(-0.0759757 -0.000656215 0)
(-0.0749884 -0.000681058 0)
(-0.0752796 -0.000340099 0)
(-0.0775211 0.000229485 0)
(-0.0817294 0.00085463 0)
(-0.0873434 0.00136296 0)
(-0.0934294 0.00161959 0)
(-0.0989852 0.00157354 0)
(-0.103274 0.00128747 0)
(-0.106033 0.000906074 0)
(-0.107426 0.000566538 0)
(-0.107789 0.000321941 0)
(-0.107354 0.000138919 0)
(-0.106171 -4.38279e-05 0)
(-0.104184 -0.000255108 0)
(-0.101369 -0.000479502 0)
(-0.0978019 -0.000687349 0)
(-0.0936306 -0.000860255 0)
(-0.0890252 -0.000992683 0)
(-0.0841559 -0.00108236 0)
(-0.0791912 -0.00112811 0)
(-0.074291 -0.00113152 0)
(-0.0695933 -0.00109571 0)
(-0.0652026 -0.00102757 0)
(-0.0611816 -0.000940698 0)
(-0.0575527 -0.000851748 0)
(-0.0543072 -0.000769227 0)
(-0.0514187 -0.000686662 0)
(-0.0488445 -0.000601347 0)
(-0.0465129 -0.000538994 0)
(-0.0443251 -0.000522112 0)
(-0.0421934 -0.000521666 0)
(-0.0400732 -0.000508366 0)
(-0.0379602 -0.000501484 0)
(-0.0358726 -0.00046323 0)
(-0.03358 -0.000341042 0)
(-0.0311673 -0.000774826 0)
(-0.0060484 0.0125345 0)
(-0.0366788 0.023114 0)
(-0.0711393 0.0264106 0)
(-0.105137 0.026058 0)
(-0.135649 0.0238085 0)
(-0.16121 0.0199279 0)
(-0.180613 0.0146767 0)
(-0.193288 0.00876986 0)
(-0.199724 0.00333819 0)
(-0.201599 -0.000416479 0)
(-0.201474 -0.0017006 0)
(-0.202113 -0.000469049 0)
(-0.205672 0.00256618 0)
(-0.213076 0.00626324 0)
(-0.223902 0.00944628 0)
(-0.236646 0.0112061 0)
(-0.249258 0.0111145 0)
(-0.259827 0.00935274 0)
(-0.267193 0.00662752 0)
(-0.271204 0.00382174 0)
(-0.272469 0.0015286 0)
(-0.271772 -0.000179549 0)
(-0.269585 -0.00159309 0)
(-0.265969 -0.00300883 0)
(-0.260821 -0.00450186 0)
(-0.254145 -0.00594699 0)
(-0.246145 -0.00718012 0)
(-0.23715 -0.00811519 0)
(-0.227498 -0.0087386 0)
(-0.21751 -0.00905506 0)
(-0.207493 -0.00907314 0)
(-0.197736 -0.00881883 0)
(-0.188482 -0.00834203 0)
(-0.179912 -0.00770849 0)
(-0.17213 -0.00699205 0)
(-0.165176 -0.00626118 0)
(-0.159028 -0.00555938 0)
(-0.153633 -0.00491085 0)
(-0.148907 -0.00436161 0)
(-0.144702 -0.00397792 0)
(-0.140828 -0.00377006 0)
(-0.137135 -0.00367308 0)
(-0.133544 -0.00366992 0)
(-0.129902 -0.00374435 0)
(-0.126331 -0.00372111 0)
(-0.122651 -0.00387727 0)
(-0.117325 -0.00423629 0)
(-0.0132421 0.0426635 0)
(-0.0687887 0.0673419 0)
(-0.12332 0.0705122 0)
(-0.172912 0.065938 0)
(-0.215262 0.057721 0)
(-0.249714 0.0466451 0)
(-0.275616 0.0335506 0)
(-0.292853 0.0200887 0)
(-0.302313 0.00856607 0)
(-0.306185 0.00126163 0)
(-0.307763 -0.000475741 0)
(-0.310666 0.00310638 0)
(-0.317625 0.010155 0)
(-0.329617 0.0179593 0)
(-0.345714 0.0239322 0)
(-0.363601 0.0263003 0)
(-0.3804 0.0245055 0)
(-0.393618 0.0193224 0)
(-0.401942 0.0125228 0)
(-0.405558 0.00604703 0)
(-0.405722 0.00104541 0)
(-0.403795 -0.00252808 0)
(-0.400468 -0.00545531 0)
(-0.395694 -0.00843447 0)
(-0.389158 -0.0115952 0)
(-0.380778 -0.0146059 0)
(-0.370845 -0.0170821 0)
(-0.35983 -0.0188582 0)
(-0.348171 -0.0199467 0)
(-0.336239 -0.0203867 0)
(-0.324386 -0.020201 0)
(-0.31296 -0.0194449 0)
(-0.302258 -0.0182302 0)
(-0.292498 -0.0167039 0)
(-0.283799 -0.0150219 0)
(-0.276191 -0.0133212 0)
(-0.269644 -0.0116904 0)
(-0.264109 -0.0101927 0)
(-0.25949 -0.00892994 0)
(-0.255578 -0.00802703 0)
(-0.252111 -0.00748976 0)
(-0.248939 -0.00721914 0)
(-0.245927 -0.0072162 0)
(-0.242773 -0.00743864 0)
(-0.23966 -0.00758102 0)
(-0.236493 -0.00785008 0)
(-0.231723 -0.00829118 0)
(-0.0225398 0.0947069 0)
(-0.102963 0.132881 0)
(-0.170156 0.129414 0)
(-0.226062 0.116053 0)
(-0.272171 0.0990636 0)
(-0.309804 0.0790611 0)
(-0.339158 0.0569468 0)
(-0.36013 0.0349095 0)
(-0.37306 0.0162958 0)
(-0.379606 0.00466295 0)
(-0.383128 0.00230344 0)
(-0.388015 0.00889379 0)
(-0.397973 0.0211516 0)
(-0.41438 0.0341339 0)
(-0.435943 0.0433319 0)
(-0.459491 0.0459097 0)
(-0.48114 0.0412641 0)
(-0.497545 0.0310715 0)
(-0.507078 0.0186434 0)
(-0.510402 0.00746379 0)
(-0.509863 -0.000513548 0)
(-0.507831 -0.00564601 0)
(-0.505297 -0.00969053 0)
(-0.501813 -0.0141211 0)
(-0.496439 -0.0191543 0)
(-0.48878 -0.0240191 0)
(-0.479233 -0.0278969 0)
(-0.468521 -0.0305177 0)
(-0.457217 -0.0320099 0)
(-0.44569 -0.0324975 0)
(-0.434296 -0.032 0)
(-0.423441 -0.0305768 0)
(-0.413493 -0.0284137 0)
(-0.404701 -0.0257685 0)
(-0.39719 -0.0228905 0)
(-0.390973 -0.019982 0)
(-0.386024 -0.0171779 0)
(-0.38233 -0.0145983 0)
(-0.379814 -0.0124218 0)
(-0.378198 -0.0108311 0)
(-0.37714 -0.00984259 0)
(-0.376525 -0.00934909 0)
(-0.37618 -0.00935053 0)
(-0.375577 -0.00973973 0)
(-0.374935 -0.0100338 0)
(-0.374536 -0.0102189 0)
(-0.372787 -0.0105475 0)
(-0.0358001 0.174938 0)
(-0.134121 0.2134 0)
(-0.194494 0.190921 0)
(-0.237946 0.164647 0)
(-0.273883 0.138646 0)
(-0.305573 0.110969 0)
(-0.333929 0.0814181 0)
(-0.358487 0.0517927 0)
(-0.377992 0.0260849 0)
(-0.39182 0.00956016 0)
(-0.401555 0.00640912 0)
(-0.411475 0.0169704 0)
(-0.426603 0.0362583 0)
(-0.449512 0.0561386 0)
(-0.478981 0.0694298 0)
(-0.510986 0.0719723 0)
(-0.540329 0.0631945 0)
(-0.562371 0.0460257 0)
(-0.574842 0.0259256 0)
(-0.579016 0.00874248 0)
(-0.579005 -0.00216604 0)
(-0.578953 -0.00774057 0)
(-0.580357 -0.0117114 0)
(-0.581812 -0.0171355 0)
(-0.580967 -0.0243566 0)
(-0.576717 -0.0316402 0)
(-0.569739 -0.0372454 0)
(-0.561372 -0.0407465 0)
(-0.552447 -0.0426008 0)
(-0.543261 -0.0431282 0)
(-0.534117 -0.0422821 0)
(-0.525531 -0.0400661 0)
(-0.518008 -0.0367695 0)
(-0.511846 -0.0328098 0)
(-0.507143 -0.0285368 0)
(-0.503887 -0.0241996 0)
(-0.502072 -0.0199903 0)
(-0.501749 -0.0161059 0)
(-0.502859 -0.0127972 0)
(-0.505051 -0.0102965 0)
(-0.507928 -0.00867552 0)
(-0.511391 -0.00787012 0)
(-0.515186 -0.00781638 0)
(-0.518588 -0.00828302 0)
(-0.52187 -0.00875827 0)
(-0.525739 -0.00910124 0)
(-0.528346 -0.00944483 0)
(-0.0500199 0.269847 0)
(-0.134195 0.264301 0)
(-0.135713 0.209276 0)
(-0.131225 0.177603 0)
(-0.135643 0.150588 0)
(-0.1481 0.12395 0)
(-0.168587 0.0967604 0)
(-0.197102 0.0682111 0)
(-0.231416 0.0413516 0)
(-0.267167 0.0232022 0)
(-0.300488 0.0206617 0)
(-0.331526 0.0351139 0)
(-0.363897 0.0606148 0)
(-0.401224 0.0871079 0)
(-0.443739 0.104731 0)
(-0.487931 0.107163 0)
(-0.528288 0.0930218 0)
(-0.559377 0.0662383 0)
(-0.578188 0.0353014 0)
(-0.586263 0.010245 0)
(-0.589795 -0.00282286 0)
(-0.595727 -0.00609651 0)
(-0.606541 -0.00739178 0)
(-0.619058 -0.0129544 0)
(-0.628266 -0.0233388 0)
(-0.631595 -0.0347023 0)
(-0.630266 -0.0431289 0)
(-0.626935 -0.0477769 0)
(-0.622969 -0.0499749 0)