/*--------------------------------*- C++ -*----------------------------------*\
| =========                 |                                                 |
| \\      /  F ield         | OpenFOAM: The Open Source CFD Toolbox           |
|  \\    /   O peration     | Version:  2406                                  |
|   \\  /    A nd           | Website:  www.openfoam.com                      |
|    \\/     M anipulation  |                                                 |
\*---------------------------------------------------------------------------*/
FoamFile
{
    version     2.0;
    format      ascii;
    arch        "LSB;label=32;scalar=64";
    class       volScalarField;
    location    "87";
    object      p;
}
// * * * * * * * * * * * * * * * * * * * * * * * * * * * * * * * * * * * * * //

dimensions      [0 2 -2 0 0 0 0];

internalField   nonuniform List<scalar> 
1916
(
3.83652
3.83693
3.83686
3.83639
3.83575
3.835
3.83417
3.83328
3.83236
3.83141
3.83043
3.82945
3.82844
3.82743
3.82641
3.82538
3.82435
3.82331
3.82227
3.82123
3.82019
3.81915
3.81812
3.81709
3.81606
3.81505
3.81406
3.81309
3.81215
3.81125
3.81041
3.80964
3.80896
3.8084
3.80799
3.80777
3.80779
3.80809
3.80872
3.80972
3.81112
3.8129
3.81502
3.81735
3.81972
3.82183
3.82302
3.83769
3.83734
3.83692
3.83638
3.83572
3.83496
3.83413
3.83325
3.83233
3.83138
3.83041
3.82943
3.82843
3.82742
3.8264
3.82537
3.82434
3.82331
3.82227
3.82123
3.82018
3.81915
3.81811
3.81708
3.81605
3.81504
3.81405
3.81307
3.81213
3.81123
3.81038
3.80961
3.80892
3.80836
3.80795
3.80774
3.80778
3.80813
3.80883
3.80995
3.81151
3.81352
3.81589
3.81851
3.82115
3.82359
3.82502
3.83849
3.8376
3.83687
3.83631
3.83567
3.83491
3.83408
3.8332
3.83229
3.83135
3.83038
3.8294
3.82841
3.8274
3.82638
3.82535
3.82432
3.82329
3.82225
3.8212
3.82016
3.81912
3.81807
3.81703
3.816
3.81497
3.81396
3.81296
3.81198
3.81103
3.81013
3.80927
3.8085
3.80781
3.80726
3.80688
3.80672
3.80685
3.80735
3.8083
3.80979
3.81187
3.81455
3.81773
3.82117
3.82457
3.82638
3.83905
3.83792
3.83696
3.83631
3.83564
3.83487
3.83402
3.83314
3.83223
3.8313
3.83034
3.82936
3.82837
3.82736
3.82635
3.82532
3.82429
3.82325
3.82221
3.82116
3.82011
3.81905
3.818
3.81693
3.81587
3.81481
3.81374
3.81268
3.81161
3.81055
3.80949
3.80845
3.80741
3.80641
3.80544
3.80453
3.80373
3.80308
3.80267
3.80261
3.80306
3.80421
3.80628
3.80941
3.81342
3.81783
3.81919
3.83949
3.83825
3.83712
3.83635
3.83565
3.83484
3.83397
3.83308
3.83217
3.83124
3.83029
3.82931
3.82832
3.82732
3.8263
3.82528
3.82424
3.8232
3.82215
3.8211
3.82003
3.81896
3.81787
3.81678
3.81567
3.81455
3.8134
3.81223
3.81102
3.80977
3.80847
3.8071
3.80564
3.80407
3.80237
3.80051
3.79848
3.79627
3.79388
3.79137
3.78888
3.78665
3.785
3.78449
3.78499
3.7864
3.781
3.83984
3.83853
3.83729
3.83643
3.83567
3.83484
3.83394
3.83304
3.83212
3.83119
3.83023
3.82926
3.82827
3.82727
3.82625
3.82522
3.82419
3.82314
3.82208
3.82101
3.81993
3.81883
3.81771
3.81658
3.81541
3.81421
3.81296
3.81165
3.81026
3.80876
3.80713
3.80533
3.80329
3.80095
3.79823
3.79501
3.79115
3.7865
3.78087
3.77405
3.76582
3.75603
3.7444
3.73103
3.71376
3.69141
3.63512
3.8401
3.83876
3.83744
3.83651
3.83571
3.83484
3.83393
3.83301
3.83208
3.83114
3.83018
3.82921
3.82822
3.82722
3.8262
3.82517
3.82413
3.82308
3.82201
3.82092
3.81982
3.81869
3.81754
3.81636
3.81513
3.81384
3.81247
3.81101
3.80941
3.80765
3.80565
3.80335
3.80065
3.79743
3.79349
3.78862
3.78251
3.77475
3.76477
3.75181
3.7348
3.71225
3.68146
3.63982
3.57489
3.49149
3.19211
3.84029
3.83893
3.83757
3.83659
3.83575
3.83486
3.83392
3.83298
3.83205
3.8311
3.83014
3.82917
3.82818
3.82717
3.82615
3.82512
3.82407
3.82301
3.82194
3.82084
3.81972
3.81857
3.81738
3.81615
3.81485
3.81349
3.81201
3.8104
3.80861
3.80658
3.80424
3.80146
3.79812
3.79402
3.78888
3.78234
3.77388
3.76279
3.74802
3.72802
3.70033
3.66115
3.60251
3.51192
3.33754
3.00211
1.84833
3.84042
3.83904
3.83765
3.83664
3.83577
3.83487
3.83392
3.83297
3.83203
3.83108
3.83011
3.82913
3.82814
3.82714
3.82611
3.82508
3.82403
3.82296
3.82188
3.82077
3.81963
3.81846
3.81725
3.81598
3.81464
3.81321
3.81165
3.80992
3.80798
3.80574
3.80312
3.79997
3.79611
3.7913
3.78518
3.77727
3.76686
3.75294
3.734
3.70773
3.67036
3.61572
3.53185
3.39801
3.162
2.75057
2.00774
3.84047
3.83909
3.83769
3.83667
3.83579
3.83487
3.83391
3.83296
3.83201
3.83106
3.83009
3.82911
3.82812
3.82711
3.82609
3.82505
3.824
3.82293
3.82184
3.82073
3.81958
3.8184
3.81717
3.81588
3.81451
3.81304
3.81144
3.80965
3.80762
3.80527
3.80249
3.79913
3.79498
3.78977
3.7831
3.7744
3.76287
3.74732
3.72596
3.69602
3.65308
3.5899
3.49426
3.34611
3.11343
2.74814
2.22418
3.84047
3.83909
3.83769
3.83666
3.83578
3.83486
3.83391
3.83295
3.832
3.83105
3.83008
3.8291
3.82811
3.8271
3.82608
3.82504
3.82399
3.82292
3.82183
3.82071
3.81956
3.81838
3.81715
3.81586
3.81449
3.81302
3.81141
3.80962
3.80758
3.80523
3.80244
3.79908
3.79493
3.78971
3.78302
3.77431
3.76276
3.74718
3.72578
3.69577
3.65271
3.58933
3.49332
3.34447
3.11058
2.74302
2.21625
3.8404
3.83902
3.83763
3.83662
3.83576
3.83485
3.8339
3.83295
3.83201
3.83105
3.83009
3.82911
3.82812
3.82711
3.82608
3.82505
3.82399
3.82293
3.82184
3.82073
3.81959
3.81841
3.81719
3.81592
3.81457
3.81313
3.81157
3.80983
3.80788
3.80563
3.803
3.79983
3.79596
3.79112
3.78497
3.77701
3.76655
3.75255
3.7335
3.70704
3.66937
3.61421
3.52937
3.39364
3.15356
2.73317
1.97321
3.84026
3.8389
3.83754
3.83656
3.83572
3.83482
3.83389
3.83295
3.83202
3.83107
3.83011
3.82913
3.82813
3.82713
3.8261
3.82507
3.82402
3.82295
3.82187
3.82077
3.81964
3.81848
3.81729
3.81605
3.81475
3.81337
3.81188
3.81026
3.80845
3.80641
3.80404
3.80124
3.79787
3.79373
3.78855
3.78195
3.77342
3.76222
3.74729
3.72705
3.699
3.65922
3.59951
3.50701
3.3279
2.98169
1.7814
3.84006
3.83872
3.8374
3.83647
3.83567
3.8348
3.83389
3.83296
3.83204
3.83109
3.83013
3.82916
3.82816
3.82716
3.82614
3.8251
3.82405
3.823
3.82192
3.82083
3.81972
3.81858
3.81742
3.81622
3.81498
3.81368
3.8123
3.81082
3.8092
3.80741
3.80539
3.80306
3.80033
3.79706
3.79307
3.78814
3.78194
3.77406
3.76392
3.75075
3.73342
3.71039
3.67885
3.63609
3.56909
3.48319
3.17242
3.83979
3.83848
3.83724
3.83638
3.83562
3.83479
3.83389
3.83299
3.83207
3.83113
3.83017
3.8292
3.8282
3.8272
3.82617
3.82514
3.8241
3.82305
3.82198
3.8209
3.81981
3.8187
3.81757
3.81642
3.81524
3.81402
3.81275
3.81142
3.81001
3.80849
3.80683
3.80499
3.80291
3.80053
3.79775
3.79446
3.79053
3.78578
3.78002
3.77303
3.76458
3.75449
3.74246
3.72857
3.71054
3.68721
3.62853
3.83944
3.83819
3.83706
3.8363
3.83559
3.83478
3.83391
3.83302
3.83211
3.83118
3.83022
3.82924
3.82825
3.82724
3.82622
3.82519
3.82414
3.8231
3.82204
3.82097
3.81989
3.81881
3.81771
3.8166
3.81547
3.81433
3.81317
3.81197
3.81074
3.80946
3.80813
3.80672
3.80522
3.80361
3.80186
3.79995
3.79785
3.79555
3.79306
3.79045
3.78783
3.78545
3.78364
3.78297
3.78331
3.78459
3.77889
3.83899
3.83786
3.8369
3.83625
3.83559
3.83481
3.83396
3.83308
3.83217
3.83123
3.83027
3.82929
3.82829
3.82728
3.82625
3.82522
3.82418
3.82314
3.82208
3.82103
3.81996
3.81889
3.81782
3.81674
3.81566
3.81458
3.81349
3.8124
3.81131
3.81022
3.80913
3.80805
3.80698
3.80593
3.80492
3.80396
3.8031
3.80239
3.80192
3.80179
3.80218
3.80328
3.8053
3.80842
3.81245
3.8169
3.81824
3.83843
3.83754
3.83681
3.83625
3.83561
3.83485
3.83401
3.83313
3.83222
3.83128
3.83031
3.82932
3.82832
3.82731
3.82628
3.82525
3.82421
3.82317
3.82212
3.82106
3.82001
3.81895
3.81789
3.81683
3.81578
3.81473
3.8137
3.81267
3.81167
3.81069
3.80976
3.80887
3.80806
3.80733
3.80674
3.80632
3.80611
3.8062
3.80665
3.80757
3.80902
3.81109
3.81377
3.81698
3.82046
3.82389
3.82572
3.83763
3.83728
3.83686
3.83632
3.83566
3.8349
3.83407
3.83318
3.83226
3.83131
3.83034
3.82935
3.82834
3.82733
3.8263
3.82527
3.82423
3.82318
3.82213
3.82108
3.82003
3.81898
3.81792
3.81688
3.81583
3.8148
3.81379
3.81279
3.81182
3.81089
3.81001
3.8092
3.80848
3.80788
3.80744
3.80719
3.80719
3.8075
3.80817
3.80926
3.8108
3.8128
3.81518
3.81781
3.82048
3.82294
3.82438
3.83646
3.83687
3.8368
3.83633
3.83568
3.83493
3.8341
3.83322
3.83229
3.83134
3.83036
3.82937
3.82836
3.82734
3.82631
3.82528
3.82424
3.82319
3.82214
3.82109
3.82004
3.81898
3.81793
3.81689
3.81584
3.81481
3.8138
3.8128
3.81184
3.81091
3.81004
3.80924
3.80852
3.80792
3.80748
3.80722
3.8072
3.80747
3.80806
3.80904
3.81042
3.81219
3.81431
3.81665
3.81903
3.82116
3.82236
-0.683988
-0.61503
-0.117969
-0.00867878
-0.0753735
-0.10258
0.79774
0.284312
0.218087
0.134337
0.0063864
-0.0654195
1.3984
0.630433
0.263899
0.123048
0.0124648
-0.0758764
1.38261
0.604876
0.230696
0.0806307
-0.0449281
-0.151412
0.726218
0.189971
0.114953
0.0144119
-0.15018
-0.272188
-0.879707
-0.834356
-0.30884
-0.202638
-0.316792
-0.406811
-0.0304626
-0.0307208
-0.0308932
-0.0309034
-0.030792
-0.0305716
-0.0302419
-0.0298035
-0.0292582
-0.028608
-0.0278546
-0.026999
-0.0260429
-0.0249888
-0.0238427
-0.0226148
-0.0213197
-0.0199749
-0.0186002
-0.0172158
-0.0158413
-0.014495
-0.0131937
-0.0119518
-0.0107806
-0.00968782
-0.0086777
-0.00775208
-0.00691007
-0.00614811
-0.00546092
-0.00484199
-0.00428383
-0.00377787
-0.00331486
-0.00288568
-0.00248285
-0.00210137
-0.00173797
-0.0013912
-0.00105925
-0.000740556
-0.000445136
-0.00019503
2.77153e-05
0.000255863
0.000263181
-0.0300587
-0.0303362
-0.0305153
-0.0305434
-0.030468
-0.0302876
-0.0299954
-0.029591
-0.029077
-0.0284574
-0.0277349
-0.0269111
-0.0259874
-0.0249657
-0.0238501
-0.022649
-0.0213764
-0.0200489
-0.0186865
-0.0173104
-0.015941
-0.0145962
-0.0132928
-0.0120454
-0.0108653
-0.0097611
-0.00873752
-0.00779935
-0.00694609
-0.00617225
-0.00547145
-0.00483761
-0.00426353
-0.00374235
-0.00326841
-0.00283603
-0.00243771
-0.00206605
-0.00171095
-0.00137553
-0.00106696
-0.000767203
-0.000455162
-0.000206071
-6.86992e-05
0.000199795
0.000283259
-0.0301429
-0.0304053
-0.0305675
-0.0305887
-0.0305204
-0.0303473
-0.03006
-0.0296602
-0.0291531
-0.0285446
-0.0278379
-0.0270352
-0.0261358
-0.0251387
-0.0240432
-0.022854
-0.0215837
-0.0202515
-0.0188785
-0.017488
-0.0161027
-0.0147374
-0.0134083
-0.0121308
-0.0109208
-0.00978893
-0.00874317
-0.00778397
-0.00691001
-0.00611499
-0.00539378
-0.00474269
-0.004158
-0.00363797
-0.00317652
-0.00276679
-0.0023918
-0.00203886
-0.00170322
-0.00139903
-0.00113338
-0.000846589
-0.000484101
-0.00021854
-0.00018858
7.28871e-05
0.000325118
-0.0315685
-0.0316401
-0.031635
-0.0315314
-0.0313554
-0.0310801
-0.0307005
-0.0302229
-0.0296565
-0.0290078
-0.0282791
-0.0274689
-0.026572
-0.0255803
-0.0244844
-0.0232801
-0.0219795
-0.0206075
-0.0191877
-0.0177468
-0.0163057
-0.0148801
-0.0134858
-0.0121441
-0.0108786
-0.00970183
-0.00861458
-0.00761442
-0.00670075
-0.00587523
-0.00513431
-0.00447454
-0.00389275
-0.00339537
-0.00297463
-0.00261656
-0.00229134
-0.00197886
-0.00168191
-0.00142922
-0.00122476
-0.00095799
-0.000543646
-0.00024668
-0.000262953
-4.4481e-05
0.000364181
-0.0355348
-0.0346848
-0.0339788
-0.0334552
-0.0329753
-0.0324483
-0.0318593
-0.0312146
-0.0305205
-0.0297784
-0.0289887
-0.0281435
-0.0272307
-0.0262315
-0.025124
-0.0238911
-0.02254
-0.0210989
-0.0196029
-0.0180814
-0.0165517
-0.015032
-0.0135428
-0.0121124
-0.0107652
-0.00951227
-0.00834584
-0.0072708
-0.00630067
-0.00544301
-0.00468995
-0.00402942
-0.00346748
-0.00301714
-0.00267002
-0.00240017
-0.00216223
-0.00192082
-0.00168853
-0.00152041
-0.0014148
-0.0012016
-0.000773456
-0.000441043
-0.00043597
-0.000186377
0.000301514
-0.0450818
-0.0396457
-0.0366828
-0.0353988
-0.0345315
-0.0337182
-0.0329145
-0.0321105
-0.0312975
-0.0304717
-0.0296289
-0.0287604
-0.0278478
-0.0268641
-0.0257703
-0.0245296
-0.0231318
-0.0216086
-0.0200159
-0.0183919
-0.0167601
-0.0151371
-0.0135481
-0.0120176
-0.0105606
-0.00919192
-0.0079225
-0.00677039
-0.00574967
-0.00484953
-0.00406212
-0.00339027
-0.00285236
-0.00247288
-0.00223819
-0.00209768
-0.001981
-0.00184712
-0.00173669
-0.00173365
-0.00180829
-0.00173459
-0.0013784
-0.000987581
-0.000692091
-0.000265394
4.20565e-05
-0.0630291
-0.0424843
-0.0354695
-0.0346353
-0.0339558
-0.0331323
-0.0324448
-0.0317905
-0.0310942
-0.0303651
-0.0296147
-0.0288325
-0.0279979
-0.0270795
-0.0260262
-0.0247875
-0.0233571
-0.0217896
-0.0201494
-0.0184866
-0.0168286
-0.015164
-0.0134963
-0.0118499
-0.0102553
-0.00875476
-0.00738539
-0.00615366
-0.00505294
-0.0040781
-0.00324863
-0.00259178
-0.00211615
-0.00183638
-0.00173601
-0.00174714
-0.00179558
-0.00184636
-0.00194578
-0.00217407
-0.00246863
-0.00259005
-0.0023922
-0.00193714
-0.0012066
-0.000467379
-0.000437096
-0.0706955
-0.0440751
-0.03856
-0.0391443
-0.0381841
-0.0365652
-0.0353412
-0.0343143
-0.0332453
-0.0321391
-0.0310336
-0.0299214
-0.0287816
-0.0275894
-0.0262995
-0.0248616
-0.023283
-0.0216164
-0.0199144
-0.018238
-0.0165884
-0.0149133
-0.0132088
-0.0115093
-0.00985485
-0.00829489
-0.00685114
-0.0055195
-0.00432136
-0.00329556
-0.00246285
-0.00183139
-0.00140723
-0.00120497
-0.00121692
-0.00138867
-0.00166226
-0.00198283
-0.00234379
-0.00277082
-0.00320933
-0.00350474
-0.00354382
-0.00320337
-0.00228902
-0.00130824
-0.00103069
-0.0646008
-0.0432668
-0.0354041
-0.0351361
-0.0343833
-0.0328619
-0.0317832
-0.0310893
-0.0303934
-0.0296095
-0.0287984
-0.0279913
-0.0271744
-0.0263066
-0.0253288
-0.024186
-0.0228582
-0.0213652
-0.0197664
-0.0181168
-0.0164157
-0.0146557
-0.0128635
-0.011096
-0.00941858
-0.0078601
-0.00639639
-0.00502854
-0.00380658
-0.0027612
-0.00189789
-0.00126108
-0.000891478
-0.000802659
-0.000962655
-0.00129854
-0.00175884
-0.00229081
-0.00284523
-0.00338785
-0.00388022
-0.00429083
-0.0045415
-0.00442463
-0.00373589
-0.00272315
-0.00150236
-0.111592
-0.112551
-0.108697
-0.107508
-0.104554
-0.0983082
-0.0906071
-0.0827875
-0.0750165
-0.0672858
-0.0597999
-0.0527987
-0.0464157
-0.040684
-0.0355822
-0.0310635
-0.0270794
-0.0236034
-0.0206235
-0.0180941
-0.0159208
-0.0139978
-0.0122217
-0.0105465
-0.0089627
-0.0074498
-0.00600195
-0.00464837
-0.0034369
-0.0024055
-0.00159599
-0.00106208
-0.000801475
-0.000787424
-0.000982772
-0.00134319
-0.00185784
-0.00247881
-0.00312494
-0.00373263
-0.00427498
-0.00474871
-0.00507783
-0.00508815
-0.00465129
-0.00375581
-0.00156033
-0.202091
-0.208791
-0.205419
-0.204905
-0.202524
-0.195438
-0.185631
-0.174799
-0.162997
-0.150054
-0.136256
-0.122088
-0.107954
-0.0941482
-0.0809049
-0.0684088
-0.0568154
-0.046275
-0.0369271
-0.0288749
-0.0221691
-0.0167818
-0.0126089
-0.009499
-0.00725724
-0.00564335
-0.00442644
-0.00341768
-0.00253106
-0.00177497
-0.00118313
-0.000770908
-0.000557451
-0.000570673
-0.000801887
-0.00120596
-0.0017646
-0.00242456
-0.00310592
-0.00374727
-0.00433102
-0.00482138
-0.00513183
-0.00515031
-0.00474248
-0.00384541
-0.00141002
-0.314694
-0.304771
-0.29628
-0.296669
-0.294333
-0.287008
-0.277946
-0.268353
-0.257454
-0.244644
-0.230002
-0.213847
-0.196473
-0.178168
-0.159225
-0.139897
-0.120386
-0.100901
-0.0817433
-0.0633866
-0.046463
-0.0316453
-0.0194867
-0.0102659
-0.00390375
1.21063e-05
0.00210667
0.0030259
0.00326435
0.00313721
0.00283268
0.00244527
0.00198134
0.00143445
0.00082718
0.000175219
-0.000531572
-0.00129431
-0.00206843
-0.00280183
-0.0034642
-0.00400776
-0.00435704
-0.00442931
-0.00403532
-0.00332896
-0.000800114
-0.425499
-0.387288
-0.374307
-0.377379
-0.37617
-0.36997
-0.362933
-0.355678
-0.347062
-0.336424
-0.323689
-0.308908
-0.292153
-0.273598
-0.253439
-0.231701
-0.208151
-0.182408
-0.154267
-0.124085
-0.0929972
-0.0627808
-0.0354299
-0.0126399
0.00459942
0.0161724
0.0227205
0.0253206
0.0251531
0.0232892
0.020575
0.0175905
0.0146801
0.0120256
0.00968381
0.00761657
0.00575496
0.00404725
0.00249606
0.00111198
-9.86493e-05
-0.00113359
-0.00194266
-0.00246578
-0.00246457
-0.00242467
6.52516e-05
-0.43559
-0.395552
-0.381021
-0.381047
-0.381063
-0.37998
-0.37931
-0.37863
-0.376896
-0.373514
-0.368182
-0.360642
-0.350787
-0.338762
-0.324745
-0.308516
-0.289138
-0.265027
-0.234525
-0.196835
-0.152783
-0.104915
-0.0569362
-0.012819
0.0241279
0.0519101
0.070027
0.0792621
0.0812636
0.0780593
0.071619
0.0635738
0.0551111
0.0469791
0.0395459
0.0329195
0.0270794
0.0219572
0.0174883
0.0136064
0.010248
0.00733353
0.00484429
0.00277644
0.00133477
-0.00014917
0.0010192
-0.396892
-0.387863
-0.382882
-0.381172
-0.380635
-0.380548
-0.380963
-0.381635
-0.381923
-0.381367
-0.379636
-0.376342
-0.371379
-0.365089
-0.357924
-0.349739
-0.339063
-0.322874
-0.297283
-0.259199
-0.207874
-0.145428
-0.0765024
-0.00727713
0.0560223
0.108429
0.146978
0.170884
0.181301
0.180686
0.172036
0.158264
0.141837
0.124599
0.107769
0.0920479
0.0777676
0.065023
0.0537729
0.0439096
0.0352866
0.027742
0.021123
0.0152766
0.0102118
0.00540606
0.00246042
-0.380775
-0.379629
-0.378932
-0.378766
-0.379093
-0.379733
-0.380496
-0.381124
-0.381286
-0.380716
-0.379232
-0.376635
-0.372885
-0.368591
-0.364738
-0.361707
-0.358226
-0.350428
-0.332238
-0.297901
-0.244538
-0.172904
-0.0873675
0.00474656
0.0949461
0.175361
0.239972
0.285404
0.311186
0.319212
0.312784
0.295761
0.271926
0.244508
0.215961
0.187968
0.16157
0.137305
0.115369
0.0957416
0.0782658
0.0627162
0.0488402
0.0363524
0.0249918
0.0145169
0.00473737
-0.373734
-0.373941
-0.374336
-0.37485
-0.375557
-0.376433
-0.377404
-0.378274
-0.378711
-0.378385
-0.37707
-0.374546
-0.370785
-0.366571
-0.363249
-0.361703
-0.36132
-0.358305
-0.34556
-0.315201
-0.262095
-0.185242
-0.0884263
0.02072
0.132642
0.237622
0.327074
0.39501
0.438954
0.459548
0.459546
0.443084
0.414876
0.379369
0.340221
0.300182
0.261156
0.224318
0.190273
0.159235
0.131146
0.105792
0.0828742
0.0620616
0.0429097
0.0253223
0.00785132
-0.371283
-0.37171
-0.372203
-0.372696
-0.373265
-0.373892
-0.374529
-0.375062
-0.375287
-0.374955
-0.373826
-0.371661
-0.368359
-0.364337
-0.360684
-0.358567
-0.357916
-0.354947
-0.342009
-0.312189
-0.259781
-0.18073
-0.0782963
0.0401572
0.16509
0.286136
0.39292
0.477453
0.535794
0.567486
0.574442
0.560545
0.530905
0.490664
0.444294
0.395365
0.346522
0.299537
0.25544
0.21471
0.177431
0.143469
0.112532
0.0842907
0.0582551
0.0343298
0.0105734
-0.371282
-0.371737
-0.372231
-0.372688
-0.373155
-0.373604
-0.373984
-0.374216
-0.374177
-0.373719
-0.372672
-0.370843
-0.368033
-0.364102
-0.359121
-0.35353
-0.347829
-0.340724
-0.326733
-0.29681
-0.24268
-0.161214
-0.0562044
0.0651686
0.194035
0.321133
0.435338
0.527776
0.593574
0.631145
0.641786
0.62944
0.599385
0.556922
0.50682
0.453056
0.398681
0.345812
0.295755
0.249165
0.206155
0.166632
0.130447
0.0973675
0.0668897
0.0392147
0.0112783
-0.372018
-0.372479
-0.373026
-0.373553
-0.374075
-0.374556
-0.374936
-0.375142
-0.375091
-0.374697
-0.373863
-0.372451
-0.370242
-0.366858
-0.36171
-0.354032
-0.342851
-0.326588
-0.302427
-0.265959
-0.211624
-0.134323
-0.0328603
0.0873107
0.216166
0.342605
0.455401
0.546473
0.613052
0.652207
0.663264
0.650724
0.620134
0.576766
0.525419
0.470178
0.414195
0.359669
0.307972
0.259839
0.215544
0.17477
0.137022
0.102201
0.0700422
0.0409182
0.011355
)
;

boundaryField
{
    inlet
    {
        type            zeroGradient;
    }
    outlet
    {
        type            fixedValue;
        value           uniform 0;
    }
    upperWall
    {
        type            zeroGradient;
    }
    lowerWall
    {
        type            zeroGradient;
    }
    frontAndBack
    {
        type            empty;
    }
}


// ************************************************************************* //
