/*--------------------------------*- C++ -*----------------------------------*\
| =========                 |                                                 |
| \\      /  F ield         | OpenFOAM: The Open Source CFD Toolbox           |
|  \\    /   O peration     | Version:  2406                                  |
|   \\  /    A nd           | Website:  www.openfoam.com                      |
|    \\/     M anipulation  |                                                 |
\*---------------------------------------------------------------------------*/
FoamFile
{
    version     2.0;
    format      ascii;
    arch        "LSB;label=32;scalar=64";
    class       surfaceScalarField;
    location    "87";
    object      phi;
}
// * * * * * * * * * * * * * * * * * * * * * * * * * * * * * * * * * * * * * //

dimensions      [0 3 -1 0 0 0 0];

oriented        oriented;

internalField   nonuniform List<scalar> 
3698
(
0.00997439
-0.00022436
0.010231
-0.000256522
0.0104314
-0.000200359
0.0105817
-0.000150216
0.0106958
-0.00011399
0.0107829
-8.70008e-05
0.0108498
-6.68509e-05
0.0109021
-5.22188e-05
0.0109438
-4.1696e-05
0.0109779
-3.39857e-05
0.0110061
-2.81498e-05
0.0110297
-2.36037e-05
0.0110498
-1.99604e-05
0.0110668
-1.69557e-05
0.0110812
-1.43833e-05
0.0110934
-1.21015e-05
0.0111034
-9.98566e-06
0.0111114
-7.93858e-06
0.0111173
-5.84472e-06
0.011121
-3.59383e-06
0.0111221
-1.03685e-06
0.0111202
1.97342e-06
0.0111146
5.62403e-06
0.0111046
1.01372e-05
0.0110888
1.58356e-05
0.0110658
2.31147e-05
0.0110334
3.25074e-05
0.0109888
4.46714e-05
0.0109284
6.04693e-05
0.0108476
8.09645e-05
0.0107402
0.000107507
0.0105986
0.000141719
0.0104132
0.000185549
0.0101721
0.00024119
0.00986129
0.000310993
0.00946427
0.000397157
0.00896313
0.000501285
0.00833973
0.000623542
0.00757835
0.000761542
0.0066698
0.00090873
0.00561737
0.00105263
0.0044447
0.00117286
0.00320484
0.00124001
0.00199088
0.00121412
0.000943083
0.00104799
0.000261077
0.000682485
0.000261171
0.0276416
-0.000115873
0.0276096
-0.000224392
0.0276408
-0.000231423
0.0277017
-0.000211034
0.0277748
-0.000186951
0.0278497
-0.000161772
0.0279206
-0.000137617
0.027985
-0.000116572
0.0280426
-9.91273e-05
0.0280935
-8.47773e-05
0.0281383
-7.28747e-05
0.0281777
-6.29038e-05
0.0282123
-5.44575e-05
0.0282426
-4.71784e-05
0.0282691
-4.07565e-05
0.028292
-3.4921e-05
0.0283115
-2.94382e-05
0.0283278
-2.4077e-05
0.0283406
-1.8597e-05
0.0283499
-1.27198e-05
0.0283551
-6.12902e-06
0.0283556
1.56208e-06
0.0283505
1.08268e-05
0.0283385
2.22747e-05
0.0283178
3.66877e-05
0.028286
5.50927e-05
0.0282398
7.88171e-05
0.0281751
0.000109593
0.0280861
0.00014965
0.0279654
0.000201869
0.0278032
0.000269917
0.0275867
0.000358436
0.0272993
0.000473193
0.0269195
0.000621214
0.0264199
0.000810781
0.0257661
0.00105122
0.0249154
0.00135221
0.0238168
0.00172241
0.0224118
0.00216686
0.0206383
0.00268258
0.0184394
0.00325188
0.0157803
0.0038323
0.0126752
0.00434543
0.00922668
0.0046629
0.0056552
0.00462012
0.00233424
0.00400404
0.00259565
0.0436955
-6.13517e-05
0.0436219
-0.00015072
0.0435727
-0.000182031
0.0435468
-0.00018509
0.0435393
-0.000179294
0.0435461
-0.000168501
0.0435628
-0.000154273
0.0435854
-0.000139056
0.0436109
-0.000124524
0.0436374
-0.000111217
0.0436637
-9.91568e-05
0.0436892
-8.82653e-05
0.0437132
-7.84266e-05
0.0437356
-6.94702e-05
0.0437561
-6.11801e-05
0.0437746
-5.33271e-05
0.0437909
-4.56717e-05
0.0438048
-3.79538e-05
0.0438162
-2.98625e-05
0.0438245
-2.10223e-05
0.0438295
-1.09692e-05
0.0438302
8.68711e-07
0.0438259
1.52201e-05
0.0438153
3.30222e-05
0.0437966
5.5502e-05
0.0437675
8.42631e-05
0.0437251
0.000121412
0.0436651
0.000169702
0.0435822
0.000232735
0.043469
0.000315201
0.0433159
0.000423196
0.0431099
0.00056458
0.0428339
0.000749425
0.0424648
0.000990477
0.0419721
0.00130362
0.0413153
0.0017082
0.0404408
0.00222699
0.039278
0.00288537
0.037736
0.00370903
0.0357
0.00471883
0.0330308
0.00592138
0.0295723
0.00729099
0.0251728
0.00874505
0.0197379
0.0100979
0.0133018
0.0110566
0.00618945
0.0111175
0.00878518
0.0577259
-3.71908e-05
0.0576751
-9.98799e-05
0.0576267
-0.00013354
0.0575875
-0.00014581
0.0575568
-0.000148462
0.0575341
-0.000145807
0.057519
-0.000139049
0.0575099
-0.000129854
0.0575053
-0.000119849
0.057504
-0.000109885
0.0575052
-0.000100256
0.057508
-9.10636e-05
0.057512
-8.23388e-05
0.0575166
-7.40284e-05
0.0575215
-6.60017e-05
0.0575263
-5.80773e-05
0.0575307
-5.00418e-05
0.0575345
-4.16341e-05
0.0575372
-3.25232e-05
0.0575385
-2.22803e-05
0.057538
-1.03609e-05
0.057535
3.93057e-06
0.0575288
2.14873e-05
0.0575184
4.34775e-05
0.0575026
7.14346e-05
0.0574796
0.000107384
0.0574471
0.000153998
0.0574021
0.000214799
0.0573405
0.000294433
0.0572569
0.000399016
0.0571436
0.000536593
0.0569906
0.000717729
0.0567839
0.000956246
0.0565044
0.00127015
0.0561255
0.00168275
0.0556099
0.00222395
0.0549055
0.00293157
0.0539385
0.00385249
0.0526046
0.00504307
0.0507565
0.00656713
0.0481875
0.00849053
0.0446153
0.0108633
0.0396654
0.013695
0.0328945
0.0168689
0.0238344
0.0201173
0.0122345
0.0227175
0.0210204
0.069737
-2.41956e-05
0.0697051
-6.78824e-05
0.0696685
-9.68641e-05
0.0696341
-0.00011136
0.069603
-0.000117248
0.0695754
-0.000118155
0.0695517
-0.000115316
0.0695318
-0.000109843
0.069515
-0.000102997
0.0695008
-9.56356e-05
0.0694888
-8.81532e-05
0.0694785
-8.07229e-05
0.0694696
-7.34255e-05
0.0694619
-6.62574e-05
0.0694551
-5.91273e-05
0.069449
-5.18807e-05
0.0694433
-4.43154e-05
0.0694379
-3.61746e-05
0.0694325
-2.71191e-05
0.069427
-1.67027e-05
0.0694211
-4.34407e-06
0.0694144
1.07051e-05
0.0694065
2.94163e-05
0.069397
5.30615e-05
0.0693852
8.33219e-05
0.0693702
0.000122425
0.069351
0.000173325
0.069326
0.000239944
0.069293
0.000327485
0.0692493
0.00044286
0.0691908
0.000595266
0.0691117
0.000796938
0.0690039
0.00106418
0.0688555
0.00141872
0.0686488
0.00188954
0.0683577
0.00251522
0.0679422
0.00334717
0.0673413
0.00445357
0.06646
0.0059245
0.0651501
0.00787712
0.0631779
0.0104629
0.0601786
0.0138627
0.0555718
0.0183018
0.048501
0.0239399
0.0375976
0.0310205
0.021303
0.0390143
0.0423236
0.0797421
-1.62379e-05
0.0797209
-4.66242e-05
0.0796932
-6.91543e-05
0.0796644
-8.2437e-05
0.0796362
-8.90163e-05
0.0796095
-9.13281e-05
0.0795847
-9.04796e-05
0.0795622
-8.72564e-05
0.0795418
-8.25539e-05
0.0795233
-7.70929e-05
0.0795065
-7.12786e-05
0.0794911
-6.53105e-05
0.079477
-5.92889e-05
0.0794641
-5.3233e-05
0.0794521
-4.70805e-05
0.0794409
-4.07019e-05
0.0794306
-3.39171e-05
0.0794209
-2.64871e-05
0.079412
-1.80931e-05
0.0794036
-8.30765e-06
0.0793959
3.42924e-06
0.0793889
1.78457e-05
0.0793824
3.58885e-05
0.0793768
5.88017e-05
0.0793719
8.82317e-05
0.0793681
0.000126369
0.0793654
0.000176128
0.079364
0.000241397
0.0793642
0.000327364
0.0793662
0.000440973
0.0793701
0.000591544
0.0793755
0.000791628
0.0793816
0.00105819
0.0793862
0.00141428
0.0793846
0.00189133
0.0793674
0.00253252
0.0793171
0.00339758
0.0792011
0.00456965
0.0789599
0.00616583
0.0784859
0.00835125
0.0775827
0.0113662
0.0759025
0.0155429
0.0727879
0.0214164
0.0671697
0.0295581
0.0567635
0.0414281
0.0384388
0.057339
0.0807627
0.0877445
-1.07572e-05
0.0877292
-3.12282e-05
0.0877075
-4.73541e-05
0.0876829
-5.78181e-05
0.0876576
-6.358e-05
0.0876323
-6.60473e-05
0.087608
-6.60518e-05
0.0875849
-6.41563e-05
0.0875634
-6.09618e-05
0.0875433
-5.70004e-05
0.0875247
-5.26135e-05
0.0875075
-4.79859e-05
0.0874914
-4.32121e-05
0.0874766
-3.8318e-05
0.0874628
-3.32614e-05
0.0874501
-2.79428e-05
0.0874384
-2.22139e-05
0.0874279
-1.58749e-05
0.0874185
-8.65466e-06
0.0874104
-1.88319e-07
0.0874039
1.0007e-05
0.0873993
2.25606e-05
0.0873969
3.82943e-05
0.0873975
5.82884e-05
0.0874018
8.39762e-05
0.087411
0.000117267
0.0874265
0.000160711
0.0874503
0.00021772
0.0874849
0.00029287
0.0875336
0.000392322
0.0876009
0.000524404
0.0876922
0.000700439
0.0878146
0.000935913
0.0879768
0.00125217
0.0881894
0.00167886
0.0884644
0.00225768
0.0888142
0.00304787
0.0892491
0.00413485
0.0897709
0.00564412
0.09036
0.00776221
0.0909468
0.0107794
0.0913539
0.015136
0.0911301
0.0216403
0.0892252
0.0314632
0.0824088
0.0482442
0.0632755
0.0764728
0.144038
0.0937458
-6.54451e-06
0.0937337
-1.90834e-05
0.0937157
-2.9278e-05
0.0936942
-3.62424e-05
0.093671
-4.02776e-05
0.0936471
-4.21026e-05
0.0936233
-4.22435e-05
0.0936003
-4.1069e-05
0.0935783
-3.89482e-05
0.0935576
-3.62207e-05
0.0935382
-3.31242e-05
0.09352
-2.97956e-05
0.0935032
-2.63057e-05
0.0934876
-2.26747e-05
0.0934733
-1.88752e-05
0.0934602
-1.4837e-05
0.0934485
-1.04541e-05
0.0934382
-5.58023e-06
0.0934296
-1.69249e-08
0.093423
6.5043e-06
0.0934187
1.43388e-05
0.0934174
2.39519e-05
0.0934198
3.59508e-05
0.093427
5.11355e-05
0.0934405
7.05667e-05
0.0934622
9.56601e-05
0.0934947
0.000128309
0.0935414
0.000171054
0.0936071
0.000227312
0.0936978
0.000301705
0.0938218
0.000400512
0.09399
0.000532329
0.0942171
0.000709014
0.0945223
0.000947084
0.0949315
0.0012698
0.0954789
0.00171034
0.0962101
0.0023168
0.097185
0.00316004
0.0984827
0.00434648
0.100205
0.00603957
0.10249
0.00849508
0.1055
0.0121264
0.109534
0.0176055
0.114977
0.0260205
0.124116
0.0391052
0.144045
0.0565427
0.0872108
0.200872
0.0977465
-2.98387e-06
0.0977361
-8.69642e-06
0.0977203
-1.33715e-05
0.0977007
-1.65858e-05
0.0976789
-1.84044e-05
0.097656
-1.91176e-05
0.0976327
-1.89724e-05
0.0976099
-1.81497e-05
0.0975878
-1.68232e-05
0.0975668
-1.51545e-05
0.097547
-1.32614e-05
0.0975284
-1.12138e-05
0.0975112
-9.0464e-06
0.0974954
-6.7674e-06
0.0974809
-4.35993e-06
0.0974679
-1.78505e-06
0.0974565
1.01665e-06
0.0974468
4.12597e-06
0.0974392
7.65241e-06
0.097434
1.17421e-05
0.0974319
1.65885e-05
0.0974334
2.24434e-05
0.0974398
2.96358e-05
0.0974524
3.85971e-05
0.0974731
4.98996e-05
0.0975046
6.43048e-05
0.0975501
8.28319e-05
0.0976144
0.000106848
0.0977036
0.000138196
0.0978261
0.000179369
0.0979929
0.000233771
0.0982193
0.000306074
0.0985257
0.000402757
0.09894
0.000532901
0.0995005
0.000709392
0.10026
0.000950792
0.101293
0.00128425
0.102703
0.00175028
0.104639
0.00241005
0.10732
0.00335865
0.111076
0.00473892
0.116421
0.0067816
0.124264
0.00976306
0.136163
0.0141212
0.155299
0.0199685
0.185618
0.026223
0.0391345
0.233694
0.0997467
2.8992e-07
0.0997372
9.06513e-07
0.0997224
1.52466e-06
0.0997037
2.12628e-06
0.0996826
2.72598e-06
0.0996603
3.33468e-06
0.0996374
3.95633e-06
0.0996147
4.59566e-06
0.0995927
5.258e-06
0.0995716
5.94898e-06
0.0995517
6.67418e-06
0.0995331
7.44018e-06
0.0995159
8.25388e-06
0.0995
9.1227e-06
0.0994857
1.00537e-05
0.0994729
1.10549e-05
0.0994618
1.21351e-05
0.0994527
1.33044e-05
0.0994458
1.45731e-05
0.0994417
1.59527e-05
0.0994409
1.74549e-05
0.0994443
1.90937e-05
0.0994531
2.08841e-05
0.0994689
2.28438e-05
0.0994939
2.49925e-05
0.0995309
2.73531e-05
0.0995838
2.99519e-05
0.099658
3.2821e-05
0.0997603
3.59986e-05
0.0999002
3.95338e-05
0.100091
4.34883e-05
0.100349
4.79446e-05
0.100699
5.30132e-05
0.101173
5.88485e-05
0.101817
6.56709e-05
0.102694
7.3804e-05
0.103894
8.37378e-05
0.105548
9.62339e-05
0.107846
0.000112516
0.11107
0.0001346
0.115643
0.000165912
0.122212
0.000212503
0.131691
0.000284452
0.14541
0.000402292
0.164791
0.000586973
0.190095
0.00091842
0.00138463
0.227844
0.0997468
3.55756e-06
0.0997372
1.04874e-05
0.0997224
1.63842e-05
0.0997038
2.07869e-05
0.0996828
2.37895e-05
0.0996605
2.5704e-05
0.0996377
2.67855e-05
0.0996152
2.7224e-05
0.0995933
2.7204e-05
0.0995724
2.68979e-05
0.0995527
2.64348e-05
0.0995343
2.58972e-05
0.0995172
2.5334e-05
0.0995017
2.47677e-05
0.0994876
2.41956e-05
0.0994751
2.35943e-05
0.0994643
2.29218e-05
0.0994556
2.21168e-05
0.0994491
2.10909e-05
0.0994454
1.97197e-05
0.0994451
1.78338e-05
0.099449
1.52078e-05
0.0994584
1.15428e-05
0.0994749
6.44122e-06
0.0995006
-6.30379e-07
0.0995384
-1.03894e-05
0.0995922
-2.38039e-05
0.0996673
-4.218e-05
0.0997707
-6.72865e-05
0.0999119
-0.000101526
0.100104
-0.000148184
0.100363
-0.000211782
0.100715
-0.000298594
0.101192
-0.000417421
0.101838
-0.000580755
0.102719
-0.000806583
0.103924
-0.00112121
0.105584
-0.00156384
0.10789
-0.00219361
0.111127
-0.00310237
0.11572
-0.00442746
0.122324
-0.00639059
0.131859
-0.00925059
0.145674
-0.0134131
0.165199
-0.0189384
0.190665
-0.0245483
-0.0366755
0.228724
0.0977465
7.09532e-06
0.0977362
2.0809e-05
0.0977205
3.21812e-05
0.097701
4.0289e-05
0.0976794
4.54624e-05
0.0976567
4.8441e-05
0.0976338
4.97589e-05
0.0976113
4.97935e-05
0.0975897
4.89246e-05
0.0975691
4.7502e-05
0.0975498
4.57746e-05
0.0975319
4.38911e-05
0.0975153
4.19363e-05
0.0975002
3.99432e-05
0.0974866
3.7899e-05
0.0974744
3.57478e-05
0.097464
3.34012e-05
0.0974554
3.07305e-05
0.097449
2.75577e-05
0.0974452
2.36342e-05
0.0974444
1.86284e-05
0.0974476
1.2099e-05
0.0974558
3.46806e-06
0.0974703
-8.03417e-06
0.0974932
-2.34316e-05
0.0975269
-4.41012e-05
0.0975751
-7.18889e-05
0.0976423
-0.000109283
0.0977347
-0.000159636
0.0978608
-0.000227494
0.0980318
-0.00031904
0.0982629
-0.000442752
0.0985747
-0.000610331
0.0989955
-0.000838093
0.0995638
-0.00114902
0.100333
-0.00157593
0.101379
-0.00216638
0.102805
-0.00299052
0.104765
-0.00415376
0.107481
-0.00581815
0.111291
-0.00823753
0.116724
-0.0118234
0.124718
-0.0172445
0.136893
-0.0255881
0.156537
-0.0385835
0.187763
-0.0557738
-0.086326
0.237413
0.0937458
1.1273e-05
0.0937339
3.28454e-05
0.093716
5.00763e-05
0.0936948
6.161e-05
0.0936719
6.84339e-05
0.0936484
7.19758e-05
0.0936251
7.3075e-05
0.0936027
7.23026e-05
0.0935814
7.02698e-05
0.0935614
6.7518e-05
0.0935428
6.43997e-05
0.0935257
6.11101e-05
0.0935099
5.77569e-05
0.0934955
5.43778e-05
0.0934825
5.09448e-05
0.093471
4.73709e-05
0.0934609
4.35248e-05
0.0934525
3.92222e-05
0.0934459
3.42111e-05
0.0934414
2.81442e-05
0.0934395
2.05609e-05
0.0934408
1.0853e-05
0.0934461
-1.77434e-06
0.0934566
-1.83759e-05
0.0934735
-4.03522e-05
0.0934991
-6.95806e-05
0.0935359
-0.000108571
0.0935874
-0.000160696
0.0936583
-0.00023048
0.0937549
-0.000324032
0.0938856
-0.000449613
0.0940615
-0.000618474
0.0942972
-0.000846014
0.0946127
-0.00115347
0.0950342
-0.00157041
0.0955967
-0.00213837
0.0963469
-0.0029165
0.0973466
-0.00399017
0.0986779
-0.00548499
0.100448
-0.00758801
0.102801
-0.0105911
0.105916
-0.0149382
0.110121
-0.0214489
0.115843
-0.0313104
0.125525
-0.0482651
0.146623
-0.0768726
-0.14624
0.206537
0.0877446
1.67028e-05
0.0877294
4.80925e-05
0.0877079
7.16264e-05
0.0876837
8.58768e-05
0.0876588
9.34122e-05
0.0876341
9.66901e-05
0.0876104
9.68216e-05
0.0875882
9.46039e-05
0.0875676
9.0937e-05
0.0875486
8.65557e-05
0.0875312
8.18697e-05
0.0875153
7.7094e-05
0.0875007
7.23337e-05
0.0874876
6.76259e-05
0.0874756
6.2913e-05
0.087465
5.80864e-05
0.0874556
5.2971e-05
0.0874475
4.73515e-05
0.0874409
4.09147e-05
0.0874358
3.32602e-05
0.0874326
2.38354e-05
0.0874316
1.1943e-05
0.0874332
-3.35429e-06
0.0874382
-2.32653e-05
0.0874473
-4.94249e-05
0.0874618
-8.39833e-05
0.0874831
-0.000129842
0.0875134
-0.000190843
0.0875552
-0.00027216
0.0876119
-0.000380691
0.0876882
-0.000525742
0.0877896
-0.000719825
0.0879236
-0.000979906
0.0880993
-0.00132902
0.0883276
-0.00179866
0.0886214
-0.00243212
0.0889943
-0.00328937
0.0894582
-0.004454
0.0900173
-0.00604408
0.0906558
-0.00822639
0.0913093
-0.0112446
0.0918079
-0.0154365
0.0917091
-0.02135
0.089969
-0.0295701
0.0833167
-0.0416131
0.0642321
-0.0577874
-0.0820077
0.0797421
2.45987e-05
0.0797211
6.91631e-05
0.0796938
9.9022e-05
0.0796654
0.000114355
0.0796378
0.000121067
0.0796117
0.0001228
0.0795878
0.000120798
0.0795663
0.000116179
0.0795471
0.000110214
0.0795299
0.000103765
0.0795146
9.72393e-05
0.079501
9.0814e-05
0.0794888
8.45831e-05
0.0794779
7.85488e-05
0.0794683
7.26347e-05
0.0794597
6.6693e-05
0.0794522
6.05375e-05
0.0794457
5.3918e-05
0.0794402
4.65138e-05
0.0794356
3.78866e-05
0.079432
2.74761e-05
0.0794295
1.45435e-05
0.0794281
-1.85931e-06
0.0794278
-2.29934e-05
0.079429
-5.05149e-05
0.0794318
-8.66401e-05
0.0794363
-0.000134299
0.079443
-0.000197402
0.079452
-0.000281133
0.0794639
-0.000392406
0.0794786
-0.000540409
0.0794963
-0.000737407
0.0795163
-0.000999743
0.0795366
-0.00134924
0.0795531
-0.00181503
0.079557
-0.00243599
0.0795317
-0.00326398
0.0794457
-0.00436793
0.0792409
-0.0058392
0.0788115
-0.00779697
0.0779631
-0.0103961
0.0763491
-0.0138224
0.0733094
-0.0183101
0.0677684
-0.024029
0.0574011
-0.0312452
0.0390471
-0.0394329
-0.0429604
0.0697371
3.75181e-05
0.0697054
0.000100939
0.0696692
0.000135326
0.0696353
0.000148275
0.0696049
0.000151592
0.0695781
0.000149596
0.0695555
0.000143506
0.0695368
0.000134986
0.0695214
0.000125678
0.0695088
0.000116429
0.0694985
0.000107554
0.0694902
9.91465e-05
0.0694836
9.12601e-05
0.0694784
8.38327e-05
0.0694744
7.67609e-05
0.0694713
6.98528e-05
0.0694689
6.29245e-05
0.0694672
5.57013e-05
0.0694659
4.78857e-05
0.0694648
3.90352e-05
0.0694638
2.8643e-05
0.0694624
1.59967e-05
0.0694604
2.44147e-07
0.0694572
-1.98004e-05
0.0694524
-4.56275e-05
0.0694452
-7.92847e-05
0.0694344
-0.000123401
0.0694186
-0.00018153
0.0693959
-0.000258281
0.0693634
-0.000359821
0.0693173
-0.000494183
0.069252
-0.00067202
0.0691596
-0.000907203
0.0690284
-0.00121792
0.0688411
-0.00162766
0.0685719
-0.00216671
0.0681814
-0.0028734
0.067609
-0.00379545
0.0667602
-0.00499037
0.0654871
-0.00652379
0.0635553
-0.00846406
0.0605975
-0.0108645
0.0560264
-0.013739
0.0489715
-0.016974
0.0380304
-0.0203037
0.021597
-0.0229986
-0.0213632
0.0577259
6.15946e-05
0.0576754
0.000151529
0.0576274
0.000183386
0.0575889
0.000186949
0.0575589
0.000181628
0.0575373
0.000171312
0.0575233
0.000157552
0.0575155
0.000142817
0.0575125
0.000128767
0.0575131
0.000115969
0.0575162
0.000104425
0.0575214
9.40903e-05
0.0575279
8.48235e-05
0.0575353
7.64923e-05
0.0575433
6.88529e-05
0.0575515
6.172e-05
0.0575596
5.482e-05
0.0575675
4.7941e-05
0.0575747
4.07343e-05
0.057581
3.28797e-05
0.0575858
2.38707e-05
0.0575887
1.31942e-05
0.0575889
7.39915e-08
0.0575856
-1.63633e-05
0.0575774
-3.7397e-05
0.0575628
-6.4566e-05
0.0575396
-0.000100037
0.0575047
-0.000146504
0.0574541
-0.000207645
0.0573826
-0.000288107
0.0572826
-0.000394091
0.0571442
-0.000533454
0.0569535
-0.000716439
0.0566916
-0.000955869
0.0563319
-0.00126793
0.0558376
-0.00167222
0.0551563
-0.00219207
0.0542143
-0.00285342
0.0529069
-0.00368295
0.0510859
-0.00470258
0.0485423
-0.00592037
0.0449899
-0.00731195
0.0400468
-0.00879569
0.033258
-0.010185
0.0241382
-0.0111833
0.0124181
-0.0112777
-0.00894488
0.0436956
0.000116024
0.0436223
0.000224924
0.0435734
0.000232306
0.0435483
0.000212217
0.0435416
0.000188416
0.0435494
0.000163507
0.0435675
0.000139625
0.0435915
0.000118848
0.0436187
0.000101682
0.0436471
8.76105e-05
0.0436756
7.60055e-05
0.0437034
6.63383e-05
0.0437301
5.8221e-05
0.0437554
5.12822e-05
0.0437791
4.5235e-05
0.0438011
3.97925e-05
0.0438212
3.47454e-05
0.0438394
2.98437e-05
0.0438554
2.48754e-05
0.0438687
1.95413e-05
0.0438792
1.35543e-05
0.0438859
6.50292e-06
0.0438882
-2.05388e-06
0.0438846
-1.2755e-05
0.0438737
-2.63483e-05
0.0438531
-4.38913e-05
0.0438199
-6.66818e-05
0.04377
-9.64925e-05
0.043698
-0.000135534
0.0435968
-0.000186746
0.0434567
-0.000253797
0.0432647
-0.000341422
0.0430039
-0.000455435
0.0426511
-0.000603022
0.0421759
-0.000792591
0.0415375
-0.00103374
0.0406819
-0.00133642
0.0395382
-0.00170971
0.0380144
-0.00215907
0.035994
-0.00268202
0.033335
-0.00326123
0.0298776
-0.00385432
0.0254644
-0.00438223
0.0199944
-0.00471472
0.013496
-0.00468407
0.00629228
-0.00407284
-0.00265238
0.0276416
0.000224429
0.0276099
0.00025677
0.0276415
0.000200744
0.0277031
0.000150708
0.027777
0.000114575
0.0278529
8.76754e-05
0.027925
6.76183e-05
0.0279908
5.30765e-05
0.02805
4.26475e-05
0.0281026
3.50306e-05
0.0281494
2.92958e-05
0.0281909
2.48523e-05
0.0282279
2.13212e-05
0.0282608
1.84316e-05
0.0282902
1.59876e-05
0.0283162
1.38393e-05
0.0283391
1.18735e-05
0.028359
9.98397e-06
0.0283759
8.0686e-06
0.0283895
6.00891e-06
0.0283995
3.67451e-06
0.0284052
8.97325e-07
0.0284057
-2.5104e-06
0.0283998
-6.7784e-06
0.0283858
-1.22058e-05
0.0283612
-1.92019e-05
0.0283229
-2.82892e-05
0.0282667
-4.01472e-05
0.0281869
-5.56334e-05
0.0280761
-7.58411e-05
0.0279246
-0.000102126
0.0277195
-0.000136155
0.0274441
-0.000179905
0.0270768
-0.000235638
0.0265901
-0.000305764
0.025949
-0.000392587
0.0251104
-0.000497801
0.0240225
-0.000621694
0.0226255
-0.000761955
0.0208557
-0.000912067
0.0186541
-0.00105946
0.0159835
-0.00118348
0.0128557
-0.0012542
0.00937234
-0.00123085
0.00575472
-0.00106545
0.0023806
-0.00069763
-0.000271613
0.00997444
0.0102312
0.010432
0.0105827
0.0106973
0.010785
0.0108526
0.0109057
0.0109484
0.0109834
0.0110128
0.0110376
0.011059
0.0110774
0.0110934
0.0111073
0.0111192
0.0111292
0.0111372
0.0111433
0.011147
0.0111479
0.0111454
0.0111386
0.0111264
0.0111073
0.011079
0.0110389
0.0109833
0.0109075
0.0108054
0.0106693
0.0104894
0.0102538
0.00994803
0.00955546
0.00905767
0.008436
0.00767407
0.00676205
0.00570263
0.0045192
0.00326506
0.00203432
0.000969071
0.000271613
0.1467
0.0541716
0.119587
0.027113
0.103143
0.0164434
0.092491
0.0106522
0.0853797
0.00711151
0.00507405
0.0803068
0.254018
0.0338471
0.259984
0.0211471
0.260411
0.0160159
0.257437
0.0136272
0.252608
0.01194
0.0115625
0.246121
0.259392
0.0022993
0.276841
0.0036976
0.287586
0.00527156
0.294292
0.00692078
0.29745
0.00878319
0.0110312
0.297982
0.260341
-0.0293181
0.277607
-0.0135678
0.288322
-0.00544453
0.295521
-0.00027757
0.299789
0.00451486
0.00885422
0.301968
0.259105
-0.0510107
0.267603
-0.022067
0.272526
-0.0103671
0.275465
-0.00321791
0.277439
0.00254243
0.00757243
0.278721
0.155526
0.133459
0.123091
0.119873
0.122416
0.129989
-0.000243798
0.000244166
-0.000739322
0.000496548
-0.00130234
0.000564001
-0.0018424
0.000541002
-0.00233837
0.000496864
-0.00278847
0.000450959
-0.00319545
0.000407743
-0.00356298
0.000368201
-0.00389466
0.000332244
-0.00419341
0.000299247
-0.00446098
0.00026801
-0.00469754
0.00023697
-0.0049017
0.000204525
-0.00507079
0.000169428
-0.0052017
0.000131185
-0.00529189
9.04157e-05
-0.00534035
4.86143e-05
-0.00534784
7.5138e-06
-0.00531696
-3.09993e-05
-0.00525177
-6.55011e-05
-0.00515698
-9.52501e-05
-0.00503778
-0.000119767
-0.00489988
-0.000138533
-0.0047494
-0.000151148
-0.00459252
-0.000157554
-0.00443506
-0.000158098
-0.00428216
-0.000153488
-0.00413843
-0.000144211
-0.00400773
-0.000131088
-0.00389284
-0.000115162
-0.00379555
-9.74775e-05
-0.00371684
-7.88326e-05
-0.00365696
-6.00972e-05
-0.0036151
-4.22881e-05
-0.00358917
-2.66114e-05
-0.00357563
-1.43946e-05
-0.00356981
-6.70227e-06
-0.00356678
-3.98287e-06
-0.00356149
-6.42327e-06
-0.00354913
-1.36667e-05
-0.00352321
-2.67751e-05
-0.00347442
-4.96459e-05
-0.0033968
-8.03362e-05
-0.00329717
-0.000104767
-0.00318075
-0.000123131
-0.0030443
-0.000143943
-0.000197673
-0.000848465
0.00109368
-0.00218762
0.00183803
-0.00357196
0.00195062
-0.00485271
0.00182396
-0.0059977
0.00164395
-0.00701028
0.00146543
-0.00790301
0.00130215
-0.0086898
0.00115637
-0.00938323
0.00102683
-0.0099934
0.000910352
-0.0105271
0.000802513
-0.0109874
0.000698088
-0.0113746
0.000592327
-0.0116864
0.000481759
-0.0119202
0.000365429
-0.0120746
0.000245137
-0.0121507
0.000124823
-0.0121525
9.12063e-06
-0.0120864
-9.75874e-05
-0.011961
-0.000191811
-0.0117859
-0.000271596
-0.0115715
-0.000335585
-0.0113289
-0.000382739
-0.0110693
-0.000412391
-0.0108037
-0.000424746
-0.0105426
-0.000420879
-0.010295
-0.000402481
-0.0100689
-0.000371606
-0.00987028
-0.000330639
-0.00970368
-0.000282535
-0.00957139
-0.000230234
-0.00947401
-0.000176677
-0.00941023
-0.000124507
-0.00937676
-7.69388e-05
-0.00936773
-3.73245e-05
-0.00937491
-9.24928e-06
-0.0093883
4.61246e-06
-0.00939742
2.84723e-06
-0.00939221
-1.44272e-05
-0.00936199
-4.6805e-05
-0.00929503
-9.62124e-05
-0.00918378
-0.000163714
-0.00903172
-0.000238288
-0.00884658
-0.000302597
-0.00863099
-0.000353713
-0.00839818
-0.000385163
-0.000420304
-0.00151731
0.00261181
-0.00361778
0.00394057
-0.00561781
0.00395266
-0.00738858
0.00359665
-0.00893219
0.00318936
-0.0102747
0.0028096
-0.011445
0.00247376
-0.0124682
0.00218077
-0.0133647
0.00192422
-0.0141495
0.00169589
-0.0148324
0.00148604
-0.0154185
0.00128476
-0.0159088
0.0010831
-0.016302
0.000875304
-0.0165963
0.000659937
-0.0167916
0.000440656
-0.0168912
0.000224504
-0.0169018
1.94464e-05
-0.0168323
-0.000167573
-0.016694
-0.000330911
-0.0164994
-0.000467337
-0.0162613
-0.00057506
-0.0159931
-0.000652377
-0.0157085
-0.000698431
-0.0154213
-0.000713514
-0.0151439
-0.00069962
-0.0148879
-0.000659839
-0.0146624
-0.000598234
-0.0144745
-0.000519397
-0.0143291
-0.000428529
-0.0142289
-0.000330931
-0.0141739
-0.000231927
-0.0141622
-0.000136848
-0.0141885
-5.17425e-05
-0.0142447
1.73741e-05
-0.0143203
6.45866e-05
-0.0144026
8.51791e-05
-0.0144785
7.67165e-05
-0.0145345
3.90765e-05
-0.0145565
-2.75685e-05
-0.0145308
-0.000124071
-0.0144499
-0.000246948
-0.0143145
-0.000379654
-0.0141269
-0.000498059
-0.0139022
-0.000587478
-0.0136618
-0.000630819
-0.000617534
-0.00217842
0.00479079
-0.0047972
0.00656081
-0.00703251
0.00618975
-0.00890822
0.00547424
-0.0105094
0.00479236
-0.0118955
0.00419727
-0.0131111
0.00369073
-0.014189
0.00325973
-0.0151516
0.00288771
-0.0160139
0.00255873
-0.0167845
0.0022572
-0.0174673
0.00196785
-0.0180612
0.00167736
-0.0185626
0.00137684
-0.0189671
0.00106437
-0.0192723
0.000745812
-0.0194803
0.000432259
-0.0195969
0.000135772
-0.0196306
-0.000134489
-0.0195913
-0.000371132
-0.0194905
-0.000569187
-0.0193407
-0.000726078
-0.0191555
-0.000838767
-0.01895
-0.00090508
-0.0187397
-0.00092508
-0.018539
-0.000901401
-0.0183606
-0.000839288
-0.0182148
-0.000744813
-0.0181098
-0.000625156
-0.0180513
-0.000487337
-0.0180429
-0.000339622
-0.0180848
-0.000190084
-0.0181743
-4.77762e-05
-0.0183057
7.88348e-05
-0.0184707
0.000181018
-0.0186585
0.000250848
-0.0188562
0.000281367
-0.0190501
0.00026895
-0.0192256
0.000212168
-0.0193665
0.000110949
-0.0194584
-3.42163e-05
-0.0194915
-0.000216042
-0.0194578
-0.000417461
-0.0193498
-0.000612718
-0.0191758
-0.000767599
-0.0189635
-0.000845459
-0.000800686
-0.00273477
0.00752625
-0.00522511
0.00905256
-0.00694232
0.00790878
-0.00831505
0.00684896
-0.00952915
0.00600845
-0.010642
0.00531183
-0.0116877
0.00473803
-0.012688
0.00426108
-0.013651
0.00385168
-0.0145781
0.0034865
-0.0154667
0.00314643
-0.0163115
0.0028131
-0.0171037
0.00246995
-0.0178316
0.00210491
-0.0184828
0.00171561
-0.0190478
0.00131084
-0.0195223
0.000906685
-0.0199067
0.000520121
-0.020206
0.000164484
-0.0204255
-0.00015209
-0.0205708
-0.000424516
-0.0206495
-0.000648077
-0.0206734
-0.000815361
-0.0206584
-0.000920774
-0.0206216
-0.000962339
-0.0205806
-0.000943302
-0.0205502
-0.000870197
-0.0205443
-0.000751473
-0.0205737
-0.000595974
-0.0206474
-0.000413953
-0.0207701
-0.000216668
-0.0209435
-1.66286e-05
-0.0211657
0.000174423
-0.0214331
0.00034545
-0.0217389
0.000485681
-0.0220743
0.000584825
-0.0224285
0.000634344
-0.0227892
0.00062798
-0.0231416
0.000562828
-0.0234705
0.000437523
-0.0237612
0.000254838
-0.0240028
2.33337e-05
-0.0241806
-0.000243442
-0.0242751
-0.000522655
-0.0242806
-0.000764618
-0.0242201
-0.000908467
-0.000882012
-0.0025498
0.0100762
-0.00303914
0.00954349
-0.00283255
0.00770429
-0.00289104
0.00690972
-0.00325898
0.00637854
-0.00384846
0.0059033
-0.00462009
0.00551124
-0.00554543
0.00518779
-0.00659106
0.00489833
-0.00772307
0.00461954
-0.00891185
0.00433612
-0.0101316
0.00403381
-0.0113588
0.00369789
-0.0125688
0.00331559
-0.0137369
0.00288415
-0.0148413
0.00241567
-0.0158664
0.00193212
-0.0168011
0.00145496
-0.0176391
0.00100234
-0.0183779
0.000586235
-0.0190157
0.000212578
-0.0195496
-0.000114746
-0.019983
-0.000382646
-0.0203287
-0.000575698
-0.0206065
-0.00068524
-0.0208383
-0.000712272
-0.0210453
-0.000663764
-0.0212473
-0.000549801
-0.0214615
-0.000381794
-0.0217015
-0.000173696
-0.0219772
5.96561e-05
-0.0222951
0.000301862
-0.0226583
0.000537797
-0.023066
0.000752819
-0.0235146
0.000933358
-0.0239987
0.00106804
-0.0245123
0.00114707
-0.0250474
0.0011622
-0.0255938
0.00110771
-0.026139
0.000981203
-0.0266718
0.000786202
-0.0271805
0.000530338
-0.0276479
0.000221791
-0.0280511
-0.000122245
-0.0283675
-0.000452051
-0.0285832
-0.000691996
-0.000739174
0.00701676
0.00306079
0.0120274
0.00453531
0.0145668
0.00516698
0.0157673
0.00571102
0.0160217
0.00612562
0.0155503
0.00637593
0.0145342
0.00652832
0.0131075
0.00661529
0.0113735
0.00663304
0.00941818
0.00657563
0.00731348
0.00644169
0.00511766
0.00623056
0.00287501
0.00594142
0.000615046
0.00557625
-0.00163871
0.00513843
-0.0038568
0.00463425
-0.00600406
0.00407975
-0.00804846
0.00349947
-0.0099638
0.00291729
-0.0117284
0.0023501
-0.0133228
0.00180575
-0.0147285
0.00129011
-0.0159398
0.000827438
-0.0169659
0.000449941
-0.0178282
0.000175935
-0.0185525
1.19147e-05
-0.0191673
-4.93524e-05
-0.0197001
-1.6315e-05
-0.0201803
9.90124e-05
-0.0206337
0.000281206
-0.0210836
0.000510924
-0.021547
0.000766738
-0.0220344
0.00102598
-0.02255
0.00126862
-0.023095
0.00147791
-0.0236698
0.00164233
-0.0242754
0.00175179
-0.024911
0.00179709
-0.0255743
0.00176956
-0.02626
0.00166546
-0.0269623
0.00148697
-0.0276716
0.00123865
-0.028375
0.000922914
-0.0290545
0.000554137
-0.0296706
0.00016518
-0.0301673
-0.000193701
-0.000336712
0.0784096
0.00495982
0.0769227
0.00602382
0.0750611
0.00702986
0.0727238
0.0080493
0.0698292
0.00902102
0.0663609
0.00984474
0.0624001
0.0104895
0.0580527
0.0109629
0.0534159
0.0112701
0.0485801
0.0114117
0.0436304
0.0113918
0.0386418
0.0112197
0.033676
0.0109077
0.0287823
0.0104705
0.0239986
0.00992259
0.0193552
0.00927819
0.0148815
0.00855397
0.0106118
0.00776949
0.00658497
0.00694401
0.00283963
0.0060947
-0.000589834
0.00523442
-0.00367326
0.00437232
-0.00638784
0.00354139
-0.00873092
0.00279175
-0.0107198
0.00216444
-0.0123903
0.00168148
-0.0137772
0.00133757
-0.0149207
0.00112724
-0.0158692
0.00104848
-0.0166725
0.00108565
-0.0173746
0.00121472
-0.0180117
0.0014052
-0.0186096
0.00162493
-0.0191858
0.001845
-0.0197515
0.00204326
-0.0203151
0.00220513
-0.0208842
0.00232008
-0.021466
0.00237759
-0.0220667
0.00236876
-0.0226926
0.0022894
-0.0233478
0.00214108
-0.0240328
0.00192238
-0.024743
0.00163223
-0.0254703
0.0012808
-0.0261784
0.000873036
-0.0267845
0.000412626
0.000193406
0.238444
0.0126385
0.230021
0.014448
0.220789
0.0162626
0.210869