/*--------------------------------*- C++ -*----------------------------------*\
| =========                 |                                                 |
| \\      /  F ield         | OpenFOAM: The Open Source CFD Toolbox           |
|  \\    /   O peration     | Version:  2406                                  |
|   \\  /    A nd           | Website:  www.openfoam.com                      |
|    \\/     M anipulation  |                                                 |
\*---------------------------------------------------------------------------*/
FoamFile
{
    version     2.0;
    format      ascii;
    arch        "LSB;label=32;scalar=64";
    class       volScalarField;
    location    "84";
    object      p;
}
// * * * * * * * * * * * * * * * * * * * * * * * * * * * * * * * * * * * * * //

dimensions      [0 2 -2 0 0 0 0];

internalField   nonuniform List<scalar> 
1916
(
3.86073
3.86091
3.86058
3.85987
3.85899
3.85801
3.85696
3.85584
3.8547
3.85353
3.85234
3.85113
3.84991
3.84869
3.84745
3.84621
3.84497
3.84372
3.84247
3.84122
3.83997
3.83872
3.83748
3.83624
3.83501
3.8338
3.8326
3.83143
3.83029
3.82919
3.82815
3.82719
3.82632
3.82559
3.82501
3.82465
3.82454
3.82473
3.82529
3.82627
3.82769
3.82955
3.8318
3.83432
3.83691
3.83924
3.84058
3.86194
3.86133
3.86063
3.85986
3.85897
3.85798
3.85692
3.85581
3.85467
3.8535
3.85232
3.85111
3.8499
3.84867
3.84744
3.8462
3.84496
3.84372
3.84247
3.84122
3.83997
3.83872
3.83747
3.83624
3.83501
3.83379
3.83259
3.83142
3.83027
3.82918
3.82814
3.82717
3.82631
3.82557
3.82501
3.82466
3.82458
3.82483
3.82547
3.82658
3.82819
3.83029
3.83284
3.83567
3.83857
3.84126
3.84284
3.86273
3.86158
3.86058
3.85979
3.85892
3.85793
3.85687
3.85577
3.85463
3.85347
3.85229
3.85109
3.84988
3.84866
3.84743
3.84619
3.84495
3.8437
3.84245
3.8412
3.83994
3.83869
3.83744
3.8362
3.83496
3.83372
3.83251
3.83131
3.83013
3.82899
3.82789
3.82686
3.8259
3.82505
3.82435
3.82383
3.82356
3.82361
3.82406
3.82502
3.82656
3.82875
3.83161
3.83504
3.83874
3.84239
3.84428
3.86327
3.86188
3.86065
3.85978
3.85889
3.85789
3.85681
3.85571
3.85458
3.85343
3.85225
3.85105
3.84985
3.84863
3.8474
3.84616
3.84492
3.84367
3.84241
3.84116
3.8399
3.83863
3.83737
3.8361
3.83483
3.83357
3.8323
3.83103
3.82977
3.82852
3.82728
3.82605
3.82484
3.82367
3.82256
3.82152
3.82061
3.81988
3.81943
3.81937
3.81987
3.82114
3.82336
3.8267
3.83091
3.83547
3.83661
3.86369
3.86219
3.8608
3.85982
3.85889
3.85786
3.85677
3.85565
3.85453
3.85337
3.8522
3.85101
3.8498
3.84858
3.84735
3.84612
3.84487
3.84362
3.84236
3.8411
3.83982
3.83854
3.83725
3.83595
3.83464
3.83331
3.83197
3.8306
3.8292
3.82776
3.82627
3.82472
3.82309
3.82136
3.81951
3.81753
3.81538
3.81308
3.81064
3.80813
3.80567
3.80351
3.80198
3.80159
3.80215
3.80341
3.79705
3.86402
3.86246
3.86095
3.85988
3.85891
3.85785
3.85674
3.85561
3.85448
3.85332
3.85215
3.85096
3.84975
3.84854
3.84731
3.84607
3.84482
3.84356
3.8423
3.84102
3.83973
3.83842
3.8371
3.83575
3.83439
3.83298
3.83154
3.83003
3.82845
3.82676
3.82495
3.82297
3.82076
3.81826
3.81539
3.81203
3.80806
3.80331
3.7976
3.79074
3.78249
3.77271
3.76111
3.74774
3.73038
3.70762
3.64904
3.86427
3.86267
3.8611
3.85996
3.85894
3.85786
3.85672
3.85558
3.85444
3.85328
3.8521
3.85091
3.84971
3.84849
3.84726
3.84602
3.84476
3.8435
3.84222
3.84093
3.83962
3.83829
3.83693
3.83554
3.83411
3.83262
3.83106
3.8294
3.82761
3.82566
3.82348
3.821
3.81814
3.81475
3.81066
3.80565
3.7994
3.79151
3.78142
3.76837
3.75126
3.7286
3.69769
3.65578
3.59067
3.50517
3.20301
3.86445
3.86284
3.86121
3.86002
3.85898
3.85787
3.85671
3.85556
3.85441
3.85324
3.85206
3.85087
3.84967
3.84845
3.84721
3.84597
3.84471
3.84344
3.84216
3.84085
3.83952
3.83816
3.83677
3.83534
3.83384
3.83228
3.83061
3.8288
3.82682
3.82461
3.82208
3.81913
3.81561
3.81134
3.80604
3.79935
3.79075
3.77951
3.76458
3.74441
3.71653
3.67706
3.61803
3.52653
3.35112
3.01111
1.84968
3.86456
3.86294
3.86129
3.86007
3.859
3.85788
3.85671
3.85554
3.85438
3.85322
3.85203
3.85084
3.84964
3.84842
3.84718
3.84593
3.84467
3.84339
3.8421
3.84079
3.83944
3.83806
3.83664
3.83517
3.83363
3.832
3.83025
3.82833
3.8262
3.82378
3.82097
3.81764
3.81361
3.80863
3.80235
3.79427
3.78369
3.76961
3.75048
3.72399
3.68634
3.63129
3.54683
3.41192
3.17419
2.75925
2.00656
3.86462
3.86299
3.86133
3.8601
3.85901
3.85788
3.85671
3.85553
3.85437
3.8532
3.85202
3.85082
3.84961
3.84839
3.84716
3.8459
3.84464
3.84336
3.84206
3.84074
3.83939
3.838
3.83656
3.83507
3.83351
3.83184
3.83004
3.82806
3.82584
3.8233
3.82034
3.8168
3.81248
3.8071
3.80026
3.79139
3.77969
3.76396
3.74239
3.71221
3.66895
3.60533
3.50902
3.3598
3.12509
2.75646
2.22476
3.86461
3.86299
3.86133
3.86009
3.85901
3.85787
3.8567
3.85553
3.85436
3.85319
3.85201
3.85081
3.84961
3.84838
3.84715
3.84589
3.84463
3.84335
3.84205
3.84073
3.83937
3.83798
3.83655
3.83505
3.83348
3.83182
3.83001
3.82803
3.82581
3.82327
3.8203
3.81675
3.81243
3.80704
3.80019
3.79131
3.77958
3.76382
3.74221
3.71196
3.66859
3.60478
3.50811
3.35821
3.12231
2.75146
2.21695
3.86455
3.86292
3.86128
3.86006
3.85898
3.85786
3.85669
3.85553
3.85437
3.8532
3.85201
3.85082
3.84961
3.84839
3.84715
3.8459
3.84464
3.84336
3.84206
3.84074
3.83939
3.83801
3.83659
3.83511
3.83357
3.83193
3.83017
3.82824
3.8261
3.82367
3.82085
3.8175
3.81346
3.80845
3.80214
3.79402
3.78339
3.76923
3.74999
3.72331
3.68537
3.62982
3.54441
3.40766
3.16596
2.74232
1.97275
3.86442
3.86281
3.86119
3.86
3.85895
3.85784
3.85669
3.85553
3.85438
3.85321
3.85203
3.85084
3.84963
3.84841
3.84717
3.84592
3.84466
3.84339
3.8421
3.84078
3.83945
3.83808
3.83668
3.83524
3.83374
3.83216
3.83048
3.82866
3.82667
3.82443
3.82188
3.81891
3.81537
3.81106
3.80572
3.79897
3.79029
3.77894
3.76386
3.74346
3.71522
3.67517
3.6151
3.52174
3.34174
2.99122
1.78456
3.86423
3.86264
3.86106
3.85992
3.85891
3.85782
3.85668
3.85554
3.8544
3.85324
3.85206
3.85086
3.84966
3.84844
3.8472
3.84595
3.84469
3.84343
3.84214
3.84084
3.83952
3.83818
3.83681
3.83541
3.83397
3.83247
3.83089
3.82921
3.82741
3.82543
3.82322
3.82072
3.81781
3.81438
3.81024
3.80516
3.79883
3.79083
3.78059
3.76732
3.7499
3.72677
3.69514
3.65214
3.58504
3.4971
3.18386
3.86398
3.86242
3.86091
3.85984
3.85887
3.85781
3.85669
3.85556
3.85443
3.85327
3.85209
3.8509
3.84969
3.84847
3.84724
3.84599
3.84474
3.84347
3.8422
3.84091
3.83961
3.83829
3.83696
3.8356
3.83422
3.8328
3.83133
3.8298
3.8282
3.82649
3.82465
3.82263
3.82038
3.81784
3.81491
3.81149
3.80743
3.80259
3.79675
3.78972
3.78126
3.77118
3.7592
3.74532
3.72724
3.70352
3.64258
3.86364
3.86214
3.86075
3.85977
3.85884
3.85781
3.85671
3.8556
3.85447
3.85331
3.85214
3.85094
3.84973
3.84851
3.84727
3.84603
3.84478
3.84352
3.84225
3.84097
3.83969
3.8384
3.83709
3.83578
3.83445
3.8331
3.83174
3.83034
3.82892
3.82745
3.82593
3.82435
3.82268
3.8209
3.819
3.81696
3.81475
3.81237
3.80983
3.8072
3.80462
3.80232
3.80063
3.80008
3.80048
3.80162
3.79494
3.86322
3.86182
3.8606
3.85972
3.85884
3.85783
3.85676
3.85565
3.85452
3.85336
3.85218
3.85098
3.84977
3.84855
3.84731
3.84607
3.84482
3.84356
3.8423
3.84103
3.83975
3.83848
3.8372
3.83592
3.83463
3.83334
3.83205
3.83077
3.82948
3.82819
3.82692
3.82565
3.82441
3.8232
3.82203
3.82095
3.81998
3.81919
3.81867
3.81855
3.81899
3.8202
3.82238
3.8257
3.82992
3.83452
3.83563
3.86268
3.86152
3.86053
3.85973
3.85886
3.85787
3.85681
3.85571
3.85457
3.85341
3.85222
3.85102
3.8498
3.84857
3.84734
3.84609
3.84484
3.84359
3.84233
3.84106
3.8398
3.83853
3.83727
3.836
3.83474
3.83349
3.83225
3.83103
3.82983
3.82866
3.82753
3.82646
3.82546
3.82458
3.82383
3.82327
3.82295
3.82295
3.82336
3.82427
3.82578
3.82796
3.83082
3.83426
3.838
3.8417
3.8436
3.86189
3.86127
3.86057
3.8598
3.85891
3.85792
3.85686
3.85575
3.85461
3.85344
3.85225
3.85104
3.84982
3.84859
3.84735
3.84611
3.84486
3.8436
3.84234
3.84108
3.83982
3.83856
3.8373
3.83604
3.83479
3.83356
3.83234
3.83114
3.82997
3.82884
3.82777
3.82677
3.82587
3.8251
3.82449
3.8241
3.82398
3.82419
3.8248
3.82588
3.82746
3.82956
3.8321
3.83495
3.83787
3.84059
3.84218
3.86068
3.86086
3.86052
3.85981
3.85894
3.85796
3.8569
3.85578
3.85464
3.85346
3.85227
3.85106
3.84984
3.8486
3.84736
3.84612
3.84487
3.84361
3.84235
3.84109
3.83983
3.83856
3.8373
3.83605
3.8348
3.83357
3.83235
3.83115
3.82998
3.82886
3.82779
3.82679
3.82589
3.82512
3.82451
3.8241
3.82395
3.8241
3.82463
3.82557
3.82697
3.82882
3.83106
3.83359
3.83619
3.83854
3.83989
-0.676135
-0.614294
-0.133379
-0.033909
-0.101761
-0.128208
0.788112
0.264941
0.189457
0.102752
-0.0226701
-0.0917842
1.3884
0.613955
0.243386
0.0989303
-0.0136419
-0.102089
1.37283
0.588643
0.21001
0.0555575
-0.0729211
-0.180683
0.717861
0.171135
0.0843819
-0.0224233
-0.187609
-0.310187
-0.865549
-0.827422
-0.322469
-0.230954
-0.349967
-0.444451
-0.0443159
-0.0446522
-0.0448569
-0.0448251
-0.0446144
-0.0442439
-0.0437144
-0.043027
-0.0421846
-0.0411917
-0.0400532
-0.0387745
-0.0373626
-0.0358271
-0.0341814
-0.0324439
-0.030637
-0.0287864
-0.0269201
-0.0250657
-0.0232494
-0.0214943
-0.0198202
-0.0182423
-0.0167714
-0.0154136
-0.0141708
-0.0130415
-0.0120209
-0.0111021
-0.0102761
-0.0095322
-0.00885824
-0.00824141
-0.00766822
-0.00712433
-0.00659452
-0.00606302
-0.00551538
-0.00493933
-0.00432227
-0.00365016
-0.00291762
-0.0021342
-0.00131072
-0.000529829
-0.0001281
-0.0437942
-0.0441523
-0.0443619
-0.0443515
-0.0441888
-0.043874
-0.0433984
-0.0427608
-0.0419645
-0.0410155
-0.0399195
-0.0386829
-0.0373123
-0.0358164
-0.0342075
-0.0325025
-0.0307223
-0.0288922
-0.0270403
-0.0251943
-0.0233805
-0.0216223
-0.0199394
-0.0183482
-0.0168594
-0.0154805
-0.0142142
-0.0130597
-0.0120116
-0.0110646
-0.0102108
-0.00944021
-0.00874071
-0.00810129
-0.00751001
-0.00695389
-0.00641886
-0.00588727
-0.00534277
-0.00478133
-0.00419337
-0.00353949
-0.00278753
-0.00200544
-0.00124248
-0.000395436
0.000144284
-0.0439192
-0.0442514
-0.044434
-0.044412
-0.0442598
-0.0439587
-0.0434944
-0.0428669
-0.0420821
-0.0411476
-0.0400697
-0.0388551
-0.0375083
-0.0360347
-0.0344426
-0.0327461
-0.0309648
-0.0291234
-0.0272518
-0.025379
-0.0235321
-0.0217349
-0.0200099
-0.0183753
-0.016844
-0.0154237
-0.0141179
-0.0129259
-0.0118436
-0.010866
-0.00998773
-0.00920046
-0.00849045
-0.00784822
-0.00726222
-0.00672128
-0.0062112
-0.00570816
-0.0051962
-0.00468191
-0.00415392
-0.00352792
-0.00274746
-0.00196783
-0.00127072
-0.000389883
0.000293615
-0.0457662
-0.0458436
-0.045806
-0.0456234
-0.0453383
-0.0449137
-0.0443378
-0.0436149
-0.0427543
-0.041764
-0.0406502
-0.0394149
-0.0380572
-0.0365749
-0.0349679
-0.0332443
-0.0314212
-0.0295236
-0.0275825
-0.0256299
-0.0236961
-0.0218088
-0.0199931
-0.0182715
-0.0166596
-0.0151656
-0.0137938
-0.0125448
-0.0114193
-0.010414
-0.00952221
-0.00873336
-0.00803718
-0.0074224
-0.00687645
-0.00639034
-0.00595085
-0.00552934
-0.00510471
-0.00468148
-0.00424153
-0.00367321
-0.00291428
-0.00214837
-0.00144627
-0.000530719
0.000367378
-0.0507867
-0.0496745
-0.0487419
-0.0480311
-0.0473698
-0.0466362
-0.0458028
-0.044873
-0.0438521
-0.0427425
-0.0415451
-0.0402536
-0.0388587
-0.0373477
-0.0357087
-0.0339376
-0.0320445
-0.0300541
-0.0280004
-0.025923
-0.0238562
-0.0218331
-0.0198814
-0.0180276
-0.0162899
-0.0146837
-0.013218
-0.0118986
-0.0107268
-0.00969713
-0.0087999
-0.00802656
-0.00737036
-0.00681813
-0.00635556
-0.00597212
-0.00565527
-0.00537341
-0.00509452
-0.00480918
-0.00448861
-0.00402343
-0.00336489
-0.00264501
-0.00186048
-0.000778739
0.000291593
-0.0626947
-0.055778
-0.0520138
-0.0503705
-0.0492386
-0.0481597
-0.047071
-0.0459526
-0.0447912
-0.04358
-0.042313
-0.0409797
-0.0395646
-0.038047
-0.0363994
-0.0345959
-0.0326346
-0.0305431
-0.0283669
-0.0261538
-0.0239435
-0.0217653
-0.0196494
-0.017628
-0.0157347
-0.0139962
-0.0124278
-0.011033
-0.00981055
-0.00875148
-0.00785399
-0.00711792
-0.00653333
-0.00608254
-0.00574424
-0.005507
-0.00535687
-0.00526618
-0.00519089
-0.00510139
-0.00495106
-0.00463715
-0.00411063
-0.00344071
-0.00253098
-0.00122938
6.12519e-05
-0.0850261
-0.0597109
-0.0507799
-0.0495945
-0.0486928
-0.0475894
-0.0466177
-0.0456588
-0.0446166
-0.0434955
-0.0423058
-0.0410414
-0.0396863
-0.038215
-0.0365901
-0.0347797
-0.0327899
-0.0306543
-0.0284176
-0.0261316
-0.023831
-0.0215331
-0.019273
-0.0170984
-0.0150613
-0.0131974
-0.0115238
-0.0100463
-0.00876988
-0.00769399
-0.00682376
-0.00615057
-0.00565871
-0.00532708
-0.0051345
-0.00506834
-0.00510988
-0.00523353
-0.00539026
-0.00553127
-0.00558785
-0.00545119
-0.00505744
-0.00443325
-0.0034532
-0.00192045
-0.000316685
-0.0939
-0.0617837
-0.0537561
-0.0539691
-0.0528156
-0.0508402
-0.0492663
-0.0479081
-0.046476
-0.0449615
-0.0434088
-0.0418187
-0.0401716
-0.0384433
-0.036606
-0.0346352
-0.0325282
-0.0303114
-0.0280306
-0.0257323
-0.0234244
-0.0211023
-0.0187847
-0.0165281
-0.014395
-0.0124332
-0.0106755
-0.0091404
-0.00783185
-0.00675511
-0.00591111
-0.00528844
-0.00487856
-0.00466922
-0.00463874
-0.00475633
-0.00499265
-0.00531592
-0.00568086
-0.00602624
-0.00627661
-0.00632126
-0.00608393
-0.00554824
-0.00454445
-0.00280311
-0.000811792
-0.0876889
-0.0613002
-0.050584
-0.0498072
-0.0491242
-0.0475265
-0.0462885
-0.0454096
-0.0444539
-0.0433051
-0.0420333
-0.0406845
-0.0392553
-0.0377224
-0.036052
-0.0342104
-0.032188
-0.0300109
-0.0277232
-0.0253703
-0.0229813
-0.0205786
-0.0181964
-0.0158994
-0.0137562
-0.0118203
-0.0100959
-0.00856588
-0.00725005
-0.00618216
-0.00535689
-0.00477611
-0.00443668
-0.00432035
-0.00439932
-0.00464071
-0.00500714
-0.00545978
-0.00595123
-0.00641948
-0.00679618
-0.00698424
-0.00689132
-0.00643548
-0.00542996
-0.00357327
-0.00121257
-0.1363
-0.134464
-0.128137
-0.125626
-0.121907
-0.11488
-0.106377
-0.0978471
-0.089443
-0.0810925
-0.0729702
-0.0653123
-0.0582565
-0.051843
-0.0460556
-0.0408536
-0.0362004
-0.0320682
-0.028422
-0.0252063
-0.0223433
-0.0197458
-0.0173497
-0.0151269
-0.0130726
-0.0112016
-0.00952353
-0.00804442
-0.00678997
-0.0057839
-0.00502446
-0.00451202
-0.00423304
-0.00416931
-0.00430301
-0.00460095
-0.00502444
-0.00553343
-0.00608175
-0.00660862
-0.00704502
-0.007303
-0.00727357
-0.00682257
-0.00577591
-0.00400416
-0.00124604
-0.231112
-0.235556
-0.229488
-0.227291
-0.223779
-0.215406
-0.204148
-0.191912
-0.178798
-0.164582
-0.149524
-0.134118
-0.11878
-0.103811
-0.0894403
-0.0758659
-0.0632771
-0.0518647
-0.0418069
-0.0332345
-0.026189
-0.0206011
-0.0163058
-0.0130761
-0.010668
-0.0088587
-0.00746603
-0.00635916
-0.00546566
-0.0047513
-0.00420526
-0.00383983
-0.00366618
-0.003682
-0.00387458
-0.00421662
-0.00467721
-0.00521593
-0.00578395
-0.00632358
-0.00676838
-0.00703642
-0.00701783
-0.00658754
-0.00556156
-0.0040481
-0.00104034
-0.352744
-0.337995
-0.325139
-0.323834
-0.320631
-0.312035
-0.301387
-0.290149
-0.277556
-0.262936
-0.246351
-0.228134
-0.208587
-0.187968
-0.166531
-0.144544
-0.122334
-0.10036
-0.0792412
-0.0597231
-0.0425366
-0.0282342
-0.0170703
-0.00897247
-0.00359427
-0.000409254
0.00117861
0.00172898
0.00169212
0.00137269
0.000933724
0.000436847
-0.000104952
-0.000686328
-0.00130544
-0.00196517
-0.00266787
-0.00339768
-0.0041223
-0.00479554
-0.0053589
-0.00573677
-0.00582107
-0.00553481
-0.00466721
-0.00362372
-0.000273323
-0.467462
-0.422202
-0.404309
-0.40629
-0.404482
-0.397045
-0.388501
-0.379725
-0.369528
-0.357163
-0.34251
-0.325576
-0.306342
-0.284787
-0.260856
-0.234429
-0.205401
-0.173914
-0.140598
-0.106699
-0.0739324
-0.0441393
-0.0188932
0.00080642
0.0146864
0.0231718
0.0271962
0.0279342
0.0265406
0.0239646
0.0208769
0.0176989
0.0146654
0.011886
0.00939202
0.0071629
0.00515588
0.00333646
0.00169067
0.000219334
-0.00106319
-0.00209985
-0.00277503
-0.00307433
-0.00279087
-0.00268851
0.000635271
-0.47838
-0.429987
-0.41191
-0.41149
-0.411142
-0.409206
-0.407468
-0.405608
-0.402575
-0.397751
-0.390783
-0.38136
-0.369212
-0.354087
-0.335554
-0.312826
-0.28481
-0.250506
-0.209652
-0.163251
-0.11365
-0.0641276
-0.0182342
0.0209331
0.0513228
0.0722002
0.0840601
0.0882997
0.086776
0.081384
0.0737646
0.0651809
0.0565073
0.0482753
0.0407516
0.034026
0.02808
0.0228377
0.0182183
0.0141543
0.0105868
0.00750305
0.00496973
0.00292348
0.00150685
-0.000153367
0.00153966
-0.432079
-0.420483
-0.414176
-0.411964
-0.410944
-0.410215
-0.409877
-0.40966
-0.40898
-0.407402
-0.404532
-0.399967
-0.393478
-0.384875
-0.373623
-0.358403
-0.336945
-0.306493
-0.264916
-0.211863
-0.149231
-0.0809173
-0.0121648
0.0515009
0.105428
0.146589
0.173856
0.187864
0.19057
0.1846
0.172675
0.157227
0.140206
0.123013
0.106539
0.0912746
0.0774304
0.065033
0.054004
0.0442336
0.0356121
0.0280128
0.0213306
0.0154441
0.0103376
0.00545911
0.00265964
-0.412213
-0.410673
-0.409672
-0.409244
-0.409211
-0.409294
-0.409313
-0.409094
-0.40841
-0.40703
-0.404727
-0.401288
-0.396672
-0.391039
-0.384155
-0.374723
-0.359834
-0.335181
-0.296546
-0.241743
-0.171428
-0.0890246
-0.000465669
0.0869979
0.166326
0.231859
0.280052
0.309833
0.322373
0.320333
0.307093
0.28615
0.260656
0.233143
0.205443
0.178759
0.153799
0.130905
0.110168
0.091526
0.0748605
0.0599823
0.0466441
0.0346585
0.023785
0.0139899
0.00429212
-0.403314
-0.403557
-0.403984
-0.404467
-0.405008
-0.405505
-0.405875
-0.405986
-0.405606
-0.404478
-0.402327
-0.398893
-0.394202
-0.388757
-0.382823
-0.375525
-0.363992
-0.343306
-0.307728
-0.253425
-0.179388
-0.0881176
0.0144089
0.120177
0.220732
0.308379
0.377271
0.424428
0.449739
0.4552
0.444192
0.42084
0.389261
0.353016
0.314904
0.276947
0.24049
0.20633
0.174852
0.14615
0.120155
0.0966872
0.0754842
0.0563399
0.0388127
0.023237
0.00640217
-0.39998
-0.400518
-0.401081
-0.401566
-0.40202
-0.402358
-0.4025
-0.402348
-0.401751
-0.400504
-0.398337
-0.394962
-0.390271
-0.384499
-0.377907
-0.369994
-0.35817
-0.337072
-0.301072
-0.247061
-0.171815
-0.0766418
0.032892
0.148852
0.262443
0.364752
0.44823
0.50848
0.544363
0.557044
0.549506
0.526053
0.491306
0.449476
0.404056
0.357732
0.312404
0.269288
0.229053
0.19198
0.158092
0.12727
0.0992966
0.0740166
0.0508806
0.0303694
0.00818748
-0.399833
-0.400404
-0.400954
-0.401374
-0.401706
-0.401883
-0.401812
-0.401388
-0.400483
-0.398934
-0.396515
-0.392919
-0.387781
-0.380748
-0.37152
-0.359705
-0.344026
-0.320986
-0.284751
-0.229545
-0.152306
-0.0552423
0.0563105
0.174874
0.292742
0.400802
0.490706
0.557331
0.59859
0.614943
0.609291
0.586033
0.549889
0.505275
0.456
0.405094
0.354767
0.306485
0.261082
0.218905
0.180093
0.144666
0.11247
0.0833778
0.0568379
0.0335473
0.00858728
-0.400763
-0.40134
-0.401943
-0.40242
-0.40279
-0.403004
-0.402978
-0.40261
-0.401776
-0.400314
-0.397999
-0.394504
-0.389341
-0.381811
-0.370955
-0.355504
-0.333716
-0.303184
-0.260869
-0.203441
-0.127992
-0.0335065
0.0766535
0.194863
0.312111
0.418946
0.507341
0.574013
0.61652
0.633314
0.627627
0.604078
0.567346
0.521848
0.471459
0.419285
0.367601
0.317936
0.27122
0.227863
0.187787
0.150849
0.117057
0.0864237
0.0585766
0.0338851
0.00887072
)
;

boundaryField
{
    inlet
    {
        type            zeroGradient;
    }
    outlet
    {
        type            fixedValue;
        value           uniform 0;
    }
    upperWall
    {
        type            zeroGradient;
    }
    lowerWall
    {
        type            zeroGradient;
    }
    frontAndBack
    {
        type            empty;
    }
}


// ************************************************************************* //
