/*--------------------------------*- C++ -*----------------------------------*\
| =========                 |                                                 |
| \\      /  F ield         | OpenFOAM: The Open Source CFD Toolbox           |
|  \\    /   O peration     | Version:  2406                                  |
|   \\  /    A nd           | Website:  www.openfoam.com                      |
|    \\/     M anipulation  |                                                 |
\*---------------------------------------------------------------------------*/
FoamFile
{
    version     2.0;
    format      ascii;
    arch        "LSB;label=32;scalar=64";
    class       volScalarField;
    location    "78";
    object      p;
}
// * * * * * * * * * * * * * * * * * * * * * * * * * * * * * * * * * * * * * //

dimensions      [0 2 -2 0 0 0 0];

internalField   nonuniform List<scalar> 
2000
(
0.0619746
0.0628868
0.0633912
0.0634495
0.0633134
0.0630757
0.0627514
0.0623573
0.0619133
0.0614329
0.0630747
0.0632854
0.0634663
0.063458
0.0632977
0.0630412
0.0627107
0.062319
0.0618795
0.0614035
0.0639295
0.0635807
0.0634375
0.0633817
0.0632328
0.0629746
0.0626436
0.0622592
0.0618293
0.0613612
0.0645657
0.0639616
0.0635722
0.0634118
0.063226
0.0629382
0.0625846
0.0621923
0.0617643
0.0613013
0.0650795
0.0643545
0.0637815
0.0634936
0.0632461
0.0629213
0.0625406
0.0621332
0.061701
0.0612391
0.065491
0.0646979
0.0640008
0.0636054
0.0632947
0.0629313
0.0625212
0.0620937
0.061651
0.0611854
0.0658106
0.0649775
0.0642015
0.0637259
0.0633581
0.0629563
0.0625174
0.0620688
0.0616135
0.0611417
0.0660459
0.0651892
0.0643638
0.0638325
0.0634196
0.0629852
0.062522
0.0620556
0.0615886
0.06111
0.0662011
0.0653309
0.0644765
0.0639105
0.0634674
0.0630099
0.0625293
0.0620499
0.0615739
0.0610896
0.0662783
0.0654019
0.0645341
0.0639515
0.0634934
0.0630239
0.0625342
0.0620479
0.0615671
0.0610796
0.0662783
0.0654019
0.0645341
0.0639515
0.0634933
0.0630239
0.0625342
0.0620479
0.0615671
0.0610796
0.0662011
0.0653309
0.0644765
0.0639105
0.0634674
0.0630099
0.0625293
0.0620499
0.0615739
0.0610896
0.0660459
0.0651892
0.0643638
0.0638325
0.0634195
0.0629852
0.062522
0.0620556
0.0615886
0.06111
0.0658106
0.0649775
0.0642015
0.0637259
0.0633581
0.0629563
0.0625174
0.0620688
0.0616135
0.0611417
0.0654909
0.0646979
0.0640008
0.0636054
0.0632946
0.0629313
0.0625213
0.0620936
0.061651
0.0611854
0.0650795
0.0643545
0.0637815
0.0634935
0.063246
0.0629213
0.0625406
0.0621332
0.0617009
0.0612391
0.0645657
0.0639616
0.0635722
0.0634117
0.063226
0.0629382
0.0625847
0.0621923
0.0617642
0.0613013
0.0639295
0.0635807
0.0634375
0.0633817
0.0632328
0.0629746
0.0626436
0.0622592
0.0618293
0.0613612
0.0630747
0.0632854
0.0634663
0.063458
0.0632977
0.0630411
0.0627107
0.062319
0.0618795
0.0614035
0.0619745
0.0628868
0.0633912
0.0634495
0.0633134
0.0630757
0.0627514
0.0623573
0.0619133
0.0614329
0.0609243
0.0603932
0.059844
0.0592798
0.0587031
0.0581157
0.057519
0.0569142
0.0563023
0.0556841
0.0550601
0.054431
0.0537972
0.0531591
0.0525169
0.0518712
0.051222
0.0505697
0.0499145
0.0492566
0.048596
0.0479331
0.0472679
0.0466005
0.0459311
0.0452598
0.0445866
0.0439117
0.0432351
0.042557
0.0418773
0.0411962
0.0405138
0.03983
0.039145
0.0608988
0.0603713
0.059825
0.0592633
0.0586887
0.058103
0.0575077
0.0569042
0.0562932
0.0556758
0.0550525
0.054424
0.0537907
0.0531531
0.0525114
0.051866
0.0512172
0.0505652
0.0499102
0.0492525
0.0485921
0.0479294
0.0472644
0.0465972
0.0459279
0.0452567
0.0445837
0.0439089
0.0432324
0.0425544
0.0418748
0.0411938
0.0405114
0.0398278
0.0391428
0.0608627
0.0603402
0.0597983
0.0592403
0.0586686
0.0580852
0.057492
0.0568901
0.0562808
0.0556648
0.0550427
0.0544151
0.0537826
0.0531456
0.0525046
0.0518597
0.0512114
0.0505599
0.0499053
0.0492479
0.0485879
0.0479254
0.0472606
0.0465937
0.0459246
0.0452536
0.0445807
0.043906
0.0432297
0.0425518
0.0418724
0.0411915
0.0405092
0.0398256
0.0391407
0.0608082
0.0602914
0.0597554
0.0592028
0.0586358
0.0580563
0.0574663
0.0568674
0.0562608
0.0556472
0.0550273
0.0544014
0.0537703
0.0531344
0.0524943
0.0518503
0.0512028
0.050552
0.0498982
0.0492415
0.048582
0.04792
0.0472555
0.0465889
0.0459201
0.0452493
0.0445767
0.0439022
0.0432261
0.0425484
0.0418692
0.0411885
0.0405064
0.039823
0.0391382
0.0607492
0.0602364
0.0597052
0.0591578
0.0585956
0.0580202
0.0574337
0.0568379
0.0562344
0.0556239
0.0550066
0.0543831
0.0537538
0.0531193
0.0524803
0.0518374
0.0511909
0.0505412
0.0498884
0.0492325
0.0485739
0.0479125
0.0472486
0.0465824
0.0459139
0.0452435
0.0445711
0.043897
0.0432212
0.0425438
0.0418649
0.0411844
0.0405026
0.0398194
0.0391348
0.0606951
0.0601839
0.0596558
0.0591125
0.0585545
0.0579828
0.0573994
0.0568066
0.0562061
0.0555986
0.0549843
0.0543633
0.053736
0.053103
0.0524652
0.0518232
0.0511778
0.0505291
0.0498773
0.0492225
0.0485648
0.0479042
0.047241
0.0465752
0.0459071
0.0452369
0.0445648
0.043891
0.0432155
0.0425385
0.0418599
0.0411798
0.0404982
0.0398153
0.0391309
0.0606489
0.0601376
0.0596113
0.0590712
0.0585167
0.0579482
0.0573675
0.0567771
0.0561791
0.0555743
0.0549628
0.0543442
0.0537189
0.0530875
0.0524507
0.0518097
0.0511651
0.0505173
0.0498665
0.0492128
0.048556
0.0478962
0.0472336
0.0465682
0.0459005
0.0452305
0.0445587
0.0438851
0.0432099
0.0425332
0.0418549
0.0411751
0.0404939
0.0398112
0.0391271
0.0606137
0.0601013
0.0595757
0.0590376
0.0584857
0.0579196
0.057341
0.0567525
0.0561564
0.0555538
0.0549445
0.0543281
0.0537046
0.0530744
0.0524386
0.0517983
0.0511543
0.0505073
0.0498573
0.0492044
0.0485484
0.0478894
0.0472273
0.0465624
0.0458949
0.0452252
0.0445535
0.0438801
0.0432051
0.0425286
0.0418506
0.0411711
0.0404902
0.0398077
0.0391239
0.06059
0.0600762
0.0595509
0.059014
0.0584638
0.0578993
0.057322
0.0567347
0.05614
0.0555388
0.0549312
0.0543164
0.0536942
0.053065
0.0524299
0.0517901
0.0511466
0.0505
0.0498506
0.0491983
0.0485429
0.0478844
0.0472228
0.0465582
0.045891
0.0452214
0.0445498
0.0438765
0.0432016
0.0425253
0.0418475
0.0411682
0.0404875
0.0398052
0.0391215
0.0605782
0.0600636
0.0595382
0.0590019
0.0584525
0.0578889
0.0573122
0.0567255
0.0561313
0.055531
0.0549242
0.0543102
0.0536887
0.0530601
0.0524254
0.0517859
0.0511425
0.0504962
0.049847
0.049195
0.04854
0.0478818
0.0472204
0.046556
0.0458889
0.0452194
0.0445479
0.0438747
0.0431998
0.0425236
0.0418459
0.0411667
0.040486
0.0398039
0.0391203
0.0605782
0.0600636
0.0595382
0.0590019
0.0584525
0.0578888
0.0573122
0.0567255
0.0561314
0.055531
0.0549241
0.0543102
0.0536887
0.0530602
0.0524255
0.0517859
0.0511426
0.0504962
0.049847
0.049195
0.04854
0.0478818
0.0472204
0.046556
0.0458889
0.0452194
0.0445479
0.0438747
0.0431998
0.0425236
0.0418459
0.0411667
0.040486
0.0398039
0.0391202
0.0605901
0.0600763
0.0595509
0.0590139
0.0584637
0.0578993
0.0573221
0.0567348
0.05614
0.0555388
0.0549311
0.0543163
0.0536941
0.053065
0.05243
0.0517902
0.0511466
0.0505
0.0498505
0.0491982
0.0485429
0.0478844
0.0472228
0.0465582
0.045891
0.0452214
0.0445498
0.0438765
0.0432017
0.0425253
0.0418475
0.0411682
0.0404875
0.0398052
0.0391215
0.0606137
0.0601013
0.0595757
0.0590375
0.0584856
0.0579196
0.0573411
0.0567526
0.0561565
0.0555538
0.0549444
0.054328
0.0537045
0.0530744
0.0524387
0.0517984
0.0511544
0.0505073
0.0498573
0.0492044
0.0485484
0.0478894
0.0472273
0.0465624
0.0458949
0.0452252
0.0445535
0.0438801
0.0432051
0.0425286
0.0418506
0.0411711
0.0404902
0.0398077
0.0391238
0.0606489
0.0601377
0.0596113
0.059071
0.0585166
0.0579482
0.0573676
0.0567773
0.0561792
0.0555743
0.0549627
0.0543441
0.0537189
0.0530875
0.0524508
0.0518098
0.0511651
0.0505173
0.0498665
0.0492127
0.048556
0.0478962
0.0472335
0.0465682
0.0459005
0.0452305
0.0445587
0.0438851
0.0432099
0.0425331
0.0418549
0.0411751
0.0404939
0.0398112
0.0391271
0.0606952
0.060184
0.0596557
0.0591124
0.0585544
0.0579828
0.0573996
0.0568068
0.0562061
0.0555985
0.0549842
0.0543632
0.0537359
0.053103
0.0524652
0.0518233
0.0511778
0.0505291
0.0498773
0.0492225
0.0485648
0.0479042
0.0472409
0.0465751
0.0459071
0.0452369
0.0445648
0.043891
0.0432155
0.0425384
0.0418599
0.0411798
0.0404982
0.0398152
0.0391309
0.0607493
0.0602365
0.0597051
0.0591577
0.0585955
0.0580202
0.0574338
0.056838
0.0562344
0.0556238
0.0550065
0.0543831
0.0537538
0.0531194
0.0524804
0.0518375
0.051191
0.0505412
0.0498883
0.0492325
0.0485739
0.0479125
0.0472486
0.0465824
0.0459139
0.0452435
0.0445711
0.043897
0.0432212
0.0425438
0.0418648
0.0411844
0.0405026
0.0398193
0.0391348
0.0608083
0.0602915
0.0597553
0.0592027
0.0586357
0.0580564
0.0574664
0.0568675
0.0562608
0.0556472
0.0550272
0.0544014
0.0537703
0.0531345
0.0524943
0.0518503
0.0512028
0.050552
0.0498982
0.0492414
0.048582
0.04792
0.0472555
0.0465889
0.0459201
0.0452493
0.0445767
0.0439022
0.0432261
0.0425484
0.0418692
0.0411885
0.0405064
0.0398229
0.0391382
0.0608627
0.0603402
0.0597983
0.0592402
0.0586686
0.0580852
0.057492
0.0568902
0.0562808
0.0556647
0.0550426
0.0544151
0.0537826
0.0531457
0.0525046
0.0518597
0.0512114
0.0505598
0.0499053
0.0492479
0.0485879
0.0479254
0.0472606
0.0465937
0.0459246
0.0452536
0.0445807
0.043906
0.0432297
0.0425518
0.0418723
0.0411914
0.0405092
0.0398256
0.0391407
0.0608989
0.0603713
0.059825
0.0592633
0.0586887
0.058103
0.0575077
0.0569041
0.0562932
0.0556758
0.0550525
0.054424
0.0537908
0.0531531
0.0525114
0.051866
0.0512172
0.0505652
0.0499102
0.0492524
0.0485921
0.0479294
0.0472644
0.0465972
0.0459279
0.0452567
0.0445837
0.0439089
0.0432324
0.0425543
0.0418748
0.0411938
0.0405114
0.0398277
0.0391428
0.0609243
0.0603932
0.059844
0.0592798
0.0587031
0.0581157
0.057519
0.0569142
0.0563023
0.0556841
0.0550601
0.054431
0.0537972
0.0531591
0.0525169
0.0518712
0.051222
0.0505697
0.0499145
0.0492566
0.048596
0.0479331
0.0472679
0.0466005
0.0459311
0.0452598
0.0445866
0.0439117
0.0432351
0.0425569
0.0418773
0.0411962
0.0405138
0.03983
0.039145
0.0384587
0.0377713
0.0370828
0.0363932
0.0357026
0.035011
0.0343184
0.0336249
0.0329305
0.0322352
0.0384566
0.0377693
0.0370809
0.0363913
0.0357008
0.0350092
0.0343166
0.0336232
0.0329288
0.0322336
0.0384547
0.0377674
0.037079
0.0363896
0.035699
0.0350075
0.034315
0.0336216
0.0329273
0.0322321
0.0384523
0.0377651
0.0370768
0.0363874
0.035697
0.0350056
0.0343132
0.0336198
0.0329256
0.0322305
0.038449
0.037762
0.0370738
0.0363845
0.0356942
0.0350029
0.0343106
0.0336174
0.0329232
0.0322282
0.0384453
0.0377584
0.0370704
0.0363812
0.035691
0.0349998
0.0343076
0.0336145
0.0329205
0.0322256
0.0384417
0.0377549
0.037067
0.0363779
0.0356878
0.0349967
0.0343046
0.0336116
0.0329177
0.0322229
0.0384386
0.037752
0.0370641
0.0363751
0.0356851
0.034994
0.034302
0.0336091
0.0329153
0.0322206
0.0384363
0.0377498
0.0370621
0.0363731
0.0356831
0.0349921
0.0343001
0.0336072
0.0329135
0.0322189
0.0384352
0.0377487
0.037061
0.0363721
0.0356821
0.0349911
0.0342991
0.0336063
0.0329126
0.032218
0.0384352
0.0377487
0.037061
0.0363721
0.0356821
0.0349911
0.0342991
0.0336063
0.0329126
0.032218
0.0384363
0.0377498
0.037062
0.0363731
0.0356831
0.0349921
0.0343001
0.0336072
0.0329135
0.0322189
0.0384386
0.037752
0.0370641
0.0363751
0.0356851
0.034994
0.034302
0.0336091
0.0329153
0.0322206
0.0384417
0.0377549
0.037067
0.0363779
0.0356878
0.0349967
0.0343046
0.0336116
0.0329177
0.0322229
0.0384453
0.0377584
0.0370704
0.0363812
0.035691
0.0349998
0.0343076
0.0336145
0.0329205
0.0322256
0.038449
0.037762
0.0370738
0.0363845
0.0356942
0.0350029
0.0343106
0.0336173
0.0329232
0.0322282
0.0384522
0.0377651
0.0370768
0.0363874
0.035697
0.0350055
0.0343131
0.0336198
0.0329255
0.0322304
0.0384546
0.0377674
0.037079
0.0363895
0.035699
0.0350075
0.034315
0.0336216
0.0329273
0.0322321
0.0384566
0.0377693
0.0370808
0.0363913
0.0357007
0.0350091
0.0343166
0.0336231
0.0329288
0.0322335
0.0384587
0.0377713
0.0370828
0.0363932
0.0357026
0.0350109
0.0343183
0.0336248
0.0329304
0.0322351
0.0315391
0.0308422
0.0301445
0.0294461
0.0287469
0.028047
0.0273464
0.0266452
0.0259433
0.0252408
0.0245377
0.023834
0.0231297
0.0224248
0.0217194
0.0210135
0.020307
0.0196001
0.0188926
0.0181847
0.0174763
0.0167675
0.0160582
0.0153485
0.0146383
0.0139278
0.0132168
0.0125055
0.0117937
0.0110816
0.0103691
0.00965625
0.00894304
0.00822949
0.00751559
0.0315375
0.0308407
0.030143
0.0294446
0.0287455
0.0280456
0.0273451
0.0266439
0.0259421
0.0252396
0.0245365
0.0238328
0.0231285
0.0224237
0.0217183
0.0210124
0.020306
0.0195991
0.0188916
0.0181837
0.0174754
0.0167665
0.0160573
0.0153476
0.0146374
0.0139269
0.013216
0.0125046
0.0117929
0.0110808
0.0103683
0.00965547
0.00894228
0.00822874
0.00751485
0.0315361
0.0308393
0.0301417
0.0294433
0.0287442
0.0280444
0.0273439
0.0266428
0.0259409
0.0252385
0.0245354
0.0238318
0.0231275
0.0224227
0.0217174
0.0210115
0.0203051
0.0195982
0.0188908
0.0181829
0.0174745
0.0167657
0.0160565
0.0153468
0.0146367
0.0139262
0.0132152
0.0125039
0.0117922
0.0110801
0.0103676
0.00965482
0.00894165
0.00822812
0.00751425
0.0315345
0.0308378
0.0301402
0.0294419
0.0287429
0.0280431
0.0273427
0.0266415
0.0259397
0.0252373
0.0245343
0.0238307
0.0231265
0.0224217
0.0217164
0.0210105
0.0203041
0.0195972
0.0188899
0.018182
0.0174737
0.0167649
0.0160557
0.015346
0.0146359
0.0139254
0.0132145
0.0125032
0.0117915
0.0110794
0.010367
0.0096542
0.00894104
0.00822753
0.00751369
0.0315324
0.0308357
0.0301383
0.02944
0.028741
0.0280414
0.027341
0.0266399
0.0259382
0.0252358
0.0245328
0.0238292
0.023125
0.0224203
0.021715
0.0210092
0.0203029
0.019596
0.0188887
0.0181809
0.0174726
0.0167639
0.0160547
0.015345
0.014635
0.0139245
0.0132136
0.0125023
0.0117906
0.0110786
0.0103662
0.00965341
0.00894027
0.0082268
0.00751298
0.0315299
0.0308333
0.030136
0.0294378
0.0287389
0.0280393
0.027339
0.026638
0.0259363
0.025234
0.024531
0.0238275
0.0231234
0.0224187
0.0217135
0.0210077
0.0203014
0.0195946
0.0188874
0.0181796
0.0174713
0.0167626
0.0160535
0.0153439
0.0146338
0.0139234
0.0132125
0.0125013
0.0117896
0.0110776
0.0103652
0.00965248
0.00893938
0.00822594
0.00751217
0.0315273
0.0308309
0.0301336
0.0294356
0.0287368
0.0280373
0.027337
0.026636
0.0259344
0.0252321
0.0245293
0.0238258
0.0231217
0.0224171
0.0217119
0.0210062
0.0202999
0.0195932
0.0188859
0.0181782
0.01747
0.0167613
0.0160522
0.0153426
0.0146326
0.0139222
0.0132114
0.0125002
0.0117886
0.0110766
0.0103642
0.00965151
0.00893845
0.00822504
0.00751131
0.0315251
0.0308288
0.0301316
0.0294337
0.028735
0.0280355
0.0273353
0.0266344
0.0259328
0.0252305
0.0245277
0.0238242
0.0231202
0.0224156
0.0217105
0.0210048
0.0202986
0.0195919
0.0188847
0.018177
0.0174688
0.0167602
0.0160511
0.0153416
0.0146316
0.0139212
0.0132104
0.0124992
0.0117876
0.0110757
0.0103633
0.00965064
0.0089376
0.00822423
0.00751054
0.0315235
0.0308272
0.0301302
0.0294323
0.0287336
0.0280342
0.027334
0.0266331
0.0259316
0.0252294
0.0245265
0.0238231
0.0231191
0.0224145
0.0217094
0.0210038
0.0202976
0.0195909
0.0188838
0.0181761
0.017468
0.0167594
0.0160503
0.0153408
0.0146308
0.0139204
0.0132097
0.0124985
0.0117869
0.011075
0.0103627
0.00964998
0.00893697
0.00822363
0.00750996
0.0315226
0.0308264
0.0301294
0.0294315
0.0287329
0.0280335
0.0273333
0.0266325
0.0259309
0.0252287
0.0245259
0.0238225
0.0231185
0.022414
0.0217089
0.0210032
0.0202971
0.0195904
0.0188833
0.0181756
0.0174675
0.0167589
0.0160498
0.0153403
0.0146304
0.01392
0.0132093
0.0124981
0.0117865
0.0110746
0.0103623
0.00964963
0.00893663
0.0082233
0.00750965
0.0315226
0.0308264
0.0301294
0.0294315
0.0287329
0.0280335
0.0273333
0.0266325
0.0259309
0.0252287
0.0245259
0.0238225
0.0231185
0.022414
0.0217089
0.0210032
0.0202971
0.0195904
0.0188833
0.0181756
0.0174675
0.0167589
0.0160498
0.0153403
0.0146304
0.01392
0.0132093
0.0124981
0.0117865
0.0110746
0.0103623
0.00964963
0.00893663
0.00822329
0.00750965
0.0315235
0.0308272
0.0301301
0.0294323
0.0287336
0.0280342
0.027334
0.0266331
0.0259315
0.0252293
0.0245265
0.0238231
0.0231191
0.0224145
0.0217094
0.0210038
0.0202976
0.0195909
0.0188838
0.0181761
0.017468
0.0167593
0.0160503
0.0153407
0.0146308
0.0139204
0.0132096
0.0124985
0.0117869
0.0110749
0.0103626
0.00964996
0.00893695
0.0082236
0.00750994
0.0315251
0.0308288
0.0301316
0.0294337
0.0287349
0.0280354
0.0273352
0.0266343
0.0259327
0.0252305
0.0245277
0.0238242
0.0231202
0.0224156
0.0217104
0.0210048
0.0202986
0.0195919
0.0188847
0.018177
0.0174688
0.0167602
0.0160511
0.0153415
0.0146316
0.0139212
0.0132104
0.0124992
0.0117876
0.0110756
0.0103633
0.0096506
0.00893757
0.0082242
0.0075105
0.0315273
0.0308309
0.0301336
0.0294356
0.0287368
0.0280372
0.027337
0.026636
0.0259344
0.0252321
0.0245292
0.0238257
0.0231217
0.022417
0.0217119
0.0210061
0.0202999
0.0195932
0.0188859
0.0181782
0.01747
0.0167613
0.0160522
0.0153426
0.0146326
0.0139222
0.0132114
0.0125001
0.0117885
0.0110765
0.0103642
0.00965146
0.0089384
0.00822499
0.00751126
0.0315298
0.0308333
0.0301359
0.0294378
0.0287389
0.0280393
0.027339
0.0266379
0.0259363
0.0252339
0.024531
0.0238275
0.0231234
0.0224187
0.0217134
0.0210077
0.0203014
0.0195946
0.0188873
0.0181795
0.0174713
0.0167626
0.0160534
0.0153438
0.0146338
0.0139233
0.0132125
0.0125012
0.0117896
0.0110776
0.0103652
0.00965242
0.00893932
0.00822588
0.00751211
0.0315323
0.0308357
0.0301382
0.02944
0.028741
0.0280413
0.0273409
0.0266398
0.0259381
0.0252357
0.0245328
0.0238292
0.023125
0.0224203
0.021715
0.0210092
0.0203028
0.019596
0.0188887
0.0181808
0.0174726
0.0167638
0.0160546
0.015345
0.0146349
0.0139244
0.0132135
0.0125023
0.0117906
0.0110785
0.0103661
0.00965334
0.00894021
0.00822673
0.00751292
0.0315345
0.0308377
0.0301402
0.0294419
0.0287428
0.0280431
0.0273426
0.0266415
0.0259397
0.0252373
0.0245342
0.0238306
0.0231264
0.0224216
0.0217163
0.0210105
0.0203041
0.0195972
0.0188898
0.018182
0.0174736
0.0167649
0.0160556
0.015346
0.0146359
0.0139254
0.0132145
0.0125032
0.0117915
0.0110794
0.0103669
0.00965413
0.00894097
0.00822747
0.00751362
0.0315361
0.0308393
0.0301417
0.0294433
0.0287442
0.0280444
0.0273439
0.0266427
0.0259409
0.0252385
0.0245354
0.0238317
0.0231275
0.0224227
0.0217173
0.0210114
0.020305
0.0195981
0.0188907
0.0181828
0.0174745
0.0167657
0.0160564
0.0153467
0.0146366
0.0139261
0.0132152
0.0125039
0.0117921
0.01108
0.0103676
0.00965476
0.00894158
0.00822805
0.00751419
0.0315375
0.0308406
0.030143
0.0294446
0.0287454
0.0280456
0.0273451
0.0266439
0.025942
0.0252395
0.0245364
0.0238327
0.0231285
0.0224236
0.0217183
0.0210124
0.0203059
0.019599
0.0188916
0.0181837
0.0174753
0.0167665
0.0160572
0.0153475
0.0146374
0.0139268
0.0132159
0.0125046
0.0117928
0.0110807
0.0103682
0.00965541
0.00894221
0.00822867
0.00751479
0.031539
0.0308421
0.0301445
0.029446
0.0287468
0.028047
0.0273464
0.0266452
0.0259433
0.0252408
0.0245376
0.0238339
0.0231296
0.0224248
0.0217194
0.0210134
0.020307
0.0196
0.0188926
0.0181847
0.0174763
0.0167674
0.0160581
0.0153484
0.0146383
0.0139277
0.0132168
0.0125054
0.0117937
0.0110815
0.010369
0.00965619
0.00894298
0.00822942
0.00751553
0.00680136
0.0060868
0.00537191
0.00465671
0.0039412
0.00322537
0.00250923
0.00179283
0.00107598
0.000359503
0.00680064
0.00608609
0.00537122
0.00465603
0.00394053
0.00322472
0.00250857
0.00179225
0.00107515
0.000359695
0.00680005
0.00608552
0.00537067
0.0046555
0.00394001
0.00322423
0.00250806
0.00179185
0.0010744
0.000360205
0.00679951
0.00608501
0.00537019
0.00465505
0.00393961
0.00322386
0.00250774
0.00179157
0.00107405
0.000360305
0.00679884
0.00608438
0.0053696
0.00465452
0.00393914
0.00322347
0.00250744
0.00179134
0.00107411
0.00035963
0.00679807
0.00608366
0.00536894
0.00465394
0.00393865
0.00322308
0.00250723
0.00179121
0.00107461
0.000358301
0.00679726
0.00608291
0.00536826
0.00465333
0.00393815
0.0032227
0.00250707
0.00179114
0.00107536
0.000356644
0.00679654
0.00608223
0.00536765
0.0046528
0.00393772
0.00322239
0.00250697
0.00179113
0.00107615
0.000355104
0.00679599
0.00608173
0.00536719
0.0046524
0.0039374
0.00322217
0.00250692
0.00179114
0.00107675
0.000353981
0.0067957
0.00608146
0.00536695
0.00465219
0.00393724
0.00322206
0.0025069
0.00179115
0.00107708
0.000353414
0.00679569
0.00608145
0.00536694
0.00465218
0.00393723
0.00322205
0.00250689
0.00179115
0.00107707
0.000353437
0.00679597
0.0060817
0.00536717
0.00465238
0.00393738
0.00322215
0.0025069
0.00179113
0.00107674
0.000354046
0.0067965
0.00608219
0.00536761
0.00465276
0.00393768
0.00322236
0.00250695
0.00179112
0.00107612
0.000355203
0.00679721
0.00608286
0.00536821
0.00465328
0.0039381
0.00322266
0.00250704
0.00179112
0.00107533
0.00035676
0.00679801
0.0060836
0.00536889
0.00465388
0.0039386
0.00322304
0.00250719
0.00179119
0.00107458
0.000358416
0.00679878
0.00608432
0.00536955
0.00465447
0.00393909
0.00322342
0.00250741
0.00179132
0.00107407
0.000359727
0.00679945
0.00608495
0.00537013
0.004655
0.00393956
0.00322382
0.0025077
0.00179155
0.00107402
0.000360371
0.00679999
0.00608546
0.00537061
0.00465545
0.00393997
0.00322419
0.00250803
0.00179182
0.00107437
0.000360239
0.00680058
0.00608603
0.00537117
0.00465598
0.00394049
0.00322468
0.00250854
0.00179223
0.00107513
0.0003597
0.0068013
0.00608674
0.00537186
0.00465667
0.00394116
0.00322534
0.0025092
0.0017928
0.00107596
0.0003595
)
;

boundaryField
{
    inlet
    {
        type            zeroGradient;
    }
    outlet
    {
        type            fixedValue;
        value           uniform 0;
    }
    upperWall
    {
        type            zeroGradient;
    }
    lowerWall
    {
        type            zeroGradient;
    }
    frontAndBack
    {
        type            empty;
    }
}


// ************************************************************************* //
