/*--------------------------------*- C++ -*----------------------------------*\
| =========                 |                                                 |
| \\      /  F ield         | OpenFOAM: The Open Source CFD Toolbox           |
|  \\    /   O peration     | Version:  2406                                  |
|   \\  /    A nd           | Website:  www.openfoam.com                      |
|    \\/     M anipulation  |                                                 |
\*---------------------------------------------------------------------------*/
FoamFile
{
    version     2.0;
    format      ascii;
    arch        "LSB;label=32;scalar=64";
    class       surfaceScalarField;
    location    "78";
    object      phi;
}
// * * * * * * * * * * * * * * * * * * * * * * * * * * * * * * * * * * * * * //

dimensions      [0 3 -1 0 0 0 0];

oriented        oriented;

internalField   nonuniform List<scalar> 
3880
(
0.0100118
-0.000261753
0.010331
-0.000319256
0.0106029
-0.000271851
0.0108224
-0.000219527
0.0109982
-0.000175831
0.0111384
-0.00014022
0.0112506
-0.00011213
0.0113412
-9.06477e-05
0.0114156
-7.43918e-05
-6.20198e-05
0.0114776
0.0276174
-0.000129136
0.0275561
-0.000258017
0.0275643
-0.000280013
0.0276136
-0.000268864
0.0276869
-0.000249063
0.027771
-0.000224319
0.0278571
-0.000198203
0.0279404
-0.000173964
0.0280188
-0.000152802
-0.000134661
0.0280914
0.0436899
-6.89959e-05
0.0436046
-0.000172758
0.0435398
-0.000215212
0.0434967
-0.000225762
0.0434723
-0.000224639
0.0434644
-0.000216441
0.0434695
-0.000203299
0.0434837
-0.000188135
0.0435039
-0.000172993
-0.000158697
0.0435279
0.0577238
-4.27659e-05
0.0576672
-0.000116241
0.057611
-0.000158952
0.0575629
-0.000177711
0.0575228
-0.000184523
0.0574908
-0.000184366
0.0574664
-0.000178957
0.0574486
-0.000170305
0.0574359
-0.000160322
-0.000150118
0.0574273
0.0697357
-2.84606e-05
0.0696998
-8.03636e-05
0.0696576
-0.000116724
0.0696169
-0.000136977
0.0695791
-0.000146794
0.069545
-0.000150209
0.0695149
-0.000148891
0.0694888
-0.000144236
0.0694662
-0.00013773
-0.000130456
0.0694466
0.079741
-1.94957e-05
0.0797168
-5.61479e-05
0.0796846
-8.44929e-05
0.0796502
-0.000102596
0.0796161
-0.000112704
0.0795833
-0.000117436
0.0795527
-0.000118213
0.0795245
-0.000116042
0.0794987
-0.000111988
-0.000106947
0.0794752
0.0877437
-1.31716e-05
0.0877258
-3.82932e-05
0.0877001
-5.88116e-05
0.0876706
-7.30646e-05
0.0876397
-8.17638e-05
0.0876086
-8.63777e-05
0.0875783
-8.7935e-05
0.0875495
-8.71625e-05
0.0875223
-8.47897e-05
-8.14775e-05
0.0874968
0.093745
-8.20857e-06
0.0937307
-2.39761e-05
0.0937092
-3.72525e-05
0.093683
-4.69474e-05
0.0936545
-5.32025e-05
0.0936249
-5.67484e-05
0.0935951
-5.82185e-05
0.0935661
-5.80907e-05
0.0935381
-5.68258e-05
-5.485e-05
0.0935115
0.0977457
-3.95154e-06
0.0977333
-1.15675e-05
0.0977142
-1.80808e-05
0.0976902
-2.29641e-05
0.0976632
-2.62117e-05
0.0976346
-2.8117e-05
0.0976053
-2.8976e-05
0.0975763
-2.90256e-05
0.0975479
-2.84886e-05
-2.75721e-05
0.0975206
0.099746
1.23853e-11
0.0997345
3.8665e-10
0.0997164
1.19673e-10
0.0996934
1.28863e-10
0.0996672
7.93874e-10
0.0996391
9.64332e-10
0.0996101
3.72084e-10
0.0995811
1.49636e-10
0.0995526
7.93788e-10
1.17904e-09
0.099525
0.099746
3.95169e-06
0.0997345
1.15672e-05
0.0997164
1.80817e-05
0.0996934
2.29653e-05
0.0996672
2.6212e-05
0.0996391
2.81173e-05
0.0996101
2.89772e-05
0.0995811
2.90274e-05
0.0995526
2.84906e-05
2.75739e-05
0.099525
0.0977457
8.2087e-06
0.0977333
2.39768e-05
0.0977142
3.72528e-05
0.0976902
4.69478e-05
0.0976632
5.32034e-05
0.0976346
5.67493e-05
0.0976053
5.82193e-05
0.0975763
5.80914e-05
0.0975479
5.68272e-05
5.48524e-05
0.0975206
0.093745
1.31718e-05
0.0937307
3.82933e-05
0.0937092
5.88122e-05
0.093683
7.30648e-05
0.0936545
8.17641e-05
0.0936249
8.63788e-05
0.0935951
8.79364e-05
0.0935661
8.71632e-05
0.0935381
8.47901e-05
8.14785e-05
0.0935115
0.0877437
1.94957e-05
0.0877258
5.61477e-05
0.0877001
8.44931e-05
0.0876706
0.000102597
0.0876397
0.000112705
0.0876086
0.000117437
0.0875783
0.000118215
0.0875495
0.000116043
0.0875223
0.000111987
0.000106946
0.0874968
0.079741
2.84607e-05
0.0797168
8.03643e-05
0.0796846
0.000116724
0.0796502
0.000136976
0.0796161
0.000146795
0.0795833
0.00015021
0.0795527
0.000148893
0.0795245
0.000144236
0.0794987
0.000137729
0.000130455
0.0794752
0.0697357
4.27661e-05
0.0696998
0.000116241
0.0696576
0.000158952
0.0696168
0.000177712
0.0695791
0.000184523
0.069545
0.000184366
0.0695149
0.000178958
0.0694888
0.000170306
0.0694662
0.000160322
0.000150118
0.0694466
0.0577238
6.8996e-05
0.0576672
0.000172758
0.057611
0.000215212
0.0575629
0.000225763
0.0575228
0.00022464
0.0574908
0.000216441
0.0574664
0.000203298
0.0574486
0.000188135
0.0574359
0.000172994
0.000158697
0.0574273
0.0436899
0.000129136
0.0436046
0.000258018
0.0435398
0.000280014
0.0434967
0.000268865
0.0434723
0.000249063
0.0434644
0.000224318
0.0434695
0.000198201
0.0434837
0.000173965
0.0435039
0.000152805
0.000134662
0.0435279
0.0276174
0.000261753
0.0275561
0.000319256
0.0275643
0.000271851
0.0276136
0.000219529
0.0276869
0.000175831
0.027771
0.000140219
0.0278571
0.00011213
0.0279404
9.06487e-05
0.0280188
7.43926e-05
6.20202e-05
0.0280914
0.0100118
0.010331
0.0106029
0.0108224
0.0109982
0.0111384
0.0112506
0.0113412
0.0114156
0.0114776
0.0115301
-5.248e-05
0.0115751
-4.50157e-05
0.0116142
-3.9093e-05
0.0116486
-3.43299e-05
0.011679
-3.04463e-05
0.0117062
-2.72333e-05
0.0117308
-2.45361e-05
0.011753
-2.22442e-05
0.0117733
-2.02815e-05
0.0117919
-1.85924e-05
0.011809
-1.71317e-05
0.0118249
-1.58603e-05
0.0118396
-1.47441e-05
0.0118534
-1.37543e-05
0.0118662
-1.28691e-05
0.0118783
-1.20724e-05
0.0118897
-1.13528e-05
0.0119004
-1.0702e-05
0.0119105
-1.01129e-05
0.0119201
-9.5793e-06
0.0119292
-9.0947e-06
0.0119378
-8.6527e-06
0.0119461
-8.2474e-06
0.0119539
-7.8732e-06
0.0119615
-7.52582e-06
0.0119687
-7.20168e-06
0.0119756
-6.89838e-06
0.0119822
-6.61425e-06
0.0119885
-6.34806e-06
0.0119946
-6.09897e-06
0.0120005
-5.86601e-06
0.0120061
-5.64821e-06
0.0120116
-5.44442e-06
0.0120168
-5.25329e-06
-5.07357e-06
0.0120219
0.0281581
-0.000119177
0.0282191
-0.000105983
0.0282747
-9.47501e-05
0.0283256
-8.51779e-05
0.0283721
-7.69983e-05
0.0284149
-6.99712e-05
0.0284542
-6.38858e-05
0.0284906
-5.85756e-05
0.0285242
-5.39226e-05
0.0285555
-4.98393e-05
0.0285846
-4.62519e-05
0.0286118
-4.30907e-05
0.0286374
-4.02884e-05
0.0286614
-3.77841e-05
0.028684
-3.55273e-05
0.0287055
-3.34802e-05
0.0287257
-3.16161e-05
0.0287449
-2.99164e-05
0.0287632
-2.83669e-05
0.0287806
-2.69544e-05
0.0287971
-2.56655e-05
0.028813
-2.44857e-05
0.0288281
-2.34007e-05
0.0288426
-2.23968e-05
0.0288566
-2.14622e-05
0.02887
-2.05877e-05
0.0288828
-1.97666e-05
0.0288952
-1.89945e-05
0.0289071
-1.82684e-05
0.0289186
-1.75863e-05
0.0289297
-1.69463e-05
0.0289404
-1.6346e-05
0.0289507
-1.57828e-05
0.0289607
-1.52536e-05
-1.47549e-05
0.0289704
0.0435542
-0.000145494
0.0435817
-0.000133467
0.0436096
-0.000122631
0.0436374
-0.000112946
0.0436647
-0.000104328
0.0436914
-9.66616e-05
0.0437173
-8.98135e-05
0.0437424
-8.36613e-05
0.0437666
-7.81222e-05
0.0437899
-7.31418e-05
0.0438123
-6.86731e-05
0.0438339
-6.46648e-05
0.0438547
-6.10564e-05
0.0438747
-5.77857e-05
0.0438939
-5.47972e-05
0.0439125
-5.20483e-05
0.0439304
-4.95105e-05
0.0439476
-4.71655e-05
0.0439643
-4.50011e-05
0.0439803
-4.30064e-05
0.0439958
-4.11688e-05
0.0440108
-3.94732e-05
0.0440253
-3.79028e-05
0.0440394
-3.64407e-05
0.044053
-3.50714e-05
0.0440662
-3.37823e-05
0.044079
-3.25642e-05
0.0440914
-3.1411e-05
0.0441034
-3.0319e-05
0.0441151
-2.92861e-05
0.0441265
-2.83104e-05
0.0441375
-2.73898e-05
0.0441483
-2.65215e-05
0.0441587
-2.57018e-05
-2.49264e-05
0.0441689
0.057422
-0.000140185
0.0574193
-0.000130757
0.0574187
-0.00012198
0.0574197
-0.00011394
0.057422
-0.000106655
0.0574254
-0.000100079
0.0574297
-9.41262e-05
0.0574348
-8.87035e-05
0.0574404
-8.37498e-05
0.0574465
-7.92354e-05
0.057453
-7.51412e-05
0.0574597
-7.14388e-05
0.0574668
-6.80841e-05
0.057474
-6.5022e-05
0.0574814
-6.21995e-05
0.0574889
-5.95753e-05
0.0574965
-5.71232e-05
0.0575042
-5.48302e-05
0.0575119
-5.26901e-05
0.0575196
-5.06985e-05
0.0575273
-4.88486e-05
0.0575349
-4.71293e-05
0.0575425
-4.55262e-05
0.0575501
-4.40233e-05
0.0575577
-4.26057e-05
0.0575651
-4.12606e-05
0.0575725
-3.99789e-05
0.0575799
-3.87549e-05
0.0575872
-3.75857e-05
0.0575943
-3.64704e-05
0.0576014
-3.54083e-05
0.0576085
-3.43988e-05
0.0576154
-3.344e-05
0.0576222
-3.25293e-05
-3.16631e-05
0.0576289
0.0694294
-0.000122997
0.0694143
-0.000115658
0.069401
-0.000108642
0.0693891
-0.0001021
0.0693786
-9.61081e-05
0.0693692
-9.06681e-05
0.0693608
-8.57271e-05
0.0693533
-8.12121e-05
0.0693466
-7.70723e-05
0.0693406
-7.32878e-05
0.0693354
-6.98518e-05
0.0693307
-6.67513e-05
0.0693266
-6.39541e-05
0.0693229
-6.14127e-05
0.0693198
-5.9076e-05
0.0693171
-5.69016e-05
0.0693149
-5.48626e-05
0.069313
-5.29463e-05
0.0693114
-5.115e-05
0.0693102
-4.94733e-05
0.0693093
-4.79139e-05
0.0693086
-4.64644e-05
0.0693082
-4.51128e-05
0.069308
-4.38444e-05
0.0693081
-4.26448e-05
0.0693083
-4.15015e-05
0.0693087
-4.04058e-05
0.0693093
-3.93523e-05
0.0693101
-3.83392e-05
0.069311
-3.73663e-05
0.069312
-3.64343e-05
0.0693132
-3.55436e-05
0.0693144
-3.46935e-05
0.0693158
-3.38824e-05
-3.31075e-05
0.0693172
0.0794537
-0.000101478
0.0794339
-9.58974e-05
0.0794157
-9.04196e-05
0.0793989
-8.52157e-05
0.0793831
-8.03966e-05
0.0793685
-7.59963e-05
0.0793547
-7.19872e-05
0.0793418
-6.8315e-05
0.0793297
-6.49379e-05
0.0793182
-6.18422e-05
0.0793074
-5.90304e-05
0.0792972
-5.65005e-05
0.0792875
-5.42331e-05
0.0792782
-5.21897e-05
0.0792695
-5.03242e-05
0.0792612
-4.85959e-05
0.0792533
-4.6977e-05
0.0792458
-4.5455e-05
0.0792387
-4.40281e-05
0.0792319
-4.26985e-05
0.0792254
-4.14667e-05
0.0792193
-4.03284e-05
0.0792135
-3.92739e-05
0.0792079
-3.82897e-05
0.0792026
-3.73621e-05
0.0791976
-3.64788e-05
0.0791928
-3.56312e-05
0.0791883
-3.48144e-05
0.079184
-3.40266e-05
0.0791799
-3.32683e-05
0.079176
-3.25406e-05
0.0791723
-3.18445e-05
0.0791688
-3.118e-05
0.0791654
-3.05459e-05
-2.99398e-05
0.0791623
0.087473
-7.76827e-05
0.0874508
-7.36774e-05
0.08743
-6.96521e-05
0.0874106
-6.57658e-05
0.0873923
-6.21285e-05
0.0873751
-5.87855e-05
0.0873588
-5.57274e-05
0.0873434
-5.29163e-05
0.0873288
-5.03212e-05
0.0873149
-4.79336e-05
0.0873016
-4.57598e-05
0.0872889
-4.38046e-05
0.0872768
-4.2058e-05
0.0872651
-4.04927e-05
0.0872538
-3.9072e-05
0.087243
-3.77612e-05
0.0872325
-3.65354e-05
0.0872225
-3.53828e-05
0.0872127
-3.43019e-05
0.0872033
-3.32959e-05
0.0871942
-3.23674e-05
0.0871854
-3.15143e-05
0.0871769
-3.07298e-05
0.0871686
-3.0003e-05
0.0871606
-2.93218e-05
0.0871528
-2.86755e-05
0.0871452
-2.80561e-05
0.0871378
-2.74592e-05
0.0871307
-2.68835e-05
0.0871237
-2.63295e-05
0.087117
-2.57986e-05
0.0871104
-2.52918e-05
0.0871041
-2.48096e-05
0.0870979
-2.43508e-05
-2.39138e-05
0.0870918
0.0934863
-5.24767e-05
0.0934625
-4.99036e-05
0.0934401
-4.72683e-05
0.093419
-4.46888e-05
0.0933992
-4.22541e-05
0.0933804
-4.0005e-05
0.0933626
-3.79411e-05
0.0933457
-3.60392e-05
0.0933297
-3.42777e-05
0.0933144
-3.26509e-05
0.0932998
-3.11649e-05
0.0932858
-2.98265e-05
0.0932724
-2.86322e-05
0.0932595
-2.75654e-05
0.093247
-2.66011e-05
0.093235
-2.57138e-05
0.0932233
-2.48847e-05
0.093212
-2.41044e-05
0.0932011
-2.33716e-05
0.0931905
-2.26893e-05
0.0931802
-2.20604e-05
0.0931701
-2.14846e-05
0.0931604
-2.09579e-05
0.0931509
-2.04726e-05
0.0931416
-2.00199e-05
0.0931325
-1.95918e-05
0.0931236
-1.91821e-05
0.0931149
-1.87873e-05
0.0931064
-1.84064e-05
0.0930981
-1.804e-05
0.09309
-1.76894e-05
0.0930821
-1.73556e-05
0.0930743
-1.7039e-05
0.0930667
-1.6739e-05
-1.64544e-05
0.0930593
0.0974946
-2.64345e-05
0.0974699
-2.51789e-05
0.0974465
-2.38768e-05
0.0974244
-2.25909e-05
0.0974035
-2.13707e-05
0.0973838
-2.02403e-05
0.097365
-1.92014e-05
0.0973472
-1.82432e-05
0.0973303
-1.73543e-05
0.0973141
-1.6531e-05
0.0972988
-1.57769e-05
0.097284
-1.50961e-05
0.0972699
-1.44883e-05
0.0972563
-1.39463e-05
0.0972432
-1.34576e-05
0.0972304
-1.30091e-05
0.0972181
-1.25905e-05
0.0972062
-1.21962e-05
0.0971947
-1.18255e-05
0.0971835
-1.14797e-05
0.0971726
-1.11609e-05
0.0971619
-1.08693e-05
0.0971516
-1.06033e-05
0.0971415
-1.03591e-05
0.0971316
-1.0132e-05
0.0971219
-9.91778e-06
0.0971125
-9.71289e-06
0.0971032
-9.51542e-06
0.0970941
-9.32472e-06
0.0970852
-9.14116e-06
0.0970765
-8.96551e-06
0.0970679
-8.79845e-06
0.0970595
-8.64035e-06
0.0970513
-8.49097e-06
-8.34966e-06
0.0970432
0.0994986
5.84503e-10
0.0994734
-3.59031e-10
0.0994495
-1.02987e-09
0.099427
-4.10501e-10
0.0994056
1.86099e-09
0.0993854
3.81219e-09
0.0993662
3.64795e-09
0.0993479
1.47579e-09
0.0993305
-1.31166e-09
0.099314
-2.92403e-09
0.0992982
-2.39704e-09
0.0992831
-2.24576e-10
0.0992687
2.25837e-09
0.0992547
3.83114e-09
0.0992413
3.87441e-09
0.0992283
2.64831e-09
0.0992157
8.71515e-10
0.0992034
-6.28204e-10
0.0991916
-1.26899e-09
0.0991801
-9.55856e-10
0.099169
9.67966e-11
0.0991581
1.39062e-09
0.0991475
2.48433e-09
0.0991372
3.0807e-09
0.099127
3.08441e-09
0.0991171
2.65708e-09
0.0991074
2.01161e-09
0.0990979
1.45195e-09
0.0990885
1.16662e-09
0.0990794
1.24973e-09
0.0990704
1.68833e-09
0.0990616
2.34929e-09
0.099053
3.11286e-09
0.0990445
3.81768e-09
4.38759e-09
0.0990361
0.0994986
2.64354e-05
0.0994734
2.51776e-05
0.0994496
2.38748e-05
0.099427
2.25914e-05
0.0994056
2.13748e-05
0.0993854
2.02466e-05
0.0993662
1.92068e-05
0.0993479
1.82447e-05
0.0993305
1.73518e-05
0.099314
1.6527e-05
0.0992982
1.57745e-05
0.0992831
1.50974e-05
0.0992687
1.44934e-05
0.0992547
1.39532e-05
0.0992413
1.34639e-05
0.0992283
1.30128e-05
0.0992157
1.2591e-05
0.0992035
1.21945e-05
0.0991916
1.1823e-05
0.0991801
1.14784e-05
0.099169
1.11618e-05
0.0991581
1.08728e-05
0.0991475
1.06087e-05
0.0991372
1.03654e-05
0.099127
1.01382e-05
0.0991171
9.92293e-06
0.0991074
9.71671e-06
0.0990979
9.51809e-06
0.0990885
9.32683e-06
0.0990794
9.14345e-06
0.0990704
8.96864e-06
0.0990616
8.80292e-06
0.099053
8.64631e-06
0.0990445
8.49837e-06
8.35821e-06
0.0990361
0.0974946
5.2479e-05
0.0974699
4.99042e-05
0.0974465
4.7267e-05
0.0974244
4.46879e-05
0.0974035
4.22561e-05
0.0973838
4.00096e-05
0.097365
3.79453e-05
0.0973472
3.60405e-05
0.0973303
3.42759e-05
0.0973141
3.26483e-05
0.0972988
3.11644e-05
0.097284
2.98296e-05
0.0972699
2.86381e-05
0.0972563
2.7572e-05
0.0972432
2.66059e-05
0.0972304
2.57157e-05
0.0972181
2.48837e-05
0.0972062
2.41018e-05
0.0971947
2.33692e-05
0.0971835
2.26886e-05
0.0971726
2.20622e-05
0.0971619
2.14889e-05
0.0971516
2.09637e-05
0.0971415
2.04789e-05
0.0971316
2.00258e-05
0.0971219
1.95965e-05
0.0971125
1.91855e-05
0.0971032
1.87896e-05
0.0970941
1.84082e-05
0.0970852
1.8042e-05
0.0970765
1.76922e-05
0.0970679
1.73596e-05
0.0970595
1.70444e-05
0.0970513
1.67458e-05
1.64623e-05
0.0970432
0.0934863
7.76842e-05
0.0934625
7.36788e-05
0.0934401
6.96531e-05
0.093419
6.57671e-05
0.0933992
6.21307e-05
0.0933804
5.87881e-05
0.0933626
5.57285e-05
0.0933457
5.29152e-05
0.0933297
5.03196e-05
0.0933144
4.79336e-05
0.0932998
4.57625e-05
0.0932858
4.38096e-05
0.0932724
4.20636e-05
0.0932595
4.04972e-05
0.093247
3.90743e-05
0.093235
3.77611e-05
0.0932233
3.65338e-05
0.093212
3.53812e-05
0.0932011
3.43014e-05
0.0931905
3.32972e-05
0.0931802
3.23705e-05
0.0931701
3.15187e-05
0.0931604
3.07347e-05
0.0931509
3.00076e-05
0.0931416
2.93258e-05
0.0931325
2.86786e-05
0.0931236
2.80585e-05
0.0931149
2.74613e-05
0.0931064
2.68856e-05
0.0930981
2.6332e-05
0.09309
2.58018e-05
0.0930821
2.5296e-05
0.0930743
2.48147e-05
0.0930667
2.43569e-05
2.39207e-05
0.0930593
0.087473
0.000101479
0.0874508
9.58994e-05
0.08743
9.04213e-05
0.0874106
8.52178e-05
0.0873923
8.03988e-05
0.0873751
7.59973e-05
0.0873588
7.19866e-05
0.0873434
6.83138e-05
0.0873288
6.49378e-05
0.0873149
6.18446e-05
0.0873016
5.9035e-05
0.0872889
5.65057e-05
0.0872768
5.42369e-05
0.0872651
5.21911e-05
0.0872538
5.03235e-05
0.087243
4.85943e-05
0.0872325
4.6976e-05
0.0872225
4.54557e-05
0.0872127
4.40306e-05
0.0872033
4.27023e-05
0.0871942
4.1471e-05
0.0871854
4.03323e-05
0.0871769
3.92768e-05
0.0871686
3.82917e-05
0.0871606
3.73634e-05
0.0871528
3.64799e-05
0.0871452
3.56325e-05
0.0871378
3.48162e-05
0.0871307
3.40292e-05
0.0871237
3.32717e-05
0.087117
3.25447e-05
0.0871104
3.18491e-05
0.0871041
3.1185e-05
0.0870979
3.05512e-05
2.99454e-05
0.0870918
0.0794537
0.000122997
0.0794339
0.00011566
0.0794157
0.000108645
0.0793989
0.000102103
0.0793831
9.61088e-05
0.0793685
9.0667e-05
0.0793547
8.57252e-05
0.0793418
8.12118e-05
0.0793297
7.70755e-05
0.0793182
7.32938e-05
0.0793074
6.9858e-05
0.0792972
6.6755e-05
0.0792875
6.39541e-05
0.0792782
6.141e-05
0.0792695
5.90726e-05
0.0792612
5.68999e-05
0.0792533
5.48638e-05
0.0792458
5.29504e-05
0.0792387
5.11557e-05
0.0792319
4.94791e-05
0.0792254
4.79182e-05
0.0792193
4.64665e-05
0.0792135
4.51128e-05
0.0792079
4.38431e-05
0.0792027
4.26433e-05
0.0791976
4.15008e-05
0.0791929
4.04065e-05
0.0791883
3.93547e-05
0.079184
3.8343e-05
0.0791799
3.7371e-05
0.079176
3.64394e-05
0.0791723
3.55486e-05
0.0791688
3.46981e-05
0.0791655
3.38864e-05
3.31111e-05
0.0791623
0.0694294
0.000140185
0.0694143
0.000130759
0.069401
0.000121983
0.0693891
0.000113943
0.0693786
0.000106654
0.0693692
0.000100076
0.0693608
9.41236e-05
0.0693533
8.87051e-05
0.0693466
8.37561e-05
0.0693406
7.92438e-05
0.0693354
7.51472e-05
0.0693307
7.14398e-05
0.0693266
6.80802e-05
0.0693229
6.5016e-05
0.0693198
6.2195e-05
0.0693171
5.95748e-05
0.0693149
5.71274e-05
0.069313
5.48375e-05
0.0693114
5.26982e-05
0.0693102
5.07049e-05
0.0693093
4.88517e-05
0.0693086
4.71288e-05
0.0693082
4.5523e-05
0.069308
4.40191e-05
0.0693081
4.2602e-05
0.0693083
4.12588e-05
0.0693087
3.99796e-05
0.0693093
3.8758e-05
0.0693101
3.75907e-05
0.069311
3.64762e-05
0.069312
3.5414e-05
0.0693132
3.44036e-05
0.0693144
3.34436e-05
0.0693158
3.25315e-05
3.16642e-05
0.0693172
0.057422
0.000145495
0.0574193
0.000133469
0.0574187
0.000122634
0.0574197
0.000112947
0.057422
0.000104324
0.0574254
9.6657e-05
0.0574297
8.98128e-05
0.0574348
8.36668e-05
0.0574404
7.81314e-05
0.0574465
7.31495e-05
0.057453
6.86755e-05
0.0574597
6.46612e-05
0.0574668
6.10496e-05
0.057474
5.77795e-05
0.0574814
5.4795e-05
0.0574889
5.20512e-05
0.0574965
4.95174e-05
0.0575042
4.7174e-05
0.0575119
4.50084e-05
0.0575196
4.30105e-05
0.0575273
4.11688e-05
0.0575349
3.94699e-05
0.0575426
3.78977e-05
0.0575501
3.64356e-05
0.0575577
3.5068e-05
0.0575651
3.37814e-05
0.0575725
3.2566e-05
0.0575799
3.1415e-05
0.0575872
3.03242e-05
0.0575943
2.92913e-05
0.0576015
2.83147e-05
0.0576085
2.73927e-05
0.0576154
2.65227e-05
0.0576222
2.57016e-05
2.49254e-05
0.057629
0.0435542
0.000119177
0.0435817
0.000105985
0.0436096
9.47533e-05
0.0436373
8.51782e-05
0.0436647
7.69943e-05
0.0436914
6.99669e-05
0.0437173
6.38868e-05
0.0437424
5.85827e-05
0.0437666
5.39311e-05
0.0437899
4.98439e-05
0.0438123
4.62502e-05
0.0438339
4.30843e-05
0.0438547
4.02815e-05
0.0438746
3.77805e-05
0.0438939
3.55288e-05
0.0439125
3.34861e-05
0.0439304
3.16239e-05
0.0439476
2.99233e-05
0.0439643
2.83707e-05
0.0439803
2.69544e-05
0.0439958
2.56622e-05
0.0440108
2.44807e-05
0.0440253
2.33958e-05
0.0440394
2.23934e-05
0.044053
2.14612e-05
0.0440662
2.05892e-05
0.044079
1.97699e-05
0.0440914
1.89986e-05
0.0441034
1.82724e-05
0.0441151
1.75892e-05
0.0441265
1.69476e-05
0.0441375
1.63458e-05
0.0441483
1.57814e-05
0.0441587
1.52515e-05
1.47527e-05
0.0441689
0.0281581
5.24814e-05
0.0282191
4.50179e-05
0.0282747
3.90935e-05
0.0283256
3.43274e-05
0.0283721
3.04428e-05
0.0284149
2.72325e-05
0.0284542
2.45393e-05
0.0284906
2.22494e-05
0.0285242
2.02853e-05
0.0285555
1.85925e-05
0.0285846
1.71285e-05
0.0286118
1.58561e-05
0.0286374
1.47413e-05
0.0286614
1.37545e-05
0.028684
1.28719e-05
0.0287054
1.20765e-05
0.0287257
1.13566e-05
0.0287449
1.07041e-05
0.0287632
1.0113e-05
0.0287806
9.57764e-06
0.0287971
9.09212e-06
0.028813
8.65023e-06
0.0288281
8.24566e-06
0.0288426
7.87269e-06
0.0288566
7.52639e-06
0.02887
7.20307e-06
0.0288828
6.90007e-06
0.0288952
6.61575e-06
0.0289071
6.34903e-06
0.0289186
6.09921e-06
0.0289297
5.86555e-06
0.0289404
5.64724e-06
0.0289507
5.44316e-06
0.0289607
5.25208e-06
5.07256e-06
0.0289704
0.0115301
0.0115751
0.0116142
0.0116486
0.011679
0.0117062
0.0117308
0.011753
0.0117733
0.0117919
0.011809
0.0118249
0.0118396
0.0118534
0.0118662
0.0118783
0.0118897
0.0119004
0.0119105
0.0119201
0.0119292
0.0119378
0.0119461
0.0119539
0.0119615
0.0119687
0.0119756
0.0119822
0.0119885
0.0119946
0.0120005
0.0120061
0.0120116
0.0120168
0.0120219
0.0120268
-4.90387e-06
0.0120315
-4.74313e-06
0.0120361
-4.59029e-06
0.0120406
-4.44468e-06
0.0120449
-4.30572e-06
0.0120491
-4.17306e-06
0.0120531
-4.04643e-06
0.012057
-3.92566e-06
0.0120608
-3.81055e-06
-3.70091e-06
0.0120645
0.0289798
-1.42834e-05
0.0289889
-1.38359e-05
0.0289977
-1.34098e-05
0.0290063
-1.30032e-05
0.0290146
-1.26144e-05
0.0290226
-1.22424e-05
0.0290305
-1.18866e-05
0.0290381
-1.15466e-05
0.0290455
-1.12218e-05
-1.09118e-05
0.0290527
0.0441788
-2.41908e-05
0.0441884
-2.34907e-05
0.0441979
-2.28221e-05
0.044207
-2.21819e-05
0.044216
-2.15679e-05
0.0442247
-2.09784e-05
0.0442332
-2.04124e-05
0.0442416
-1.98692e-05
0.0442497
-1.93482e-05
-1.8849e-05
0.0442576
0.0576356
-3.0837e-05
0.0576421
-3.0047e-05
0.0576486
-2.92889e-05
0.057655
-2.85596e-05
0.0576613
-2.78566e-05
0.0576675
-2.71782e-05
0.0576736
-2.65234e-05
0.0576796
-2.58915e-05
0.0576855
-2.52822e-05
-2.46952e-05
0.0576914
0.0693187
-3.23655e-05
0.0693203
-3.16526e-05
0.069322
-3.09654e-05
0.0693238
-3.03011e-05
0.0693256
-2.96575e-05
0.0693274
-2.9033e-05
0.0693293
-2.8427e-05
0.0693313
-2.78389e-05
0.0693332
-2.72688e-05
-2.67164e-05
0.0693353
0.0791593
-2.9359e-05
0.0791564
-2.88001e-05
0.0791537
-2.82603e-05
0.0791512
-2.7737e-05
0.0791487
-2.72284e-05
0.0791464
-2.67332e-05
0.0791442
-2.6251e-05
0.0791422
-2.57814e-05
0.0791402
-2.53244e-05
-2.488e-05
0.0791384
0.087086
-2.34959e-05
0.0870803
-2.30945e-05
0.0870747
-2.2707e-05
0.0870693
-2.23314e-05
0.0870641
-2.19661e-05
0.0870589
-2.16103e-05
0.0870539
-2.12634e-05
0.0870491
-2.09253e-05
0.0870444
-2.05961e-05
-2.02757e-05
0.0870397
0.0930519
-1.61832e-05
0.0930448
-1.59234e-05
0.0930377
-1.56731e-05
0.0930308
-1.54307e-05
0.0930241
-1.51952e-05
0.0930174
-1.4966e-05
0.0930109
-1.47426e-05
0.0930045
-1.45251e-05
0.0929982
-1.43134e-05
-1.41077e-05
0.092992
0.0970352
-8.21541e-06
0.0970274
-8.08711e-06
0.0970197
-7.96373e-06
0.0970121
-7.84438e-06
0.0970046
-7.7285e-06
0.0969973
-7.6157e-06
0.09699
-7.50585e-06
0.0969829
-7.39892e-06
0.0969759
-7.29495e-06
-7.19399e-06
0.096969
0.0990279
4.77415e-09
0.0990198
4.9881e-09
0.0990119
5.08758e-09
0.099004
5.12391e-09
0.0989963
5.18002e-09
0.0989887
5.29229e-09
0.0989811
5.50493e-09
0.0989737
5.82181e-09
0.0989664
6.23688e-09
6.73419e-09
0.0989592
0.0990279
8.22477e-06
0.0990198
8.09696e-06
0.0990119
7.9738e-06
0.099004
7.85457e-06
0.0989963
7.73878e-06
0.0989887
7.6262e-06
0.0989811
7.51673e-06
0.0989737
7.41038e-06
0.0989664
7.30719e-06
7.20717e-06
0.0989592
0.0970352
1.61919e-05
0.0970274
1.59327e-05
0.0970197
1.56827e-05
0.0970121
1.54405e-05
0.0970046
1.52052e-05
0.0969973
1.49761e-05
0.09699
1.47531e-05
0.0969829
1.4536e-05
0.0969759
1.4325e-05
1.41201e-05
0.096969
0.093052
2.35034e-05
0.0930448
2.31024e-05
0.0930378
2.27153e-05
0.0930309
2.23399e-05
0.0930241
2.19749e-05
0.0930174
2.16194e-05
0.0930109
2.12729e-05
0.0930045
2.09353e-05
0.0929982
2.06067e-05
2.0287e-05
0.0929921
0.087086
2.93647e-05
0.0870803
2.88061e-05
0.0870747
2.82665e-05
0.0870693
2.77436e-05
0.0870641
2.72354e-05
0.0870589
2.67408e-05
0.087054
2.62591e-05
0.0870491
2.57901e-05
0.0870444
2.53338e-05
2.48902e-05
0.0870398
0.0791593
3.23688e-05
0.0791564
3.16559e-05
0.0791537
3.09691e-05
0.0791512
3.03054e-05
0.0791487
2.96625e-05
0.0791464
2.90389e-05
0.0791443
2.84337e-05
0.0791422
2.78465e-05
0.0791403
2.72771e-05
2.67253e-05
0.0791384
0.0693188
3.08376e-05
0.0693204
3.00475e-05
0.069322
2.929e-05
0.0693238
2.85617e-05
0.0693256
2.78599e-05
0.0693274
2.71827e-05
0.0693293
2.65289e-05
0.0693313
2.58979e-05
0.0693333
2.52892e-05
2.47025e-05
0.0693353
0.0576356
2.41896e-05
0.0576422
2.34898e-05
0.0576486
2.28221e-05
0.057655
2.21831e-05
0.0576613
2.15703e-05
0.0576675
2.09818e-05
0.0576736
2.04166e-05
0.0576796
1.98739e-05
0.0576856
1.93532e-05
1.88539e-05
0.0576914
0.0441788
1.42817e-05
0.0441885
1.38351e-05
0.0441979
1.34101e-05
0.0442071
1.30044e-05
0.044216
1.26164e-05
0.0442247
1.22449e-05
0.0442333
1.18893e-05
0.0442416
1.15491e-05
0.0442497
1.12241e-05
1.09137e-05
0.0442577
0.0289798
4.90328e-06
0.0289889
4.74294e-06
0.0289977
4.59052e-06
0.0290063
4.44518e-06
0.0290146
4.30639e-06
0.0290226
4.17373e-06
0.0290305
4.04704e-06
0.0290381
3.9261e-06
0.0290455
3.81083e-06
3.70102e-06
0.0290527
0.0120268
0.0120316
0.0120361
0.0120406
0.0120449
0.0120491
0.0120531
0.012057
0.0120609
0.0120646
0.0120681
-3.59647e-06
0.0120716
-3.49697e-06
0.012075
-3.40204e-06
0.0120783
-3.31137e-06
0.0120816
-3.22457e-06
0.0120847
-3.14138e-06
0.0120878
-3.06142e-06
0.0120908
-2.98453e-06
0.0120937
-2.91045e-06
0.0120965
-2.83906e-06
0.0120993
-2.77021e-06
0.012102
-2.70382e-06
0.0121046
-2.6398e-06
0.0121072
-2.57809e-06
0.0121097
-2.51858e-06
0.0121122
-2.46124e-06
0.0121146
-2.40594e-06
0.0121169
-2.35262e-06
0.0121192
-2.30115e-06
0.0121215
-2.25148e-06
0.0121237
-2.20345e-06
0.0121258
-2.15703e-06
0.012128
-2.11209e-06
0.01213
-2.0686e-06
0.0121321
-2.02645e-06
0.012134
-1.98564e-06
0.012136
-1.94607e-06
0.0121379
-1.90776e-06
0.0121398
-1.87063e-06
0.0121416
-1.83472e-06
0.0121434
-1.79997e-06
0.0121452
-1.76643e-06
0.0121469
-1.73407e-06
0.0121486
-1.70296e-06
-1.67309e-06
0.0121503
0.0290597
-1.06159e-05
0.0290666
-1.03335e-05
0.0290732
-1.00636e-05
0.0290797
-9.80544e-06
0.0290861
-9.55795e-06
0.0290922
-9.32032e-06
0.0290983
-9.09176e-06
0.0291041
-8.87158e-06
0.0291099
-8.65925e-06
0.0291155
-8.45434e-06
0.029121
-8.2565e-06
0.0291264
-8.06548e-06
0.0291316
-7.88104e-06
0.0291367
-7.70302e-06
0.0291417
-7.53117e-06
0.0291466
-7.36533e-06
0.0291514
-7.20521e-06
0.0291561
-7.05061e-06
0.0291607
-6.90122e-06
0.0291652
-6.75681e-06
0.0291697
-6.61709e-06
0.029174
-6.48184e-06
0.0291782
-6.35079e-06
0.0291824
-6.22376e-06
0.0291864
-6.10056e-06
0.0291904
-5.98106e-06
0.0291944
-5.86511e-06
0.0291982
-5.75263e-06
0.029202
-5.64353e-06
0.0292057
-5.53778e-06
0.0292093
-5.43533e-06
0.0292129
-5.3362e-06
0.0292164
-5.24039e-06
0.0292198
-5.14799e-06
-5.05908e-06
0.0292232
0.0442654
-1.83709e-05
0.044273
-1.79128e-05
0.0442804
-1.74738e-05
0.0442876
-1.70525e-05
0.0442947
-1.66479e-05
0.0443017
-1.62585e-05
0.0443084
-1.58833e-05
0.0443151
-1.55211e-05
0.0443216
-1.51712e-05
0.044328
-1.48329e-05
0.0443342
-1.45056e-05
0.0443403
-1.41889e-05
0.0443463
-1.38824e-05
0.0443522
-1.35858e-05
0.044358
-1.32989e-05
0.0443637
-1.30212e-05
0.0443692
-1.27526e-05
0.0443746
-1.24925e-05
0.04438
-1.22408e-05
0.0443852
-1.19969e-05
0.0443904
-1.17606e-05
0.0443954
-1.15314e-05
0.0444004
-1.1309e-05
0.0444052
-1.10931e-05
0.04441
-1.08834e-05
0.0444147
-1.06797e-05
0.0444193
-1.04818e-05
0.0444239
-1.02894e-05
0.0444283
-1.01026e-05
0.0444327
-9.92114e-06
0.044437
-9.74503e-06
0.0444413
-9.57425e-06
0.0444454
-9.40884e-06
0.0444495
-9.24892e-06
-9.09464e-06
0.0444536
0.0576971
-2.41299e-05
0.0577028
-2.35859e-05
0.0577084
-2.30621e-05
0.0577139
-2.25575e-05
0.0577193
-2.20709e-05
0.0577247
-2.16011e-05
0.0577299
-2.11469e-05
0.0577351
-2.07073e-05
0.0577402
-2.02813e-05
0.0577453
-1.98681e-05
0.0577502
-1.94671e-05
0.0577551
-1.90777e-05
0.0577599
-1.86998e-05
0.0577647
-1.83327e-05
0.0577693
-1.79764e-05
0.057774
-1.76305e-05
0.0577785
-1.72946e-05
0.057783
-1.69685e-05
0.0577874
-1.66518e-05
0.0577917
-1.63441e-05
0.057796
-1.60451e-05
0.0578002
-1.57544e-05
0.0578044
-1.54717e-05
0.0578085
-1.51966e-05
0.0578126
-1.49289e-05
0.0578165
-1.46682e-05
0.0578205
-1.44144e-05
0.0578243
-1.41672e-05
0.0578282
-1.39265e-05
0.0578319
-1.36922e-05
0.0578357
-1.34643e-05
0.0578393
-1.32428e-05
0.057843
-1.30277e-05
0.0578465
-1.28191e-05
-1.26175e-05
0.05785
0.0693373
-2.61817e-05
0.0693394
-2.56644e-05
0.0693415
-2.5164e-05
0.0693436
-2.46796e-05
0.0693458
-2.42105e-05
0.0693479
-2.37558e-05
0.0693501
-2.33145e-05
0.0693523
-2.28858e-05
0.0693544
-2.24687e-05
0.0693566
-2.20628e-05
0.0693588
-2.16673e-05
0.069361
-2.12819e-05
0.0693633
-2.09063e-05
0.0693655
-2.05401e-05
0.0693677
-2.01831e-05
0.0693699
-1.98351e-05
0.0693721
-1.94959e-05
0.0693743
-1.91653e-05
0.0693765
-1.8843e-05
0.0693786
-1.85288e-05
0.0693808
-1.82224e-05
0.069383
-1.79235e-05
0.0693852
-1.7632e-05
0.0693873
-1.73475e-05
0.0693894
-1.70698e-05
0.0693916
-1.67986e-05
0.0693937
-1.65339e-05
0.0693958
-1.62753e-05
0.0693979
-1.60229e-05
0.0694
-1.57766e-05
0.0694021
-1.55363e-05
0.0694041
-1.5302e-05
0.0694062
-1.50739e-05
0.0694082
-1.48523e-05
-1.46374e-05
0.0694102
0.0791367
-2.44484e-05
0.079135
-2.40293e-05
0.0791335
-2.36224e-05
0.079132
-2.32272e-05
0.0791307
-2.28433e-05
0.0791294
-2.24698e-05
0.0791282
-2.21062e-05
0.079127
-2.17518e-05
0.079126
-2.1406e-05
0.079125
-2.10683e-05
0.0791241
-2.07382e-05
0.0791232
-2.04155e-05
0.0791224
-2.00998e-05
0.0791216
-1.9791e-05
0.0791209
-1.94888e-05
0.0791203
-1.91931e-05
0.0791197
-1.89037e-05
0.0791192
-1.86207e-05
0.0791187
-1.83437e-05
0.0791182
-1.80727e-05
0.0791178
-1.78075e-05
0.0791174
-1.7548e-05
0.0791171
-1.72941e-05
0.0791168
-1.70454e-05
0.0791165
-1.6802e-05
0.0791163
-1.65637e-05
0.0791161
-1.63303e-05
0.0791159
-1.61018e-05
0.0791157
-1.5878e-05
0.0791156
-1.5659e-05
0.0791155
-1.54448e-05
0.0791155
-1.52354e-05
0.0791154
-1.5031e-05
0.0791154
-1.48318e-05
-1.46383e-05
0.0791154
0.0870353
-1.99642e-05
0.0870309
-1.96614e-05
0.0870266
-1.93672e-05
0.0870225
-1.90811e-05
0.0870185
-1.88027e-05
0.0870145
-1.85316e-05
0.0870107
-1.82672e-05
0.0870069
-1.80091e-05
0.0870033
-1.77569e-05
0.0869997
-1.75102e-05
0.0869963
-1.72686e-05
0.0869929
-1.70319e-05
0.0869896
-1.67999e-05
0.0869864
-1.65724e-05
0.0869832
-1.63493e-05
0.0869802
-1.61304e-05
0.0869772
-1.59157e-05
0.0869742
-1.5705e-05
0.0869714
-1.54983e-05
0.0869686
-1.52955e-05
0.0869659