/*--------------------------------*- C++ -*----------------------------------*\
| =========                 |                                                 |
| \\      /  F ield         | OpenFOAM: The Open Source CFD Toolbox           |
|  \\    /   O peration     | Version:  2406                                  |
|   \\  /    A nd           | Website:  www.openfoam.com                      |
|    \\/     M anipulation  |                                                 |
\*---------------------------------------------------------------------------*/
FoamFile
{
    version     2.0;
    format      ascii;
    arch        "LSB;label=32;scalar=64";
    class       volVectorField;
    location    "78";
    object      U;
}
// * * * * * * * * * * * * * * * * * * * * * * * * * * * * * * * * * * * * * //

dimensions      [0 1 -1 0 0 0 0];

internalField   nonuniform List<vector> 
2000
(
(0.100064 -0.00169756 0)
(0.102135 -0.00234917 0)
(0.10454 -0.00180226 0)
(0.107113 -0.00122034 0)
(0.109187 -0.0008335 0)
(0.110753 -0.000578714 0)
(0.111989 -0.000406735 0)
(0.112992 -0.000293958 0)
(0.113811 -0.000221171 0)
(0.114488 -0.000173019 0)
(0.276767 -0.00172765 0)
(0.275812 -0.00328519 0)
(0.275477 -0.00340633 0)
(0.275771 -0.00306841 0)
(0.276444 -0.00265669 0)
(0.27727 -0.00224677 0)
(0.278136 -0.0018721 0)
(0.278991 -0.00155632 0)
(0.279805 -0.00130204 0)
(0.280563 -0.00109966 0)
(0.436982 -0.000933402 0)
(0.436411 -0.00204758 0)
(0.435771 -0.00242663 0)
(0.435163 -0.002478 0)
(0.434784 -0.00241992 0)
(0.434634 -0.00229561 0)
(0.434639 -0.00212551 0)
(0.434745 -0.00193982 0)
(0.434923 -0.00175976 0)
(0.435149 -0.0015934 0)
(0.577125 -0.000530913 0)
(0.576866 -0.00135004 0)
(0.57647 -0.00179911 0)
(0.575906 -0.00198813 0)
(0.575401 -0.00204508 0)
(0.575033 -0.00202251 0)
(0.574765 -0.00194357 0)
(0.574561 -0.00183316 0)
(0.57441 -0.00171238 0)
(0.574305 -0.00159264 0)
(0.697196 -0.00034418 0)
(0.697071 -0.000941155 0)
(0.696854 -0.00133944 0)
(0.696426 -0.00155024 0)
(0.695973 -0.00164398 0)
(0.695598 -0.00166686 0)
(0.695286 -0.00163941 0)
(0.695011 -0.00157838 0)
(0.694768 -0.0015 0)
(0.694556 -0.00141547 0)
(0.797237 -0.000235032 0)
(0.797178 -0.000662197 0)
(0.797061 -0.000980863 0)
(0.796732 -0.00117745 0)
(0.796337 -0.00128379 0)
(0.795982 -0.00133025 0)
(0.795671 -0.00133273 0)
(0.795382 -0.00130306 0)
(0.795112 -0.00125349 0)
(0.794864 -0.00119393 0)
(0.877263 -0.00016117 0)
(0.877235 -0.000461241 0)
(0.877175 -0.000701091 0)
(0.876911 -0.000864354 0)
(0.876563 -0.000962491 0)
(0.876232 -0.00101308 0)
(0.875928 -0.00102792 0)
(0.875637 -0.00101588 0)
(0.875356 -0.000985848 0)
(0.875091 -0.000945531 0)
(0.937279 -0.000105799 0)
(0.937268 -0.000305436 0)
(0.937238 -0.000471453 0)
(0.937017 -0.000591273 0)
(0.936702 -0.000667987 0)
(0.936391 -0.000710981 0)
(0.936096 -0.000728064 0)
(0.935806 -0.000725338 0)
(0.93552 -0.000708711 0)
(0.935245 -0.000683488 0)
(0.977288 -6.02654e-05 0)
(0.977286 -0.00017478 0)
(0.977273 -0.000272074 0)
(0.977076 -0.0003447 0)
(0.976783 -0.000393035 0)
(0.976485 -0.000421474 0)
(0.976197 -0.000434263 0)
(0.975909 -0.000434912 0)
(0.975621 -0.000426814 0)
(0.97534 -0.000413064 0)
(0.997293 -1.95969e-05 0)
(0.997294 -5.69428e-05 0)
(0.997288 -8.89791e-05 0)
(0.997102 -0.000113271 0)
(0.99682 -0.000129734 0)
(0.996529 -0.000139633 0)
(0.996244 -0.000144299 0)
(0.995958 -0.000144874 0)
(0.995669 -0.000142466 0)
(0.995386 -0.000138105 0)
(0.997293 1.95978e-05 0)
(0.997294 5.69451e-05 0)
(0.997288 8.89852e-05 0)
(0.997102 0.000113278 0)
(0.99682 0.000129744 0)
(0.996529 0.000139645 0)
(0.996244 0.000144311 0)
(0.995957 0.000144888 0)
(0.995669 0.000142487 0)
(0.995386 0.000138127 0)
(0.977288 6.02668e-05 0)
(0.977286 0.000174783 0)
(0.977273 0.00027208 0)
(0.977076 0.000344708 0)
(0.976783 0.000393043 0)
(0.976485 0.00042148 0)
(0.976197 0.000434269 0)
(0.975909 0.000434922 0)
(0.975621 0.00042683 0)
(0.97534 0.000413087 0)
(0.937279 0.0001058 0)
(0.937268 0.00030544 0)
(0.937238 0.00047146 0)
(0.937017 0.000591277 0)
(0.936702 0.000667992 0)
(0.936391 0.000710991 0)
(0.936096 0.000728077 0)
(0.935806 0.000725345 0)
(0.93552 0.000708717 0)
(0.935245 0.000683501 0)
(0.877263 0.000161171 0)
(0.877235 0.000461241 0)
(0.877175 0.000701092 0)
(0.876911 0.000864357 0)
(0.876563 0.000962496 0)
(0.876232 0.00101309 0)
(0.875928 0.00102794 0)
(0.875637 0.00101589 0)
(0.875356 0.00098585 0)
(0.875091 0.00094554 0)
(0.797237 0.000235033 0)
(0.797178 0.000662199 0)
(0.797061 0.000980865 0)
(0.796732 0.00117745 0)
(0.796337 0.00128379 0)
(0.795982 0.00133026 0)
(0.795671 0.00133274 0)
(0.795382 0.00130307 0)
(0.795112 0.00125348 0)
(0.794864 0.00119392 0)
(0.697196 0.000344181 0)
(0.697071 0.000941157 0)
(0.696854 0.00133944 0)
(0.696426 0.00155024 0)
(0.695973 0.00164399 0)
(0.695598 0.00166687 0)
(0.695286 0.00163942 0)
(0.695011 0.00157839 0)
(0.694768 0.0015 0)
(0.694556 0.00141547 0)
(0.577125 0.000530914 0)
(0.576866 0.00135005 0)
(0.57647 0.00179911 0)
(0.575906 0.00198813 0)
(0.575401 0.00204508 0)
(0.575033 0.00202251 0)
(0.574765 0.00194358 0)
(0.574561 0.00183317 0)
(0.57441 0.00171239 0)
(0.574305 0.00159263 0)
(0.436982 0.000933403 0)
(0.436411 0.00204759 0)
(0.435771 0.00242663 0)
(0.435163 0.00247801 0)
(0.434784 0.00241992 0)
(0.434634 0.0022956 0)
(0.434639 0.0021255 0)
(0.434745 0.00193982 0)
(0.434923 0.00175977 0)
(0.435149 0.0015934 0)
(0.276767 0.00172765 0)
(0.275812 0.00328519 0)
(0.275477 0.00340634 0)
(0.275771 0.00306842 0)
(0.276444 0.0026567 0)
(0.27727 0.00224677 0)
(0.278136 0.00187209 0)
(0.278991 0.00155633 0)
(0.279805 0.00130207 0)
(0.280563 0.00109967 0)
(0.100064 0.00169756 0)
(0.102135 0.00234917 0)
(0.10454 0.00180227 0)
(0.107113 0.00122036 0)
(0.109187 0.000833499 0)
(0.110753 0.0005787 0)
(0.111989 0.000406733 0)
(0.112992 0.000293961 0)
(0.113811 0.000221164 0)
(0.114488 0.000173019 0)
(0.115056 -0.000139906 0)
(0.11554 -0.00011641 0)
(0.115958 -9.92479e-05 0)
(0.116323 -8.62698e-05 0)
(0.116645 -7.61073e-05 0)
(0.116932 -6.79349e-05 0)
(0.11719 -6.12352e-05 0)
(0.117424 -5.56404e-05 0)
(0.117636 -5.08689e-05 0)
(0.117829 -4.67242e-05 0)
(0.118008 -4.30874e-05 0)
(0.118172 -3.98947e-05 0)
(0.118325 -3.7103e-05 0)
(0.118467 -3.46592e-05 0)
(0.1186 -3.25009e-05 0)
(0.118725 -3.05617e-05 0)
(0.118842 -2.87872e-05 0)
(0.118952 -2.71454e-05 0)
(0.119056 -2.56236e-05 0)
(0.119154 -2.42237e-05 0)
(0.119247 -2.29504e-05 0)
(0.119336 -2.18025e-05 0)
(0.11942 -2.07716e-05 0)
(0.119501 -1.98394e-05 0)
(0.119578 -1.89854e-05 0)
(0.119651 -1.81888e-05 0)
(0.119722 -1.74342e-05 0)
(0.119789 -1.6713e-05 0)
(0.119854 -1.60224e-05 0)
(0.119916 -1.5365e-05 0)
(0.119976 -1.47447e-05 0)
(0.120034 -1.41655e-05 0)
(0.120089 -1.36294e-05 0)
(0.120142 -1.31349e-05 0)
(0.120194 -1.26788e-05 0)
(0.28126 -0.000938137 0)
(0.281898 -0.000808522 0)
(0.28248 -0.00070391 0)
(0.283012 -0.000618859 0)
(0.283498 -0.000549054 0)
(0.283943 -0.000491103 0)
(0.284353 -0.000442382 0)
(0.284731 -0.000400973 0)
(0.28508 -0.000365532 0)
(0.285404 -0.000335053 0)
(0.285705 -0.000308717 0)
(0.285986 -0.000285814 0)
(0.28625 -0.000265726 0)
(0.286497 -0.000247942 0)
(0.28673 -0.00023206 0)
(0.28695 -0.000217785 0)
(0.287158 -0.000204901 0)
(0.287356 -0.000193246 0)
(0.287543 -0.000182691 0)
(0.287721 -0.000173118 0)
(0.28789 -0.000164416 0)
(0.288052 -0.000156476 0)
(0.288207 -0.000149193 0)
(0.288355 -0.000142475 0)
(0.288497 -0.000136241 0)
(0.288634 -0.000130428 0)
(0.288765 -0.00012499 0)
(0.288891 -0.000119893 0)
(0.289013 -0.000115115 0)
(0.28913 -0.000110638 0)
(0.289243 -0.000106447 0)
(0.289351 -0.000102524 0)
(0.289456 -9.88498e-05 0)
(0.289558 -9.54031e-05 0)
(0.289656 -9.21611e-05 0)
(0.435404 -0.00144246 0)
(0.435676 -0.00130703 0)
(0.435955 -0.00118668 0)
(0.436235 -0.00108048 0)
(0.436511 -0.000987087 0)
(0.436781 -0.000904917 0)
(0.437045 -0.000832321 0)
(0.4373 -0.000767887 0)
(0.437547 -0.000710606 0)
(0.437784 -0.000659725 0)
(0.438013 -0.00061456 0)
(0.438233 -0.00057441 0)
(0.438445 -0.000538554 0)
(0.438648 -0.000506314 0)
(0.438845 -0.000477118 0)
(0.439034 -0.000450528 0)
(0.439216 -0.000426231 0)
(0.439392 -0.000404004 0)
(0.439561 -0.000383671 0)
(0.439724 -0.000365071 0)
(0.439882 -0.00034804 0)
(0.440034 -0.000332404 0)
(0.440182 -0.00031799 0)
(0.440324 -0.000304634 0)
(0.440463 -0.000292191 0)
(0.440597 -0.000280546 0)
(0.440726 -0.000269609 0)
(0.440852 -0.000259319 0)
(0.440975 -0.000249633 0)
(0.441094 -0.000240518 0)
(0.441209 -0.000231947 0)
(0.441321 -0.000223891 0)
(0.44143 -0.000216316 0)
(0.441536 -0.000209185 0)
(0.441639 -0.000202457 0)
(0.574238 -0.00147852 0)
(0.5742 -0.00137194 0)
(0.574185 -0.00127393 0)
(0.574187 -0.00118488 0)
(0.574205 -0.00110459 0)
(0.574234 -0.00103234 0)
(0.574273 -0.000967048 0)
(0.57432 -0.000907698 0)
(0.574374 -0.00085363 0)
(0.574433 -0.000804483 0)
(0.574496 -0.00075997 0)
(0.574563 -0.000719711 0)
(0.574632 -0.00068319 0)
(0.574703 -0.000649823 0)
(0.574777 -0.000619082 0)
(0.574851 -0.000590568 0)
(0.574927 -0.000564026 0)
(0.575003 -0.000539316 0)
(0.57508 -0.000516354 0)
(0.575157 -0.00049506 0)
(0.575234 -0.000475332 0)
(0.575311 -0.000457031 0)
(0.575387 -0.000439996 0)
(0.575463 -0.000424059 0)
(0.575539 -0.000409068 0)
(0.575614 -0.000394896 0)
(0.575689 -0.000381454 0)
(0.575762 -0.00036868 0)
(0.575835 -0.000356543 0)
(0.575908 -0.00034502 0)
(0.575979 -0.000334097 0)
(0.57605 -0.000323754 0)
(0.576119 -0.000313965 0)
(0.576188 -0.000304694 0)
(0.576256 -0.000295898 0)
(0.694373 -0.00133061 0)
(0.694213 -0.00124833 0)
(0.694072 -0.0011705 0)
(0.693946 -0.00109842 0)
(0.693835 -0.00103264 0)
(0.693736 -0.000973034 0)
(0.693647 -0.000918919 0)
(0.693568 -0.00086948 0)
(0.693497 -0.000824175 0)
(0.693434 -0.000782783 0)
(0.693378 -0.000745197 0)
(0.693329 -0.00071122 0)
(0.693285 -0.000680464 0)
(0.693246 -0.000652403 0)
(0.693213 -0.000626506 0)
(0.693184 -0.000602355 0)
(0.693159 -0.000579694 0)
(0.693138 -0.000558408 0)
(0.693121 -0.000538464 0)
(0.693108 -0.00051985 0)
(0.693097 -0.00050252 0)
(0.693089 -0.000486381 0)
(0.693084 -0.000471297 0)
(0.693081 -0.000457115 0)
(0.69308 -0.000443686 0)
(0.693082 -0.000430887 0)
(0.693085 -0.000418632 0)
(0.69309 -0.000406872 0)
(0.693097 -0.000395588 0)
(0.693105 -0.000384777 0)
(0.693115 -0.000374442 0)
(0.693126 -0.000364582 0)
(0.693138 -0.000355187 0)
(0.693151 -0.000346232 0)
(0.693165 -0.000337685 0)
(0.794639 -0.00113046 0)
(0.794434 -0.00106651 0)
(0.794244 -0.00100434 0)
(0.794069 -0.00094569 0)
(0.793907 -0.000891606 0)
(0.793755 -0.000842343 0)
(0.793614 -0.000797526 0)
(0.79348 -0.000756525 0)
(0.793355 -0.000718881 0)
(0.793238 -0.000684437 0)
(0.793127 -0.000653184 0)
(0.793021 -0.00062506 0)
(0.792922 -0.000599801 0)
(0.792827 -0.000576967 0)
(0.792737 -0.000556053 0)
(0.792652 -0.00053663 0)
(0.792571 -0.000518418 0)
(0.792494 -0.000501293 0)
(0.792421 -0.000485239 0)
(0.792352 -0.000470272 0)
(0.792286 -0.000456384 0)
(0.792223 -0.000443516 0)
(0.792163 -0.000431554 0)
(0.792106 -0.000420352 0)
(0.792052 -0.000409763 0)
(0.792001 -0.000399661 0)
(0.791952 -0.000389957 0)
(0.791905 -0.000380603 0)
(0.791861 -0.000371583 0)
(0.791819 -0.000362902 0)
(0.791779 -0.000354572 0)
(0.791741 -0.000346602 0)
(0.791705 -0.00033899 0)
(0.791671 -0.00033172 0)
(0.791638 -0.000324767 0)
(0.874844 -0.000900132 0)
(0.874615 -0.000852745 0)
(0.8744 -0.0008055 0)
(0.8742 -0.000760131 0)
(0.874011 -0.000717819 0)
(0.873834 -0.000679018 0)
(0.873667 -0.000643573 0)
(0.873509 -0.000611028 0)
(0.873359 -0.000581022 0)
(0.873216 -0.000553451 0)
(0.873081 -0.000528376 0)
(0.872951 -0.000505832 0)
(0.872827 -0.000485681 0)
(0.872708 -0.000467594 0)
(0.872593 -0.000451147 0)
(0.872483 -0.000435947 0)
(0.872377 -0.000421723 0)
(0.872274 -0.00040835 0)
(0.872175 -0.000395813 0)
(0.872079 -0.000384147 0)
(0.871987 -0.000373373 0)
(0.871897 -0.00036346 0)
(0.871811 -0.000354324 0)
(0.871727 -0.000345839 0)
(0.871645 -0.000337868 0)
(0.871566 -0.000330292 0)
(0.871489 -0.000323024 0)
(0.871414 -0.000316014 0)
(0.871342 -0.000309249 0)
(0.871271 -0.000302735 0)
(0.871203 -0.000296487 0)
(0.871137 -0.000290519 0)
(0.871072 -0.000284832 0)
(0.871009 -0.000279416 0)
(0.870948 -0.00027425 0)
(0.934985 -0.000653486 0)
(0.93474 -0.000621111 0)
(0.93451 -0.000588079 0)
(0.934292 -0.000555851 0)
(0.934088 -0.000525484 0)
(0.933895 -0.000497458 0)
(0.933712 -0.000471749 0)
(0.933539 -0.000448059 0)
(0.933375 -0.000426129 0)
(0.933218 -0.000405894 0)
(0.933069 -0.000387429 0)
(0.932926 -0.000370812 0)
(0.93279 -0.000355986 0)
(0.932658 -0.000342735 0)
(0.932531 -0.000330744 0)
(0.932409 -0.000319701 0)
(0.93229 -0.000309377 0)
(0.932176 -0.000299661 0)
(0.932065 -0.000290539 0)
(0.931957 -0.000282048 0)
(0.931852 -0.000274222 0)
(0.931751 -0.000267054 0)
(0.931652 -0.00026049 0)
(0.931556 -0.000254437 0)
(0.931462 -0.000248786 0)
(0.93137 -0.000243436 0)
(0.93128 -0.000238315 0)
(0.931192 -0.000233378 0)
(0.931106 -0.000228614 0)
(0.931022 -0.000224029 0)
(0.93094 -0.000219639 0)
(0.93086 -0.000215456 0)
(0.930782 -0.000211485 0)
(0.930705 -0.000207719 0)
(0.930629 -0.000204143 0)
(0.975073 -0.000395999 0)
(0.974819 -0.00037716 0)
(0.974578 -0.00035764 0)
(0.974351 -0.000338386 0)
(0.974136 -0.000320123 0)
(0.973933 -0.000303202 0)
(0.973741 -0.000287641 0)
(0.973559 -0.000273274 0)
(0.973385 -0.000259936 0)
(0.97322 -0.000247583 0)
(0.973063 -0.000236275 0)
(0.972912 -0.000226079 0)
(0.972768 -0.000216986 0)
(0.97263 -0.000208881 0)
(0.972496 -0.000201573 0)
(0.972367 -0.00019486 0)
(0.972242 -0.000188588 0)
(0.972121 -0.000182679 0)
(0.972004 -0.000177119 0)
(0.97189 -0.000171934 0)
(0.971779 -0.000167154 0)
(0.971672 -0.000162784 0)
(0.971567 -0.000158797 0)
(0.971465 -0.000155137 0)
(0.971365 -0.000151734 0)
(0.971267 -0.000148524 0)
(0.971172 -0.000145453 0)
(0.971078 -0.000142494 0)
(0.970986 -0.000139637 0)
(0.970896 -0.000136886 0)
(0.970808 -0.000134253 0)
(0.970721 -0.000131748 0)
(0.970637 -0.000129376 0)
(0.970553 -0.000127134 0)
(0.970472 -0.000125012 0)
(0.995115 -0.000132581 0)
(0.994857 -0.000126415 0)
(0.994612 -0.000119979 0)
(0.994379 -0.000113592 0)
(0.99416 -0.000107505 0)
(0.993952 -0.000101853 0)
(0.993755 -9.66541e-05 0)
(0.993568 -9.18559e-05 0)
(0.99339 -8.73963e-05 0)
(0.993221 -8.32515e-05 0)
(0.993059 -7.94384e-05 0)
(0.992905 -7.59864e-05 0)
(0.992757 -7.29044e-05 0)
(0.992616 -7.01636e-05 0)
(0.992479 -6.7704e-05 0)
(0.992347 -6.54555e-05 0)
(0.992219 -6.33594e-05 0)
(0.992095 -6.13819e-05 0)
(0.991974 -5.95147e-05 0)
(0.991858 -5.77661e-05 0)
(0.991745 -5.61487e-05 0)
(0.991635 -5.46689e-05 0)
(0.991527 -5.33212e-05 0)
(0.991423 -5.20891e-05 0)
(0.99132 -5.09496e-05 0)
(0.99122 -4.98786e-05 0)
(0.991122 -4.88565e-05 0)
(0.991026 -4.78711e-05 0)
(0.990932 -4.69174e-05 0)
(0.990839 -4.59967e-05 0)
(0.990749 -4.51132e-05 0)
(0.99066 -4.42716e-05 0)
(0.990572 -4.34746e-05 0)
(0.990487 -4.27226e-05 0)
(0.990403 -4.20128e-05 0)
(0.995115 0.000132589 0)
(0.994857 0.000126402 0)
(0.994612 0.000119954 0)
(0.994379 0.000113584 0)
(0.99416 0.000107539 0)
(0.993952 0.00010192 0)
(0.993755 9.67181e-05 0)
(0.993568 9.18815e-05 0)
(0.99339 8.73749e-05 0)
(0.993221 8.32058e-05 0)
(0.993059 7.94052e-05 0)
(0.992905 7.5993e-05 0)
(0.992757 7.29544e-05 0)
(0.992616 7.02384e-05 0)
(0.992479 6.77753e-05 0)
(0.992347 6.55001e-05 0)
(0.992219 6.33686e-05 0)
(0.992095 6.1363e-05 0)
(0.991974 5.94854e-05 0)
(0.991858 5.7746e-05 0)
(0.991745 5.6152e-05 0)
(0.991635 5.47001e-05 0)
(0.991527 5.33754e-05 0)
(0.991423 5.21556e-05 0)
(0.99132 5.10159e-05 0)
(0.99122 4.99351e-05 0)
(0.991122 4.88988e-05 0)
(0.991026 4.79004e-05 0)
(0.990932 4.69395e-05 0)
(0.990839 4.60192e-05 0)
(0.990749 4.51435e-05 0)
(0.99066 4.43149e-05 0)
(0.990572 4.35335e-05 0)
(0.990487 4.27964e-05 0)
(0.990403 4.2099e-05 0)
(0.975073 0.00039602 0)
(0.974819 0.000377162 0)
(0.974578 0.000357629 0)
(0.974351 0.000338391 0)
(0.974136 0.000320163 0)
(0.973933 0.000303265 0)
(0.973741 0.000287694 0)
(0.973559 0.000273287 0)
(0.973385 0.000259908 0)
(0.97322 0.00024754 0)
(0.973063 0.00023625 0)
(0.972912 0.000226093 0)
(0.972768 0.000217038 0)
(0.97263 0.000208949 0)
(0.972496 0.000201632 0)
(0.972367 0.000194892 0)
(0.972242 0.000188589 0)
(0.972121 0.000182658 0)
(0.972004 0.000177094 0)
(0.97189 0.000171922 0)
(0.971779 0.000167166 0)
(0.971672 0.000162821 0)
(0.971567 0.000158853 0)
(0.971465 0.000155201 0)
(0.971365 0.000151796 0)
(0.971267 0.000148575 0)
(0.971172 0.000145491 0)
(0.971078 0.000142521 0)
(0.970986 0.000139657 0)
(0.970896 0.000136908 0)
(0.970808 0.000134282 0)
(0.970722 0.00013179 0)
(0.970637 0.000129432 0)
(0.970554 0.000127204 0)
(0.970472 0.000125094 0)
(0.934985 0.000653501 0)
(0.93474 0.000621118 0)
(0.93451 0.000588074 0)
(0.934292 0.000555849 0)
(0.934088 0.000525503 0)
(0.933895 0.000497494 0)
(0.933712 0.000471777 0)
(0.933539 0.000448062 0)
(0.933375 0.000426111 0)
(0.933218 0.000405877 0)
(0.933069 0.000387437 0)
(0.932926 0.00037085 0)
(0.93279 0.000356045 0)
(0.932658 0.000342795 0)
(0.932531 0.000330786 0)
(0.932409 0.000319716 0)
(0.93229 0.00030937 0)
(0.932176 0.000299643 0)
(0.932065 0.000290526 0)
(0.931957 0.000282051 0)
(0.931852 0.000274245 0)
(0.931751 0.000267095 0)
(0.931652 0.000260542 0)
(0.931556 0.00025449 0)
(0.931462 0.000248833 0)
(0.93137 0.000243474 0)
(0.93128 0.000238343 0)
(0.931192 0.0002334 0)
(0.931106 0.000228634 0)
(0.931022 0.000224052 0)
(0.93094 0.00021967 0)
(0.93086 0.000215498 0)
(0.930782 0.000211539 0)
(0.930705 0.000207785 0)
(0.930629 0.000204219 0)
(0.874844 0.000900154 0)
(0.874615 0.000852764 0)
(0.8744 0.000805511 0)
(0.8742 0.000760145 0)
(0.874011 0.00071784 0)
(0.873834 0.000679038 0)
(0.873667 0.000643577 0)
(0.873509 0.000611017 0)
(0.873359 0.000581011 0)
(0.873217 0.000553461 0)
(0.873081 0.000528413 0)
(0.872951 0.000505885 0)
(0.872827 0.000485732 0)
(0.872708 0.000467626 0)
(0.872593 0.000451154 0)
(0.872483 0.000435936 0)
(0.872377 0.000421706 0)
(0.872274 0.000408341 0)
(0.872175 0.00039582 0)
(0.872079 0.000384171 0)
(0.871987 0.000373409 0)
(0.871897 0.000363502 0)
(0.871811 0.000354364 0)
(0.871727 0.000345873 0)
(0.871645 0.000337895 0)
(0.871566 0.000330313 0)
(0.871489 0.000323042 0)
(0.871414 0.000316033 0)
(0.871342 0.000309272 0)
(0.871271 0.000302765 0)
(0.871203 0.000296525 0)
(0.871137 0.000290564 0)
(0.871072 0.000284885 0)
(0.871009 0.000279475 0)
(0.870948 0.000274314 0)
(0.794639 0.00113047 0)
(0.794434 0.00106653 0)
(0.794244 0.00100437 0)
(0.794069 0.000945717 0)
(0.793907 0.000891625 0)
(0.793755 0.000842342 0)
(0.793613 0.000797509 0)
(0.79348 0.000756512 0)
(0.793355 0.000718894 0)
(0.793238 0.000684481 0)
(0.793127 0.000653245 0)
(0.793021 0.000625112 0)
(0.792922 0.000599825 0)
(0.792827 0.00057696 0)
(0.792737 0.000556027 0)
(0.792652 0.000536606 0)
(0.792571 0.000518412 0)
(0.792494 0.000501314 0)
(0.792421 0.000485281 0)
(0.792352 0.000470324 0)
(0.792286 0.000456433 0)
(0.792223 0.000443552 0)
(0.792163 0.000431573 0)
(0.792106 0.000420358 0)
(0.792052 0.000409763 0)
(0.792001 0.000399661 0)
(0.791952 0.000389965 0)
(0.791905 0.000380622 0)
(0.791861 0.000371614 0)
(0.791819 0.000362942 0)
(0.791779 0.000354619 0)
(0.791741 0.000346651 0)
(0.791705 0.000339039 0)
(0.791671 0.000331768 0)
(0.791638 0.000324814 0)
(0.694373 0.00133061 0)
(0.694213 0.00124835 0)
(0.694072 0.00117053 0)
(0.693947 0.00109844 0)
(0.693835 0.00103265 0)
(0.693736 0.000973014 0)
(0.693647 0.00091889 0)
(0.693568 0.000869478 0)
(0.693497 0.000824219 0)
(0.693434 0.000782859 0)
(0.693378 0.000745269 0)
(0.693329 0.000711254 0)
(0.693285 0.00068045 0)
(0.693246 0.000652356 0)
(0.693213 0.000626458 0)
(0.693184 0.000602335 0)
(0.693159 0.000579715 0)
(0.693138 0.000558464 0)
(0.693121 0.000538538 0)
(0.693108 0.000519918 0)
(0.693097 0.000502565 0)
(0.693089 0.000486395 0)
(0.693084 0.000471284 0)
(0.693081 0.000457086 0)
(0.69308 0.000443656 0)
(0.693082 0.000430868 0)
(0.693085 0.000418633 0)
(0.69309 0.000406895 0)
(0.693097 0.000395629 0)
(0.693105 0.000384829 0)
(0.693115 0.000374498 0)
(0.693126 0.000364634 0)
(0.693138 0.000355231 0)
(0.693151 0.000346266 0)
(0.693165 0.000337711 0)
(0.574238 0.00147852 0)
(0.5742 0.00137197 0)
(0.574185 0.00127397 0)
(0.574187 0.0011849 0)
(0.574205 0.00110458 0)
(0.574234 0.00103229 0)
(0.574273 0.000967025 0)
(0.57432 0.000907732 0)
(0.574374 0.000853712 0)
(0.574433 0.000804573 0)
(0.574496 0.00076002 0)
(0.574563 0.0007197 0)
(0.574632 0.000683131 0)
(0.574703 0.000649754 0)
(0.574776 0.000619042 0)
(0.574851 0.000590577 0)
(0.574927 0.000564083 0)
(0.575003 0.000539401 0)
(0.57508 0.000516437 0)
(0.575157 0.000495118 0)
(0.575234 0.00047535 0)
(0.575311 0.000457012 0)
(0.575387 0.000439952 0)
(0.575464 0.000424009 0)
(0.575539 0.000409028 0)
(0.575614 0.00039488 0)
(0.575689 0.000381465 0)
(0.575762 0.000368717 0)
(0.575835 0.000356595 0)
(0.575908 0.000345077 0)
(0.575979 0.000334149 0)
(0.57605 0.000323795 0)
(0.576119 0.00031399 0)
(0.576188 0.000304705 0)
(0.576256 0.000295899 0)
(0.435404 0.00144246 0)
(0.435676 0.00130705 0)
(0.435955 0.00118672 0)
(0.436235 0.00108049 0)
(0.436511 0.000987039 0)
(0.436781 0.000904858 0)
(0.437045 0.000832318 0)
(0.4373 0.00076796 0)
(0.437547 0.000710712 0)
(0.437784 0.000659798 0)
(0.438013 0.00061456 0)
(0.438233 0.000574345 0)
(0.438445 0.000538467 0)
(0.438648 0.000506254 0)
(0.438844 0.000477115 0)
(0.439034 0.000450583 0)
(0.439216 0.000426321 0)
(0.439392 0.000404095 0)
(0.439561 0.000383734 0)
(0.439724 0.00036509 0)
(0.439882 0.000348015 0)
(0.440035 0.00033235 0)
(0.440182 0.000317929 0)
(0.440324 0.000304585 0)
(0.440463 0.000292168 0)
(0.440597 0.000280553 0)
(0.440726 0.000269642 0)
(0.440853 0.000259368 0)
(0.440975 0.000249685 0)
(0.441094 0.000240562 0)
(0.441209 0.000231975 0)
(0.441321 0.000223901 0)
(0.44143 0.00021631 0)
(0.441536 0.000209168 0)
(0.441639 0.000202436 0)
(0.28126 0.00093814 0)
(0.281898 0.000808549 0)
(0.28248 0.000703939 0)
(0.283012 0.000618847 0)
(0.283498 0.000549003 0)
(0.283943 0.000491068 0)
(0.284353 0.000442411 0)
(0.284731 0.000401055 0)
(0.28508 0.000365608 0)
(0.285404 0.000335075 0)
(0.285705 0.000308676 0)
(0.285986 0.000285742 0)
(0.28625 0.000265668 0)
(0.286497 0.000247929 0)
(0.28673 0.000232097 0)
(0.28695 0.000217852 0)
(0.287158 0.000204969 0)
(0.287356 0.000193292 0)
(0.287543 0.000182702 0)
(0.287721 0.000173097 0)
(0.28789 0.000164375 0)
(0.288052 0.000156431 0)
(0.288207 0.00014916 0)
(0.288355 0.00014246 0)
(0.288497 0.000136247 0)
(0.288634 0.00013045 0)
(0.288765 0.00012502 0)
(0.288891 0.000119923 0)
(0.289013 0.000115138 0)
(0.28913 0.000110649 0)
(0.289243 0.000106445 0)
(0.289351 0.000102512 0)
(0.289457 9.88318e-05 0)
(0.289558 9.53835e-05 0)
(0.289657 9.21442e-05 0)
(0.115056 0.000139924 0)
(0.11554 0.000116422 0)
(0.115958 9.92283e-05 0)
(0.116323 8.62349e-05 0)
(0.116645 7.6094e-05 0)
(0.116932 6.79573e-05 0)
(0.11719 6.12723e-05 0)
(0.117424 5.56615e-05 0)
(0.117636 5.08627e-05 0)
(0.117829 4.67004e-05 0)
(0.118008 4.30651e-05 0)
(0.118172 3.98872e-05 0)
(0.118325 3.71102e-05 0)
(0.118467 3.46747e-05 0)
(0.1186 3.25153e-05 0)
(0.118725 3.05701e-05 0)
(0.118842 2.87895e-05 0)
(0.118952 2.7144e-05 0)
(0.119056 2.56214e-05 0)
(0.119154 2.42222e-05 0)
(0.119247 2.29488e-05 0)
(0.119336 2.18002e-05 0)
(0.11942 2.0767e-05 0)
(0.119501 1.98333e-05 0)
(0.119578 1.89786e-05 0)
(0.119651 1.81837e-05 0)
(0.119722 1.74321e-05 0)
(0.119789 1.67147e-05 0)
(0.119854 1.60273e-05 0)
(0.119916 1.53715e-05 0)
(0.119976 1.47506e-05 0)
(0.120034 1.41691e-05 0)
(0.120089 1.36289e-05 0)
(0.120143 1.31305e-05 0)
(0.120194 1.26706e-05 0)
(0.120244 -1.2255e-05 0)
(0.120292 -1.18577e-05 0)
(0.120339 -1.14806e-05 0)
(0.120384 -1.11193e-05 0)
(0.120428 -1.07704e-05 0)
(0.12047 -1.04326e-05 0)
(0.120511 -1.01058e-05 0)
(0.120551 -9.79095e-06 0)
(0.12059 -9.48924e-06 0)
(0.120627 -9.20187e-06 0)
(0.289752 -8.9101e-05 0)
(0.289844 -8.62023e-05 0)
(0.289933 -8.34474e-05 0)
(0.29002 -8.08223e-05 0)
(0.290105 -7.83169e-05 0)
(0.290186 -7.59241e-05 0)
(0.290266 -7.3639e-05 0)
(0.290343 -7.14581e-05 0)
(0.290418 -6.93782e-05 0)
(0.290492 -6.73961e-05 0)
(0.441739 -0.000196092 0)
(0.441837 -0.00019005 0)
(0.441932 -0.000184299 0)
(0.442025 -0.00017881 0)
(0.442116 -0.000173563 0)
(0.442204 -0.000168543 0)
(0.44229 -0.000163738 0)
(0.442375 -0.00015914 0)
(0.442457 -0.000154744 0)
(0.442537 -0.000150541 0)
(0.576323 -0.000287533 0)
(0.576389 -0.000279553 0)
(0.576454 -0.00027192 0)
(0.576518 -0.000264599 0)
(0.576581 -0.000257566 0)
(0.576644 -0.000250804 0)
(0.576705 -0.0002443 0)
(0.576766 -0.000238047 0)
(0.576826 -0.000232038 0)
(0.576885 -0.000226267 0)
(0.69318 -0.000329508 0)
(0.693195 -0.000321661 0)
(0.693212 -0.000314108 0)
(0.693229 -0.000306818 0)
(0.693246 -0.000299769 0)
(0.693265 -0.000292946 0)
(0.693284 -0.000286341 0)
(0.693303 -0.000279948 0)
(0.693322 -0.000273767 0)
(0.693342 -0.000267794 0)
(0.791607 -0.000318099 0)
(0.791578 -0.000311679 0)
(0.79155 -0.000305476 0)
(0.791524 -0.000299463 0)
(0.791499 -0.000293621 0)
(0.791475 -0.000287936 0)
(0.791453 -0.000282402 0)
(0.791432 -0.000277019 0)
(0.791412 -0.000271785 0)
(0.791393 -0.000266702 0)
(0.870889 -0.000269305 0)
(0.870831 -0.000264549 0)
(0.870775 -0.000259955 0)
(0.87072 -0.000255497 0)
(0.870667 -0.000251159 0)
(0.870615 -0.00024693 0)
(0.870564 -0.000242805 0)
(0.870515 -0.000238783 0)
(0.870467 -0.000234864 0)
(0.87042 -0.00023105 0)
(0.930556 -0.000200734 0)
(0.930483 -0.000197465 0)
(0.930412 -0.000194315 0)
(0.930343 -0.000191263 0)
(0.930274 -0.000188296 0)
(0.930207 -0.000185404 0)
(0.930141 -0.000182585 0)
(0.930077 -0.000179838 0)
(0.930013 -0.000177162 0)
(0.929951 -0.00017456 0)
(0.970391 -0.000122996 0)
(0.970312 -0.000121069 0)
(0.970235 -0.000119216 0)
(0.970158 -0.000117424 0)
(0.970083 -0.000115684 0)
(0.970009 -0.00011399 0)
(0.969936 -0.00011234 0)
(0.969864 -0.000110733 0)
(0.969794 -0.00010917 0)
(0.969724 -0.000107652 0)
(0.99032 -4.13404e-05 0)
(0.990238 -4.06998e-05 0)
(0.990158 -4.00852e-05 0)
(0.990079 -3.94917e-05 0)
(0.990001 -3.89156e-05 0)
(0.989924 -3.83548e-05 0)
(0.989849 -3.78083e-05 0)
(0.989774 -3.72759e-05 0)
(0.989701 -3.67579e-05 0)
(0.989628 -3.62546e-05 0)
(0.99032 4.14356e-05 0)
(0.990238 4.08004e-05 0)
(0.990158 4.01886e-05 0)
(0.990079 3.95964e-05 0)
(0.990001 3.90216e-05 0)
(0.989924 3.84629e-05 0)
(0.989849 3.79201e-05 0)
(0.989774 3.73934e-05 0)
(0.989701 3.6883e-05 0)
(0.989628 3.6389e-05 0)
(0.970392 0.000123087 0)
(0.970313 0.000121166 0)
(0.970235 0.000119316 0)
(0.970158 0.000117526 0)
(0.970083 0.000115787 0)
(0.970009 0.000114095 0)
(0.969936 0.000112448 0)
(0.969864 0.000110846 0)
(0.969794 0.000109291 0)
(0.969724 0.000107781 0)
(0.930556 0.000200816 0)
(0.930483 0.000197553 0)
(0.930412 0.000194405 0)
(0.930343 0.000191355 0)
(0.930274 0.00018839 0)
(0.930207 0.000185501 0)
(0.930142 0.000182685 0)
(0.930077 0.000179943 0)
(0.930013 0.000177274 0)
(0.929951 0.000174679 0)
(0.870889 0.000269372 0)
(0.870831 0.00026462 0)
(0.870775 0.000260028 0)
(0.87072 0.000255573 0)
(0.870667 0.000251238 0)
(0.870615 0.000247013 0)
(0.870564 0.000242893 0)
(0.870515 0.000238877 0)
(0.870467 0.000234965 0)
(0.87042 0.000231159 0)
(0.791607 0.000318144 0)
(0.791578 0.000311726 0)
(0.79155 0.000305525 0)
(0.791524 0.000299517 0)
(0.791499 0.00029368 0)
(0.791476 0.000288002 0)
(0.791453 0.000282477 0)
(0.791432 0.000277101 0)
(0.791412 0.000271875 0)
(0.791393 0.000266799 0)
(0.69318 0.000329528 0)
(0.693195 0.000321681 0)
(0.693212 0.000314131 0)
(0.693229 0.000306848 0)
(0.693247 0.000299809 0)
(0.693265 0.000292997 0)
(0.693284 0.000286401 0)
(0.693303 0.000280018 0)
(0.693323 0.000273843 0)
(0.693343 0.000267876 0)
(0.576323 0.000287529 0)
(0.576389 0.000279551 0)
(0.576454 0.000271925 0)
(0.576518 0.000264615 0)
(0.576582 0.000257594 0)
(0.576644 0.000250843 0)
(0.576706 0.000244349 0)
(0.576766 0.000238102 0)
(0.576826 0.000232097 0)
(0.576885 0.000226327 0)
(0.441739 0.000196074 0)
(0.441837 0.00019004 0)
(0.441932 0.0001843 0)
(0.442025 0.000178823 0)
(0.442116 0.000173587 0)
(0.442204 0.000168573 0)
(0.442291 0.000163773 0)
(0.442375 0.000159176 0)
(0.442457 0.000154779 0)
(0.442537 0.000150572 0)
(0.289752 8.90899e-05 0)
(0.289844 8.61985e-05 0)
(0.289934 8.34507e-05 0)
(0.29002 8.08316e-05 0)
(0.290105 7.833e-05 0)
(0.290187 7.59387e-05 0)
(0.290266 7.36531e-05 0)
(0.290343 7.14704e-05 0)
(0.290419 6.93878e-05 0)
(0.290492 6.74029e-05 0)
(0.120244 1.2245e-05 0)
(0.120292 1.18472e-05 0)
(0.120339 1.14718e-05 0)
(0.120384 1.11131e-05 0)
(0.120428 1.07679e-05 0)
(0.12047 1.04334e-05 0)
(0.120511 1.01096e-05 0)
(0.120551 9.79622e-06 0)
(0.12059 9.49506e-06 0)
(0.120627 9.20676e-06 0)
(0.120664 -8.9295e-06 0)
(0.120699 -8.67232e-06 0)
(0.120734 -8.42958e-06 0)
(0.120767 -8.20042e-06 0)
(0.1208 -7.98305e-06 0)
(0.120832 -7.77617e-06 0)
(0.120863 -7.57786e-06 0)
(0.120893 -7.38708e-06 0)
(0.120922 -7.20249e-06 0)
(0.120951 -7.02364e-06 0)
(0.120979 -6.84992e-06 0)
(0.121006 -6.68144e-06 0)
(0.121033 -6.51808e-06 0)
(0.121059 -6.36019e-06 0)
(0.121085 -6.20777e-06 0)
(0.12111 -6.06111e-06 0)
(0.121134 -5.92008e-06 0)
(0.121158 -5.78476e-06 0)
(0.121181 -5.65475e-06 0)
(0.121204 -5.53e-06 0)
(0.121226 -5.40992e-06 0)
(0.121248 -5.29436e-06 0)
(0.121269 -5.18274e-06 0)
(0.12129 -5.07495e-06 0)
(0.121311 -4.97046e-06 0)
(0.121331 -4.86932e-06 0)
(0.12135 -4.77112e-06 0)
(0.121369 -4.67603e-06 0)
(0.121388 -4.58379e-06 0)
(0.121407 -4.49469e-06 0)
(0.121425 -4.40857e-06 0)
(0.121443 -4.3258e-06 0)
(0.12146 -4.24627e-06 0)
(0.121478 -4.17046e-06 0)
(0.121494 -4.09836e-06 0)
(0.290563 -6.55071e-05 0)
(0.290632 -6.37067e-05 0)
(0.290699 -6.19888e-05 0)
(0.290765 -6.03475e-05 0)
(0.290829 -5.87763e-05 0)
(0.290892 -5.72697e-05 0)
(0.290953 -5.58221e-05 0)
(0.291012 -5.44293e-05 0)
(0.291071 -5.30875e-05 0)
(0.291127 -5.17938e-05 0)
(0.291183 -5.0546e-05 0)
(0.291237 -4.93424e-05 0)
(0.29129 -4.81815e-05 0)
(0.291342 -4.70621e-05 0)
(0.291393 -4.59827e-05 0)
(0.291442 -4.49421e-05 0)
(0.291491 -4.39386e-05 0)
(0.291538 -4.29707e-05 0)
(0.291585 -4.20364e-05 0)
(0.29163 -4.11342e-05 0)
(0.291675 -4.02621e-05 0)