/*--------------------------------*- C++ -*----------------------------------*\
| =========                 |                                                 |
| \\      /  F ield         | OpenFOAM: The Open Source CFD Toolbox           |
|  \\    /   O peration     | Version:  2406                                  |
|   \\  /    A nd           | Website:  www.openfoam.com                      |
|    \\/     M anipulation  |                                                 |
\*---------------------------------------------------------------------------*/
FoamFile
{
    version     2.0;
    format      ascii;
    arch        "LSB;label=32;scalar=64";
    class       volScalarField;
    location    "108";
    object      p;
}
// * * * * * * * * * * * * * * * * * * * * * * * * * * * * * * * * * * * * * //

dimensions      [0 2 -2 0 0 0 0];

internalField   nonuniform List<scalar> 
1916
(
3.82712
3.82778
3.82798
3.82776
3.82736
3.82686
3.82628
3.82563
3.82493
3.82421
3.82346
3.8227
3.82192
3.82113
3.82033
3.81952
3.8187
3.81788
3.81706
3.81623
3.8154
3.81458
3.81375
3.81293
3.81212
3.81132
3.81054
3.80977
3.80904
3.80834
3.80769
3.80711
3.80662
3.80623
3.80598
3.80591
3.80605
3.80644
3.80713
3.80814
3.80949
3.81117
3.81312
3.81523
3.81734
3.8192
3.82025
3.82826
3.82818
3.82805
3.82776
3.82734
3.82683
3.82623
3.82559
3.8249
3.82418
3.82344
3.82268
3.8219
3.82111
3.82031
3.81951
3.81869
3.81787
3.81705
3.81622
3.8154
3.81457
3.81374
3.81292
3.81211
3.81131
3.81052
3.80975
3.80901
3.80831
3.80766
3.80707
3.80657
3.80617
3.80592
3.80585
3.806
3.80642
3.80717
3.80828
3.80978
3.81165
3.81383
3.81619
3.81854
3.8207
3.82197
3.82908
3.82845
3.82801
3.82769
3.82728
3.82677
3.82617
3.82554
3.82486
3.82415
3.82341
3.82265
3.82188
3.82109
3.82029
3.81949
3.81867
3.81785
3.81703
3.8162
3.81537
3.81454
3.81371
3.81288
3.81205
3.81123
3.81042
3.80963
3.80885
3.8081
3.80738
3.80672
3.80611
3.80559
3.80519
3.80494
3.80488
3.80508
3.80561
3.80654
3.80795
3.80989
3.81235
3.81527
3.81841
3.82151
3.82326
3.82967
3.82879
3.82811
3.8277
3.82727
3.82672
3.82611
3.82547
3.8248
3.82409
3.82336
3.8226
3.82184
3.82105
3.82026
3.81945
3.81864
3.81781
3.81699
3.81615
3.81531
3.81447
3.81362
3.81277
3.81192
3.81106
3.8102
3.80934
3.80847
3.8076
3.80673
3.80587
3.805
3.80416
3.80333
3.80255
3.80184
3.80126
3.80088
3.80079
3.80117
3.80218
3.80405
3.80695
3.81073
3.81498
3.81662
3.83013
3.82915
3.82829
3.82776
3.82727
3.8267
3.82607
3.82541
3.82473
3.82403
3.8233
3.82255
3.82178
3.821
3.82021
3.8194
3.81858
3.81776
3.81693
3.81608
3.81523
3.81437
3.81349
3.81261
3.81171
3.81079
3.80985
3.80887
3.80786
3.80681
3.80569
3.8045
3.8032
3.80179
3.80024
3.7985
3.79657
3.79443
3.79207
3.78956
3.78701
3.78467
3.78288
3.78221
3.78264
3.78419
3.77989
3.83051
3.82945
3.82848
3.82784
3.8273
3.8267
3.82604
3.82537
3.82468
3.82397
3.82324
3.82249
3.82173
3.82094
3.82015
3.81934
3.81852
3.81769
3.81685
3.81599
3.81512
3.81424
3.81333
3.8124
3.81144
3.81044
3.80939
3.80828
3.80709
3.80578
3.80434
3.80271
3.80084
3.79866
3.79607
3.79298
3.78923
3.78467
3.7791
3.77231
3.76408
3.75425
3.74256
3.72915
3.71196
3.69001
3.63634
3.83079
3.8297
3.82865
3.82794
3.82735
3.82671
3.82603
3.82533
3.82463
3.82392
3.82319
3.82244
3.82167
3.82089
3.82009
3.81928
3.81846
3.81762
3.81677
3.8159
3.81501
3.81409
3.81315
3.81217
3.81115
3.81006
3.8089
3.80763
3.80623
3.80465
3.80283
3.80071
3.79818
3.79511
3.79133
3.7866
3.78061
3.77295
3.76307
3.7502
3.73326
3.7108
3.6801
3.6387
3.57393
3.49255
3.19641
3.831
3.82989
3.82879
3.82803
3.82739
3.82672
3.82602
3.82531
3.8246
3.82388
3.82314
3.82239
3.82162
3.82084
3.82004
3.81923
3.8184
3.81756
3.81669
3.81581
3.8149
3.81396
3.81298
3.81196
3.81087
3.8097
3.80843
3.80701
3.80541
3.80357
3.80141
3.79881
3.79564
3.79169
3.78671
3.78031
3.772
3.76105
3.74642
3.72657
3.69906
3.66015
3.60188
3.51218
3.3388
3.00781
1.862
3.83113
3.83001
3.82888
3.82809
3.82743
3.82674
3.82602
3.82529
3.82458
3.82385
3.82311
3.82236
3.82159
3.8208
3.82
3.81919
3.81835
3.8175
3.81663
3.81574
3.81481
3.81385
3.81285
3.81178
3.81065
3.80941
3.80805
3.80652
3.80477
3.80272
3.80028
3.79731
3.79362
3.78897
3.78301
3.77525
3.765
3.75124
3.73248
3.70642
3.66932
3.61507
3.53177
3.39898
3.16471
2.75669
2.02391
3.83119
3.83006
3.82892
3.82812
3.82744
3.82674
3.82601
3.82528
3.82456
3.82383
3.82309
3.82233
3.82156
3.82078
3.81998
3.81916
3.81832
3.81747
3.81659
3.81569
3.81476
3.81378
3.81276
3.81168
3.81052
3.80925
3.80784
3.80624
3.80441
3.80224
3.79964
3.79646
3.79249
3.78744
3.78093
3.77239
3.76103
3.74565
3.72449
3.69478
3.65214
3.5894
3.49441
3.34731
3.11669
2.75473
2.23861
3.83119
3.83006
3.82892
3.82811
3.82743
3.82673
3.826
3.82528
3.82455
3.82382
3.82308
3.82233
3.82155
3.82077
3.81996
3.81915
3.81831
3.81745
3.81658
3.81567
3.81474
3.81377
3.81274
3.81166
3.81049
3.80922
3.80781
3.80621
3.80437
3.80221
3.7996
3.79641
3.79243
3.78738
3.78086
3.77231
3.76092
3.74551
3.7243
3.69453
3.65177
3.58882
3.49345
3.34564
3.11378
2.74951
2.23059
3.83111
3.82999
3.82886
3.82807
3.82741
3.82672
3.82599
3.82527
3.82455
3.82383
3.82309
3.82233
3.82156
3.82077
3.81997
3.81915
3.81832
3.81746
3.81659
3.81569
3.81476
3.8138
3.81279
3.81172
3.81058
3.80934
3.80797
3.80643
3.80467
3.80261
3.80016
3.79717
3.79347
3.78879
3.7828
3.775
3.76469
3.75086
3.73198
3.70573
3.66832
3.61353
3.52924
3.39451
3.15608
2.73889
1.9888
3.83096
3.82985
3.82876
3.82799
3.82736
3.82669
3.82599
3.82527
3.82456
3.82384
3.8231
3.82235
3.82158
3.82079
3.81999
3.81918
3.81834
3.81749
3.81663
3.81574
3.81482
3.81387
3.81289
3.81186
3.81076
3.80958
3.80829
3.80687
3.80525
3.8034
3.80121
3.79859
3.79539
3.79141
3.78638
3.77993
3.77154
3.76048
3.74568
3.72559
3.69771
3.65819
3.59882
3.50717
3.32891
2.9869
1.79347
3.83075
3.82966
3.82861
3.8279
3.82731
3.82667
3.82598
3.82529
3.82459
3.82387
3.82314
3.82238
3.82161
3.82083
3.82003
3.81921
3.81838
3.81754
3.81668
3.8158
3.8149
3.81398
3.81303
3.81204
3.811
3.8099
3.80872
3.80744
3.80601
3.80441
3.80258
3.80042
3.79786
3.79475
3.79091
3.78611
3.78004
3.77227
3.76223
3.74914
3.73187
3.70892
3.67745
3.63489
3.56797
3.48403
3.17625
3.83045
3.8294
3.82843
3.82779
3.82725
3.82664
3.82598
3.82531
3.82462
3.82391
3.82318
3.82242
3.82165
3.82087
3.82007
3.81926
3.81843
3.81759
3.81674
3.81588
3.815
3.8141
3.81318
3.81224
3.81126
3.81025
3.80918
3.80805
3.80683
3.8055
3.80403
3.80237
3.80046
3.79823
3.7956
3.79244
3.78861
3.78395
3.77825
3.77129
3.76283
3.75269
3.7406
3.72665
3.70868
3.68572
3.62965
3.83008
3.82909
3.82823
3.8277
3.82721
3.82664
3.826
3.82535
3.82467
3.82396
3.82323
3.82247
3.8217
3.82091
3.82011
3.8193
3.81848
3.81765
3.8168
3.81595
3.81509
3.81421
3.81333
3.81243
3.81151
3.81057
3.80961
3.80861
3.80758
3.8065
3.80535
3.80412
3.80279
3.80134
3.79973
3.79794
3.79594
3.79372
3.79127
3.78865
3.78597
3.78348
3.78151
3.78068
3.78095
3.78237
3.7778
3.8296
3.82873
3.82805
3.82763
3.8272
3.82666
3.82605
3.8254
3.82473
3.82402
3.82328
3.82252
3.82175
3.82096
3.82016
3.81935
3.81852
3.81769
3.81686
3.81601
3.81516
3.8143
3.81344
3.81258
3.8117
3.81083
3.80995
3.80906
3.80817
3.80727
3.80637
3.80547
3.80457
3.80368
3.80282
3.80199
3.80123
3.80059
3.80014
3.79999
3.8003
3.80127
3.80309
3.80597
3.80977
3.81407
3.81571
3.82901
3.82838
3.82794
3.82762
3.82722
3.8267
3.8261
3.82546
3.82478
3.82407
3.82333
3.82257
3.82179
3.82099
3.82019
3.81938
3.81855
3.81773
3.81689
3.81605
3.81521
3.81437
3.81352
3.81267
3.81183
3.81099
3.81016
3.80934
3.80854
3.80776
3.80701
3.80631
3.80568
3.80512
3.80468
3.80438
3.80428
3.80444
3.80493
3.80582
3.8072
3.80913
3.8116
3.81454
3.81771
3.82087
3.82264
3.82819
3.82811
3.82798
3.8277
3.82728
3.82676
3.82616
3.82552
3.82483
3.82411
3.82336
3.82259
3.82181
3.82102
3.82021
3.8194
3.81857
3.81774
3.81691
3.81607
3.81524
3.81439
3.81356
3.81272
3.81189
3.81106
3.81025
3.80946
3.8087
3.80797
3.80729
3.80667
3.80613
3.8057
3.80541
3.8053
3.80542
3.80581
3.80652
3.80761
3.80909
3.81096
3.81314
3.81552
3.81789
3.82008
3.82137
3.82705
3.82771
3.82791
3.8277
3.8273
3.82679
3.8262
3.82555
3.82486
3.82413
3.82338
3.82261
3.82183
3.82103
3.82022
3.81941
3.81858
3.81775
3.81692
3.81608
3.81524
3.8144
3.81357
3.81273
3.8119
3.81108
3.81027
3.80948
3.80872
3.808
3.80732
3.80671
3.80618
3.80576
3.80548
3.80537
3.80548
3.80583
3.80649
3.80748
3.80881
3.81048
3.81243
3.81455
3.81668
3.81856
3.81962
-0.677607
-0.601796
-0.0875984
0.0323291
-0.0335923
-0.0627186
0.822583
0.319409
0.263297
0.182836
0.0516329
-0.0241562
1.42373
0.662694
0.300467
0.163042
0.0539112
-0.0348327
1.40772
0.636829
0.267392
0.121694
-0.00124831
-0.106781
0.750041
0.224855
0.162618
0.0691905
-0.0948082
-0.216865
-0.879028
-0.826743
-0.279677
-0.157483
-0.266368
-0.352289
-0.00345741
-0.00365009
-0.00378945
-0.00382292
-0.00377479
-0.00365089
-0.00345114
-0.00317813
-0.00283668
-0.00243186
-0.00196747
-0.00144529
-0.000865365
-0.000227172
0.000468719
0.00121914
0.0020173
0.00285255
0.00371132
0.00457876
0.00543972
0.0062791
0.00708236
0.00783612
0.00852928
0.009153
0.00970152
0.010172
0.010564
0.0108801
0.0111243
0.0113023
0.0114198
0.0114819
0.0114925
0.0114545
0.0113689
0.0112307
0.0110268
0.010732
0.0103159
0.00973977
0.00894428
0.00782503
0.00629299
0.0044153
0.00197976
-0.00316048
-0.00337007
-0.00351847
-0.00357058
-0.00355395
-0.00346315
-0.00329217
-0.00304198
-0.00271809
-0.00232747
-0.00187623
-0.00136809
-0.00080416
-0.000183998
0.000492569
0.0012236
0.0020038
0.00282323
0.0036684
0.00452497
0.00537931
0.00621672
0.00702051
0.00777518
0.00847109
0.00909906
0.00965406
0.010133
0.0105351
0.010862
0.0111172
0.0113039
0.0114269
0.0114896
0.0114968
0.0114549
0.0113639
0.0112161
0.0109966
0.0106843
0.0102564
0.00968382
0.0089059
0.00779307
0.00620917
0.00434753
0.0021191
-0.00321362
-0.00342017
-0.0035639
-0.00361973
-0.0036138
-0.00352864
-0.00335528
-0.00309655
-0.00276179
-0.00236257
-0.00190851
-0.00140596
-0.000855691
-0.000254969
0.000400704
0.00111306
0.00187989
0.00269233
0.0035374
0.00440047
0.00526602
0.00611717
0.00693583
0.00770745
0.00842312
0.00907479
0.00965367
0.0101558
0.0105785
0.0109217
0.0111875
0.0113779
0.0114973
0.0115527
0.0115519
0.0114926
0.0113713
0.0111846
0.0109251
0.0105772
0.0101069
0.00946015
0.00862501
0.00760768
0.00613853
0.00382569
0.00172579
-0.00426568
-0.0043446
-0.0043767
-0.00435056
-0.00426845
-0.00410104
-0.00384226
-0.00350084
-0.00309308
-0.00263701
-0.00214746
-0.00163179
-0.00108764
-0.000504631
0.000131119
0.000829979
0.00159452
0.00241922
0.00329135
0.0041916
0.0050973
0.00598772
0.00684912
0.00766896
0.00843504
0.00913878
0.00976385
0.0103074
0.0107669
0.0111353
0.0114094
0.0115921
0.0116938
0.0117282
0.0116976
0.0115881
0.0113926
0.0111161
0.0107769
0.0103884
0.00985541
0.0090386
0.00803566
0.00719873
0.0062507
0.00389933
0.00154348
-0.0072662
-0.00667682
-0.00619605
-0.00586032
-0.00554621
-0.00517349
-0.00472881
-0.00422468
-0.00368207
-0.00312294
-0.00256575
-0.00201749
-0.00147131
-0.000906017
-0.000294489
0.000389106
0.00115805
0.00201163
0.00293426
0.00389456
0.00485891
0.00580859
0.00674055
0.00764347
0.00849497
0.00927854
0.00998286
0.010603
0.0111256
0.0115299
0.0118124
0.0119847
0.0120605
0.0120563
0.0119661
0.0117564
0.011409
0.0109395
0.0104384
0.00995567
0.00930598
0.00818642
0.00683243
0.00614128
0.00595465
0.00382015
0.000848621
-0.0146075
-0.010579
-0.00837934
-0.00745074
-0.00682616
-0.00621218
-0.00557167
-0.00490811
-0.00423615
-0.00357834
-0.00295582
-0.0023808
-0.00184702
-0.00132694
-0.000770388
-0.000121742
0.000654232
0.00155469
0.00254442
0.0035747
0.00460694
0.00562947
0.00664572
0.00764706
0.00860939
0.00951075
0.0103364
0.011067
0.0116735
0.0121212
0.0124109
0.0125731
0.0126179
0.0125522
0.0123636
0.0120017
0.0114319
0.0106907
0.00991939
0.00921432
0.00833748
0.00687975
0.00513865
0.00437024
0.00458414
0.00283067
-0.00011021
-0.0283595
-0.0124501
-0.00723401
-0.00672248
-0.00624772
-0.00563575
-0.00509911
-0.00456013
-0.00398427
-0.00340664
-0.00286435
-0.00237558
-0.00193608
-0.00150596
-0.00101693
-0.000403826
0.000371068
0.00129802
0.00232434
0.00338654
0.00444678
0.00550859
0.00658955
0.00768697
0.0087791
0.00983288
0.0107987
0.0116431
0.0123447
0.0128628
0.013185
0.0133386
0.0133333
0.013166
0.0128318
0.0122822
0.0114768
0.0104424
0.00930884
0.00820379
0.00697516
0.00526895
0.00331763
0.00228638
0.00231268
0.000918206
-0.00105449
-0.0343407
-0.013402
-0.0102299
-0.0111276
-0.0103827
-0.00908865
-0.00810449
-0.00724874
-0.00635094
-0.00544069
-0.00457313
-0.00377024
-0.00303074
-0.00232603
-0.00159437
-0.000759588
0.000217178
0.00130793
0.00243711
0.00353745
0.00459251
0.00563272
0.00670646
0.00784309
0.009028
0.0102033
0.0113006
0.0122672
0.0130664
0.0136621
0.0140235
0.0141465
0.0140645
0.0137743
0.0132695
0.0125359
0.0115391
0.0102729
0.00880863
0.00724903
0.00558287
0.00365766
0.00161628
0.00018471
-0.000411702
-0.00137276
-0.00175284
-0.0278255
-0.0122572
-0.00743841
-0.00772348
-0.00689352
-0.00534489
-0.00424517
-0.00352619
-0.00286225
-0.00219341
-0.00158079
-0.00106368
-0.000645605
-0.000300202
3.48096e-05
0.000445163
0.000995965
0.00170623
0.00255543
0.00350136
0.00451326
0.00559783
0.00677846
0.0080418
0.00933044
0.0105742
0.0117263
0.0127464
0.0136064
0.0142721
0.0146613
0.01474
0.0145718
0.0141802
0.0135362
0.0126684
0.0115523
0.0101692
0.00851372
0.00661872
0.00453809
0.00231465
7.9316e-05
-0.00178939
-0.00295177
-0.0033833
-0.00212615
-0.0724464
-0.076561
-0.0754745
-0.0757659
-0.0735811
-0.0680274
-0.0610283
-0.0538518
-0.0466933
-0.0395925
-0.0327381
-0.026324
-0.0204682
-0.015238
-0.0106649
-0.00673973
-0.0034192
-0.00064076
0.00165719
0.00352954
0.00505326
0.00633474
0.00748616
0.00860215
0.00973079
0.0108702
0.0119809
0.0130061
0.0138822
0.0145323
0.0149011
0.0149694
0.0147717
0.0143451
0.0136788
0.0127877
0.0116601
0.0102499
0.0085085
0.00641633
0.0040388
0.00150347
-0.000994431
-0.00311923
-0.00437863
-0.00425634
-0.00206464
-0.158004
-0.167363
-0.166994
-0.168168
-0.16668
-0.16059
-0.152039
-0.142595
-0.132314
-0.121033
-0.108918
-0.0962564
-0.0833198
-0.0704236
-0.0579464
-0.0462494
-0.0355734
-0.0260111
-0.017558
-0.0101863
-0.00389094
0.00130109
0.00538374
0.00843558
0.0106194
0.0121463
0.0132191
0.0139929
0.0145547
0.0149322
0.0151241
0.0151145
0.014903
0.0144699
0.0137749
0.0128285
0.0116542
0.0102057
0.00843506
0.00633205
0.00393303
0.0013578
-0.00115989
-0.00326452
-0.00443017
-0.00410558
-0.0019486
-0.260214
-0.256112
-0.252407
-0.254268
-0.252234
-0.245553
-0.237623
-0.229592
-0.220776
-0.210543
-0.198694
-0.185167
-0.16999
-0.153444
-0.136105
-0.118634
-0.101495
-0.0848236
-0.0685301
-0.0525352
-0.0370128
-0.0224747
-0.00962196
0.000920211
0.0088236
0.0141388
0.0172366
0.0186748
0.0190337
0.0187819
0.0182026
0.017449
0.0166085
0.0157006
0.0146898
0.0135366
0.0122235
0.0106944
0.00889945
0.00681939
0.0044783
0.00198425
-0.000428947
-0.00241882
-0.00351674
-0.00338329
-0.00150369
-0.36724
-0.33704
-0.329146
-0.332813
-0.331338
-0.325328
-0.318947
-0.312977
-0.306541
-0.298882
-0.289472
-0.277794
-0.263493
-0.246731
-0.228257
-0.209017
-0.189559
-0.169691
-0.148598
-0.125322
-0.0994848
-0.0718007
-0.0440168
-0.0183597
0.00316313
0.0193091
0.0298241
0.0353315
0.0369843
0.0360637
0.0336809
0.0306632
0.0275384
0.0245739
0.0218478
0.0193474
0.01699
0.0146386
0.0121788
0.00957558
0.00686044
0.00412755
0.0015627
-0.000563412
-0.00183905
-0.0022319
-0.000703982
-0.376962
-0.34596
-0.3351
-0.335124
-0.334493
-0.332816
-0.331813
-0.331688
-0.331836
-0.331494
-0.329773
-0.3256
-0.318099
-0.307228
-0.294024
-0.279951
-0.265783
-0.250923
-0.233279
-0.209892
-0.178491
-0.138945
-0.0936418
-0.0467729
-0.00305606
0.0335526
0.0606901
0.0777927
0.085802
0.0866079
0.0824319
0.0753464
0.0669852
0.0584683
0.0504293
0.0431336
0.036593
0.0307052
0.025341
0.0203999
0.0158118
0.0115616
0.00772613
0.0044645
0.00205332
0.000384975
0.000258971
-0.345881
-0.339721
-0.336142
-0.334586
-0.333528
-0.332607
-0.332358
-0.333287
-0.335273
-0.33766
-0.339508
-0.339533
-0.336408
-0.329874
-0.321424
-0.31344
-0.307341
-0.30245
-0.295233
-0.279753
-0.250478
-0.204983
-0.144983
-0.0758682
-0.00507665
0.0599822
0.113544
0.152282
0.175467
0.184533
0.182302
0.172069
0.156976
0.139601
0.121816
0.104763
0.0890461
0.0748783
0.0622484
0.0510047
0.0409762
0.0320077
0.0240334
0.0170489
0.0110986
0.00611511
0.00181791
-0.333243
-0.332728
-0.33246
-0.33232
-0.332124
-0.33191
-0.332095
-0.333166
-0.335129
-0.33748
-0.339473
-0.339922
-0.337446
-0.331659
-0.324383
-0.318907
-0.317807
-0.321396
-0.325504
-0.32099
-0.298492
-0.252627
-0.183389
-0.0960614
0.000305472
0.0954801
0.180193
0.247551
0.293912
0.319011
0.325185
0.316252
0.296572
0.27032
0.24095
0.210973
0.182021
0.155017
0.130367
0.108135
0.0882011
0.0703624
0.054407
0.0401385
0.0273609
0.0158723
0.00493071
-0.327907
-0.328237
-0.328709
-0.329182
-0.329541
-0.329791
-0.330218
-0.331246
-0.333075
-0.335408
-0.337456
-0.337921
-0.335296
-0.329227
-0.322058
-0.317224
-0.317736
-0.325449
-0.336499
-0.340245
-0.324059
-0.279368
-0.204292
-0.10379
0.0124796
0.132866
0.245736
0.341139
0.412473
0.457307
0.476634
0.473813
0.453668
0.421587
0.382435
0.340113
0.297427
0.256268
0.217721
0.182313
0.150132
0.121042
0.0947392
0.0708542
0.0490309
0.0285471
0.00977996
-0.326236
-0.326639
-0.327124
-0.327624
-0.3281
-0.328501
-0.328899
-0.329484
-0.330433
-0.331745
-0.33308
-0.333617
-0.332142
-0.327851
-0.321691
-0.316641
-0.316759
-0.324854
-0.33682
-0.341769
-0.327746
-0.284102
-0.205773
-0.0977444
0.0303642
0.166795
0.298864
0.414403
0.504687
0.565686
0.597234
0.601698
0.583721
0.549216
0.503944
0.452769
0.399506
0.346893
0.296711
0.249928
0.206925
0.167654
0.13182
0.098946
0.0686554
0.0397233
0.0141144
-0.326339
-0.326712
-0.327159
-0.327634
-0.328141
-0.328642
-0.329113
-0.329565
-0.330027
-0.330511
-0.33095
-0.331114
-0.330546
-0.328668
-0.325116
-0.320386
-0.316711
-0.317764
-0.324307
-0.328235
-0.314321
-0.26889
-0.187433
-0.0757053
0.0566339
0.198715
0.338646
0.463259
0.562943
0.632599
0.670776
0.679225
0.662713
0.627341
0.579079
0.523195
0.464031
0.404814
0.347718
0.293998
0.244232
0.198483
0.156428
0.117527
0.0814089
0.0470661
0.0157792
-0.326889
-0.327237
-0.32769
-0.328179
-0.328724
-0.329325
-0.329972
-0.330634
-0.331249
-0.331723
-0.331943
-0.331793
-0.331183
-0.330027
-0.328144
-0.325221
-0.321013
-0.315477
-0.308094
-0.296134
-0.273233
-0.22961
-0.155923
-0.0497363
0.0811678
0.223417
0.362955
0.486191
0.58444
0.655526
0.695888
0.704819
0.687949
0.651778
0.602239
0.544675
0.483568
0.422284
0.363073
0.307269
0.255504
0.207907
0.164306
0.124062
0.0862877
0.0507472
0.0155222
)
;

boundaryField
{
    inlet
    {
        type            zeroGradient;
    }
    outlet
    {
        type            fixedValue;
        value           uniform 0;
    }
    upperWall
    {
        type            zeroGradient;
    }
    lowerWall
    {
        type            zeroGradient;
    }
    frontAndBack
    {
        type            empty;
    }
}


// ************************************************************************* //
