/*--------------------------------*- C++ -*----------------------------------*\
| =========                 |                                                 |
| \\      /  F ield         | OpenFOAM: The Open Source CFD Toolbox           |
|  \\    /   O peration     | Version:  2406                                  |
|   \\  /    A nd           | Website:  www.openfoam.com                      |
|    \\/     M anipulation  |                                                 |
\*---------------------------------------------------------------------------*/
FoamFile
{
    version     2.0;
    format      ascii;
    arch        "LSB;label=32;scalar=64";
    class       volVectorField;
    location    "52";
    object      U;
}
// * * * * * * * * * * * * * * * * * * * * * * * * * * * * * * * * * * * * * //

dimensions      [0 1 -1 0 0 0 0];

internalField   nonuniform List<vector> 
1800
(
(0.191701 -0.00280562 0)
(0.197311 -0.00433117 0)
(0.203772 -0.00387857 0)
(0.210356 -0.00334527 0)
(0.217114 -0.00317398 0)
(0.22441 -0.00330421 0)
(0.232675 -0.00375036 0)
(0.242344 -0.00466285 0)
(0.254771 -0.00637305 0)
(0.2669 -0.0189545 0)
(0.507836 -0.00336238 0)
(0.508029 -0.00735938 0)
(0.510358 -0.0090881 0)
(0.514071 -0.0101312 0)
(0.519381 -0.0112811 0)
(0.526415 -0.0127778 0)
(0.535221 -0.0148504 0)
(0.545933 -0.0179375 0)
(0.558936 -0.0225724 0)
(0.573013 -0.0309049 0)
(0.748437 -0.00263034 0)
(0.748681 -0.00676771 0)
(0.749805 -0.00979395 0)
(0.751327 -0.0124682 0)
(0.753951 -0.0153151 0)
(0.758034 -0.0185654 0)
(0.763537 -0.0224608 0)
(0.770334 -0.0274017 0)
(0.778208 -0.0338936 0)
(0.786403 -0.0428369 0)
(0.908702 -0.00229858 0)
(0.908915 -0.00653037 0)
(0.909485 -0.0102997 0)
(0.909807 -0.0139216 0)
(0.910574 -0.0177394 0)
(0.912178 -0.0219764 0)
(0.914529 -0.0268437 0)
(0.917404 -0.0326073 0)
(0.92053 -0.0395224 0)
(0.92346 -0.0477533 0)
(0.988768 -0.00205051 0)
(0.988728 -0.00604167 0)
(0.988664 -0.00992919 0)
(0.987862 -0.0138707 0)
(0.986955 -0.0180549 0)
(0.986322 -0.02264 0)
(0.985843 -0.0277765 0)
(0.985266 -0.0336158 0)
(0.984333 -0.0402627 0)
(0.982732 -0.0477153 0)
(0.988721 -0.00166708 0)
(0.988323 -0.00504611 0)
(0.987518 -0.00860905 0)
(0.98556 -0.012417 0)
(0.983064 -0.0164964 0)
(0.980381 -0.0209172 0)
(0.977362 -0.0257736 0)
(0.973737 -0.0311414 0)
(0.969275 -0.0370474 0)
(0.963735 -0.0434415 0)
(0.908564 -0.00103938 0)
(0.907715 -0.00343668 0)
(0.906103 -0.00635544 0)
(0.903015 -0.00965993 0)
(0.899092 -0.0132089 0)
(0.894631 -0.0170125 0)
(0.889443 -0.0211278 0)
(0.883256 -0.0255774 0)
(0.875859 -0.0303404 0)
(0.867056 -0.0353518 0)
(0.748216 1.69864e-05 0)
(0.746751 -0.00102991 0)
(0.744385 -0.00317876 0)
(0.740463 -0.00579146 0)
(0.735597 -0.00852542 0)
(0.729994 -0.0113833 0)
(0.723424 -0.0144133 0)
(0.715621 -0.0176055 0)
(0.70639 -0.0209172 0)
(0.695566 -0.0242886 0)
(0.507572 0.0016751 0)
(0.505618 0.00241214 0)
(0.503551 0.00102346 0)
(0.500451 -0.000998133 0)
(0.496487 -0.00301626 0)
(0.491623 -0.00498766 0)
(0.485603 -0.00693332 0)
(0.478203 -0.00882583 0)
(0.469291 -0.0106341 0)
(0.458786 -0.0123351 0)
(0.191447 0.0020585 0)
(0.195133 0.00254426 0)
(0.197701 0.0013679 0)
(0.198487 0.000245644 0)
(0.197654 -0.000517439 0)
(0.195493 -0.00108051 0)
(0.192133 -0.0015342 0)
(0.187644 -0.00189381 0)
(0.182113 -0.00217053 0)
(0.175635 -0.00238136 0)
(-6.01188e-05 4.25721e-05 0)
(-0.00121064 0.00036427 0)
(-0.00336647 0.000573588 0)
(-0.0060658 0.000655108 0)
(-0.00895882 0.000690658 0)
(-0.0119397 0.000719946 0)
(-0.0150079 0.00075743 0)
(-0.0181961 0.000807578 0)
(-0.0215462 0.000872292 0)
(-0.0251031 0.000953486 0)
(-0.0289118 0.0010538 0)
(-0.0330142 0.00117638 0)
(-0.0374442 0.00132366 0)
(-0.0422177 0.00149585 0)
(-0.0473197 0.0016888 0)
(-0.052688 0.00189182 0)
(-0.0581946 0.00208552 0)
(-0.0636266 0.00224005 0)
(-0.0686705 0.00231394 0)
(-0.0729047 0.00225394 0)
(-0.0758071 0.00200048 0)
(-0.0767724 0.00150793 0)
(-0.0751212 0.000759223 0)
(-0.0702741 -0.000248604 0)
(-0.0616867 -0.00149248 0)
(-0.0489412 -0.00293324 0)
(-0.0317971 -0.00453511 0)
(-0.0102531 -0.0062384 0)
(0.0155267 -0.00785491 0)
(0.0452717 -0.00921149 0)
(0.0784205 -0.0102576 0)
(0.11409 -0.0108944 0)
(0.151188 -0.0110078 0)
(0.1884 -0.010497 0)
(0.224225 -0.00930362 0)
(-0.000553818 0.00131675 0)
(-0.00412606 0.00348444 0)
(-0.00955076 0.0048189 0)
(-0.0159236 0.00542036 0)
(-0.0226026 0.00567843 0)
(-0.0293841 0.00584289 0)
(-0.0362388 0.00602714 0)
(-0.0431966 0.00627306 0)
(-0.050305 0.00659352 0)
(-0.0576084 0.00699062 0)
(-0.0651364 0.00745908 0)
(-0.0728897 0.00798356 0)
(-0.0808244 0.00853272 0)
(-0.088831 0.00905337 0)
(-0.0967125 0.00946432 0)
(-0.104165 0.0096537 0)
(-0.110763 0.0094794 0)
(-0.115962 0.00877489 0)
(-0.119109 0.0073617 0)
(-0.119474 0.00507728 0)
(-0.116293 0.00181211 0)
(-0.108898 -0.00246862 0)
(-0.0967768 -0.00772095 0)
(-0.0794273 -0.0138145 0)
(-0.0565537 -0.0205648 0)
(-0.0280511 -0.0277551 0)
(0.00598451 -0.0351223 0)
(0.0453286 -0.0423512 0)
(0.0896322 -0.0490597 0)
(0.138328 -0.0548789 0)
(0.190649 -0.0595042 0)
(0.245641 -0.0625968 0)
(0.302147 -0.0638118 0)
(0.358793 -0.0628278 0)
(0.414 -0.0594238 0)
(-0.00107246 0.00433297 0)
(-0.00697692 0.00945213 0)
(-0.0150826 0.0122235 0)
(-0.024097 0.0133908 0)
(-0.0332066 0.0138127 0)
(-0.0421734 0.014002 0)
(-0.0509394 0.014192 0)
(-0.0595 0.0144665 0)
(-0.0678581 0.014842 0)
(-0.0759978 0.0153025 0)
(-0.0838654 0.0158066 0)
(-0.0913524 0.0162839 0)
(-0.0982797 0.0166271 0)
(-0.104383 0.0166861 0)
(-0.109301 0.0162664 0)
(-0.112579 0.0151367 0)
(-0.113677 0.0130445 0)
(-0.112001 0.00974247 0)
(-0.106932 0.00502294 0)
(-0.0978687 -0.00122765 0)
(-0.0844272 -0.00900793 0)
(-0.0662499 -0.0182134 0)
(-0.043056 -0.0286962 0)
(-0.0146903 -0.0402322 0)
(0.0188391 -0.0525036 0)
(0.0573986 -0.065121 0)
(0.100776 -0.0776631 0)
(0.148621 -0.0896508 0)
(0.200471 -0.100616 0)
(0.255756 -0.110082 0)
(0.3138 -0.117551 0)
(0.37378 -0.122484 0)
(0.434707 -0.124332 0)
(0.495376 -0.122549 0)
(0.554326 -0.11674 0)
(-0.00152111 0.0089103 0)
(-0.00926947 0.0177487 0)
(-0.0191212 0.0218908 0)
(-0.0294368 0.0233172 0)
(-0.0393121 0.0235361 0)
(-0.0485261 0.0233543 0)
(-0.0570141 0.02312 0)
(-0.0647399 0.0229456 0)
(-0.0716567 0.0228331 0)
(-0.0776822 0.0227266 0)
(-0.0826819 0.0225279 0)
(-0.0864604 0.0220952 0)
(-0.0887566 0.0212397 0)
(-0.0892438 0.0197254 0)
(-0.0875361 0.0172796 0)
(-0.0832038 0.013615 0)
(-0.075797 0.00846232 0)
(-0.0648789 0.00161636 0)
(-0.0501247 -0.00705039 0)
(-0.0313178 -0.0175701 0)
(-0.00817811 -0.0298721 0)
(0.0194124 -0.0438125 0)
(0.051449 -0.0591384 0)
(0.0878749 -0.0755035 0)
(0.128544 -0.092484 0)
(0.173197 -0.109578 0)
(0.221501 -0.12626 0)
(0.273048 -0.141987 0)
(0.327377 -0.156204 0)
(0.383991 -0.168342 0)
(0.44236 -0.177799 0)
(0.50187 -0.1839 0)
(0.56181 -0.185907 0)
(0.621192 -0.182944 0)
(0.678653 -0.174292 0)
(-0.00191281 0.014662 0)
(-0.0108441 0.0274148 0)
(-0.0211397 0.0323945 0)
(-0.0310174 0.0334092 0)
(-0.0396612 0.032776 0)
(-0.0469563 0.031595 0)
(-0.0528805 0.0303019 0)
(-0.0574041 0.0290125 0)
(-0.0604649 0.027696 0)
(-0.0619525 0.0262469 0)
(-0.0617034 0.024509 0)
(-0.0595042 0.0222846 0)
(-0.0550991 0.0193361 0)
(-0.0482033 0.015396 0)
(-0.038509 0.0101748 0)
(-0.0257105 0.00339442 0)
(-0.00952266 -0.00517627 0)
(0.0102451 -0.0156956 0)
(0.0337273 -0.0282361 0)
(0.0610081 -0.0427825 0)
(0.0921325 -0.0592115 0)
(0.127039 -0.077301 0)
(0.165561 -0.0967011 0)
(0.207447 -0.116953 0)
(0.252356 -0.137535 0)
(0.299878 -0.157872 0)
(0.34956 -0.17738 0)
(0.40094 -0.195483 0)
(0.453586 -0.211616 0)
(0.50713 -0.225225 0)
(0.561294 -0.23571 0)
(0.615825 -0.242361 0)
(0.670559 -0.244322 0)
(0.724875 -0.240247 0)
(0.777733 -0.228914 0)
(-0.00229356 0.02126 0)
(-0.0116766 0.0373211 0)
(-0.0206774 0.0420089 0)
(-0.0278907 0.0416193 0)
(-0.0329572 0.0393319 0)
(-0.0360174 0.036462 0)
(-0.0371546 0.0334712 0)
(-0.0363859 0.0304471 0)
(-0.0336698 0.0273124 0)
(-0.0289066 0.0239102 0)
(-0.0219479 0.0200366 0)
(-0.012607 0.015463 0)
(-0.000664541 0.00993216 0)
(0.0140791 0.00316406 0)
(0.0318433 -0.00512658 0)
(0.0528048 -0.0151827 0)
(0.0770931 -0.0271853 0)
(0.104771 -0.0412606 0)
(0.135827 -0.0574359 0)
(0.170162 -0.0756069 0)
(0.207584 -0.0955526 0)
(0.247793 -0.116932 0)
(0.290388 -0.139293 0)
(0.334881 -0.162095 0)
(0.380727 -0.184749 0)
(0.427359 -0.206651 0)
(0.474237 -0.227227 0)
(0.520899 -0.245958 0)
(0.567013 -0.262382 0)
(0.612444 -0.276082 0)
(0.657285 -0.286577 0)
(0.701838 -0.293273 0)
(0.746838 -0.295214 0)
(0.792224 -0.290549 0)
(0.838618 -0.277821 0)
(-0.00270674 0.0287211 0)
(-0.0115116 0.0460857 0)
(-0.0166005 0.048442 0)
(-0.0180879 0.04543 0)
(-0.0167147 0.0407775 0)
(-0.0130157 0.0357216 0)
(-0.00717743 0.0306324 0)
(0.000748784 0.0255172 0)
(0.0107822 0.0202292 0)
(0.0230227 0.01456 0)
(0.0376071 0.00827144 0)
(0.054683 0.00110134 0)
(0.0744642 -0.00722899 0)
(0.0971278 -0.016994 0)
(0.122774 -0.0284339 0)
(0.151439 -0.0417366 0)
(0.183086 -0.0570181 0)
(0.217583 -0.0743053 0)
(0.254693 -0.0935161 0)
(0.294068 -0.114446 0)
(0.335246 -0.136765 0)
(0.377673 -0.16003 0)
(0.420713 -0.183704 0)
(0.463691 -0.207198 0)
(0.505926 -0.229908 0)
(0.546785 -0.25127 0)
(0.585732 -0.270805 0)
(0.622394 -0.288157 0)
(0.656626 -0.303096 0)
(0.688627 -0.315513 0)
(0.718945 -0.325248 0)
(0.748739 -0.332062 0)
(0.779688 -0.334785 0)
(0.812932 -0.33108 0)
(0.853712 -0.319732 0)
(-0.00310095 0.03745 0)
(-0.00841176 0.0514333 0)
(-0.00470228 0.0482205 0)
(0.00415835 0.0415553 0)
(0.0155581 0.0343354 0)
(0.0287677 0.0270495 0)
(0.0437201 0.0198571 0)
(0.0604576 0.0126647 0)
(0.0790302 0.00521814 0)
(0.0996448 -0.00276942 0)
(0.122495 -0.011559 0)
(0.147747 -0.0214021 0)
(0.175472 -0.0325354 0)
(0.205694 -0.0451693 0)
(0.238364 -0.0594669 0)
(0.273335 -0.0755263 0)
(0.310358 -0.0933625 0)
(0.349071 -0.112891 0)
(0.389002 -0.133914 0)
(0.429576 -0.156119 0)
(0.47013 -0.179084 0)
(0.509946 -0.202294 0)
(0.548279 -0.225181 0)
(0.584394 -0.247156 0)
(0.617608 -0.267668 0)
(0.647334 -0.286256 0)
(0.673129 -0.302601 0)
(0.694758 -0.316585 0)
(0.712264 -0.328327 0)
(0.726176 -0.338218 0)
(0.73747 -0.346828 0)
(0.748651 -0.354895 0)
(0.761954 -0.36199 0)
(0.783613 -0.366316 0)
(0.82219 -0.367942 0)
(0.000867354 0.0411189 0)
(0.00830027 0.0460862 0)
(0.0295983 0.0356051 0)
(0.054653 0.0257588 0)
(0.0795132 0.0168785 0)
(0.104234 0.00808726 0)
(0.129555 -0.000738638 0)
(0.155849 -0.0096901 0)
(0.183383 -0.0190243 0)
(0.212329 -0.0290307 0)
(0.242818 -0.0399493 0)
(0.274913 -0.0519749 0)
(0.308591 -0.0652702 0)
(0.343743 -0.0799604 0)
(0.380161 -0.0961148 0)
(0.417534 -0.113728 0)
(0.455446 -0.132706 0)
(0.493377 -0.152859 0)
(0.53072 -0.173893 0)
(0.566802 -0.195418 0)
(0.600904 -0.216962 0)
(0.632297 -0.237993 0)
(0.660269 -0.257957 0)
(0.684159 -0.276321 0)
(0.703392 -0.292622 0)
(0.717502 -0.306528 0)
(0.726174 -0.317895 0)
(0.729285 -0.326841 0)
(0.726955 -0.333841 0)
(0.71977 -0.339846 0)
(0.708747 -0.346488 0)
(0.697335 -0.356301 0)
(0.687715 -0.372766 0)
(0.699881 -0.399751 0)
(0.72712 -0.447937 0)
(0.0533906 0.0113135 0)
(0.0879587 0.00970433 0)
(0.127939 0.000725525 0)
(0.16815 -0.00778805 0)
(0.204417 -0.0155297 0)
(0.23808 -0.0235339 0)
(0.270786 -0.0321595 0)
(0.303274 -0.0414361 0)
(0.335856 -0.0514465 0)
(0.368747 -0.0623289 0)
(0.402078 -0.074211 0)
(0.435856 -0.0871901 0)
(0.469972 -0.10133 0)
(0.504212 -0.116653 0)
(0.53827 -0.133123 0)
(0.571745 -0.150632 0)
(0.604149 -0.168994 0)
(0.634918 -0.187936 0)
(0.663435 -0.207104 0)
(0.689051 -0.226072 0)
(0.711109 -0.244357 0)
(0.728975 -0.261449 0)
(0.742063 -0.276843 0)
(0.749859 -0.290083 0)
(0.751948 -0.300807 0)
(0.74803 -0.308806 0)
(0.737932 -0.314079 0)
(0.721621 -0.316918 0)
(0.699193 -0.318011 0)
(0.670937 -0.318626 0)
(0.637165 -0.321034 0)
(0.599641 -0.329085 0)
(0.55836 -0.350797 0)
(0.540585 -0.400378 0)
(0.497794 -0.50334 0)
(0.300417 -0.0392565 0)
(0.322654 -0.0428957 0)
(0.348592 -0.0444886 0)
(0.378842 -0.0477344 0)
(0.409204 -0.0525403 0)
(0.438684 -0.0587076 0)
(0.46779 -0.0661511 0)
(0.496784 -0.0747582 0)
(0.525642 -0.0844378 0)
(0.554307 -0.0951522 0)
(0.582708 -0.106891 0)
(0.610699 -0.11964 0)
(0.638049 -0.13336 0)
(0.66445 -0.147973 0)
(0.689521 -0.163353 0)
(0.712818 -0.17931 0)
(0.733843 -0.195592 0)
(0.752051 -0.211876 0)
(0.766876 -0.227781 0)
(0.77775 -0.242876 0)
(0.78413 -0.256699 0)
(0.785519 -0.268786 0)
(0.781494 -0.278703 0)
(0.771728 -0.286086 0)
(0.75601 -0.290684 0)
(0.73425 -0.292402 0)
(0.706478 -0.291358 0)
(0.672816 -0.287929 0)
(0.633405 -0.282838 0)
(0.588291 -0.277268 0)
(0.537047 -0.273176 0)
(0.478566 -0.27371 0)
(0.408019 -0.28584 0)
(0.321722 -0.323358 0)
(0.127154 -0.360919 0)
(0.585526 -0.0438403 0)
(0.594929 -0.0534393 0)
(0.606317 -0.0604139 0)
(0.62136 -0.0671227 0)
(0.638411 -0.0742154 0)
(0.656267 -0.0817575 0)
(0.674614 -0.0899058 0)
(0.693252 -0.0988017 0)
(0.711882 -0.10849 0)
(0.7302 -0.118963 0)
(0.747925 -0.130197 0)
(0.764755 -0.142144 0)
(0.780347 -0.154721 0)
(0.794315 -0.167801 0)
(0.806234 -0.181205 0)
(0.815646 -0.194701 0)
(0.822068 -0.208006 0)
(0.825005 -0.220781 0)
(0.82397 -0.232649 0)
(0.818505 -0.243203 0)
(0.808209 -0.252033 0)
(0.792761 -0.258748 0)
(0.771944 -0.263015 0)
(0.745673 -0.264588 0)
(0.714 -0.263345 0)
(0.67712 -0.259322 0)
(0.635344 -0.252737 0)
(0.589052 -0.244011 0)
(0.538586 -0.233782 0)
(0.484087 -0.222922 0)
(0.425163 -0.212584 0)
(0.360521 -0.204166 0)
(0.286623 -0.199809 0)
(0.198378 -0.200246 0)
(0.0640959 -0.186152 0)
(0.793494 -0.0535951 0)
(0.799064 -0.0631204 0)
(0.804666 -0.0710632 0)
(0.811454 -0.0786084 0)
(0.819155 -0.0863528 0)
(0.827186 -0.0943906 0)
(0.835253 -0.102799 0)
(0.843161 -0.111674 0)
(0.850645 -0.12105 0)
(0.857391 -0.130908 0)
(0.863074 -0.141199 0)
(0.867356 -0.151846 0)
(0.869875 -0.162735 0)
(0.87024 -0.173708 0)
(0.868044 -0.184561 0)
(0.862868 -0.195046 0)
(0.854294 -0.204874 0)
(0.841924 -0.213722 0)
(0.825399 -0.221247 0)
(0.804426 -0.227104 0)
(0.778806 -0.230966 0)
(0.748457 -0.232558 0)
(0.713439 -0.231679 0)
(0.673966 -0.228236 0)
(0.63041 -0.22226 0)
(0.583282 -0.213924 0)
(0.533195 -0.203538 0)
(0.480791 -0.191528 0)
(0.426635 -0.178404 0)
(0.371052 -0.164679 0)
(0.313878 -0.150776 0)
(0.254204 -0.136852 0)
(0.189829 -0.122934 0)
(0.118926 -0.108246 0)
(0.0316845 -0.0825453 0)
(0.925525 -0.0568866 0)
(0.926401 -0.0658051 0)
(0.926593 -0.0740215 0)
(0.926718 -0.0818852 0)
(0.926801 -0.0897537 0)
(0.926536 -0.0977312 0)
(0.925665 -0.10585 0)
(0.923993 -0.114151 0)
(0.921285 -0.122653 0)
(0.917259 -0.13133 0)
(0.911611 -0.140116 0)
(0.904029 -0.148914 0)
(0.89419 -0.157589 0)
(0.881762 -0.165968 0)
(0.866412 -0.173842 0)
(0.847821 -0.180971 0)
(0.825705 -0.187091 0)
(0.799827 -0.191928 0)
(0.770033 -0.195209 0)
(0.736268 -0.196688 0)
(0.698603 -0.196164 0)
(0.657253 -0.193506 0)
(0.612589 -0.188674 0)
(0.565131 -0.181737 0)
(0.515531 -0.172871 0)
(0.464541 -0.162358 0)
(0.41295 -0.150552 0)
(0.361513 -0.137833 0)
(0.310847 -0.124527 0)
(0.2613 -0.11078 0)
(0.212774 -0.0963967 0)
(0.16463 -0.08074 0)
(0.11574 -0.0631708 0)
(0.0662077 -0.0440409 0)
(0.0144501 -0.0249275 0)
(0.980084 -0.0557361 0)
(0.976167 -0.0637922 0)
(0.971128 -0.0714844 0)
(0.965234 -0.0788407 0)
(0.958523 -0.0860429 0)
(0.950816 -0.0931802 0)
(0.941907 -0.10027 0)
(0.93161 -0.107319 0)
(0.919722 -0.114323 0)
(0.906007 -0.12124 0)
(0.890217 -0.127991 0)
(0.872106 -0.134465 0)
(0.851432 -0.140522 0)
(0.827968 -0.145995 0)
(0.801517 -0.150697 0)
(0.771924 -0.154427 0)
(0.739102 -0.156982 0)
(0.703048 -0.15817 0)
(0.663864 -0.157827 0)
(0.621775 -0.155835 0)
(0.577136 -0.152135 0)
(0.530438 -0.146747 0)
(0.48229 -0.139777 0)
(0.4334 -0.131413 0)
(0.384534 -0.121917 0)
(0.336469 -0.111601 0)
(0.289936 -0.10078 0)
(0.245557 -0.0897088 0)
(0.203769 -0.0784774 0)
(0.164735 -0.0668579 0)
(0.128261 -0.0541756 0)
(0.0938806 -0.039446 0)
(0.0612493 -0.0223435 0)
(0.0313729 -0.0053642 0)
(0.00526389 0.00312022 0)
(0.956865 -0.050154 0)
(0.948491 -0.0568846 0)
(0.938608 -0.0633687 0)
(0.927302 -0.0695433 0)
(0.914579 -0.075472 0)
(0.900334 -0.0812013 0)
(0.884418 -0.0867318 0)
(0.866689 -0.0920476 0)
(0.846999 -0.0971209 0)
(0.825191 -0.1019 0)
(0.801114 -0.106307 0)
(0.774632 -0.110238 0)
(0.745641 -0.113577 0)
(0.714078 -0.116193 0)
(0.679933 -0.117954 0)
(0.643268 -0.11873 0)
(0.60423 -0.118408 0)
(0.563062 -0.116903 0)
(0.520108 -0.114168 0)
(0.475816 -0.110209 0)
(0.430727 -0.105086 0)
(0.385455 -0.0989215 0)
(0.340659 -0.0918941 0)
(0.297003 -0.0842259 0)
(0.25512 -0.0761648 0)
(0.215569 -0.0679561 0)
(0.178802 -0.0598009 0)
(0.145138 -0.0517842 0)
(0.114728 -0.0437575 0)
(0.0875266 -0.0351972 0)
(0.0633268 -0.0251843 0)
(0.0419797 -0.0128311 0)
(0.0237628 0.00141821 0)
(0.00971667 0.0135869 0)
(0.000673641 0.0136445 0)
(0.856656 -0.0404872 0)
(0.844514 -0.0455643 0)
(0.830577 -0.0504105 0)
(0.81486 -0.0549443 0)
(0.797367 -0.0591667 0)
(0.778053 -0.0630918 0)
(0.756851 -0.0667128 0)
(0.733701 -0.0700091 0)
(0.708555 -0.0729516 0)
(0.681381 -0.0754994 0)
(0.652167 -0.077597 0)
(0.620938 -0.0791783 0)
(0.587763 -0.0801724 0)
(0.552767 -0.0805101 0)
(0.516137 -0.0801298 0)
(0.478129 -0.0789851 0)
(0.43907 -0.077052 0)
(0.399354 -0.0743353 0)
(0.359437 -0.0708739 0)
(0.319815 -0.0667422 0)
(0.281009 -0.0620487 0)
(0.24353 -0.0569304 0)
(0.207856 -0.0515436 0)
(0.174398 -0.0460515 0)
(0.143482 -0.0406115 0)
(0.115335 -0.035358 0)
(0.0900878 -0.0303688 0)
(0.0677806 -0.0255947 0)
(0.0483725 -0.0207446 0)
(0.0317842 -0.0151878 0)
(0.0180173 -0.00805684 0)
(0.00734944 0.0011613 0)
(0.000371811 0.0114452 0)
(-0.00239036 0.0186315 0)
(-0.00130693 0.0143085 0)
(0.683002 -0.0276341 0)
(0.668595 -0.0308422 0)
(0.652313 -0.033804 0)
(0.634187 -0.0364564 0)
(0.614269 -0.0387873 0)
(0.592608 -0.0408052 0)
(0.569253 -0.0425127 0)
(0.544269 -0.0439046 0)
(0.517739 -0.0449715 0)
(0.489772 -0.0457 0)
(0.460502 -0.0460712 0)
(0.430096 -0.0460632 0)
(0.398758 -0.045656 0)
(0.366735 -0.0448357 0)
(0.334309 -0.0435978 0)
(0.301799 -0.0419514 0)
(0.269551 -0.0399204 0)
(0.237926 -0.0375458 0)
(0.207287 -0.0348835 0)
(0.17798 -0.032003 0)
(0.150315 -0.0289822 0)
(0.124551 -0.0259031 0)
(0.100883 -0.022846 0)
(0.0794338 -0.0198863 0)
(0.0602558 -0.0170909 0)
(0.0433345 -0.0145123 0)
(0.0286063 -0.0121626 0)
(0.0159824 -0.0099507 0)
(0.0053961 -0.00759222 0)
(-0.00310485 -0.00456276 0)
(-0.00921663 -0.000236774 0)
(-0.0123338 0.00556903 0)
(-0.0118151 0.0117637 0)
(-0.00781686 0.0151277 0)
(-0.0019263 0.0103127 0)
(0.446643 -0.013899 0)
(0.432864 -0.015284 0)
(0.417516 -0.0164497 0)
(0.400718 -0.0173784 0)
(0.382622 -0.018081 0)
(0.36338 -0.0185807 0)
(0.343144 -0.0188973 0)
(0.322072 -0.0190431 0)
(0.300324 -0.0190262 0)
(0.278072 -0.0188522 0)
(0.255493 -0.018524 0)
(0.232776 -0.0180438 0)
(0.210121 -0.0174151 0)
(0.187736 -0.0166451 0)
(0.165833 -0.0157453 0)
(0.144623 -0.0147315 0)
(0.124308 -0.0136242 0)
(0.105072 -0.0124473 0)
(0.0870738 -0.0112274 0)
(0.0704404 -0.00999206 0)
(0.0552612 -0.00876786 0)
(0.0415862 -0.00757968 0)
(0.0294268 -0.00645123 0)
(0.0187564 -0.00540507 0)
(0.00951095 -0.00446325 0)
(0.00159509 -0.00364404 0)
(-0.00510521 -0.00294696 0)
(-0.0106933 -0.00231272 0)
(-0.0151924 -0.00157261 0)
(-0.0184308 -0.000429909 0)
(-0.0199294 0.00144317 0)
(-0.0189469 0.00411575 0)
(-0.0149389 0.00691963 0)
(-0.0085239 0.00809458 0)
(-0.00181357 0.00513642 0)
(0.168303 -0.00253569 0)
(0.160223 -0.0026327 0)
(0.151522 -0.00267034 0)
(0.14234 -0.00265521 0)
(0.132816 -0.00260221 0)
(0.123071 -0.00252604 0)
(0.113204 -0.00243493 0)
(0.103307 -0.00233163 0)
(0.0934624 -0.00221673 0)
(0.0837475 -0.00209058 0)
(0.0742368 -0.00195361 0)
(0.0650022 -0.0018069 0)
(0.0561126 -0.00165216 0)
(0.0476335 -0.00149165 0)
(0.0396246 -0.00132773 0)
(0.0321384 -0.00116282 0)
(0.0252179 -0.00099929 0)
(0.0188956 -0.000839669 0)
(0.0131916 -0.000686422 0)
(0.00811343 -0.000541904 0)
(0.00365596 -0.000407856 0)
(-0.000198638 -0.000285549 0)
(-0.0034791 -0.000176939 0)
(-0.00622452 -8.50394e-05 0)
(-0.00848529 -1.31087e-05 0)
(-0.0103236 3.52749e-05 0)
(-0.0118095 5.8625e-05 0)
(-0.013004 6.49082e-05 0)
(-0.0139128 8.31118e-05 0)
(-0.0144059 0.000170956 0)
(-0.0141365 0.00040457 0)
(-0.0125809 0.000825975 0)
(-0.00937605 0.00133961 0)
(-0.0050331 0.00157919 0)
(-0.0010875 0.00105437 0)
(0.257067 -0.00744345 0)
(0.285396 -0.00504455 0)
(0.307996 -0.00236267 0)
(0.324189 0.000297132 0)
(0.333887 0.00269767 0)
(0.337529 0.00472704 0)
(0.335516 0.00627335 0)
(0.328955 0.00722373 0)
(0.318992 0.00757106 0)
(0.306663 0.00742813 0)
(0.466045 -0.0535596 0)
(0.513206 -0.0455047 0)
(0.554056 -0.0359334 0)
(0.58775 -0.0257242 0)
(0.614078 -0.0156358 0)
(0.633196 -0.00618082 0)
(0.645758 0.00228413 0)
(0.652138 0.00944223 0)
(0.652809 0.0151144 0)
(0.64849 0.0193016 0)
(0.609854 -0.106777 0)
(0.660149 -0.0930915 0)
(0.70379 -0.0769003 0)
(0.740216 -0.0597293 0)
(0.769621 -0.0427808 0)
(0.792519 -0.0268439 0)
(0.809482 -0.0124382 0)
(0.821205 0.000150596 0)
(0.828327 0.0108097 0)
(0.831342 0.0195463 0)
(0.732369 -0.15953 0)
(0.780185 -0.139347 0)
(0.820562 -0.115958 0)
(0.853333 -0.091764 0)
(0.87925 -0.068308 0)
(0.899182 -0.0464724 0)
(0.913893 -0.0268486 0)
(0.924137 -0.00977435 0)
(0.9307 0.004695 0)
(0.93427 0.0166908 0)
(0.827129 -0.208849 0)
(0.870177 -0.181044 0)
(0.904954 -0.149693 0)
(0.931748 -0.118383 0)
(0.951842 -0.0887474 0)
(0.966286 -0.061592 0)
(0.975952 -0.0375194 0)
(0.981819 -0.0168248 0)
(0.984845 0.000536749 0)
(0.985862 0.0148224 0)
(0.884173 -0.252945 0)
(0.923411 -0.21712 0)
(0.951968 -0.177604 0)
(0.970479 -0.13908 0)
(0.981344 -0.103098 0)
(0.986386 -0.0706584 0)
(0.987214 -0.0425673 0)
(0.985481 -0.0190247 0)
(0.982546 0.000274947 0)
(0.979191 0.015851 0)
(0.900653 -0.290014 0)
(0.937665 -0.245502 0)
(0.95347 -0.197063 0)
(0.952502 -0.14995 0)
(0.942576 -0.106568 0)
(0.928647 -0.0689513 0)
(0.913989 -0.0380235 0)
(0.90091 -0.0134208 0)
(0.890436 0.00589254 0)
(0.882577 0.0209815 0)
(0.874312 -0.326746 0)
(0.888569 -0.261305 0)
(0.859176 -0.193908 0)
(0.812503 -0.133022 0)
(0.767223 -0.0829321 0)
(0.729207 -0.044878 0)
(0.700221 -0.0171586 0)
(0.680012 0.00305756 0)
(0.667918 0.0179119 0)
(0.662336 0.0291466 0)
(0.768311 -0.366907 0)
(0.684826 -0.236293 0)
(0.5627 -0.132356 0)
(0.469576 -0.0622009 0)
(0.410145 -0.0193183 0)
(0.37379 0.00408378 0)
(0.354577 0.0159491 0)
(0.34915 0.0219685 0)
(0.353128 0.0255006 0)
(0.362607 0.0289169 0)
(0.45016 -0.289641 0)
(0.220008 -0.0775677 0)
(0.0732786 0.00522163 0)
(0.049922 0.017319 0)
(0.0507408 0.0152902 0)
(0.0550204 0.0120587 0)
(0.0637934 0.00946665 0)
(0.0758784 0.00783554 0)
(0.0896914 0.00752862 0)
(0.103872 0.012727 0)
(0.292881 0.00694997 0)
(0.278398 0.0062805 0)
(0.263784 0.00553606 0)
(0.249439 0.00480345 0)
(0.235612 0.00413959 0)
(0.222434 0.00357355 0)
(0.209952 0.00311235 0)
(0.198155 0.00274917 0)
(0.187 0.00247009 0)
(0.176426 0.00225865 0)
(0.166368 0.00209843 0)
(0.156759 0.00197513 0)
(0.147539 0.00187723 0)
(0.138657 0.00179643 0)
(0.130068 0.00172674 0)
(0.121738 0.00166419 0)
(0.113639 0.00160584 0)
(0.105752 0.00154962 0)
(0.0980654 0.00149373 0)
(0.0905734 0.00143682 0)
(0.0832771 0.00137774 0)
(0.0761825 0.00131577 0)
(0.0693 0.00125043 0)
(0.0626436 0.00118162 0)
(0.0562295 0.00110941 0)
(0.0500754 0.00103417 0)
(0.0441994 0.000956405 0)
(0.0386188 0.000876848 0)
(0.0333496 0.000796374 0)
(0.0284049 0.000715967 0)
(0.0237952 0.000636693 0)
(0.019527 0.000559587 0)
(0.0156026 0.000485612 0)
(0.0120206 0.000415521 0)
(0.00877518 0.000349962 0)
(0.639961 0.0221283 0)
(0.628009 0.0237888 0)
(0.613378 0.0245119 0)
(0.596742 0.0245343 0)
(0.578676 0.0240756 0)
(0.559649 0.0233189 0)
(0.540029 0.0224055 0)
(0.520099 0.0214371 0)
(0.500065 0.0204835 0)
(0.480068 0.019588 0)
(0.460201 0.0187736 0)
(0.440516 0.0180486 0)
(0.421038 0.0174115 0)
(0.401772 0.0168548 0)
(0.38271 0.0163678 0)
(0.363841 0.0159377 0)
(0.345148 0.0155513 0)
(0.32662 0.0151953 0)
(0.308249 0.0148568 0)
(0.290038 0.0145233 0)
(0.271995 0.0141834 0)
(0.254143 0.0138269 0)
(0.236511 0.0134451 0)
(0.219141 0.0130312 0)
(0.202082 0.0125803 0)
(0.185392 0.0120897 0)
(0.169133 0.0115589 0)
(0.153371 0.0109894 0)
(0.138172 0.010385 0)
(0.123601 0.00975108 0)
(0.109717 0.00909458 0)
(0.0965715 0.0084235 0)
(0.0842082 0.0077465 0)
(0.0726585 0.00707236 0)
(0.0619423 0.00640961 0)
(0.830703 0.0264609 0)
(0.826831 0.031722 0)
(0.820122 0.0355485 0)
(0.81094 0.0381884 0)
(0.799612 0.0398888 0)
(0.786428 0.0408704 0)
(0.771647 0.0413191 0)
(0.7555 0.0413878 0)
(0.73819 0.0412 0)
(0.719888 0.0408521 0)
(0.700733 0.0404163 0)
(0.68084 0.0399443 0)
(0.6603 0.0394714 0)
(0.639182 0.0390193 0)
(0.617539 0.0385985 0)
(0.595413 0.0382111 0)
(0.572836 0.0378518 0)
(0.549835 0.0375103 0)
(0.526438 0.037172 0)
(0.502672 0.0368193 0)
(0.478576 0.0364328 0)
(0.454192 0.0359924 0)
(0.429576 0.0354784 0)
(0.404796 0.0348723 0)
(0.379933 0.0341583 0)
(0.355082 0.0333238 0)
(0.330351 0.0323603 0)
(0.305857 0.0312644 0)
(0.281727 0.0300377 0)
(0.258093 0.0286873 0)
(0.235088 0.0272256 0)
(0.212841 0.0256694 0)
(0.191474 0.0240397 0)
(0.171096 0.0223599 0)
(0.151799 0.0206552 0)
(0.935353 0.0264281 0)
(0.934341 0.0341678 0)
(0.931531 0.0402096 0)
(0.927131 0.0448698 0)
(0.921269 0.0484392 0)
(0.914019 0.0511584 0)
(0.905437 0.0532216 0)
(0.895573 0.0547881 0)
(0.884475 0.055988 0)
(0.872183 0.0569243 0)
(0.858734 0.057677 0)
(0.84416 0.0583076 0)
(0.828488 0.058862 0)
(0.811739 0.0593729 0)
(0.793929 0.0598611 0)
(0.77507 0.0603367 0)
(0.75517 0.0608002 0)
(0.734239 0.0612438 0)
(0.712283 0.0616524 0)
(0.689318 0.0620049 0)
(0.66536 0.0622749 0)
(0.64044 0.0624328 0)
(0.614598 0.0624468 0)
(0.587891 0.0622842 0)
(0.560393 0.0619136 0)
(0.532197 0.0613063 0)
(0.503418 0.0604378 0)
(0.474188 0.05929 0)
(0.444665 0.0578522 0)
(0.415021 0.0561229 0)
(0.385445 0.0541102 0)
(0.356137 0.0518324 0)
(0.3273 0.0493175 0)
(0.299138 0.0466023 0)
(0.271845 0.0437308 0)
(0.985403 0.0263679 0)
(0.98386 0.035542 0)
(0.981523 0.0427662 0)
(0.978554 0.0484789 0)
(0.974991 0.0530515 0)
(0.970808 0.0567626 0)
(0.965966 0.0598243 0)
(0.960425 0.0624076 0)
(0.95414 0.0646493 0)
(0.947064 0.0666542 0)
(0.939149 0.0685014 0)
(0.930349 0.0702508 0)
(0.920614 0.071947 0)
(0.909898 0.0736223 0)
(0.898146 0.0752974 0)
(0.885308 0.0769827 0)
(0.871327 0.0786782 0)
(0.856149 0.0803742 0)
(0.839721 0.0820517 0)
(0.821993 0.083683 0)
(0.80292 0.0852329 0)
(0.782466 0.0866596 0)
(0.760607 0.0879161 0)
(0.737332 0.0889519 0)
(0.71265 0.0897147 0)
(0.686592 0.0901524 0)
(0.659213 0.0902157 0)
(0.630596 0.08986 0)
(0.600855 0.0890487 0)
(0.570135 0.0877553 0)
(0.538614 0.0859658 0)
(0.506495 0.0836811 0)
(0.474012 0.0809177 0)
(0.441415 0.0777085 0)
(0.408969 0.0741024 0)
(0.975803 0.0282076 0)
(0.972637 0.0378367 0)
(0.969873 0.0453248 0)
(0.96752 0.0512598 0)
(0.96543 0.0560883 0)
(0.963423 0.0601104 0)
(0.961365 0.0635437 0)
(0.959152 0.0665618 0)
(0.95669 0.0693032 0)
(0.953889 0.0718742 0)
(0.950666 0.0743567 0)
(0.946946 0.0768133 0)
(0.942657 0.0792911 0)
(0.937724 0.0818245 0)
(0.932067 0.0844365 0)
(0.925603 0.0871398 0)
(0.918244 0.0899369 0)
(0.909895 0.0928198 0)
(0.900459 0.0957695 0)
(0.889834 0.0987567 0)
(0.87792 0.101741 0)
(0.864616 0.104674 0)
(0.849825 0.107498 0)
(0.83346 0.110145 0)
(0.815441 0.112546 0)
(0.795708 0.114625 0)
(0.774218 0.116304 0)
(0.750958 0.117508 0)
(0.725941 0.118165 0)
(0.699219 0.118212 0)
(0.67088 0.117597 0)
(0.641056 0.116282 0)
(0.609919 0.11425 0)
(0.577685 0.111505 0)
(0.544605 0.108072 0)
(0.877068 0.0325229 0)
(0.873716 0.0410979 0)
(0.872389 0.0475818 0)
(0.872734 0.0527477 0)
(0.874219 0.05705 0)
(0.87639 0.0607487 0)
(0.878956 0.0640312 0)
(0.881717 0.0670419 0)
(0.884517 0.069889 0)
(0.887224 0.0726568 0)
(0.889735 0.0754164 0)
(0.891967 0.0782276 0)
(0.893847 0.0811384 0)
(0.895307 0.0841856 0)
(0.896278 0.0873965 0)
(0.896685 0.0907891 0)
(0.896449 0.0943724 0)
(0.895478 0.0981453 0)
(0.893675 0.102096 0)
(0.890932 0.106201 0)
(0.887132 0.110426 0)
(0.882152 0.114724 0)
(0.875862 0.119036 0)
(0.86813 0.123294 0)
(0.858822 0.127417 0)
(0.847809 0.131317 0)
(0.834968 0.134898 0)
(0.820192 0.13806 0)
(0.803393 0.140701 0)
(0.78451 0.142721 0)
(0.763513 0.144025 0)
(0.740416 0.144532 0)
(0.715274 0.144175 0)
(0.688194 0.142908 0)
(0.659334 0.14071 0)
(0.661418 0.0372848 0)
(0.664265 0.0425898 0)
(0.670501 0.0463637 0)
(0.679171 0.0495865 0)
(0.689192 0.0525798 0)
(0.699871 0.0554331 0)
(0.710841 0.0582229 0)
(0.721872 0.0610081 0)
(0.732796 0.0638197 0)
(0.743498 0.0666838 0)
(0.753903 0.0696344 0)
(0.763961 0.072711 0)
(0.773632 0.0759515 0)
(0.782881 0.0793897 0)
(0.791677 0.0830543 0)
(0.799981 0.086968 0)
(0.807747 0.0911466 0)
(0.814919 0.0955981 0)
(0.821426 0.100321 0)
(0.827186 0.105304 0)
(0.832102 0.110523 0)
(0.836066 0.115943 0)
(0.838953 0.121516 0)
(0.840629 0.127179 0)
(0.840949 0.132859 0)
(0.839759 0.138467 0)
(0.836899 0.143904 0)
(0.832211 0.149061 0)
(0.825539 0.15382 0)
(0.816741 0.158057 0)
(0.805692 0.161647 0)
(0.792293 0.164471 0)
(0.776481 0.166415 0)
(0.758233 0.167381 0)
(0.737577 0.167295 0)
(0.37498 0.0315824 0)
(0.389922 0.0326603 0)
(0.408625 0.0335451 0)
(0.42939 0.0350291 0)
(0.450431 0.0370966 0)
(0.471113 0.0395704 0)
(0.491332 0.0423366 0)
(0.511033 0.0453181 0)
(0.530176 0.048455 0)
(0.548764 0.0517164 0)
(0.566828 0.0551012 0)
(0.584397 0.0586285 0)
(0.601494 0.0623283 0)
(0.618142 0.0662344 0)
(0.634356 0.0703806 0)
(0.650143 0.0747975 0)
(0.665497 0.0795111 0)
(0.680398 0.0845413 0)
(0.694811 0.0899001 0)
(0.708684 0.095591 0)
(0.721949 0.101606 0)
(0.734522 0.107927 0)
(0.7463 0.11452 0)
(0.757165 0.12134 0)
(0.76698 0.128325 0)
(0.775592 0.1354 0)
(0.782836 0.142474 0)
(0.788534 0.149443 0)
(0.792501 0.156188 0)
(0.794552 0.162579 0)
(0.794502 0.168478 0)
(0.792178 0.173742 0)
(0.787425 0.178227 0)
(0.780116 0.181796 0)
(0.770158 0.184326 0)
(0.130101 0.0116042 0)
(0.155825 0.0073544 0)
(0.183901 0.00658554 0)
(0.21203 0.00822207 0)
(0.23844 0.0110925 0)
(0.263293 0.0145898 0)
(0.287099 0.0183721 0)
(0.310099 0.0222583 0)
(0.332422 0.0261777 0)
(0.354196 0.0301201 0)
(0.375539 0.0341012 0)
(0.396536 0.0381513 0)
(0.417251 0.0423129 0)