/*--------------------------------*- C++ -*----------------------------------*\
| =========                 |                                                 |
| \\      /  F ield         | OpenFOAM: The Open Source CFD Toolbox           |
|  \\    /   O peration     | Version:  2406                                  |
|   \\  /    A nd           | Website:  www.openfoam.com                      |
|    \\/     M anipulation  |                                                 |
\*---------------------------------------------------------------------------*/
FoamFile
{
    version     2.0;
    format      ascii;
    arch        "LSB;label=32;scalar=64";
    class       surfaceScalarField;
    location    "50";
    object      phi;
}
// * * * * * * * * * * * * * * * * * * * * * * * * * * * * * * * * * * * * * //

dimensions      [0 3 -1 0 0 0 0];

oriented        oriented;

internalField   nonuniform List<scalar> 
3470
(
0.0194308
-0.000430854
0.0200416
-0.000610807
0.0206555
-0.00061389
0.0212786
-0.000623102
0.0219468
-0.000668149
0.0226965
-0.000749743
0.0235791
-0.000882645
0.0246808
-0.00110168
0.0261493
-0.00146857
-0.00268926
0.0288386
0.0508677
-0.000298605
0.0509515
-0.000694537
0.0512567
-0.000919147
0.051739
-0.00110538
0.052385
-0.00131415
0.0532015
-0.00156626
0.0542091
-0.00189025
0.0554456
-0.00233824
0.0569584
-0.00298143
-0.00400039
0.0582695
0.0749541
-0.000252715
0.0749456
-0.000686078
0.0750562
-0.00102972
0.075297
-0.00134622
0.0756702
-0.00168735
0.0761815
-0.0020776
0.0768329
-0.00254171
0.0776109
-0.00311618
0.0784678
-0.00383844
-0.00475308
0.0792205
0.0909785
-0.00023121
0.0909441
-0.000651702
0.0909544
-0.00104003
0.0910319
-0.00142377
0.0911793
-0.00183474
0.0913951
-0.00229339
0.0916716
-0.00281826
0.0919865
-0.00343107
0.0922978
-0.00414981
-0.0049825
0.0925272
0.0989699
-0.000201101
0.0988945
-0.000576353
0.0988106
-0.000956134
0.0987396
-0.00135276
0.0986825
-0.00177767
0.0986324
-0.00224332
0.0985771
-0.00276301
0.0984947
-0.00334872
0.0983518
-0.00400693
-0.00473391
0.0981032
0.0989489
-0.00014999
0.0988144
-0.000441912
0.0986317
-0.000773411
0.0984186
-0.00113967
0.0981723
-0.00153146
0.0978828
-0.00195379
0.0975358
-0.00241606
0.0971108
-0.00292366
0.0965802
-0.00347637
-0.00406718
0.0959134
0.0909161
-6.60789e-05
0.0907081
-0.000233964
0.0904275
-0.000492867
0.0900862
-0.000798323
0.0896751
-0.00112044
0.0891825
-0.00146111
0.0885933
-0.00182689
0.0878877
-0.00221817
0.0870426
-0.00263129
-0.00305933
0.0860347
0.0748535
8.04001e-05
0.0745696
4.99172e-05
0.0742174
-0.000140662
0.0737919
-0.000372894
0.0732776
-0.000606087
0.0726608
-0.000844402
0.0719252
-0.00109123
0.0710506
-0.00134366
0.0700171
-0.00159779
-0.00184932
0.068807
0.0507461
0.000334264
0.0504871
0.00030891
0.0502168
0.000129656
0.0498788
-3.4927e-05
0.0494429
-0.000170244
0.0488898
-0.000291276
0.0482022
-0.000403631
0.0473656
-0.000507137
0.0463696
-0.000601831
-0.000687969
0.0452082
0.0193343
0.0196432
0.0197728
0.0197379
0.0195676
0.0192764
0.0188727
0.0183656
0.0177637
0.0170758
-5.77578e-05
5.77513e-05
-0.000250993
0.000193218
-0.000527811
0.000276794
-0.000840095
0.000312257
-0.0011662
0.000326075
-0.0015002
0.000333969
-0.0018429
0.000342658
-0.00219725
0.00035431
-0.00256655
0.000369251
-0.00295367
0.00038706
-0.00336061
0.000406892
-0.00378801
0.000427342
-0.00423425
0.000446175
-0.00469448
0.00046017
-0.00515945
0.000464906
-0.00561429
0.000454776
-0.00603748
0.000423132
-0.00640019
0.000362658
-0.00666617
0.000265932
-0.00679271
0.000126479
-0.00673221
-6.05504e-05
-0.00643644
-0.000295823
-0.00585993
-0.000576557
-0.00496281
-0.000897159
-0.00371427
-0.00124858
-0.0020953
-0.00161899
-9.93944e-05
-0.00199593
0.00226542
-0.00236483
0.00496995
-0.00270452
0.0079663
-0.00299635
0.0111878
-0.00322147
0.0145464
-0.00335863
0.0179326
-0.00338621
0.0212165
-0.00328388
-0.00303794
0.0242544
-0.000239461
0.000297198
-0.000752656
0.00070636
-0.00141358
0.000937658
-0.0021365
0.0010351
-0.00287892
0.00106842
-0.00362546
0.00108041
-0.00437331
0.00109041
-0.00512401
0.00110491
-0.00587937
0.0011245
-0.00663941
0.00114698
-0.00740093
0.00116829
-0.00815612
0.0011824
-0.00889107
0.001181
-0.00958436
0.00115333
-0.0102059
0.00108633
-0.0107166
0.000965369
-0.0110688
0.000775168
-0.0112075
0.000501217
-0.0110735
0.000131782
-0.0106077
-0.000339394
-0.00975737
-0.00091098
-0.00847596
-0.00157734
-0.00672595
-0.00232666
-0.00448321
-0.00313998
-0.00173627
-0.0039956
0.00151435
-0.00486967
0.00525027
-0.0057319
0.0094354
-0.00654999
0.0140229
-0.00729206
0.0189509
-0.00792432
0.0241404
-0.00841101
0.0294942
-0.00871236
0.034894
-0.00878609
0.0401991
-0.00858899
-0.00808827
0.0452494
-0.00041271
0.000709886
-0.00119725
0.00149084
-0.00213948
0.00187983
-0.00312686
0.00202241
-0.00410735
0.00204883
-0.00506015
0.00203314
-0.00597807
0.00200826
-0.00685804
0.0019848
-0.00769627
0.00196263
-0.00848563
0.00193624
-0.00921401
0.00189656
-0.00986299
0.00183127
-0.0104069
0.00172482
-0.0108125
0.00155878
-0.0110391
0.00131283
-0.0110403
0.000966406
-0.0107659
0.000500692
-0.0101656
-9.91882e-05
-0.00919442
-0.000839528
-0.00781455
-0.00171937
-0.00599482
-0.00273081
-0.00371336
-0.0038589
-0.000958075
-0.00508204
0.0022744
-0.00637255
0.00597442
-0.00769569
0.0101187
-0.00901406
0.0146763
-0.0102895
0.0196084
-0.0114822
0.0248678
-0.0125515
0.0303984
-0.0134549
0.0361329
-0.0141456
0.0419895
-0.014569
0.0478673
-0.0146639
0.0536386
-0.0143604
-0.0135997
0.05915
-0.000547248
0.00125712
-0.00151406
0.00245759
-0.00260329
0.002969
-0.0036816
0.00310065
-0.00469488
0.00306204
-0.00562225
0.00296044
-0.00645498
0.00284092
-0.00718683
0.00271657
-0.00780948
0.0025852
-0.0083104
0.00243708
-0.00867177
0.00225785
-0.00887015
0.00202956
-0.00887662
0.0017312
-0.00865755
0.0013396
-0.00817618
0.000831348
-0.00739494
0.000185051
-0.00627975
-0.00061461
-0.00480344
-0.00157561
-0.00294255
-0.00270052
-0.000679076
-0.00398294
0.00199845
-0.00540842
0.00509262
-0.00695315
0.0085956
-0.00858509
0.0124903
-0.0102673
0.0167529
-0.0119584
0.0213535
-0.0136147
0.0262566
-0.0151927
0.0314242
-0.0166498
0.0368158
-0.0179431
0.0423892
-0.0190283
0.0480976
-0.0198541
0.0538847
-0.0203561
0.0596756
-0.0204549
0.0653551
-0.0200399
-0.0190151
0.0707704
-0.00063962
0.00189671
-0.00167236
0.00349027
-0.00273663
0.00403321
-0.00369868
0.00406263
-0.00451649
0.00387978
-0.00517778
0.00362167
-0.00567809
0.00334116
-0.00601256
0.00305097
-0.0061728
0.00274537
-0.00614587
0.00241006
-0.00591426
0.00202616
-0.00545676
0.00157197
-0.00474926
0.0010236
-0.0037663
0.000356519
-0.00248352
-0.000451542
-0.000880638
-0.00141795
0.00105903
-0.00255439
0.00334888
-0.00386556
0.00599561
-0.00534734
0.00899883
-0.00698623
0.0123498
-0.00875948
0.016032
-0.0106354
0.0200216
-0.0125747
0.0242876
-0.0145334
0.0287942
-0.016465
0.0335028
-0.0183233
0.0383749
-0.0200649
0.0433756
-0.0216505
0.0484761
-0.0230437
0.0536562
-0.0242085
0.0589026
-0.0251006
0.0642049
-0.0256585
0.0695372
-0.0257872
0.0748113
-0.025314
-0.0240921
0.0798883
-0.000695294
0.00259199
-0.00165207
0.004447
-0.00247369
0.00485476
-0.00307271
0.00466157
-0.00344636
0.00425336
-0.00360287
0.00377811
-0.00354778
0.00328599
-0.00328159
0.0027847
-0.00279926
0.00226297
-0.00209091
0.00170163
-0.00114278
0.00107795
6.08608e-05
0.000368248
0.00153655
-0.00045218
0.0033001
-0.00140712
0.0053642
-0.00251574
0.00773718
-0.00379102
0.0104218
-0.00523908
0.013414
-0.00685781
0.0167023
-0.00863572
0.0202672
-0.0105512
0.0240806
-0.0125729
0.0281067
-0.0146615
0.0323034
-0.0167715
0.0366245
-0.0188545
0.0410223
-0.0208629
0.045452
-0.022753
0.0498755
-0.0244884
0.0542662
-0.0260413
0.0586143
-0.0273919
0.0629312
-0.0285255
0.0672507
-0.02942
0.0716327
-0.0300405
0.0761361
-0.0302905
0.0807748
-0.0299526
-0.0288669
0.0855496
-0.000708709
0.00330069
-0.00138222
0.00512045
-0.00165462
0.00512709
-0.00157839
0.00458527
-0.0012283
0.00390319
-0.000639818
0.00318955
0.000172623
0.00247347
0.0012044
0.00175285
0.00245838
0.00100892
0.00394242
0.000217526
0.00566817
-0.000647868
0.00764929
-0.00161292
0.00989659
-0.00269954
0.0124154
-0.00392599
0.0152052
-0.00530557
0.0182589
-0.00684483
0.021562
-0.00854223
0.0250913
-0.0103871
0.0288146
-0.0123591
0.0326914
-0.014428
0.0366736
-0.0165552
0.0407075
-0.0186955
0.0447364
-0.0208005
0.0487037
-0.0228218
0.0525563
-0.0247155
0.0562494
-0.0264462
0.0597517
-0.0279906
0.063051
-0.0293407
0.066163
-0.0305039
0.0691398
-0.0315023
0.0720782
-0.0323584
0.0751302
-0.0330924
0.0784731
-0.0336335
0.082366
-0.0338456
-0.0338179
0.087317
-0.000608555
0.00390922
-0.000537
0.00504886
0.000247695
0.00434232
0.00141216
0.00342073
0.0027977
0.00251757
0.0043656
0.00162158
0.00610857
0.000730444
0.00802918
-0.000167826
0.0101379
-0.00109987
0.0124495
-0.00209412
0.0149746
-0.00317299
0.0177174
-0.00435576
0.0206765
-0.0056587
0.0238441
-0.0070936
0.0272045
-0.00866601
0.0307336
-0.010374
0.0343984
-0.0122071
0.0381572
-0.0141459
0.0419602
-0.0161621
0.0457511
-0.018219
0.0494695
-0.0202735
0.0530527
-0.0222788
0.0564394
-0.0241872
0.0595723
-0.0259548
0.0624021
-0.0275453
0.0648908
-0.028935
0.0670174
-0.0301173
0.0687845
-0.0311078
0.0702301
-0.0319496
0.0714455
-0.0327178
0.0726063
-0.0335192
0.0740019
-0.0344881
0.0760537
-0.0356854
0.0794025
-0.0371945
-0.0394643
0.0850488
0.000185904
0.0037233
0.00221877
0.00301591
0.00480426
0.00175675
0.00745554
0.000769369
0.0101073
-0.000134248
0.0127833
-0.00105447
0.0155173
-0.00200363
0.018338
-0.0029886
0.0212655
-0.00402737
0.0243114
-0.00514004
0.0274809
-0.00634262
0.0307721
-0.00764699
0.0341745
-0.00906115
0.037669
-0.0105881
0.0412274
-0.0122245
0.044813
-0.0139596
0.0483808
-0.0157749
0.0518787
-0.0176439
0.0552496
-0.019533
0.0584328
-0.0214023
0.061367
-0.0232077
0.0639923
-0.0249041
0.0662533
-0.0264483
0.0681015
-0.027803
0.0694978
-0.0289416
0.070415
-0.0298523
0.0708416
-0.0305439
0.0707864
-0.0310527
0.0702888
-0.031452
0.0694395
-0.0318685
0.0684347
-0.0325145
0.067675
-0.0337285
0.0680554
-0.0360659
0.0710298
-0.0401689
-0.0451073
0.0766727
0.0062665
-0.00254326
0.0114153
-0.00213299
0.0156959
-0.00252389
0.0195656
-0.00310043
0.0231776
-0.00374628
0.0266203
-0.00449725
0.0299671
-0.00535041
0.0332707
-0.00629223
0.0365633
-0.00732009
0.039861
-0.0084377
0.043167
-0.00964871
0.0464744
-0.0109544
0.0497661
-0.0123529
0.0530158
-0.0138378
0.0561889
-0.0153975
0.0592431
-0.0170139
0.0621305
-0.0186622
0.0647982
-0.0203118
0.0671914
-0.0219262
0.0692546
-0.0234655
0.0709343
-0.0248875
0.0721816
-0.0261514
0.0729535
-0.0272202
0.0732157
-0.0280653
0.0729434
-0.0286694
0.0721228
-0.0290317
0.070751
-0.0291721
0.0688362
-0.0291379
0.066397
-0.029013
0.0634642
-0.0289357
0.0600926
-0.0291429
0.0564134
-0.0300494
0.0529495
-0.0326021
0.0514827
-0.0387021
-0.0496884
0.0560637
0.0307897
-0.00449444
0.0338646
-0.00520792
0.0369772
-0.00563657
0.0400497
-0.00617294
0.0430949
-0.00679157
0.0460894
-0.00749177
0.0490268
-0.00828784
0.0519135
-0.00917895
0.0547522
-0.0101589
0.0575379
-0.0112234
0.0602581
-0.0123689
0.0628935
-0.0135899
0.0654181
-0.0148774
0.0677988
-0.0162186
0.0699971
-0.0175959
0.0719695
-0.0189863
0.0736692
-0.020362
0.075048
-0.0216905
0.0760577
-0.022936
0.0766527
-0.0240604
0.0767916
-0.0250265
0.0764399
-0.0257997
0.0755714
-0.0263517
0.0741695
-0.0266634
0.0722281
-0.026728
0.0697508
-0.0265544
0.0667484
-0.0261698
0.0632334
-0.0256229
0.0592089
-0.0249886
0.0546481
-0.0243749
0.0494449
-0.0239398
0.043306
-0.0239106
0.0354026
-0.0246988
0.023498
-0.0267976
-0.0261904
0.0590704
-0.00529544
0.0601848
-0.0063223
0.0616145
-0.00706635
0.0632209
-0.00777934
0.0649526
-0.00852331
0.0667595
-0.00929866
0.0685913
-0.0101197
0.070411
-0.0109986
0.0721893
-0.0119372
0.0738982
-0.0129323
0.0755081
-0.0139788
0.0769867
-0.0150685
0.0782991
-0.0161898
0.079407
-0.0173266
0.0802698
-0.0184586
0.0808449
-0.0195614
0.0810897
-0.0206068
0.0809627
-0.0215635
0.0804256
-0.0223989
0.0794455
-0.0230803
0.0779967
-0.0235777
0.0760631
-0.0238661
0.0736391
-0.0239278
0.0707312
-0.0237554
0.0673567
-0.0233535
0.0635422
-0.02274
0.0593188
-0.0219464
0.0547137
-0.0210179
0.0497366
-0.0200115
0.044356
-0.0189943
0.0384572
-0.0180411
0.031774
-0.0172274
0.0237202
-0.016645
0.013078
-0.0161555
-0.0131124
0.0797454
-0.00582033
0.0802476
-0.00682456
0.0808523
-0.00767105
0.0815282
-0.00845525
0.0822456
-0.00924071
0.0829831
-0.0100363
0.083711
-0.0108476
0.0843962
-0.0116838
0.085007
-0.012548
0.0855119
-0.0134373
0.0858781
-0.014345
0.0860709
-0.0152614
0.0860544
-0.0161734
0.0857916
-0.0170638
0.0852452
-0.0179122
0.0843787
-0.018695
0.0831583
-0.0193864
0.0815542
-0.0199595
0.079543
-0.0203877
0.0771098
-0.0206471
0.0742499
-0.0207178
0.0709705
-0.0205867
0.0672917
-0.020249
0.0632456
-0.0197095
0.0588755
-0.0189834
0.0542313
-0.0180958
0.0493643
-0.0170795
0.0443181
-0.0159718
0.0391159
-0.0148094
0.0337417
-0.0136202
0.0281141
-0.0124135
0.0220582
-0.0111715
0.0152782
-0.00986509
0.00747555
-0.00835293
-0.0056369
0.0926059
-0.00589906
0.0925845
-0.00680313
0.0925412
-0.0076278
0.0924812
-0.00839526
0.0923839
-0.0091435
0.0922323
-0.00988462
0.0920057
-0.0106211
0.0916784
-0.0113566
0.0912228
-0.0120924
0.0906106
-0.0128251
0.0898126
-0.0135471
0.0887991
-0.0142479
0.0875397
-0.014914
0.0860052
-0.0155293
0.0841681
-0.0160751
0.0820044
-0.0165314
0.0794956
-0.0168776
0.07663
-0.0170939
0.0734054
-0.0171631
0.0698301
-0.0170718
0.0659245
-0.0168123
0.0617216
-0.0163839
0.0572662
-0.0157935
0.052613
-0.0150563
0.0478237
-0.0141942
0.0429623
-0.0132345
0.0380889
-0.0122061
0.0332517
-0.0111347
0.0284773
-0.010035
0.0237576
-0.0089006
0.0190388
-0.00769472
0.014223
-0.0063558
0.00920589
-0.00484811
0.00406886
-0.00321598
-0.00156806
0.0977108
-0.00550667
0.0971844
-0.0062767
0.0965585
-0.00700196
0.0958423
-0.00767903
0.0950233
-0.00832455
0.0940865
-0.00894784
0.0930157
-0.00955027
0.0917912
-0.0101321
0.0903912
-0.0106924
0.0887935
-0.0112274
0.0869762
-0.0117297
0.0849179
-0.0121897
0.0825994
-0.0125955
0.080004
-0.012934
0.07712
-0.0131912
0.0739416
-0.013353
0.0704704
-0.0134065
0.0667177
-0.0133412
0.0627045
-0.0131499
0.0584629
-0.0128303
0.0540357
-0.0123851
0.049475
-0.0118232
0.0448402
-0.0111588
0.040195
-0.0104112
0.0356034
-0.0096026
0.0311251
-0.00875617
0.0268108
-0.00789188
0.022697
-0.00702093
0.0187992
-0.00613722
0.015106
-0.00520743
0.0115797
-0.00416853
0.0081771
-0.00295326
0.00490239
-0.00157349
0.00194153
-0.000255217
0.000373461
0.0950859
-0.00467918
0.0940938
-0.00528456
0.0929485
-0.00585671
0.0916556
-0.00638617
0.0902088
-0.00687771
0.0885973
-0.00733646
0.0868103
-0.00776322
0.0848352
-0.00815704
0.082659
-0.00851629
0.0802692
-0.00883765
0.0776551
-0.00911568
0.0748088
-0.00934337
0.0717262
-0.00951286
0.0684081
-0.00961597
0.0648617
-0.00964489
0.0611017
-0.00959291
0.0571504
-0.00945522
0.0530389
-0.00922972
0.0488065
-0.00891758
0.0444998
-0.00852367
0.0401712
-0.00805657
0.0358763
-0.00752836
0.0316713
-0.00695379
0.0276094
-0.00634928
0.0237381
-0.00573136
0.0200965
-0.00511463
0.0167131
-0.00450851
0.0136036
-0.00391152
0.0107692
-0.00330293
0.00819715
-0.00263543
0.0058696
-0.00184106
0.00378798
-0.000871722
0.00200726
0.000207118
0.000667951
0.001084
0.0010414
0.084846
-0.00349049
0.0834694
-0.00390791
0.0819076
-0.00429496
0.0801645
-0.00464313
0.0782395
-0.00495271
0.0761295
-0.00522652
0.073832
-0.0054657
0.071345
-0.00567008
0.0686677
-0.00583903
0.0658011
-0.00597112
0.0627493
-0.00606392
0.0595202
-0.00611425
0.0561261
-0.0061188
0.0525847
-0.00607462
0.0489193
-0.00597954
0.045159
-0.00583263
0.0413383
-0.0056346
0.0374966
-0.00538805
0.0336766
-0.00509761
0.0299227
-0.00476982
0.0262789
-0.00441287
0.0227866
-0.00403605
0.019482
-0.00364924
0.0163948
-0.00326217
0.013547
-0.00288367
0.0109528
-0.00252042
0.00861856
-0.00217439
0.00654473
-0.00183777
0.00472744
-0.00148572
0.00316432
-0.00107239
0.00186514
-0.000541977
0.000864854
0.000128469
0.000220239
0.000851632
-3.22531e-05
0.0013364
0.00100914
0.0674084
-0.00209186
0.065817
-0.00231659
0.064037
-0.00251489
0.062076
-0.00268224
0.0599425
-0.00281916
0.0576443
-0.00292838
0.0551906
-0.00301207
0.0525919
-0.00307147
0.0498603
-0.00310737
0.0470093
-0.00312018
0.0440552
-0.00310985
0.0410169
-0.003076
0.0379163
-0.00301833
0.0347785
-0.00293687
0.0316312
-0.0028322
0.028504
-0.00270558
0.0254284
-0.00255903
0.0224357
-0.00239534
0.019556
-0.002218
0.0168171
-0.002031
0.0142428
-0.00183863
0.0118519
-0.00164525
0.00965771
-0.00145511
0.00766761
-0.00127215
0.00588358
-0.00109972
0.00430308
-0.000940004
0.00292106
-0.000792464
0.00173316
-0.00064996
0.000740914
-0.000493572
-4.03132e-05
-0.000291263
-0.000574856
-7.5308e-06
-0.000812481
0.000365996
-0.000720313
0.000759355
-0.000353633
0.000969631
0.00065549
0.043881
-0.000764615
0.0423939
-0.000829565
0.0407596
-0.000880631
0.0389946
-0.000917277
0.0371164
-0.000940988
0.035142
-0.000954026
0.033088
-0.000958157
0.030971
-0.000954451
0.0288072
-0.000943622
0.0266132
-0.000926189
0.0244057
-0.000902479
0.0222024
-0.000872715
0.0200212
-0.000837151
0.0178804
-0.000796165
0.0157984
-0.000750292
0.013793
-0.000700221
0.0118807
-0.000646794
0.0100763
-0.00059098
0.00839209
-0.000533837
0.00683748
-0.000476454
0.00541867
-0.000419897
0.00413848
-0.000365135
0.00299656
-0.000313268
0.00198955
-0.000265222
0.0011114
-0.000221634
0.000354375
-0.000183062
-0.000289106
-0.000149063
-0.000822512
-0.000116633
-0.00123788
-7.82786e-05
-0.00150826
-2.09615e-05
-0.00158576
6.98896e-05
-0.00141788
0.00019804
-0.000992137
0.000333523
-0.000412702
0.000390126
0.000242779
0.0163111
0.0154816
0.0146009
0.0136836
0.0127426
0.0117886
0.0108304
0.00987596
0.00893233
0.00800613
0.00710364
0.00623092
0.00539376
0.00459758
0.00384728
0.00314705
0.00250024
0.00190925
0.00137541
0.000898941
0.000479033
0.000113887
-0.000199392
-0.000464625
-0.000686269
-0.000869341
-0.00101841
-0.00113506
-0.00121335
-0.00123432
-0.00116444
-0.000966407
-0.000632895
-0.000242779
0.0269019
-0.00264751
0.0290346
-0.00213269
0.0305744
-0.00153976
0.0315024
-0.000928046
0.0318481
-0.000345633
0.0316728
0.000175284
0.0310662
0.000606652
0.0301319
0.000934287
0.0289693
0.00116262
0.0013046
0.0276647
0.0498754
-0.00727359
0.0539218
-0.00617902
0.0572822
-0.00490013
0.0599139
-0.0035597
0.0618244
-0.00225605
0.0630502
-0.00105056
0.063635
2.18597e-05
0.0636334
0.000935932
0.0631189
0.00167713
0.00224904
0.0621745
0.0642236
-0.0123472
0.0686933
-0.0106486
0.0724691
-0.00867591
0.0755438
-0.00663442
0.0779505
-0.00466273
0.0797362
-0.00283629
0.0809611
-0.0012031
0.0816856
0.000211507
0.0819585
0.00140418
0.00238132
0.0818263
0.0757098
-0.0172866
0.0799707
-0.0149095
0.0834876
-0.0121928
0.086307
-0.00945384
0.0884987
-0.00685449
0.090133
-0.00447057
0.0912853
-0.00235542
0.092032
-0.000535284
0.0924404
0.000995834
0.00226168
0.0925601
0.0844704
-0.0218687
0.0882791
-0.0187183
0.091288
-0.0152018
0.0935924
-0.0117584
0.0952776
-0.00853977
0.0964341
-0.00562713
0.0971684
-0.00308974
0.0975803
-0.000947228
0.0977495
0.000826601
0.0022779
0.0977333
0.0898546
-0.0261738
0.0931617
-0.0220254
0.0954879
-0.0175281
0.0969751
-0.0132456
0.0977616
-0.00932643
0.0980376
-0.00590316
0.097998
-0.00305031
0.0977881
-0.0007373
0.097495
0.00111959
0.00261123
0.0971617
0.0916131
-0.0304699
0.0939863
-0.0243987
0.0947301
-0.018272
0.0942987
-0.0128142
0.093174
-0.00820185
0.091827
-0.00455615
0.0905675
-0.00179088
0.0895266
0.000303461
0.0887267
0.00191945
0.00320316
0.0881346
0.0880984
-0.0335196
0.0868402
-0.0231405
0.0833338
-0.0147656
0.0791315
-0.00861198
0.0752446
-0.00431495
0.0721846
-0.00149619
0.0700425
0.000351017
0.0687311
0.00161477
0.0681037
0.00254658
0.00337965
0.067927
0.0718385
-0.0286853
0.0618414
-0.0131435
0.0524132
-0.00533749
0.0454684
-0.00166719
0.0410952
5.81938e-05
0.0387679
0.000831016
0.0379316
0.00118712
0.0381534
0.0013927
0.0391013
0.00159842
0.00221965
0.040261
0.0273784
0.0142349
0.00889736
0.00723016
0.00728833
0.00811932
0.00930638
0.010699
0.0122973
0.0145168
0.0262888
0.00137595
0.0248961
0.00139277
0.0235259
0.00137029
0.0222038
0.00132223
0.0209438
0.00126008
0.0197515
0.00119246
0.0186267
0.00112501
0.0175658
0.00106108
0.0165636
0.00100243
0.0156141
0.000949743
0.0147114
0.000902979
0.01385
0.000861671
0.0130251
0.00082513
0.0122328
0.000792637
0.0114696
0.000763454
0.010733
0.000736908
0.0100209
0.000712357
0.00933195
0.000689237
0.00866523
0.000667024
0.00802027
0.000645272
0.007397
0.000623585
0.00679568
0.000601652
0.00621678
0.000579222
0.005661
0.000556128
0.00512907
0.000532269
0.00462181
0.000507616
0.00413996
0.000482199
0.00368421
0.000456106
0.00325509
0.000429473
0.00285295
0.000402478
0.00247795
0.000375328
0.00213001
0.00034825
0.00180883
0.000321478
0.00151386
0.000295249
0.000269781
0.00124433
0.0608835
0.00266702
0.0593253
0.00295107
0.057572
0.00312369
0.0556856
0.00320878
0.0537166
0.00322939
0.051704
0.00320532
0.0496772
0.00315205
0.0476574
0.00308127
0.0456585
0.00300163
0.0436894
0.00291919
0.0417549
0.0028379
0.0398569
0.00276008
0.0379956
0.0026869
0.03617
0.00261873
0.0343786
0.00255535
0.0326198
0.00249618
0.0308923
0.00244035
0.0291953
0.00238683
0.0275283
0.00233454
0.0258918
0.00228236
0.0242867
0.00222921
0.0227148
0.00217412
0.0211785
0.00211625
0.0196803
0.00205491
0.0182237
0.00198962
0.0168119
0.00192009
0.0154485
0.00184624
0.0141372
0.0017682
0.0128811
0.00168628
0.0116833
0.00160099
0.0105463
0.00151297
0.00947223
0.001423
0.00846237
0.00133197
0.00751743
0.00124077
0.00115036
0.00663741
0.0813351
0.00315826
0.0805312
0.00375508
0.0794594
0.00419557
0.0781612
0.00450713
0.0766732
0.00471746
0.075028
0.00485068
0.073254
0.00492621
0.0713758
0.00495972
0.0694138
0.00496387
0.0673848
0.00494843
0.0653024
0.00492059
0.0631773
0.00488546
0.061018
0.0048465
0.0588312
0.00480591
0.0566221
0.00476485
0.0543949
0.00472367
0.0521536
0.00468207
0.0499016
0.00463929
0.0476423
0.00459418
0.0453798
0.00454537
0.0431181
0.00449136
0.0408621
0.0044306
0.0386173
0.00436163
0.0363896
0.00428312
0.0341858
0.00419398
0.0320131
0.00409341
0.029879
0.00398092
0.0277915
0.00385642
0.0257582
0.00372018
0.023787
0.00357288
0.0218849
0.0034156
0.0200588
0.00324975
0.0183143
0.00307704
0.0166561
0.00289943
0.00271904
0.0150879
0.0924301
0.00328831
0.0920831
0.00410205
0.091546
0.00473278
0.0908376
0.00521556
0.0899709
0.00558421
0.0889561
0.00586551
0.0878027
0.00607978
0.0865191
0.00624336
0.0851136
0.00636957
0.0835935
0.00646874
0.0819657
0.00654858
0.0802366
0.00661477
0.078412
0.00667138
0.076497
0.00672114
0.0744966
0.00676562
0.072415
0.00680548
0.0702569
0.00684056
0.0680264
0.00687006
0.0657283
0.00689267
0.0633674
0.00690662
0.0609493
0.00690987
0.0584801
0.00690019
0.0559669
0.00687532
0.0534174
0.00683302
0.0508407
0.00677126
0.0482463
0.00668828
0.0456451
0.00658269
0.0430485
0.00645361
0.0404686
0.00630068
0.0379178
0.0061242
0.0354089
0.00592511
0.0329542
0.005705
0.0305656
0.00546614
0.0282541
0.00521133
0.00494393
0.0260297
0.0975724
0.00344915
0.0973011
0.00437341
0.0969435
0.00509036
0.0965096
0.00564948
0.0959996
0.00609411
0.0954111
0.00645408
0.0947403
0.00675055
0.0939833
0.00700043
0.0931359
0.00721707
0.0921944
0.0074103
0.0911558
0.0075873
0.0900174
0.00775336
0.0887767
0.00791224
0.0874317
0.00806635
0.0859806
0.00821693
0.084422
0.00836427
0.082755
0.00850781
0.0809791
0.00864625
0.0790943
0.00877766
0.0771017
0.00889956
0.0750028
0.00900904
0.0728005
0.00910289
0.0704985
0.00917767
0.068102
0.00922988
0.0656177
0.00925606
0.0630535
0.00925294
0.0604191
0.00921758
0.0577258
0.0091475
0.0549862
0.00904087
0.0522143
0.0088966
0.0494256
0.00871447
0.0466359
0.00849522
0.0438619
0.00824063
0.0411203
0.00795348
0.00763751
0.0384271
0.0968138
0.00379701
0.0964795
0.0047077
0.096174
0.00539581
0.0958902
0.00593321
0.095613
0.00637125
0.0953286
0.00673835
0.0950246
0.00705451
0.0946889
0.00733614
0.0943106
0.00759535
0.0938803
0.0078406
0.0933896
0.00807809
0.0928305
0.00831251
0.0921957
0.00854723
0.0914778
0.00878433
0.09067
0.00902482
0.0897657
0.00926872
0.0887585
0.00951521
0.0876423
0.00976263
0.0864115
0.0100086
0.0850613
0.01025
0.0835872
0.0104834
0.0819859
0.0107045
0.080255
0.0109088
0.0783935
0.0110917
0.0764019
0.011248
0.0742824
0.011373
0.0720389
0.0114616
0.0696775
0.0115093
0.0672067
0.0115122
0.0646368
0.011467
0.0619807
0.0113711
0.059253
0.0112234
0.0564705
0.0110237
0.0536511
0.0107734
0.0104751
0.0508139
0.0877212
0.00421035
0.0874913
0.00493744
0.0874285
0.00545851
0.0874861
0.00587553
0.0876214
0.00623578
0.0878031
0.00655647
0.088006
0.00685152
0.0882095
0.00713257
0.0883978
0.00740698
0.0885586
0.00767967
0.0886819
0.00795475
0.0887588
0.00823566
0.088781
0.008525
0.0887409
0.00882448
0.0886307
0.00913499
0.0884429
0.00945664
0.0881694
0.0097887
0.0878025
0.0101297
0.087334
0.0104772
0.0867557
0.0108284
0.0860598
0.0111794
0.0852385
0.011526
0.0842844
0.0118631
0.0831909
0.0121854
0.0819524
0.0124869
0.0805643
0.0127613
0.0790237
0.0130025
0.0773296
0.0132039
0.0754829
0.0133594
0.073487
0.0134633
0.071348
0.0135106
0.0690746
0.0134973
0.0666783
0.0134204
0.0641734
0.0132787
0.0130725
0.0615764
0.0680741
0.00406294
0.068557
0.00445435
0.0692941
0.00472127
0.0701855
0.00498381
0.0711653
0.00525579
0.0721881
0.00553348
0.0732201
0.00581927
0.0742384
0.00611411
0.0752281
0.00641706
0.0761795
0.00672815
0.0770853
0.00704881
0.0779399
0.00738094
0.0787385
0.00772634
0.0794764
0.00808647
0.0801489
0.0084624
0.080751
0.00885457
0.0812769
0.00926278
0.0817204
0.00968611
0.0820747
0.0101229
0.0823322
0.0105708
0.082485
0.0110267
0.0825243
0.0114867
0.0824412
0.0119462
0.0822268
0.0123999
0.081872
0.0128418
0.0813682
0.0132654
0.0807073
0.0136636
0.0798824
0.0140291
0.0788878
0.0143543
0.0777197
0.0146318
0.0763764
0.0148543
0.0748588
0.0150152
0.0731707
0.0151089
0.0713188
0.015131
0.0150787
0.069313
0.0415383
0.00278525
0.0432594
0.00273293
0.0452081
0.00277225
0.047241
0.00295065
0.0492864
0.00321003
0.0513
0.00351964
0.0532574
0.00386149
0.0551496
0.00422171
0.0569739
0.00459248
0.0587304
0.00497133
0.0604204
0.00535861
0.0620452
0.00575597
0.0636057
0.00616558
0.0651024
0.00658966
0.0665345
0.00703008
0.0679007
0.00748821
0.0691986
0.00796476
0.0704248
0.00845982
0.0715748
0.0089728
0.0726431
0.00950239
0.0736233
0.0100465
0.0745078
0.0106022
0.0752882
0.0111658
0.0759555
0.0117327
0.0764997
0.0122976
0.0769107
0.0128544
0.0771781
0.0133963
0.0772914
0.0139159
0.0772408
0.0144051
0.0770172
0.0148556
0.0766127
0.015259
0.0760213
0.0156068
0.0752391
0.0158913
0.0742647
0.0161055
0.0162438
0.0730999
0.0170086
0.000293092
0.0200109
-0.000269867
0.0229689
-0.000186165
0.0257927
0.000126337
0.0284797
0.000522605
0.0310343
0.000964652
0.0334731
0.00142228
0.0358155
0.00187891
0.0380766
0.00233092
0.0402678
0.00277973
0.0423979
0.00322819
0.0444735
0.00367997
0.0464997
0.0041391
0.0484796
0.00460945
0.0504151
0.0050943
0.0523068
0.00559624
0.0541542
0.00611719
0.0559553
0.00665843
0.0577073
0.00722057
0.059406
0.0078035
0.061046
0.0084063
0.0626208
0.00902725
0.0641227
0.00966375
0.0655429
0.0103124
0.0668716
0.0109688
0.0680981
0.0116278
0.069211
0.0122834
0.0701983
0.0129286
0.0710475
0.0135559
0.0717465
0.0141567
0.0722832
0.0147223
0.0726466
0.0152435
0.0728267
0.0157113
0.0728154
0.0161169
0.0164526
0.0726067
0.00316111
-0.00286828
0.00621828
-0.00332772
0.00892688
-0.00289541
0.0114328
-0.00238015
0.0137919
-0.00183709
0.0160425
-0.00128652
0.0182181
-0.000753849
0.0203439
-0.000247453
0.0224367
0.000237584
0.0245069
0.00070896
0.0265617
0.00117289
0.0286064
0.00163482
0.030645
0.0021001
0.0326801
0.00257388
0.0347134
0.0030606
0.0367455
0.00356381
0.0387759
0.00408644
0.0408033
0.00463074
0.0428252
0.00519837
0.0448381
0.00579035
0.0468373
0.00640691
0.0488168
0.00704752
0.0507695
0.0077108
0.0526872
0.00839453
0.0545602
0.0090956
0.0563779
0.00981
0.0581284
0.0105328
0.059799
0.011258
0.0613761
0.0119787
0.0628457
0.0126871
0.0641934
0.0133746
0.0654048
0.0140321
0.0664659
0.0146501
0.0673637
0.0152191
0.0157301
0.0680862
4.7845e-05
-0.00291646
0.00102441
-0.00430505
0.00236745
-0.00423918
0.0037989
-0.00381231
0.00525443
-0.00329332
0.00672678
-0.00275956
0.00821817
-0.00224592
0.00973258
-0.00176251
0.0112747
-0.0013052
0.0128497
-0.00086659
0.0144617
-0.000439685
0.0161139
-1.80287e-05
0.0178085
0.000405054
0.019546
0.000835872
0.0213271
0.00127903
0.0231521
0.00173833
0.025021
0.00221719
0.0269328
0.0027185
0.0288862
0.00324465
0.0308787
0.00379753
0.032907
0.0043784
0.0349664
0.00498786
0.0370512
0.00562576
0.0391544
0.00629111
0.0412676
0.00698216
0.0433811
0.00769624
0.045484
0.00842971
0.047564
0.00917783
0.0496076
0.00993482
0.0516007
0.0106938
0.053528
0.0114471
0.0553739
0.012186
0.0571225
0.0129013
0.0587577
0.0135836
0.0142235
0.0602641
-0.000451739
-0.00246504
-0.000628061
-0.0041295
-0.000427702
-0.00444029
-1.72192e-06
-0.00423902
0.000563926
-0.0038597
0.00123554
-0.00343189
0.00199695
-0.00300803
0.0028386
-0.00260484
0.00375546
-0.00222271
0.00474498
-0.00185673
0.00580572
-0.00150102
0.00693681
-0.00114969
0.00813863
-0.000797269
0.00941276
-0.000438759
0.0107609
-6.95301e-05
0.0121842
0.000314599
0.0136835
0.000717501
0.0152595
0.00114217
0.0169125
0.00159137
0.0186421
0.00206762
0.0204472
0.00257299
0.0223257
0.00310913
0.0242743
0.00367691
0.0262886
0.0042766
0.0283628
0.00490774
0.0304897
0.00556915
0.0326606
0.00625863
0.0348653
0.00697289
0.0370925
0.00770743
0.0393294
0.00845667
0.0415623
0.00921394
0.0437763
0.00997165
0.0459558
0.0107214
0.0480847
0.0114544
0.0121617
0.0501462
-0.000535702
-0.00192967
-0.001173
-0.00349296
-0.00162761
-0.00398639
-0.00189259
-0.00397473
-0.00199954
-0.00375341
-0.00197235
-0.00345972
-0.0018278
-0.0031532
-0.00157782
-0.00285542
-0.0012303
-0.00257077
-0.000790406
-0.00229715
-0.000261505
-0.00203039
0.000354309
-0.00176594
0.00105604
-0.0014994
0.00184367
-0.00122677
0.00271794
-0.000944153
0.00368051
-0.00064829
0.00473392
-0.000336224
0.00588077
-4.99496e-06
0.00712354
0.000348293
0.00846449
0.000726339
0.00990509
0.00113209
0.0114459
0.00156808
0.0130866
0.00203591
0.0148262
0.00253678
0.0166622
0.00307147
0.0185909
0.00364021