/*--------------------------------*- C++ -*----------------------------------*\
| =========                 |                                                 |
| \\      /  F ield         | OpenFOAM: The Open Source CFD Toolbox           |
|  \\    /   O peration     | Version:  2406                                  |
|   \\  /    A nd           | Website:  www.openfoam.com                      |
|    \\/     M anipulation  |                                                 |
\*---------------------------------------------------------------------------*/
FoamFile
{
    version     2.0;
    format      ascii;
    arch        "LSB;label=32;scalar=64";
    class       volVectorField;
    location    "44";
    object      U;
}
// * * * * * * * * * * * * * * * * * * * * * * * * * * * * * * * * * * * * * //

dimensions      [0 1 -1 0 0 0 0];

internalField   nonuniform List<vector> 
1800
(
(0.190641 -0.00253458 0)
(0.196659 -0.00346615 0)
(0.202832 -0.00283791 0)
(0.208508 -0.0024284 0)
(0.214394 -0.00244526 0)
(0.221054 -0.00275192 0)
(0.228955 -0.00339527 0)
(0.238682 -0.00460941 0)
(0.252122 -0.00745332 0)
(0.26595 -0.0239661 0)
(0.507084 -0.00349953 0)
(0.508133 -0.00729601 0)
(0.511465 -0.00864642 0)
(0.51581 -0.00947585 0)
(0.521673 -0.0106487 0)
(0.529354 -0.0123845 0)
(0.53897 -0.0149548 0)
(0.550753 -0.0189342 0)
(0.565259 -0.0251672 0)
(0.580524 -0.0369666 0)
(0.747833 -0.00272176 0)
(0.748531 -0.00692419 0)
(0.750281 -0.00994917 0)
(0.752295 -0.0126836 0)
(0.755533 -0.0157251 0)
(0.760432 -0.0193475 0)
(0.766907 -0.0238747 0)
(0.774771 -0.0298526 0)
(0.78372 -0.0379969 0)
(0.79261 -0.0495477 0)
(0.908176 -0.00239559 0)
(0.908739 -0.00679423 0)
(0.909764 -0.0107103 0)
(0.910347 -0.0145296 0)
(0.911422 -0.0186667 0)
(0.913464 -0.0233951 0)
(0.916312 -0.0289882 0)
(0.919644 -0.0357984 0)
(0.923062 -0.0441657 0)
(0.925885 -0.0543072 0)
(0.988269 -0.00216433 0)
(0.98852 -0.00637251 0)
(0.988805 -0.010482 0)
(0.988098 -0.0146924 0)
(0.987249 -0.019239 0)
(0.986712 -0.0243214 0)
(0.986287 -0.0301338 0)
(0.985612 -0.0368709 0)
(0.984321 -0.0446588 0)
(0.981961 -0.0534673 0)
(0.988218 -0.00178035 0)
(0.98807 -0.00538125 0)
(0.987528 -0.00918427 0)
(0.985528 -0.0132649 0)
(0.982895 -0.0176684 0)
(0.980049 -0.0224985 0)
(0.976752 -0.0278836 0)
(0.972639 -0.033919 0)
(0.967392 -0.0406251 0)
(0.960684 -0.0479057 0)
(0.908026 -0.00113028 0)
(0.907411 -0.00371647 0)
(0.90601 -0.00685526 0)
(0.902795 -0.0103927 0)
(0.898624 -0.0141819 0)
(0.89386 -0.0182623 0)
(0.888227 -0.0227192 0)
(0.881369 -0.0275826 0)
(0.873013 -0.032816 0)
(0.862912 -0.0383127 0)
(0.747595 -1.10678e-05 0)
(0.74642 -0.00119915 0)
(0.744335 -0.0035435 0)
(0.740356 -0.00632751 0)
(0.735324 -0.00919876 0)
(0.72949 -0.0121958 0)
(0.722532 -0.0153883 0)
(0.714112 -0.0187638 0)
(0.703996 -0.0222627 0)
(0.692007 -0.0257967 0)
(0.506808 0.00176453 0)
(0.505571 0.00226233 0)
(0.504206 0.000496069 0)
(0.501272 -0.00174111 0)
(0.497205 -0.00379465 0)
(0.492092 -0.00571302 0)
(0.485658 -0.00757752 0)
(0.477671 -0.00938362 0)
(0.46802 -0.0111056 0)
(0.456653 -0.0127165 0)
(0.190382 0.0018575 0)
(0.194518 0.00190408 0)
(0.196896 0.000681209 0)
(0.196935 -0.000224409 0)
(0.195447 -0.000747851 0)
(0.192844 -0.00113064 0)
(0.189181 -0.00145668 0)
(0.184492 -0.00172312 0)
(0.178853 -0.00193077 0)
(0.172346 -0.0020913 0)
(-8.39897e-05 6.8897e-05 0)
(-0.00163417 0.000486269 0)
(-0.00451727 0.000751438 0)
(-0.00811239 0.00085085 0)
(-0.0119297 0.000887282 0)
(-0.0157956 0.000909902 0)
(-0.0196746 0.000936634 0)
(-0.0235721 0.000972284 0)
(-0.0274978 0.00101661 0)
(-0.0314517 0.00106712 0)
(-0.0354171 0.00112056 0)
(-0.0393558 0.00117183 0)
(-0.0432033 0.00121389 0)
(-0.0468628 0.00123703 0)
(-0.0502009 0.00122895 0)
(-0.0530445 0.0011754 0)
(-0.0551805 0.00106035 0)
(-0.0563586 0.000867192 0)
(-0.056296 0.000583697 0)
(-0.0546955 0.000201532 0)
(-0.0512635 -0.000285153 0)
(-0.0457184 -0.000876522 0)
(-0.0378112 -0.0015646 0)
(-0.027345 -0.00233654 0)
(-0.014194 -0.00317961 0)
(0.00169583 -0.00405891 0)
(0.0203198 -0.00491431 0)
(0.0415869 -0.00571071 0)
(0.0652887 -0.00641392 0)
(0.0910985 -0.00697221 0)
(0.11856 -0.0073207 0)
(0.147057 -0.00738394 0)
(0.175786 -0.00708162 0)
(0.203747 -0.0063407 0)
(0.229765 -0.00512556 0)
(-0.000671115 0.00174951 0)
(-0.00532046 0.00467177 0)
(-0.0124123 0.00644063 0)
(-0.0207295 0.0071945 0)
(-0.0293455 0.00743141 0)
(-0.0379013 0.00747708 0)
(-0.0462741 0.00747874 0)
(-0.0544186 0.00748136 0)
(-0.0623018 0.00748188 0)
(-0.0698716 0.0074561 0)
(-0.0770402 0.00736796 0)
(-0.0836732 0.00717214 0)
(-0.0895842 0.00681372 0)
(-0.09453 0.00622994 0)
(-0.0982118 0.00535252 0)
(-0.100281 0.00411232 0)
(-0.100352 0.00244528 0)
(-0.0980107 0.000304342 0)
(-0.0928669 -0.00233798 0)
(-0.0845487 -0.00547982 0)
(-0.0727239 -0.00909365 0)
(-0.0571266 -0.0131253 0)
(-0.0375692 -0.0174974 0)
(-0.0139638 -0.0221153 0)
(0.013684 -0.0268618 0)
(0.0453143 -0.031596 0)
(0.0807783 -0.0361694 0)
(0.119816 -0.0404364 0)
(0.162084 -0.0442401 0)
(0.20714 -0.0473908 0)
(0.25442 -0.0496603 0)
(0.303205 -0.0507756 0)
(0.352578 -0.0504313 0)
(0.401387 -0.0483154 0)
(0.448235 -0.0441999 0)
(-0.00122664 0.00550232 0)
(-0.00856892 0.0123107 0)
(-0.0187356 0.0159465 0)
(-0.0300281 0.017346 0)
(-0.0412736 0.017596 0)
(-0.0520402 0.0173683 0)
(-0.0621515 0.0169727 0)
(-0.0715111 0.0165077 0)
(-0.0800356 0.0159671 0)
(-0.0876177 0.0152941 0)
(-0.0941082 0.0144054 0)
(-0.0993076 0.0132001 0)
(-0.102964 0.0115647 0)
(-0.104778 0.00938073 0)
(-0.104411 0.00653344 0)
(-0.101501 0.00292618 0)
(-0.0956843 -0.00150712 0)
(-0.0866527 -0.00679841 0)
(-0.0741087 -0.0129328 0)
(-0.0578144 -0.01985 0)
(-0.0376015 -0.0274553 0)
(-0.0133781 -0.0356212 0)
(0.0148614 -0.044187 0)
(0.0470562 -0.0529685 0)
(0.0830835 -0.0617654 0)
(0.122749 -0.0703651 0)
(0.16581 -0.0785686 0)
(0.211976 -0.0861612 0)
(0.260912 -0.0929047 0)
(0.312234 -0.0985174 0)
(0.365481 -0.102651 0)
(0.420077 -0.104868 0)
(0.475275 -0.10465 0)
(0.530071 -0.101421 0)
(0.583147 -0.0947192 0)
(-0.001647 0.0109228 0)
(-0.0108297 0.022465 0)
(-0.0226132 0.027825 0)
(-0.0349086 0.0294189 0)
(-0.0464363 0.029141 0)
(-0.0567936 0.0280568 0)
(-0.0658179 0.0266453 0)
(-0.0734101 0.0250568 0)
(-0.0794757 0.0232773 0)
(-0.0838941 0.0212154 0)
(-0.0865057 0.0187423 0)
(-0.0871107 0.0157095 0)
(-0.0854738 0.011962 0)
(-0.0813347 0.0073521 0)
(-0.0744198 0.00175811 0)
(-0.0644803 -0.0048989 0)
(-0.051323 -0.0126497 0)
(-0.0347587 -0.0214829 0)
(-0.0146513 -0.031337 0)
(0.00906462 -0.0420969 0)
(0.0363777 -0.0535949 0)
(0.0672247 -0.0656315 0)
(0.101484 -0.0779758 0)
(0.138974 -0.0903784 0)
(0.179472 -0.102592 0)
(0.222726 -0.114371 0)
(0.268471 -0.125479 0)
(0.316438 -0.135676 0)
(0.366369 -0.1447 0)
(0.418011 -0.152236 0)
(0.471105 -0.157867 0)
(0.52532 -0.16102 0)
(0.580194 -0.160953 0)
(0.634922 -0.156705 0)
(0.688255 -0.147424 0)
(-0.00197162 0.0173915 0)
(-0.0120218 0.0337124 0)
(-0.0236429 0.0400586 0)
(-0.0346416 0.0409704 0)
(-0.0438933 0.0393397 0)
(-0.0511703 0.036636 0)
(-0.0564153 0.0334839 0)
(-0.0595933 0.0300679 0)
(-0.0606546 0.02636 0)
(-0.0595163 0.022237 0)
(-0.0560601 0.017537 0)
(-0.0501421 0.0120887 0)
(-0.0415983 0.00572115 0)
(-0.0302606 -0.00171287 0)
(-0.0159922 -0.0103179 0)
(0.00132234 -0.020142 0)
(0.0217561 -0.0311864 0)
(0.045331 -0.0433931 0)
(0.0720236 -0.0566426 0)
(0.101752 -0.0707631 0)
(0.134374 -0.0855296 0)
(0.16969 -0.100678 0)
(0.20746 -0.115928 0)
(0.247406 -0.130994 0)
(0.289235 -0.145601 0)
(0.332658 -0.1595 0)
(0.377409 -0.172466 0)
(0.423278 -0.184292 0)
(0.470123 -0.19476 0)
(0.517895 -0.203593 0)
(0.566631 -0.210381 0)
(0.616394 -0.214489 0)
(0.667233 -0.214968 0)
(0.718686 -0.210309 0)
(0.769806 -0.199044 0)
(-0.00225964 0.024427 0)
(-0.0121905 0.0445541 0)
(-0.0214667 0.0504273 0)
(-0.028435 0.049435 0)
(-0.0326055 0.0455267 0)
(-0.0341317 0.0404792 0)
(-0.0331467 0.0349887 0)
(-0.0297258 0.0292342 0)
(-0.0238917 0.0231545 0)
(-0.0156219 0.0165934 0)
(-0.00484943 0.00936259 0)
(0.00849803 0.00127128 0)
(0.0245016 -0.0078574 0)
(0.0432111 -0.0181489 0)
(0.0646556 -0.029675 0)
(0.0888261 -0.0424541 0)
(0.115662 -0.0564458 0)
(0.145047 -0.071537 0)
(0.176811 -0.0875499 0)
(0.210725 -0.10425 0)
(0.24651 -0.121358 0)
(0.283845 -0.138566 0)
(0.32238 -0.155562 0)
(0.361756 -0.172046 0)
(0.401626 -0.187754 0)
(0.441686 -0.202472 0)
(0.4817 -0.216042 0)
(0.521546 -0.228353 0)
(0.561246 -0.239309 0)
(0.601014 -0.248772 0)
(0.64128 -0.256443 0)
(0.682674 -0.261745 0)
(0.726087 -0.263541 0)
(0.771728 -0.259748 0)
(0.820309 -0.248367 0)
(-0.00253558 0.0319626 0)
(-0.0109799 0.0532913 0)
(-0.0148037 0.056187 0)
(-0.0142046 0.0518612 0)
(-0.0100881 0.0449442 0)
(-0.00315619 0.0371537 0)
(0.00627479 0.0290894 0)
(0.0180442 0.020856 0)
(0.032097 0.0123288 0)
(0.0484135 0.00329887 0)
(0.0670428 -0.0064515 0)
(0.0880234 -0.0171167 0)
(0.111341 -0.0288428 0)
(0.136948 -0.0417222 0)
(0.164757 -0.0557852 0)
(0.194628 -0.0709995 0)
(0.226361 -0.0872637 0)
(0.259702 -0.104408 0)
(0.294338 -0.122197 0)
(0.329908 -0.140349 0)
(0.366018 -0.158542 0)
(0.402247 -0.176444 0)
(0.438175 -0.193736 0)
(0.4734 -0.210134 0)
(0.507563 -0.225421 0)
(0.540384 -0.239458 0)
(0.571692 -0.252208 0)
(0.601478 -0.263726 0)
(0.629954 -0.274144 0)
(0.657643 -0.283608 0)
(0.685436 -0.292124 0)
(0.714762 -0.299392 0)
(0.747555 -0.304074 0)
(0.785543 -0.303663 0)
(0.834017 -0.29558 0)
(-0.00266901 0.0401677 0)
(-0.00595403 0.0571605 0)
(0.00116002 0.0533573 0)
(0.0142689 0.0445938 0)
(0.0302929 0.0346201 0)
(0.0482251 0.0243231 0)
(0.0678517 0.0140041 0)
(0.0890801 0.00361967 0)
(0.111963 -0.00704924 0)
(0.13656 -0.0182429 0)
(0.162872 -0.0301602 0)
(0.190858 -0.042953 0)
(0.220433 -0.0567222 0)
(0.251457 -0.0715128 0)
(0.283733 -0.0873049 0)
(0.317006 -0.104009 0)
(0.350963 -0.121466 0)
(0.385236 -0.139451 0)
(0.419416 -0.157684 0)
(0.453061 -0.175849 0)
(0.485719 -0.193605 0)
(0.516938 -0.210623 0)
(0.546292 -0.226602 0)
(0.5734 -0.241306 0)
(0.597945 -0.25459 0)
(0.619711 -0.266424 0)
(0.638608 -0.276922 0)
(0.654731 -0.286364 0)
(0.668437 -0.295205 0)
(0.680512 -0.304074 0)
(0.692293 -0.313687 0)
(0.706338 -0.324686 0)
(0.725742 -0.336566 0)
(0.756862 -0.347615 0)
(0.808585 -0.353347 0)
(0.00229081 0.0411408 0)
(0.0144934 0.0475588 0)
(0.0415381 0.0356351 0)
(0.0726672 0.0232864 0)
(0.103237 0.0116019 0)
(0.133186 5.50353e-06 0)
(0.163131 -0.0115744 0)
(0.193412 -0.0232178 0)
(0.224138 -0.0351545 0)
(0.25541 -0.0476168 0)
(0.287274 -0.0607652 0)
(0.31969 -0.0746954 0)
(0.352534 -0.0894496 0)
(0.385611 -0.105012 0)
(0.418664 -0.121302 0)
(0.451372 -0.138174 0)
(0.483367 -0.155417 0)
(0.514241 -0.172766 0)
(0.543559 -0.189916 0)
(0.570878 -0.206536 0)
(0.595767 -0.222296 0)
(0.617817 -0.236888 0)
(0.636666 -0.250057 0)
(0.65201 -0.261631 0)
(0.663621 -0.271548 0)
(0.671366 -0.27989 0)
(0.675227 -0.286919 0)
(0.675342 -0.293127 0)
(0.672062 -0.299303 0)
(0.666142 -0.306643 0)
(0.65894 -0.316938 0)
(0.653694 -0.332796 0)
(0.654594 -0.35775 0)
(0.678424 -0.396077 0)
(0.722472 -0.44398 0)
(0.0573829 0.00629507 0)
(0.0986525 0.00319958 0)
(0.145542 -0.00689367 0)
(0.1917 -0.0167895 0)
(0.232807 -0.0261683 0)
(0.270229 -0.0359772 0)
(0.305729 -0.046438 0)
(0.340083 -0.0574852 0)
(0.373584 -0.0691293 0)
(0.406411 -0.0814381 0)
(0.438648 -0.0944572 0)
(0.470256 -0.108187 0)
(0.501095 -0.122584 0)
(0.530942 -0.137555 0)
(0.559518 -0.152954 0)
(0.58649 -0.168583 0)
(0.611492 -0.184192 0)
(0.634134 -0.199492 0)
(0.654022 -0.214171 0)
(0.670772 -0.227909 0)
(0.684028 -0.240401 0)
(0.69348 -0.251381 0)
(0.698873 -0.260653 0)
(0.700019 -0.268111 0)
(0.696807 -0.273775 0)
(0.689203 -0.277817 0)
(0.677248 -0.280602 0)
(0.661062 -0.282746 0)
(0.640834 -0.285218 0)
(0.616864 -0.289528 0)
(0.589587 -0.298155 0)
(0.560435 -0.315337 0)
(0.531694 -0.349411 0)
(0.523152 -0.414111 0)
(0.501231 -0.505577 0)
(0.307893 -0.0507359 0)
(0.332947 -0.0550209 0)
(0.362132 -0.05677 0)
(0.396057 -0.060523 0)
(0.429367 -0.0660984 0)
(0.460829 -0.073178 0)
(0.491012 -0.0815646 0)
(0.520184 -0.0910402 0)
(0.548302 -0.101426 0)
(0.575295 -0.112607 0)
(0.601085 -0.124492 0)
(0.625529 -0.136984 0)
(0.648413 -0.149955 0)
(0.669472 -0.163247 0)
(0.6884 -0.176662 0)
(0.704869 -0.189964 0)
(0.718536 -0.202884 0)
(0.729056 -0.21513 0)
(0.736103 -0.226401 0)
(0.739382 -0.236405 0)
(0.738646 -0.244882 0)
(0.733706 -0.251623 0)
(0.724444 -0.256497 0)
(0.710817 -0.259472 0)
(0.692854 -0.260635 0)
(0.670641 -0.260222 0)
(0.644302 -0.258638 0)
(0.613952 -0.256507 0)
(0.579617 -0.254742 0)
(0.541114 -0.254694 0)
(0.497728 -0.258491 0)
(0.447825 -0.269718 0)
(0.386894 -0.295659 0)
(0.30562 -0.34643 0)
(0.128184 -0.359714 0)
(0.593346 -0.0551391 0)
(0.601563 -0.067606 0)
(0.612475 -0.0755781 0)
(0.627978 -0.0826208 0)
(0.64556 -0.0898497 0)
(0.663535 -0.0974551 0)
(0.681449 -0.105619 0)
(0.699017 -0.114445 0)
(0.71587 -0.123914 0)
(0.731666 -0.133943 0)
(0.746117 -0.144435 0)
(0.758941 -0.155269 0)
(0.769837 -0.166296 0)
(0.778488 -0.177335 0)
(0.784574 -0.188169 0)
(0.787777 -0.198558 0)
(0.787792 -0.208238 0)
(0.784342 -0.21694 0)
(0.77719 -0.224398 0)
(0.766153 -0.230372 0)
(0.751118 -0.234663 0)
(0.732046 -0.237138 0)
(0.708985 -0.237741 0)
(0.682057 -0.236514 0)
(0.651455 -0.23361 0)
(0.617412 -0.229298 0)
(0.58016 -0.223977 0)
(0.53987 -0.218185 0)
(0.496547 -0.212623 0)
(0.449871 -0.208198 0)
(0.398901 -0.206113 0)
(0.341686 -0.207976 0)
(0.273916 -0.215834 0)
(0.18809 -0.226989 0)
(0.0557287 -0.198296 0)
(0.799309 -0.0635146 0)
(0.803261 -0.0752937 0)
(0.806931 -0.0844212 0)
(0.811995 -0.0925781 0)
(0.818049 -0.100595 0)
(0.824288 -0.108622 0)
(0.8303 -0.11677 0)
(0.835805 -0.125148 0)
(0.84046 -0.13378 0)
(0.843903 -0.142617 0)
(0.8458 -0.151573 0)
(0.845835 -0.160535 0)
(0.843698 -0.169359 0)
(0.839086 -0.177868 0)
(0.831714 -0.185859 0)
(0.821323 -0.193112 0)
(0.807693 -0.199398 0)
(0.790651 -0.204493 0)
(0.770093 -0.208194 0)
(0.745985 -0.210332 0)
(0.718381 -0.210794 0)
(0.687424 -0.209529 0)
(0.653337 -0.206567 0)
(0.616422 -0.202024 0)
(0.577027 -0.196099 0)
(0.53552 -0.189075 0)
(0.492236 -0.181305 0)
(0.447416 -0.173197 0)
(0.401113 -0.165196 0)
(0.353068 -0.157757 0)
(0.302523 -0.151312 0)
(0.248009 -0.14619 0)
(0.186751 -0.142268 0)
(0.116236 -0.135075 0)
(0.0283228 -0.0988339 0)
(0.927088 -0.0655783 0)
(0.926245 -0.0762134 0)
(0.924215 -0.0854656 0)
(0.921951 -0.093823 0)
(0.919524 -0.101784 0)
(0.91655 -0.109511 0)
(0.91273 -0.117073 0)
(0.907847 -0.124537 0)
(0.901652 -0.131928 0)
(0.893862 -0.139213 0)
(0.884199 -0.146316 0)
(0.872407 -0.153131 0)
(0.858246 -0.159527 0)
(0.841499 -0.165346 0)
(0.821982 -0.170416 0)
(0.799556 -0.174559 0)
(0.774138 -0.177601 0)
(0.745716 -0.179387 0)
(0.714353 -0.179792 0)
(0.680198 -0.178736 0)
(0.643488 -0.176194 0)
(0.604536 -0.172204 0)
(0.563727 -0.166868 0)
(0.521491 -0.160353 0)
(0.478275 -0.152882 0)
(0.43451 -0.144715 0)
(0.390564 -0.136128 0)
(0.34669 -0.127383 0)
(0.302965 -0.118683 0)
(0.259208 -0.110116 0)
(0.214897 -0.101599 0)
(0.169108 -0.0928286 0)
(0.120428 -0.0831241 0)
(0.0688713 -0.0696575 0)
(0.0141911 -0.0426604 0)
(0.977981 -0.0629005 0)
(0.972106 -0.0721045 0)
(0.964633 -0.0804764 0)
(0.95602 -0.0880622 0)
(0.946383 -0.0951221 0)
(0.93555 -0.10179 0)
(0.923324 -0.108111 0)
(0.909546 -0.114115 0)
(0.894048 -0.119813 0)
(0.876642 -0.125178 0)
(0.857148 -0.130146 0)
(0.835412 -0.134625 0)
(0.811309 -0.138508 0)
(0.784756 -0.141674 0)
(0.755715 -0.143999 0)
(0.724207 -0.145362 0)
(0.690321 -0.145663 0)
(0.654218 -0.144824 0)
(0.616136 -0.142804 0)
(0.576384 -0.139607 0)
(0.535337 -0.135283 0)
(0.493419 -0.12993 0)
(0.451087 -0.123694 0)
(0.408797 -0.116753 0)
(0.366987 -0.10931 0)
(0.326037 -0.101567 0)
(0.286249 -0.0937025 0)
(0.247805 -0.0858304 0)
(0.210746 -0.0779516 0)
(0.174927 -0.0698964 0)
(0.140012 -0.0612992 0)
(0.105504 -0.0516724 0)
(0.0709061 -0.0405969 0)
(0.0372198 -0.0275637 0)
(0.00640178 -0.0123743 0)
(0.952181 -0.0554818 0)
(0.941685 -0.0628782 0)
(0.929274 -0.0696958 0)
(0.915156 -0.0758482 0)
(0.899432 -0.0814331 0)
(0.88205 -0.0865299 0)
(0.862918 -0.0911665 0)
(0.84196 -0.0953565 0)
(0.819105 -0.0991051 0)
(0.794284 -0.102394 0)
(0.767444 -0.105181 0)
(0.738568 -0.107406 0)
(0.707677 -0.109 0)
(0.674839 -0.109894 0)
(0.640177 -0.110021 0)
(0.603866 -0.109329 0)
(0.566145 -0.107785 0)
(0.527308 -0.105381 0)
(0.487699 -0.102142 0)
(0.447702 -0.0981252 0)
(0.407729 -0.0934184 0)
(0.368196 -0.0881388 0)
(0.329503 -0.0824243 0)
(0.29202 -0.0764229 0)
(0.256058 -0.0702801 0)
(0.221863 -0.0641201 0)
(0.189597 -0.0580209 0)
(0.159337 -0.0519774 0)
(0.131066 -0.0458522 0)
(0.104677 -0.0393339 0)
(0.0800055 -0.0319654 0)
(0.0569059 -0.0233387 0)
(0.0354332 -0.0135329 0)
(0.016644 -0.00373834 0)
(0.00218306 0.00199484 0)
(0.850838 -0.0438756 0)
(0.836647 -0.0492232 0)
(0.820354 -0.0541004 0)
(0.802077 -0.0584018 0)
(0.781925 -0.062148 0)
(0.759947 -0.065385 0)
(0.736168 -0.0681401 0)
(0.710626 -0.0704308 0)
(0.683376 -0.0722702 0)
(0.654483 -0.07366 0)
(0.624035 -0.0745877 0)
(0.592149 -0.0750313 0)
(0.558979 -0.0749658 0)
(0.524717 -0.0743691 0)
(0.489591 -0.0732263 0)
(0.453867 -0.0715351 0)
(0.417842 -0.0693083 0)
(0.381841 -0.0665775 0)
(0.346199 -0.0633925 0)
(0.311254 -0.0598209 0)
(0.27733 -0.0559446 0)
(0.244724 -0.051855 0)
(0.21369 -0.0476472 0)
(0.184431 -0.0434127 0)
(0.157095 -0.0392302 0)
(0.131769 -0.0351535 0)
(0.10849 -0.0311897 0)
(0.0872497 -0.027267 0)
(0.0680137 -0.023193 0)
(0.0507515 -0.0186334 0)
(0.0354878 -0.0131807 0)
(0.0223645 -0.00660616 0)
(0.0116921 0.000641166 0)
(0.00408047 0.00669571 0)
(3.37847e-05 0.00682118 0)
(0.677998 -0.0292408 0)
(0.661904 -0.0324348 0)
(0.64377 -0.0352321 0)
(0.623737 -0.0375623 0)
(0.601974 -0.0394349 0)
(0.57864 -0.0408913 0)
(0.553882 -0.0419687 0)
(0.527855 -0.0426976 0)
(0.500719 -0.0431035 0)
(0.472642 -0.0432051 0)
(0.443797 -0.0430114 0)
(0.414374 -0.042526 0)
(0.384577 -0.0417503 0)
(0.354624 -0.0406889 0)
(0.324749 -0.0393511 0)
(0.295192 -0.0377534 0)
(0.266198 -0.0359199 0)
(0.238006 -0.033883 0)
(0.210842 -0.031682 0)
(0.184911 -0.0293619 0)
(0.160387 -0.0269703 0)
(0.137406 -0.0245558 0)
(0.116068 -0.0221641 0)
(0.0964262 -0.0198356 0)
(0.0784992 -0.0176009 0)
(0.0622719 -0.0154725 0)
(0.0477086 -0.01343 0)
(0.0347724 -0.011394 0)
(0.0234565 -0.00919707 0)
(0.0138308 -0.00657695 0)
(0.00608955 -0.00325012 0)
(0.000563259 0.000868141 0)
(-0.0023927 0.00527366 0)
(-0.00271022 0.0082972 0)
(-0.000935388 0.00634323 0)
(0.443558 -0.0141744 0)
(0.428789 -0.0154207 0)
(0.412484 -0.0164029 0)
(0.394854 -0.0171057 0)
(0.376129 -0.0175559 0)
(0.35653 -0.0177958 0)
(0.336256 -0.0178622 0)
(0.31549 -0.0177813 0)
(0.294402 -0.0175733 0)
(0.273153 -0.017252 0)
(0.251893 -0.0168264 0)
(0.230772 -0.016302 0)
(0.209936 -0.015684 0)
(0.189531 -0.0149789 0)
(0.169699 -0.0141955 0)
(0.150574 -0.0133442 0)
(0.132283 -0.0124382 0)
(0.114937 -0.0114922 0)
(0.0986296 -0.0105227 0)
(0.0834333 -0.00954614 0)
(0.0693974 -0.00857943 0)
(0.0565474 -0.00763784 0)
(0.0448847 -0.00673518 0)
(0.0343893 -0.00588238 0)
(0.0250232 -0.00508682 0)
(0.0167367 -0.00434839 0)
(0.00947911 -0.00365129 0)
(0.00321956 -0.00294924 0)
(-0.00201698 -0.00214923 0)
(-0.00609975 -0.00110722 0)
(-0.00875438 0.00032574 0)
(-0.00958672 0.00217895 0)
(-0.00828272 0.00413643 0)
(-0.00511456 0.00522887 0)
(-0.00118095 0.00360197 0)
(0.165057 -0.00220965 0)
(0.157091 -0.00227988 0)
(0.148586 -0.00229585 0)
(0.1397 -0.00226276 0)
(0.130583 -0.00219617 0)
(0.121359 -0.00211187 0)
(0.112124 -0.00201917 0)
(0.102955 -0.0019218 0)
(0.093918 -0.00182068 0)
(0.0850683 -0.00171538 0)
(0.0764558 -0.001605 0)
(0.0681271 -0.00148925 0)
(0.0601258 -0.00136883 0)
(0.0524929 -0.00124536 0)
(0.0452653 -0.00112067 0)
(0.0384747 -0.000996657 0)
(0.032147 -0.00087495 0)
(0.026301 -0.000757107 0)
(0.020948 -0.000644427 0)
(0.0160912 -0.000538153 0)
(0.011726 -0.000439293 0)
(0.00784029 -0.000348764 0)
(0.00441522 -0.000267194 0)
(0.00142577 -0.000195014 0)
(-0.00115809 -0.000132363 0)
(-0.00336891 -7.91643e-05 0)
(-0.00523644 -3.35036e-05 0)
(-0.00677591 1.12478e-05 0)
(-0.00796549 7.02175e-05 0)
(-0.00871442 0.000169386 0)
(-0.00883631 0.000340213 0)
(-0.00806374 0.000600385 0)
(-0.00619639 0.000913863 0)
(-0.00349237 0.00110111 0)
(-0.000805996 0.000808131 0)
(0.25258 -0.00347045 0)
(0.271011 -0.00151887 0)
(0.284219 0.000477545 0)
(0.29191 0.0022618 0)
(0.294362 0.00368269 0)
(0.292082 0.00466917 0)
(0.286022 0.00520699 0)
(0.277093 0.00535884 0)
(0.266136 0.00522985 0)
(0.253896 0.00492325 0)
(0.491528 -0.0380368 0)
(0.529639 -0.0301243 0)
(0.561243 -0.021181 0)
(0.58564 -0.0120822 0)
(0.602717 -0.00351329 0)
(0.6129 0.00409122 0)
(0.616532 0.0104378 0)
(0.614257 0.0154022 0)
(0.606904 0.0190221 0)
(0.595346 0.0214368 0)
(0.632864 -0.0843328 0)
(0.67742 -0.0706952 0)
(0.715411 -0.0550751 0)
(0.746301 -0.0389666 0)
(0.770261 -0.023466 0)
(0.787706 -0.00921743 0)
(0.79921 0.00341965 0)
(0.805189 0.0142198 0)
(0.806131 0.0231156 0)
(0.802551 0.0301694 0)
(0.738351 -0.132507 0)
(0.782921 -0.112647 0)
(0.820332 -0.0901252 0)
(0.850398 -0.0672563 0)
(0.87383 -0.0454137 0)
(0.891403 -0.0253202 0)
(0.903766 -0.00741494 0)
(0.911624 0.00812171 0)
(0.915575 0.0213016 0)
(0.916078 0.0322534 0)
(0.818381 -0.179318 0)
(0.860886 -0.152238 0)
(0.894961 -0.122118 0)
(0.920875 -0.0924045 0)
(0.940023 -0.0645495 0)
(0.953547 -0.039227 0)
(0.962381 -0.0168896 0)
(0.967478 0.00233753 0)
(0.969751 0.0186385 0)
(0.969753 0.0323159 0)
(0.86898 -0.22419 0)
(0.910216 -0.188824 0)
(0.939174 -0.150092 0)
(0.957241 -0.11278 0)
(0.967554 -0.0784172 0)
(0.972333 -0.0478729 0)
(0.973324 -0.0216656 0)
(0.972113 0.000322097 0)
(0.969793 0.0186542 0)
(0.966831 0.0339577 0)
(0.88778 -0.265829 0)
(0.926732 -0.219459 0)
(0.94165 -0.169828 0)
(0.94007 -0.12304 0)
(0.930881 -0.0813355 0)
(0.918958 -0.0461767 0)
(0.907178 -0.0177847 0)
(0.897327 0.00486304 0)
(0.889942 0.0231808 0)
(0.884722 0.0384144 0)
(0.867129 -0.30663 0)
(0.88058 -0.234583 0)
(0.851139 -0.165113 0)
(0.808747 -0.106246 0)
(0.770384 -0.0599655 0)
(0.740179 -0.0258508 0)
(0.718725 -0.00130875 0)
(0.705876 0.0166809 0)
(0.7005 0.0306755 0)
(0.700271 0.0430253 0)
(0.762837 -0.343961 0)
(0.682305 -0.206702 0)
(0.572168 -0.107254 0)
(0.494318 -0.0449394 0)
(0.449064 -0.00909124 0)
(0.4246 0.00962879 0)
(0.415189 0.0191285 0)
(0.417039 0.0247409 0)
(0.426817 0.029503 0)
(0.440452 0.0368191 0)
(0.445263 -0.26868 0)
(0.236107 -0.0650778 0)
(0.116438 0.00344043 0)
(0.0977112 0.0133064 0)
(0.101029 0.012172 0)
(0.107672 0.0099395 0)
(0.118102 0.00824867 0)
(0.131637 0.00755425 0)
(0.147829 0.00869337 0)
(0.164119 0.0195216 0)
(0.240983 0.00452018 0)
(0.227871 0.00407689 0)
(0.214916 0.00363152 0)
(0.202367 0.00321181 0)
(0.190375 0.00283654 0)
(0.179014 0.00251385 0)
(0.168299 0.00224257 0)
(0.158214 0.00201685 0)
(0.148721 0.00182968 0)
(0.139777 0.00167397 0)
(0.131335 0.00154292 0)
(0.12335 0.00143059 0)
(0.115781 0.00133225 0)
(0.108593 0.00124441 0)
(0.101758 0.00116447 0)
(0.0952505 0.00109053 0)
(0.0890505 0.00102119 0)
(0.0831422 0.00095543 0)
(0.0775126 0.000892515 0)
(0.0721518 0.000831951 0)
(0.067052 0.000773431 0)
(0.0622074 0.000716826 0)
(0.0576132 0.000662142 0)
(0.0532654 0.000609476 0)
(0.0491604 0.000558967 0)
(0.0452945 0.000510769 0)
(0.0416636 0.000465004 0)
(0.0382631 0.000421785 0)
(0.0350876 0.000381182 0)
(0.0321306 0.000343264 0)
(0.0293852 0.000308057 0)
(0.0268431 0.000275605 0)
(0.0244953 0.000245904 0)
(0.022332 0.00021897 0)
(0.0203424 0.000194762 0)
(0.58044 0.0228298 0)
(0.562997 0.0233915 0)
(0.543758 0.0233084 0)
(0.523373 0.0227634 0)
(0.502374 0.0219253 0)
(0.481171 0.0209307 0)
(0.460061 0.0198767 0)
(0.439251 0.0188265 0)
(0.418882 0.017819 0)
(0.399036 0.016875 0)
(0.379758 0.0160022 0)
(0.361064 0.0151997 0)
(0.342956 0.0144615 0)
(0.325425 0.0137798 0)
(0.308457 0.0131461 0)
(0.29204 0.012552 0)
(0.276161 0.0119898 0)
(0.260808 0.0114528 0)
(0.245976 0.0109352 0)
(0.231661 0.0104322 0)
(0.217861 0.00994012 0)
(0.204579 0.00945605 0)
(0.191819 0.00897818 0)
(0.179586 0.0085055 0)
(0.167887 0.00803779 0)
(0.156728 0.00757547 0)
(0.146111 0.00711952 0)
(0.136042 0.00667136 0)
(0.12652 0.00623272 0)
(0.117542 0.00580558 0)
(0.109103 0.00539201 0)
(0.101194 0.00499411 0)
(0.0938022 0.00461393 0)
(0.0869111 0.0042534 0)
(0.0805012 0.00391438 0)
(0.794967 0.0355166 0)
(0.783909 0.0393226 0)
(0.769923 0.0417832 0)
(0.753551 0.0431328 0)
(0.735284 0.0436227 0)
(0.715542 0.0434812 0)
(0.69468 0.0428942 0)
(0.673002 0.0420082 0)
(0.650759 0.0409367 0)
(0.628157 0.0397637 0)
(0.605358 0.0385472 0)
(0.582491 0.0373244 0)
(0.559658 0.0361176 0)
(0.536942 0.0349379 0)
(0.514406 0.0337891 0)
(0.492106 0.0326697 0)
(0.470088 0.0315752 0)
(0.448391 0.0304993 0)
(0.427054 0.0294351 0)
(0.406114 0.0283761 0)
(0.385606 0.0273162 0)
(0.365567 0.0262508 0)
(0.346034 0.0251764 0)
(0.327043 0.0240914 0)
(0.308633 0.0229957 0)
(0.290837 0.021891 0)
(0.273689 0.0207803 0)
(0.257219 0.0196678 0)
(0.241453 0.018559 0)
(0.226412 0.0174599 0)
(0.212111 0.0163773 0)
(0.198557 0.0153184 0)
(0.185753 0.0142901 0)
(0.173691 0.0132996 0)
(0.16236 0.0123537 0)
(0.91348 0.0411344 0)
(0.908084 0.0480939 0)
(0.900206 0.0533159 0)
(0.89016 0.0570583 0)
(0.878199 0.0596103 0)
(0.864521 0.0612285 0)
(0.849293 0.0621204 0)
(0.832682 0.0624564 0)
(0.814846 0.0623771 0)
(0.795932 0.0619926 0)
(0.776075 0.0613856 0)
(0.755402 0.0606165 0)
(0.734029 0.0597286 0)
(0.712066 0.0587518 0)
(0.689611 0.0577058 0)
(0.666758 0.0566018 0)
(0.643595 0.0554452 0)
(0.620203 0.0542369 0)
(0.596662 0.052975 0)
(0.573052 0.051656 0)
(0.549449 0.0502756 0)
(0.525931 0.04883 0)
(0.502575 0.0473166 0)
(0.47946 0.0457345 0)
(0.456663 0.044085 0)
(0.434263 0.0423717 0)
(0.412335 0.0406011 0)
(0.390952 0.0387819 0)
(0.370181 0.0369251 0)
(0.350085 0.0350436 0)
(0.330718 0.0331521 0)
(0.312125 0.031266 0)
(0.294343 0.0294016 0)
(0.277395 0.0275752 0)
(0.261296 0.0258032 0)
(0.967806 0.0436187 0)
(0.964157 0.0527008 0)
(0.959089 0.0597744 0)
(0.952843 0.0651906 0)
(0.94552 0.0693198 0)
(0.93711 0.0724477 0)
(0.927583 0.0747833 0)
(0.916928 0.0764954 0)
(0.905143 0.0777211 0)
(0.892232 0.0785651 0)
(0.878209 0.0791031 0)
(0.863101 0.0793906 0)
(0.846945 0.0794679 0)
(0.829786 0.0793635 0)
(0.811677 0.0790966 0)
(0.792674 0.0786791 0)
(0.772838 0.0781171 0)
(0.752235 0.0774121 0)
(0.730935 0.0765624 0)
(0.709014 0.0755639 0)
(0.686552 0.0744113 0)
(0.663633 0.0730991 0)
(0.640349 0.0716232 0)
(0.616797 0.0699809 0)
(0.593076 0.0681727 0)
(0.569293 0.0662025 0)
(0.545555 0.0640778 0)
(0.521971 0.0618106 0)
(0.49865 0.0594167 0)
(0.475695 0.0569159 0)
(0.453208 0.0543313 0)
(0.431279 0.0516888 0)
(0.409991 0.0490162 0)
(0.389413 0.0463428 0)
(0.369602 0.0436983 0)
(0.963305 0.0466054 0)
(0.959299 0.0566904 0)
(0.955098 0.064477 0)
(0.950928 0.0705046 0)
(0.946733 0.07528 0)
(0.942307 0.0791292 0)
(0.937466 0.0822671 0)
(0.93208 0.0848615 0)
(0.926031 0.0870411 0)
(0.919208 0.0888951 0)
(0.911521 0.0904829 0)
(0.902902 0.0918447 0)
(0.893302 0.0930065 0)
(0.882686 0.0939834 0)
(0.87103 0.0947824 0)
(0.858323 0.0954042 0)
(0.844563 0.0958451 0)
(0.829759 0.0960975 0)
(0.813929 0.0961506 0)
(0.797101 0.0959917 0)
(0.779316 0.0956066 0)
(0.760622 0.094981 0)
(0.741082 0.0941015 0)
(0.72077 0.092957 0)
(0.69977 0.0915397 0)
(0.67818 0.0898464 0)
(0.656106 0.0878793 0)
(0.633664 0.0856467 0)
(0.610976 0.0831635 0)
(0.58817 0.0804512 0)
(0.565372 0.0775374 0)
(0.542711 0.0744554 0)
(0.520306 0.0712432 0)
(0.498271 0.0679424 0)
(0.476706 0.064597 0)
(0.880853 0.0510037 0)
(0.87788 0.0606777 0)
(0.876052 0.0678431 0)
(0.875514 0.0733696 0)
(0.87589 0.0778764 0)
(0.876676 0.0816746 0)
(0.877533 0.0849635 0)
(0.878241 0.087897 0)
(0.878613 0.090577 0)
(0.878482 0.093063 0)
(0.877711 0.0953917 0)
(0.876196 0.0975862 0)
(0.87385 0.0996581 0)
(0.8706 0.101609 0)
(0.866385 0.103434 0)
(0.861152 0.105122 0)
(0.854857 0.106657 0)
(0.847463 0.108022 0)
(0.838941 0.109194 0)
(0.82927 0.110148 0)
(0.818441 0.110859 0)
(0.806453 0.111298 0)
(0.793319 0.111438 0)
(0.779066 0.111254 0)
(0.763736 0.110723 0)
(0.747387 0.109827 0)
(0.73009 0.108554 0)
(0.711935 0.106901 0)
(0.693024 0.104873 0)
(0.673475 0.102483 0)
(0.653412 0.0997551 0)
(0.632968 0.0967224 0)
(0.612279 0.0934262 0)
(0.59148 0.089915 0)
(0.570702 0.0862433 0)
(0.70244 0.0539506 0)
(0.70584 0.0615584 0)
(0.711337 0.0666364 0)
(0.719046 0.0706638 0)
(0.728023 0.0742557 0)
(0.737423 0.0775652 0)
(0.74683 0.0807097 0)
(0.756004 0.0837826 0)
(0.764738 0.0868179 0)
(0.772872 0.0898184 0)
(0.780297 0.0927836 0)
(0.786932 0.0957129 0)
(0.792716 0.0986026 0)
(0.797591 0.101444 0)
(0.801509 0.104223 0)
(0.804426 0.106925 0)
(0.806297 0.109528 0)
(0.80708 0.112008 0)
(0.80673 0.114338 0)
(0.805208 0.116485 0)
(0.802475 0.118416 0)
(0.798499 0.120092 0)
(0.793257 0.121474 0)
(0.786731 0.122524 0)
(0.77892 0.123202 0)
(0.769833 0.123474 0)
(0.759498 0.12331 0)
(0.747957 0.12269 0)
(0.735273 0.1216 0)
(0.721524 0.120041 0)
(0.706807 0.118021 0)
(0.691232 0.115565 0)
(0.674919 0.112708 0)
(0.657999 0.109498 0)
(0.640606 0.10599 0)
(0.454777 0.0464664 0)
(0.468103 0.0518073 0)
(0.484822 0.0546222 0)
(0.50467 0.0572061 0)
(0.525265 0.0600773 0)
(0.545427 0.063199 0)
(0.564914 0.0665563 0)
(0.583616 0.0701181 0)
(0.601411 0.073817 0)
(0.618237 0.077591 0)
(0.634084 0.0814011 0)
(0.648952 0.0852243 0)
(0.662837 0.0890443 0)
(0.675735 0.092848 0)
(0.687636 0.0966224 0)
(0.698529 0.100353 0)
(0.708395 0.104021 0)
(0.717207 0.107606 0)
(0.724935 0.111081 0)
(0.73154 0.114417 0)
(0.736981 0.117578 0)
(0.741214 0.120524 0)
(0.744198 0.123212 0)
(0.745893 0.125594 0)
(0.746262 0.127622 0)
(0.745281 0.129248 0)
(0.742934 0.130427 0)
(0.739221 0.131121 0)
(0.734156 0.131298 0)
(0.727773 0.13094 0)
(0.720121 0.130037 0)
(0.711272 0.128599 0)
(0.701309 0.126647 0)
(0.690334 0.124216 0)
(0.678459 0.121359 0)
(0.200575 0.0315422 0)
(0.227263 0.0299023 0)
(0.257278 0.0292413 0)
(0.289304 0.0309212 0)
(0.319647 0.0340559 0)
(0.347799 0.0380716 0)
(0.374311 0.0426079 0)
(0.39946 0.0474033 0)
(0.42334 0.0523018 0)
(0.446054 0.0572271 0)
(0.46771 0.0621428 0)
(0.488387 0.0670309 0)
(0.508132 0.0718836 0)