/*--------------------------------*- C++ -*----------------------------------*\
| =========                 |                                                 |
| \\      /  F ield         | OpenFOAM: The Open Source CFD Toolbox           |
|  \\    /   O peration     | Version:  2406                                  |
|   \\  /    A nd           | Website:  www.openfoam.com                      |
|    \\/     M anipulation  |                                                 |
\*---------------------------------------------------------------------------*/
FoamFile
{
    version     2.0;
    format      ascii;
    arch        "LSB;label=32;scalar=64";
    class       volScalarField;
    location    "53";
    object      p;
}
// * * * * * * * * * * * * * * * * * * * * * * * * * * * * * * * * * * * * * //

dimensions      [0 2 -2 0 0 0 0];

internalField   nonuniform List<scalar> 
1900
(
-0.00915768
-0.0135106
-0.0194361
-0.0260832
-0.0335026
-0.0417927
-0.050994
-0.0612536
-0.0727417
-0.0862117
-0.00536957
-0.0120109
-0.0191675
-0.0259928
-0.0333461
-0.0415568
-0.0505538
-0.0603183
-0.0708337
-0.0816167
-0.00196659
-0.0102268
-0.0183407
-0.0251077
-0.0320946
-0.0398897
-0.0482361
-0.056809
-0.0651914
-0.0724487
0.00157572
-0.00731368
-0.015975
-0.0227004
-0.0292791
-0.0364898
-0.0439854
-0.0512949
-0.0580098
-0.0635404
0.00524839
-0.00385238
-0.0127208
-0.019332
-0.0254989
-0.0321066
-0.0388035
-0.0451041
-0.0507124
-0.0553201
0.00851678
-0.000583708
-0.00933251
-0.0156931
-0.0214864
-0.0275918
-0.0336639
-0.0392614
-0.044191
-0.0483167
0.0107775
0.00189365
-0.0064408
-0.0124722
-0.0179946
-0.0237566
-0.0294112
-0.0345893
-0.0391707
-0.0431015
0.0115403
0.00329186
-0.0043755
-0.0101584
-0.0155874
-0.0211723
-0.0265974
-0.031585
-0.0360513
-0.0399611
0.0103424
0.00365694
-0.00308618
-0.00886056
-0.0144419
-0.0200326
-0.0254082
-0.0303852
-0.0348879
-0.0388702
0.00713839
0.00265205
-0.00296305
-0.00862878
-0.014295
-0.0199135
-0.0253176
-0.0303598
-0.0349486
-0.0390235
-0.069197
-0.0694677
-0.0696334
-0.069561
-0.0692571
-0.0687375
-0.0680074
-0.0670647
-0.0659034
-0.0645165
-0.0628972
-0.0610399
-0.0589411
-0.0565991
-0.0540145
-0.0511909
-0.0481347
-0.0448558
-0.0413675
-0.0376874
-0.0338366
-0.0298403
-0.0257274
-0.0215303
-0.0172842
-0.0130264
-0.00879568
-0.00463096
-0.000570633
0.00334864
0.00709278
0.0106313
0.0139378
0.0169911
0.0197747
-0.0688964
-0.069174
-0.0693085
-0.0692048
-0.0688947
-0.0683901
-0.0676866
-0.0667761
-0.0656497
-0.0642988
-0.062716
-0.0608961
-0.0588354
-0.0565324
-0.0539877
-0.0512048
-0.0481899
-0.0449526
-0.0415057
-0.0378662
-0.0340546
-0.030096
-0.0260189
-0.0218551
-0.0176395
-0.013409
-0.00920204
-0.00505739
-0.00101345
0.00289302
0.00662789
0.0101606
0.013465
0.0165194
0.0193067
-0.0687635
-0.0690803
-0.0692101
-0.0690863
-0.0687755
-0.0682887
-0.0676139
-0.0667375
-0.0656471
-0.0643326
-0.0627865
-0.0610031
-0.0589788
-0.0567121
-0.0542035
-0.051456
-0.0484755
-0.045271
-0.0418547
-0.0382431
-0.0344568
-0.0305204
-0.0264622
-0.0223141
-0.0181108
-0.0138896
-0.00968897
-0.00554789
-0.00150477
0.00240346
0.00614196
0.00967875
0.012987
0.0160456
0.0188381
-0.0690933
-0.069435
-0.0695597
-0.0694185
-0.0691033
-0.0686241
-0.0679634
-0.0671037
-0.0660311
-0.064735
-0.0632074
-0.0614426
-0.059437
-0.0571885
-0.0546973
-0.0519658
-0.0489991
-0.0458057
-0.042398
-0.0387924
-0.0350093
-0.0310729
-0.0270115
-0.0228574
-0.0186454
-0.014413
-0.0102003
-0.0060477
-0.00199422
0.00192297
0.00566918
0.00921302
0.0125275
0.0155907
0.0183861
-0.0700708
-0.0703595
-0.0704119
-0.0702073
-0.0698487
-0.0693393
-0.068656
-0.0677785
-0.0666919
-0.0653851
-0.0638498
-0.0620797
-0.0600706
-0.0578197
-0.0553261
-0.0525916
-0.049621
-0.0464225
-0.0430081
-0.0393936
-0.0356003
-0.0316535
-0.0275813
-0.0234162
-0.0191941
-0.0149531
-0.0107331
-0.00657462
-0.00251763
0.0013998
0.00514246
0.00867908
0.0119831
0.0150333
0.017814
-0.0718487
-0.0719236
-0.0717475
-0.0713647
-0.070876
-0.0702683
-0.0695078
-0.0685683
-0.0674315
-0.0660837
-0.0645144
-0.0627159
-0.0606827
-0.0584119
-0.0559018
-0.0531531
-0.0501692
-0.0469582
-0.0435322
-0.0399072
-0.0361038
-0.0321474
-0.0280675
-0.0238979
-0.0196754
-0.0154391
-0.0112298
-0.00708828
-0.00305444
0.000833951
0.0045423
0.00804024
0.0113024
0.0143089
0.0170455
-0.0745924
-0.0741368
-0.0734301
-0.0726686
-0.0719229
-0.0711353
-0.0702448
-0.0692106
-0.0680036
-0.0666027
-0.0649925
-0.0631623
-0.0611035
-0.0588096
-0.0562773
-0.0535075
-0.0505044
-0.0472761
-0.0438354
-0.0401995
-0.0363903
-0.0324346
-0.028363
-0.0242103
-0.020014
-0.0158138
-0.0116504
-0.00756439
-0.00359493
0.000221414
0.0038517
0.00726752
0.0104457
0.0133687
0.0160246
-0.078918
-0.0770259
-0.0751574
-0.0737596
-0.0726532
-0.0716418
-0.0706124
-0.0694886
-0.0682208
-0.066777
-0.0651342
-0.0632754
-0.0611886
-0.0588677
-0.0563107
-0.053519
-0.0504978
-0.0472563
-0.0438086
-0.0401738
-0.0363757
-0.0324428
-0.0284073
-0.0243049
-0.0201739
-0.0160536
-0.0119841
-0.00800448
-0.00415196
-0.000460633
0.00303946
0.00632308
0.00937038
0.0121671
0.0147045
-0.0876004
-0.0809114
-0.0764711
-0.0742686
-0.0728178
-0.0715875
-0.0704493
-0.0692817
-0.0679858
-0.0665127
-0.0648413
-0.0629551
-0.0608415
-0.0584942
-0.055913
-0.0531017
-0.0500677
-0.0468227
-0.043383
-0.0397699
-0.0360097
-0.0321328
-0.0281729
-0.0241665
-0.0201511
-0.0161653
-0.0122468
-0.00843185
-0.00475419
-0.00124398
0.00207293
0.00517565
0.00804854
0.0106813
0.0130689
-0.101757
-0.0853848
-0.0770636
-0.0742536
-0.0726119
-0.0711387
-0.0698522
-0.0686264
-0.0672919
-0.0657768
-0.0640649
-0.0621432
-0.0599975
-0.057621
-0.055016
-0.0521904
-0.0491552
-0.0459249
-0.0425184
-0.0389595
-0.0352764
-0.0315009
-0.0276675
-0.0238119
-0.0199704
-0.0161785
-0.0124702
-0.00887755
-0.00542916
-0.00215003
0.000939236
0.0038228
0.00648973
0.00893393
0.0111538
-0.0946942
-0.0839219
-0.0759863
-0.0733563
-0.0718768
-0.0702991
-0.0688477
-0.0675144
-0.0661071
-0.0645249
-0.0627503
-0.0607759
-0.0585889
-0.0561834
-0.0535637
-0.0507411
-0.0477301
-0.0445478
-0.0412152
-0.0377573
-0.0342032
-0.0305849
-0.0269359
-0.0232899
-0.0196801
-0.0161375
-0.0126912
-0.00936737
-0.00618878
-0.00317452
-0.000339549
0.00230542
0.00475392
0.00700354
0.0090555
-0.086312
-0.0805874
-0.0745622
-0.0718683
-0.0703571
-0.0687838
-0.0672292
-0.0657716
-0.064275
-0.0626272
-0.0607971
-0.0587789
-0.0565661
-0.0541559
-0.0515547
-0.0487759
-0.0458357
-0.0427529
-0.0395491
-0.0362496
-0.0328827
-0.0294791
-0.0260696
-0.0226844
-0.0193519
-0.016098
-0.0129457
-0.0099151
-0.00702292
-0.00428248
-0.00170363
0.000707348
0.00294756
0.00501721
0.0069192
-0.0760172
-0.0744158
-0.0711247
-0.0689424
-0.0675437
-0.0661438
-0.064663
-0.063193
-0.0616807
-0.0600335
-0.0582099
-0.0562045
-0.0540197
-0.0516601
-0.049135
-0.0464588
-0.0436483
-0.0407227
-0.0377036
-0.0346153
-0.0314843
-0.0283384
-0.0252046
-0.0221085
-0.0190731
-0.0161188
-0.0132628
-0.0105195
-0.00790033
-0.00541411
-0.00306663
-0.000861132
0.00120172
0.00312339
0.0049072
-0.0668524
-0.0672418
-0.0659199
-0.0645728
-0.0635366
-0.0624703
-0.0612557
-0.0599491
-0.058548
-0.0569972
-0.0552635
-0.0533467
-0.0512589
-0.049013
-0.0466223
-0.044102
-0.0414693
-0.0387432
-0.0359447
-0.0330965
-0.0302226
-0.027347
-0.0244925
-0.0216797
-0.0189266
-0.0162485
-0.0136578
-0.0111648
-0.00877703
-0.00650026
-0.00433794
-0.00229173
-0.000361528
0.00145417
0.00315812
-0.058469
-0.059848
-0.0599156
-0.0595228
-0.0590471
-0.0584239
-0.0575868
-0.0565636
-0.055371
-0.0539918
-0.0524139
-0.0506469
-0.0487103
-0.0466235
-0.0444035
-0.0420668
-0.0396311
-0.0371154
-0.0345399
-0.0319257
-0.0292937
-0.0266644
-0.0240564
-0.0214859
-0.0189672
-0.0165116
-0.0141287
-0.0118259
-0.00960892
-0.00748183
-0.00544746
-0.00350699
-0.00166074
9.21939e-05
0.00175315
-0.0514394
-0.0534222
-0.0544321
-0.0548575
-0.0549627
-0.0547965
-0.054349
-0.0536398
-0.0526928
-0.0515183
-0.0501258
-0.0485346
-0.0467693
-0.0448527
-0.0428049
-0.0406443
-0.0383897
-0.0360602
-0.0336753
-0.0312544
-0.0288161
-0.0263778
-0.0239548
-0.0215608
-0.0192071
-0.0169034
-0.0146575
-0.0124759
-0.0103637
-0.00832484
-0.006362
-0.00447709
-0.00267106
-0.000944217
0.00070371
-0.0462919
-0.0486721
-0.0502969
-0.0513341
-0.051937
-0.0521722
-0.0520623
-0.0516322
-0.0509127
-0.0499305
-0.0487107
-0.0472799
-0.0456658
-0.0438935
-0.0419852
-0.0399616
-0.0378426
-0.0356478
-0.0333962
-0.031106
-0.0287939
-0.0264757
-0.0241648
-0.0218736
-0.0196121
-0.0173896
-0.0152135
-0.0130903
-0.0110251
-0.00902254
-0.00708557
-0.00521706
-0.00341847
-0.00169133
-3.6024e-05
-0.0432601
-0.0459068
-0.0479158
-0.0493573
-0.0503119
-0.0508355
-0.0509642
-0.0507328
-0.0501782
-0.0493363
-0.0482402
-0.0469214
-0.045409
-0.0437297
-0.0419075
-0.0399646
-0.0379222
-0.0358002
-0.0336175
-0.0313914
-0.0291383
-0.0268727
-0.0246079
-0.0223554
-0.0201257
-0.0179276
-0.0157694
-0.0136575
-0.0115978
-0.00959489
-0.0076529
-0.0057746
-0.00396271
-0.00221869
-0.000544187
-0.0422867
-0.0451075
-0.0473337
-0.048997
-0.0501443
-0.0508227
-0.0510753
-0.050944
-0.0504706
-0.0496951
-0.048654
-0.047381
-0.0459063
-0.0442578
-0.0424608
-0.0405386
-0.0385129
-0.0364042
-0.0342313
-0.0320114
-0.0297607
-0.0274937
-0.0252236
-0.0229622
-0.0207202
-0.0185069
-0.0163305
-0.0141983
-0.0121161
-0.0100892
-0.00812178
-0.00621725
-0.00437832
-0.00260713
-0.000905267
-0.0425394
-0.0454682
-0.047804
-0.0495652
-0.050789
-0.0515219
-0.051812
-0.0517059
-0.0512484
-0.0504812
-0.0494425
-0.0481666
-0.0466851
-0.0450264
-0.0432166
-0.0412797
-0.0392377
-0.0371109
-0.0349182
-0.0326769
-0.0304031
-0.0281113
-0.025815
-0.0235263
-0.021256
-0.0190138
-0.0168079
-0.0146459
-0.012534
-0.0104774
-0.00848055
-0.00654709
-0.00467988
-0.00288118
-0.00115272
0.0222778
0.0244954
0.0264268
0.0280758
0.0294508
0.0305638
0.0314295
0.032065
0.0324886
0.03272
0.0218155
0.0240402
0.0259805
0.0276404
0.0290283
0.0301559
0.0310378
0.0316909
0.0321335
0.0323847
0.0213534
0.0235856
0.0255343
0.0272035
0.0286016
0.0297405
0.0306349
0.0313016
0.0317589
0.0320259
0.0209029
0.0231358
0.0250847
0.0267541
0.028153
0.0292936
0.030191
0.0308624
0.0313263
0.0316021
0.020315
0.022532
0.0244658
0.026122
0.0275102
0.0286432
0.0295367
0.0302083
0.0306767
0.0309611
0.0195038
0.0216808
0.0235787
0.0252042
0.026568
0.0276836
0.0285672
0.0292366
0.0297103
0.0300074
0.0184074
0.020516
0.0223544
0.0239309
0.0252569
0.0263468
0.0272169
0.0278847
0.0283684
0.0286864
0.0169794
0.0189931
0.0207516
0.0222645
0.023544
0.0246047
0.0254628
0.0261349
0.0266383
0.0269899
0.015211
0.0171116
0.0187781
0.0202212
0.0214534
0.0224889
0.0233429
0.0240309
0.0245683
0.02497
0.0131517
0.0149336
0.016508
0.0178857
0.0190789
0.0201006
0.0209644
0.0216837
0.0222716
0.0227405
0.0109141
0.0125862
0.0140806
0.0154073
0.0165773
0.0176016
0.0184916
0.0192582
0.0199115
0.0204614
0.00865861
0.0102422
0.0116778
0.0129741
0.0141398
0.0151839
0.0161148
0.0169406
0.017669
0.0183068
0.00655784
0.00808103
0.00948299
0.0107702
0.0119492
0.0130263
0.0140073
0.0148977
0.0157026
0.0164265
0.00475378
0.00624521
0.00763666
0.00893247
0.0101368
0.0112536
0.0122866
0.0132391
0.014114
0.0149142
0.0033243
0.00480777
0.00620614
0.00752167
0.00875684
0.00991365
0.0109943
0.0120003
0.0129335
0.0137951
0.00227333
0.00376554
0.0051813
0.00652168
0.00778769
0.00898033
0.0101005
0.011149
0.0121268
0.0130344
0.00154676
0.00305728
0.00449527
0.0058613
0.0071553
0.00837795
0.00952927
0.01061
0.01162
0.0125602
0.00106019
0.00259351
0.00405571
0.00544629
0.0067655
0.00801306
0.00918942
0.0102944
0.0113286
0.0122918
0.000726058
0.00228603
0.00377408
0.00518988
0.00653324
0.00780413
0.00900258
0.0101287
0.0111828
0.0121649
0.000504207
0.00208871
0.00360016
0.00503819
0.0064026
0.00769335
0.00891048
0.0100541
0.0111245
0.0121219
0.0327786
0.0326841
0.0324554
0.0321106
0.0316664
0.0311385
0.0305408
0.0298859
0.0291851
0.028448
0.0276829
0.0268968
0.0260957
0.0252844
0.0244668
0.0236461
0.0228245
0.0220039
0.0211855
0.0203702
0.0195585
0.0187505
0.0179461
0.0171453
0.0163477
0.0155528
0.0147601
0.0139692
0.0131795
0.0123904
0.0116014
0.010812
0.0100218
0.00923035
0.00843724
0.032464
0.0323906
0.0321833
0.0318598
0.0314368
0.0309296
0.030352
0.0297165
0.029034
0.0283143
0.0275654
0.0267944
0.0260072
0.0252086
0.0244026
0.0235922
0.0227799
0.0219676
0.0211565
0.0203475
0.0195412
0.0187379
0.0179376
0.0171402
0.0163453
0.0155527
0.014762
0.0139726
0.013184
0.0123958
0.0116075
0.0108186
0.0100287
0.00923747
0.0084445
0.032122
0.0320665
0.0318777
0.0315735
0.03117
0.0306826
0.0301247
0.0295088
0.0288455
0.0281444
0.0274134
0.0266594
0.0258884
0.0251049
0.0243129
0.0235155
0.0227151
0.0219135
0.0211121
0.0203119
0.0195134
0.0187169
0.0179226
0.0171303
0.01634
0.0155512
0.0147636
0.0139769
0.0131905
0.0124041
0.0116172
0.0108294
0.0100403
0.00924964
0.00845705
0.0317091
0.0316664
0.0314926
0.0312049
0.0308197
0.0303516
0.0298142
0.0292194
0.0285776
0.027898
0.0271884
0.0264555
0.0257048
0.0249409
0.0241676
0.0233879
0.022604
0.0218178
0.0210306
0.0202433
0.0194566
0.0186707
0.0178859
0.0171021
0.0163191
0.0155368
0.0147549
0.0139729
0.0131906
0.0124075
0.0116233
0.0108376
0.0100502
0.00926076
0.00846898
0.031081
0.0310551
0.0309017
0.0306376
0.0302787
0.0298392
0.0293321
0.0287688
0.0281592
0.0275121
0.0268348
0.0261337
0.025414
0.02468
0.0239353
0.0231826
0.0224241
0.0216616
0.0208964
0.0201293
0.0193609
0.0185917
0.0178219
0.0170514
0.0162803
0.0155084
0.0147355
0.0139613
0.0131855
0.0124079
0.0116282
0.0108461
0.0100614
0.00927395
0.00848351
0.0301468
0.0301468
0.0300248
0.0297969
0.0294782
0.029082
0.0286206
0.0281044
0.0275428
0.0269438
0.0263142
0.0256598
0.0249855
0.0242951
0.0235919
0.0228785
0.022157
0.0214289
0.0206955
0.0199576
0.019216
0.018471
0.017723
0.0169721
0.0162183
0.0154616
0.0147019
0.0139391
0.013173
0.0124035
0.0116305
0.0108538
0.0100732
0.00928882
0.00850043
0.0288565
0.0288959
0.0288208
0.0286462
0.0283857
0.0280516
0.0276548
0.0272049
0.0267101
0.0261776
0.0256135
0.025023
0.0244102
0.0237787
0.0231315
0.0224709
0.0217988
0.0211166
0.0204256
0.0197267
0.0190205
0.0183078
0.0175888
0.0168638
0.016133
0.0153964
0.0146543
0.0139066
0.0131534
0.0123948
0.0116306
0.010861
0.0100861
0.00930577
0.00852017
0.0272061
0.0273024
0.0272932
0.0271917
0.0270098
0.0267584
0.0264468
0.0260832
0.0256748
0.0252276
0.0247469
0.0242371
0.0237018
0.0231442
0.0225668
0.0219717
0.0213607
0.0207352
0.0200964
0.0194453
0.0187829
0.0181096
0.017426
0.0167325
0.0160296
0.0153176
0.0145968
0.0138675
0.01313
0.0123844
0.0116311
0.0108702
0.0101019
0.00932658
0.00854435
0.0252502
0.0254223
0.0254985
0.0254899
0.0254064
0.0252569
0.025049
0.0247896
0.0244845
0.0241387
0.0237564
0.0233413
0.0228965
0.0224246
0.021928
0.0214085
0.0208677
0.0203072
0.0197283
0.0191319
0.0185189
0.0178902
0.0172466
0.0165888
0.0159174
0.0152331
0.0145364
0.0138277
0.0131077
0.0123769
0.0116356
0.0108843
0.0101235
0.00935359
0.00857499
0.023102
0.0233669
0.023545
0.023645
0.0236748
0.0236412
0.0235502
0.023407
0.0232162
0.0229818
0.022707
0.022395
0.0220481
0.0216688
0.021259
0.0208205
0.020355
0.0198638
0.0193483
0.0188097
0.018249
0.0176675
0.0170662
0.0164459
0.0158077
0.0151524
0.0144809
0.0137939
0.0130922
0.0123766
0.0116477
0.0109064
0.0101532
0.00938875
0.00861372
0.0209167
0.0212855
0.0215751
0.0217919
0.0219417
0.0220296
0.0220599
0.0220364
0.0219626
0.0218415
0.0216756
0.0214674
0.0212189
0.0209323
0.0206092
0.0202514
0.0198604
0.0194378
0.0189851
0.0185036
0.0179947
0.0174598
0.0169
0.0163168
0.0157111
0.0150843
0.0144374
0.0137715
0.0130876
0.0123868
0.01167
0.0109382
0.0101921
0.00943278
0.00866091
0.0188603
0.0193352
0.0197364
0.0200685
0.0203353
0.0205403
0.0206865
0.0207768
0.0208135
0.0207989
0.0207351
0.0206237
0.0204668
0.020266
0.0200231
0.0197398
0.0194178
0.0190586
0.0186638
0.0182351
0.0177739
0.0172819
0.0167605
0.0162112
0.0156355
0.0150348
0.0144105
0.0137638
0.0130962
0.0124088
0.0117028
0.0109794
0.0102396
0.00948459
0.00871524
0.0170734
0.017647
0.0181504
0.0185866
0.0189579
0.0192668
0.0195152
0.0197051
0.0198381
0.0199159
0.0199399
0.019912
0.0198338
0.019707
0.0195332
0.0193142
0.0190514
0.0187468
0.0184019
0.0180185
0.0175983
0.0171431
0.0166546
0.0161345
0.0155845
0.0150061
0.0144011
0.0137709
0.013117
0.0124409
0.011744
0.0110276
0.010293
0.00954128
0.00877369
0.0156419
0.0162993
0.0168883
0.0174106
0.0178677
0.0182611
0.0185923
0.0188622
0.0190721
0.0192235
0.0193179
0.0193568
0.0193417
0.019274
0.0191554
0.0189876
0.0187722
0.0185111
0.018206
0.0178588
0.0174714
0.0170457
0.0165835
0.0160868
0.0155572
0.0149967
0.0144071
0.0137899
0.013147
0.0124798
0.01179
0.011079
0.0103481
0.0095988
0.00883225
0.0145867
0.0153092
0.0159639
0.0165515
0.0170733
0.0175299
0.0179222
0.0182511
0.0185181
0.0187243
0.0188709
0.0189592
0.0189906
0.0189665
0.0188886
0.0187586
0.0185782
0.0183492
0.0180737
0.0177533
0.0173903
0.0169864
0.0165438
0.0160643
0.01555
0.0150027
0.0144244
0.0138169
0.013182
0.0125213
0.0118366
0.0111293
0.0104011
0.00965317
0.00888708
0.0138725
0.0146419
0.0153431
0.0159766
0.016543
0.0170429
0.0174774
0.0178473
0.0181536
0.0183973
0.0185794
0.0187013
0.0187643
0.0187699
0.0187197
0.0186154
0.0184589
0.0182519
0.0179964
0.0176944
0.0173479
0.016959
0.0165297
0.016062
0.0155581
0.0150198
0.0144492
0.0138482
0.0132186
0.0125622
0.0118807
0.0111758
0.010449
0.00970186
0.00893568
0.0134306
0.0142318
0.0149638
0.0156275
0.0162231
0.0167517
0.0172135
0.0176097
0.0179409
0.0182083
0.0184127
0.0185558
0.0186386
0.0186628
0.0186299
0.0185418
0.0184
0.0182068
0.0179637
0.0176731
0.0173369
0.0169572
0.016536
0.0160756
0.0155778
0.015045
0.0144789
0.0138817
0.0132551
0.0126011
0.0119213
0.0112176
0.0104914
0.00974432
0.00897767
0.0131847
0.0140072
0.0147601
0.0154436
0.0160584
0.0166048
0.0170839
0.0174961
0.0178425
0.018124
0.0183419
0.0184972
0.0185917
0.0186265
0.0186036
0.0185244
0.0183911
0.0182052
0.0179691
0.0176845
0.0173537
0.0169787
0.0165618
0.0161048
0.0156102
0.0150797
0.0145157
0.0139199
0.0132945
0.0126412
0.0119618
0.0112581
0.0105317
0.00978398
0.00901664
0.0130755
0.0139148
0.0146833
0.0153814
0.0160097
0.0165687
0.0170592
0.0174821
0.0178381
0.0181285
0.0183544
0.018517
0.0186179
0.0186586
0.0186407
0.0185661
0.0184365
0.018254
0.0180205
0.0177382
0.0174091
0.0170354
0.0166193
0.016163
0.0156685
0.0151379
0.0145735
0.0139771
0.0133508
0.0126965
0.012016
0.0113109
0.0105831
0.00983392
0.00906495
0.0130466
0.013899
0.0146794
0.0153885
0.0160268
0.0165948
0.0170935
0.0175236
0.0178861
0.0181822
0.018413
0.0185799
0.0186843
0.0187279
0.0187124
0.0186395
0.0185112
0.0183294
0.0180963
0.0178139
0.0174844
0.01711
0.0166929
0.0162352
0.0157392
0.0152069
0.0146406
0.0140423
0.0134139
0.0127574
0.0120747
0.0113674
0.0106374
0.00988606
0.00911496
0.0076422
0.00684498
0.00604539
0.00524332
0.00443871
0.00363163
0.00282244
0.00201131
0.00119626
0.000382482
0.00764953
0.00685236
0.00605281
0.00525079
0.00444627
0.00363927
0.00283002
0.00201846
0.00120039
0.000371906
0.0076623
0.00686521
0.00606562
0.00526344
0.00445863
0.00365111
0.00284102
0.00202806
0.00120933
0.000363038
0.00767469
0.00687772
0.00607795
0.00527528
0.00446962
0.00366084
0.00284906
0.0020333
0.00121419
0.000349886
0.00768994
0.00689314
0.00609302
0.00528949
0.00448249
0.00367181
0.00285775
0.00203855
0.0012192
0.000336678
0.00770802
0.00691157
0.00611104
0.00530641
0.00449769
0.00368468
0.00286794
0.00204503
0.00122517
0.000326044
0.00772936
0.00693344
0.00613248
0.00532656
0.00451579
0.00370007
0.00288023
0.00205342
0.00123209
0.000320601
0.00775546
0.00696016
0.00615867
0.00535121
0.00453803
0.00371918
0.00289572
0.00206476
0.00124022
0.000323118
0.00778812
0.00699337
0.00619115
0.00538182
0.0045658
0.00374334
0.00291558
0.00208017
0.00125004
0.000335837
0.00782869
0.00703424
0.00623093
0.00541933
0.00460001
0.00377339
0.00294067
0.00210037
0.00126213
0.000359759
0.00787732
0.00708276
0.00627797
0.00546366
0.00464057
0.00380935
0.00297099
0.00212546
0.00127704
0.000393955
0.00793254
0.0071374
0.00633071
0.00551334
0.00468614
0.00384996
0.00300562
0.00215457
0.001295
0.000435246
0.00799131
0.00719516
0.00638626
0.00556559
0.00473413
0.00389289
0.00304251
0.00218586
0.00131571
0.000478464
0.00804968
0.00725221
0.00644095
0.00561697
0.00478133
0.00393514
0.00307903
0.00221682
0.00133804
0.000517461
0.00810393
0.00730504
0.00649143
0.00566435
0.00482479
0.00397403
0.00311262
0.00224502
0.00136038
0.0005466
0.0081518
0.00735143
0.00653575
0.00570586
0.00486289
0.00400798
0.00314184
0.0022689
0.00138099
0.000562281
0.00819296
0.00739119
0.00657374
0.00574148
0.00489568
0.00403714
0.00316678
0.00228848
0.00139887
0.000564006
0.00823077
0.00742781
0.00660869
0.00577465
0.00492645
0.00406507
0.00319093
0.00230757
0.00141611
0.000555345
0.00827752
0.00747284
0.00665206
0.00581618
0.0049661
0.00410241
0.00322548
0.0023379
0.00144335
0.000547111
0.00832545
0.00751879
0.00669611
0.00585843
0.00500662
0.00414126
0.00326247
0.00237107
0.00147094
0.000542472
)
;

boundaryField
{
    inlet
    {
        type            zeroGradient;
    }
    outlet
    {
        type            fixedValue;
        value           uniform 0;
    }
    upperWall
    {
        type            zeroGradient;
    }
    lowerWall
    {
        type            zeroGradient;
    }
    frontAndBack
    {
        type            empty;
    }
}


// ************************************************************************* //
