/*--------------------------------*- C++ -*----------------------------------*\
| =========                 |                                                 |
| \\      /  F ield         | OpenFOAM: The Open Source CFD Toolbox           |
|  \\    /   O peration     | Version:  2406                                  |
|   \\  /    A nd           | Website:  www.openfoam.com                      |
|    \\/     M anipulation  |                                                 |
\*---------------------------------------------------------------------------*/
FoamFile
{
    version     2.0;
    format      ascii;
    arch        "LSB;label=32;scalar=64";
    class       surfaceScalarField;
    location    "53";
    object      phi;
}
// * * * * * * * * * * * * * * * * * * * * * * * * * * * * * * * * * * * * * //

dimensions      [0 3 -1 0 0 0 0];

oriented        oriented;

internalField   nonuniform List<scalar> 
3680
(
0.0194058
-0.000405843
0.0199379
-0.000532065
0.0204308
-0.000492959
0.0209116
-0.000480785
0.0214259
-0.000514358
0.0220128
-0.000586916
0.0227268
-0.000713964
0.0236627
-0.000935991
0.0250178
-0.00135517
-0.00277817
0.0277959
0.0508724
-0.000278233
0.0509628
-0.00062253
0.0512556
-0.000785826
0.0516928
-0.000917935
0.0522608
-0.00108247
0.0529712
-0.00129738
0.0538493
-0.0015921
0.0549377
-0.00202443
0.0562631
-0.00268064
-0.0037817
0.0572666
0.0749461
-0.000224343
0.0749238
-0.000600254
0.0750184
-0.000880479
0.0752355
-0.00113508
0.075572
-0.00141892
0.0760302
-0.00175564
0.0766087
-0.00217062
0.0772875
-0.00270333
0.0780016
-0.00339468
-0.00429427
0.0785141
0.0909734
-0.000197748
0.0909279
-0.000554785
0.0909247
-0.000877338
0.0909849
-0.00119522
0.0911078
-0.00154184
0.0912893
-0.00193719
0.0915181
-0.00239946
0.0917651
-0.00295032
0.0919763
-0.00360593
-0.00436926
0.0920513
0.0989682
-0.000165934
0.0988895
-0.000476104
0.0988029
-0.00079078
0.0987292
-0.0011215
0.0986668
-0.00147951
0.0986067
-0.00187707
0.098534
-0.00232681
0.0984228
-0.00283906
0.0982337
-0.00341678
-0.00404983
0.0979142
0.09895
-0.000115955
0.0988203
-0.000346387
0.0986481
-0.000618616
0.098451
-0.000924398
0.0982243
-0.00125275
0.0979562
-0.001609
0.0976316
-0.00200222
0.0972283
-0.00243576
0.0967175
-0.00290596
-0.00340067
0.0960684
0.0909197
-3.56746e-05
0.0907247
-0.000151411
0.0904704
-0.000364276
0.090168
-0.000621992
0.089807
-0.000891721
0.0893747
-0.00117673
0.0888564
-0.00148386
0.0882324
-0.0018118
0.0874809
-0.00215443
-0.00250177
0.0865821
0.0748608
0.000103577
0.0746035
0.000105851
0.0743026
-6.33194e-05
0.0739491
-0.000268561
0.073524
-0.000466572
0.0730125
-0.00066517
0.072398
-0.000869402
0.0716622
-0.00107598
0.0707882
-0.00128037
-0.00147752
0.069764
0.0507722
0.000331414
0.0505771
0.000300971
0.0503906
0.000123103
0.0501446
-2.24534e-05
0.0498093
-0.000131253
0.04937
-0.000225933
0.0488141
-0.000313462
0.0481314
-0.00039326
0.0473163
-0.000465243
-0.000529476
0.0463684
0.0193314
0.0196324
0.0197555
0.019733
0.0196018
0.0193759
0.0190624
0.0186692
0.0182039
0.0176745
-6.63152e-05
6.62987e-05
-0.000289796
0.000223443
-0.000607607
0.000317775
-0.000959164
0.000351526
-0.0013131
0.000353911
-0.00165652
0.0003434
-0.00198513
0.000328589
-0.00229777
0.000312628
-0.00259402
0.000296236
-0.00287328
0.00027925
-0.0031346
0.000261319
-0.0033767
0.0002421
-0.00359799
0.000221289
-0.00379661
0.000198624
-0.00397049
0.000173881
-0.00411738
0.000146889
-0.00423493
0.000117548
-0.00432077
8.5836e-05
-0.00437259
5.1822e-05
-0.00438827
1.56956e-05
-0.004366
-2.22626e-05
-0.00430438
-6.15997e-05
-0.00420255
-0.000101815
-0.00406017
-0.000142341
-0.00387759
-0.000182544
-0.00365581
-0.000221732
-0.00339656
-0.000259202
-0.00310223
-0.000294261
-0.00277588
-0.000326267
-0.00242115
-0.000354639
-0.00204217
-0.00037889
-0.00164342
-0.000398645
-0.00122965
-0.000413647
-0.00080573
-0.000423798
-0.000429109
-0.00037649
-0.000265536
0.000331799
-0.000847083
0.000804889
-0.0015936
0.00106421
-0.0023951
0.00115296
-0.00318979
0.00114853
-0.00394878
0.00110234
-0.00466049
0.00104026
-0.00532079
0.0009729
-0.00592812
0.000903542
-0.00648138
0.000832501
-0.00697922
0.000759151
-0.00741978
0.000682655
-0.00780071
0.000602212
-0.00811922
0.000517128
-0.00837219
0.000426859
-0.00855636
0.000331056
-0.00866842
0.000229611
-0.00870526
0.000122686
-0.00866416
1.07456e-05
-0.00854298
-0.00010546
-0.00834037
-0.000224838
-0.0080558
-0.00034612
-0.00768972
-0.000467821
-0.0072437
-0.000588281
-0.00672043
-0.000705709
-0.00612378
-0.00081826
-0.00545871
-0.000924112
-0.00473125
-0.00102155
-0.00394831
-0.001109
-0.00311762
-0.00118511
-0.00224746
-0.0012488
-0.00134651
-0.00129932
-0.000423706
-0.00133616
0.000511896
-0.0013591
-0.00136829
0.0014514
-0.000444099
0.000775852
-0.00131048
0.00167118
-0.00235051
0.00210416
-0.00342267
0.00222504
-0.00445392
0.00217972
-0.0054108
0.00205917
-0.00628013
0.00190955
-0.00705791
0.00175064
-0.00774357
0.00158918
-0.00833743
0.00142634
-0.00883958
0.00126129
-0.0092496
0.00109266
-0.00956646
0.000919057
-0.00978864
0.000739313
-0.00991437
0.000552592
-0.00994177
0.000358461
-0.00986914
0.000156998
-0.00969517
-5.12595e-05
-0.00941927
-0.000265127
-0.0090417
-0.000482999
-0.00856356
-0.000702927
-0.00798699
-0.000922636
-0.00731518
-0.00113956
-0.00655247
-0.00135091
-0.0057043
-0.00155378
-0.00477719
-0.00174525
-0.00377867
-0.0019225
-0.0027171
-0.00208295
-0.00160159
-0.00222434
-0.000441717
-0.00234479
0.000752442
-0.00244275
0.00197056
-0.00251722
0.00320252
-0.0025679
0.00443857
-0.00259491
-0.00259879
0.00566931
-0.000573995
0.00134982
-0.0016178
0.00271489
-0.00279592
0.0032822
-0.00394701
0.00337606
-0.00500074
0.00323339
-0.00593019
0.00298858
-0.00672821
0.00270753
-0.00739581
0.0024182
-0.00793669
0.00213002
-0.00835484
0.00184446
-0.00865365
0.00156008
-0.00883565
0.00127464
-0.0089026
0.000985996
-0.00885568
0.000692386
-0.00869578
0.00039269
-0.00842377
8.6459e-05
-0.00804083
-0.00022592
-0.00754886
-0.000543206
-0.00695029
-0.000863664
-0.00624827
-0.00118498
-0.00544683
-0.00150432
-0.00455095
-0.00181846
-0.00356652
-0.00212393
-0.00250032
-0.00241703
-0.00136004
-0.00269398
-0.000154114
-0.00295107
0.0011083
-0.00318481
0.00241752
-0.00339205
0.00376353
-0.00357023
0.00513616
-0.00371728
0.00652526
-0.00383172
0.00792093
-0.00391274
0.0093135
-0.00396031
0.0106938
-0.00397499
-0.00395798
0.0120531
-0.000655839
0.00200561
-0.00174629
0.00380526
-0.00287332
0.00440915
-0.00388266
0.00438533
-0.00472629
0.00407696
-0.00539602
0.00365826
-0.00589791
0.00320937
-0.0062421
0.00276234
-0.00643878
0.00232666
-0.00649685
0.00190248
-0.00642356
0.00148675
-0.00622476
0.00107581
-0.00590521
0.000666416
-0.00546894
0.000256103
-0.00491971
-0.000156557
-0.00426142
-0.000571836
-0.00349831
-0.000989028
-0.00263494
-0.00140656
-0.00167645
-0.00182214
-0.000628638
-0.00223277
0.000502035
-0.00263496
0.00170842
-0.00302481
0.0029826
-0.00339807
0.00431601
-0.00375039
0.00569953
-0.00407745
0.00712365
-0.00437513
0.00857856
-0.00463966
0.0100544
-0.00486779
0.0115411
-0.00505694
0.0130292
-0.00520521
0.014509
-0.00531149
0.0159718
-0.00537547
0.0174093
-0.00539767
0.0188138
-0.00537935
-0.00532249
0.0201784
-0.000693884
0.00269947
-0.00167271
0.00478401
-0.00251176
0.00524811
-0.00311763
0.00499114
-0.00349574
0.004455
-0.0036693
0.00383175
-0.00366186
0.00320187
-0.00349363
0.00259405
-0.00318067
0.00201364
-0.00273548
0.00145724
-0.00216782
0.000919031
-0.00148555
0.000393495
-0.000695368
-0.000123806
0.00019677
-0.000636074
0.00118505
-0.00114487
0.00226353
-0.00165034
0.00342596
-0.00215148
0.00466574
-0.00264636
0.0059758
-0.0031322
0.00734856
-0.00360553
0.00877591
-0.00406231
0.0102492
-0.00449812
0.0117595
-0.0049083
0.0132973
-0.00528819
0.0148531
-0.00563325
0.0164173
-0.0059393
0.0179803
-0.00620267
0.0195329
-0.00642035
0.0210661
-0.00659009
0.0225714
-0.00671052
0.0240411
-0.00678116
0.0254681
-0.00680242
0.0268462
-0.00677564
0.0281698
-0.00670293
-0.00658719
0.0294345
-0.000672599
0.00337203
-0.00130654
0.00541787
-0.00152882
0.00547033
-0.00140684
0.00486908
-0.00103791
0.00408601
-0.000481263
0.00327503
0.000226554
0.00249398
0.00106063
0.00175991
0.00200424
0.00106997
0.00304579
0.000415636
0.00417669
-0.00021193
0.00539019
-0.00082006
0.00668016
-0.00141383
0.00804015
-0.00199612
0.00946349
-0.00256826
0.0109433
-0.00313019
0.0124724
-0.00368062
0.0140433
-0.00421724
0.0156479
-0.00473686
0.017278
-0.00523563
0.0189248
-0.00570919
0.0205796
-0.00615287
0.0222331
-0.00656187
0.0238764
-0.00693151
0.0255006
-0.0072574
0.0270969
-0.00753564
0.0286572
-0.00776299
0.0301738
-0.00793699
0.0316398
-0.00805607
0.0330489
-0.00811963
0.0343958
-0.00812805
0.0356761
-0.00808266
0.0368862
-0.00798572
0.0380235
-0.0078403
-0.00765021
0.0390866
-0.000501565
0.00387356
-0.00029477
0.00521101
0.000615415
0.00456008
0.00186305
0.00362138
0.00326139
0.0026876
0.00474497
0.00179139
0.00628647
0.000952423
0.00787192
0.000174387
0.00949499
-0.00055316
0.0111535
-0.00124292
0.0128452
-0.00190374
0.0145667
-0.00254159
0.0163135
-0.0031607
0.0180809
-0.00376354
0.0198635
-0.00435088
0.0216553
-0.00492206
0.0234499
-0.00547523
0.0252402
-0.00600759
0.0270188
-0.00651558
0.0287782
-0.00699504
0.0305104
-0.00744145
0.0322077
-0.00785011
0.0338621
-0.00821636
0.0354664
-0.0085358
0.0370135
-0.00880447
0.0384969
-0.00901906
0.0399109
-0.00917702
0.0412506
-0.00927672
0.042512
-0.00931747
0.0436919
-0.00929963
0.0447884
-0.00922455
0.0458003
-0.00909454
0.0467273
-0.0089128
0.0475703
-0.00868333
-0.00841076
0.0483309
0.000410434
0.00346309
0.00265049
0.00297086
0.00537396
0.00183654
0.00806749
0.000927787
0.0106358
0.000119234
0.0130843
-0.000657147
0.0154353
-0.00139863
0.0177095
-0.00209988
0.0199225
-0.00276622
0.0220848
-0.00340528
0.0242033
-0.0040223
0.026282
-0.00462032
0.0283223
-0.00520107
0.0303237
-0.00576502
0.0322842
-0.00631139
0.0342004
-0.00683829
0.036068
-0.00734292
0.0378822
-0.00782181
0.0396375
-0.00827091
0.0413282
-0.00868584
0.0429488
-0.00906203
0.0444936
-0.00939494
0.0459574
-0.00968025
0.0473357
-0.00991406
0.0486243
-0.0100931
0.04982
-0.0102148
0.0509205
-0.0102775
0.0519244
-0.0102806
0.0528313
-0.0102244
0.0536418
-0.0101102
0.0543575
-0.00994031
0.0549809
-0.00971801
0.0555154
-0.00944732
0.055965
-0.00913297
-0.00878021
0.0563344
0.00631671
-0.00285369
0.0116007
-0.00231317
0.0159128
-0.0024756
0.019656
-0.00281546
0.0229848
-0.00320966
0.0259969
-0.00366928
0.0287692
-0.00417103
0.031357
-0.00468772
0.033797
-0.00520623
0.0361132
-0.00572158
0.0383217
-0.00623077
0.0404324
-0.00673113
0.0424515
-0.00722019
0.0443818
-0.0076954
0.0462242
-0.00815377
0.0479777
-0.00859188
0.0496406
-0.00900582
0.0512101
-0.00939139
0.0526833
-0.00974415
0.0540571
-0.0100596
0.0553283
-0.0103333
0.0564944
-0.010561
0.0575532
-0.0107391
0.0585033
-0.0108642
0.0593441
-0.010934
0.060076
-0.0109467
0.0607004
-0.0109019
0.0612194
-0.0107998
0.0616366
-0.0106416
0.0619562
-0.0104298
0.0621832
-0.0101674
0.0623235
-0.00985841
0.0623837
-0.00950755
0.0623706
-0.00911996
-0.0087012
0.0622916
0.0297353
-0.00479311
0.0327546
-0.00533249
0.0357459
-0.00546695
0.0385967
-0.00566628
0.0413004
-0.00591341
0.043833
-0.00620192
0.0461959
-0.00653397
0.0484054
-0.0068973
0.050477
-0.00727781
0.0524215
-0.00766618
0.0542469
-0.0080562
0.0559585
-0.00844272
0.0575593
-0.00882105
0.0590508
-0.00918685
0.0604328
-0.00953586
0.0617047
-0.00986377
0.0628651
-0.0101662
0.0639123
-0.0104387
0.064845
-0.0106769
0.0656619
-0.0108765
0.0663621
-0.0110335
0.0669456
-0.0111445
0.0674131
-0.0112066
0.0677662
-0.0112173
0.0680075
-0.0111753
0.0681407
-0.01108
0.0681705
-0.0109317
0.0681026
-0.0107318
0.0679435
-0.0104825
0.0677006
-0.0101869
0.0673819
-0.0098487
0.0669958
-0.00947241
0.0665512
-0.00906298
0.0660569
-0.0086257
-0.00816608
0.0655217
0.0576315
-0.00515808
0.0583761
-0.00607707
0.0594771
-0.00656801
0.0607543
-0.00694346
0.0621253
-0.00728444
0.0635226
-0.00759925
0.0648935
-0.00790491
0.066208
-0.00821181
0.0674498
-0.00851959
0.0686084
-0.00882483
0.0696766
-0.00912437
0.0706489
-0.00941506
0.0715212
-0.00969338
0.07229
-0.00995562
0.0729521
-0.010198
0.0735049
-0.0104166
0.0739464
-0.0106077
0.074275
-0.0107673
0.07449
-0.0108918
0.0745914
-0.0109779
0.0745802
-0.0110224
0.0744586
-0.0110229
0.0742296
-0.0109776
0.0738976
-0.0108852
0.0734679
-0.0107456
0.0729471
-0.0105591
0.0723425
-0.0103272
0.0716627
-0.010052
0.0709164
-0.00973632
0.0701134
-0.00938389
0.0692635
-0.00899879
0.0683766
-0.00858558
0.0674628
-0.00814915
0.0665315
-0.00769451
-0.00722669
0.0655921
0.0786843
-0.0053283
0.0788057
-0.00619849
0.0790387
-0.00680096
0.0793561
-0.00726087
0.0797278
-0.00765613
0.0801302
-0.0080017
0.0805342
-0.00830892
0.0809133
-0.00859088
0.0812479
-0.00885416
0.0815234
-0.0091003
0.0817283
-0.00932924
0.0818535
-0.00954027
0.0818921
-0.00973192
0.0818385
-0.00990207
0.0816888
-0.0100483
0.0814401
-0.0101679
0.0810907
-0.0102582
0.0806401
-0.0103166
0.0800889
-0.0103406
0.0794391
-0.010328
0.0786939
-0.0102771
0.0778576
-0.0101866
0.076936
-0.0100559
0.0759357
-0.00988498
0.0748649
-0.00967466
0.0737321
-0.00942633
0.0725471
-0.00914211
0.0713199
-0.00882472
0.070061
-0.00847745
0.0687811
-0.008104
0.0674908
-0.00770843
0.0662002
-0.00729501
0.0649192
-0.00686812
0.0636567
-0.00643209
-0.00599116
0.0624212
0.091913
-0.00518997
0.0916478
-0.00593327
0.0913649
-0.00651809
0.0910825
-0.00697839
0.0907892
-0.00736286
0.0904771
-0.00768955
0.0901353
-0.00796714
0.0897506
-0.00820609
0.0893109
-0.0084145
0.0888071
-0.00859644
0.0882316
-0.00875373
0.0875786
-0.00888718
0.0868436
-0.00899683
0.0860236
-0.00908203
0.085117
-0.00914166
0.0841236
-0.00917439
0.0830442
-0.00917878
0.0818812
-0.00915347
0.0806379
-0.00909727
0.0793192
-0.00900924
0.077931
-0.00888884
0.0764805
-0.00873598
0.0749757
-0.00855108
0.0734259
-0.00833508
0.0718408
-0.00808946
0.0702307
-0.00781619
0.0686064
-0.00751772
0.0669786
-0.0071969
0.0653581
-0.00685689
0.0637552
-0.00650107
0.0621798
-0.00613296
0.0606409
-0.00575613
0.0591469
-0.00537408
0.057705
-0.0049902
-0.00460765
0.0563215
0.0974266
-0.00470229
0.0967996
-0.00530625
0.0960909
-0.0058094
0.0953252
-0.0062126
0.0945028
-0.00654047
0.0936222
-0.00680893
0.0926814
-0.00702627
0.0916761
-0.0072007
0.0906015
-0.00733991
0.0894543
-0.00744913
0.088232
-0.00753142
0.0869336
-0.00758871
0.0855591
-0.00762219
0.0841095
-0.00763239
0.0825873
-0.00761936
0.0809959
-0.00758291
0.0793399
-0.00752272
0.077625
-0.00743848
0.0758578
-0.00733002
0.074046
-0.00719737
0.0721981
-0.00704085
0.0703234
-0.0068611
0.0684315
-0.00665913
0.0665328
-0.00643629
0.0646377
-0.00619428
0.0627567
-0.00593511
0.0609001
-0.00566103
0.0590778
-0.00537452
0.0572991
-0.00507815
0.0555727
-0.00477459
0.0539063
-0.00446649
0.0523066
-0.00415642
0.0507795
-0.00384686
0.0493294
-0.00354008
-0.00323816
0.0479599
0.0952612
-0.00389507
0.0943062
-0.00435126
0.0932336
-0.00473674
0.0920653
-0.00504425
0.0908098
-0.00528493
0.0894717
-0.00547073
0.0880551
-0.00560957
0.0865629
-0.00570849
0.0849974
-0.00577434
0.083361
-0.00581262
0.0816568
-0.0058271
0.0798886
-0.00582043
0.078061
-0.0057945
0.0761793
-0.00575062
0.0742496
-0.00568959
0.0722787
-0.00561193
0.0702741
-0.00551798
0.0682437
-0.00540804
0.0661963
-0.00528248
0.0641408
-0.00514175
0.0620865
-0.00498651
0.0600431
-0.00481758
0.0580201
-0.00463602
0.056027
-0.00444306
0.0540729
-0.00424014
0.0521667
-0.00402883
0.0503166
-0.00381079
0.04853
-0.00358779
0.0468135
-0.00336157
0.0451728
-0.00313388
0.0436128
-0.00290641
0.0421372
-0.00268071
0.0407486
-0.00245826
0.039449
-0.00224034
-0.00202809
0.0382389
0.0855249
-0.00283787
0.0843148
-0.00314107
0.0829704
-0.00339235
0.0815116
-0.00358537
0.0799525
-0.00372576
0.0783042
-0.00382236
0.0765772
-0.00388248
0.0747811
-0.0039123
0.0729245
-0.00391768
0.0710155
-0.00390349
0.0690618
-0.00387336
0.0670713
-0.00382985
0.0650517
-0.00377481
0.0630108
-0.00370957
0.0609563
-0.00363501
0.0588962
-0.00355171
0.0568384
-0.00346011
0.054791
-0.00336054
0.052762
-0.00325338
0.0507594
-0.00313904
0.048791
-0.00301804
0.0468646
-0.00289098
0.0449872
-0.0027586
0.043166
-0.00262169
0.0414071
-0.00248116
0.0397163
-0.00233795
0.0380986
-0.00219302
0.0365583
-0.00204736
0.0350987
-0.00190192
0.0337225
-0.00175761
0.0324315
-0.00161529
0.0312266
-0.00147572
0.030108
-0.00133959
0.0290752
-0.0012075
-0.00107992
0.0281271
0.0685858
-0.00165956
0.0672608
-0.00181602
0.0658064
-0.00193787
0.0642437
-0.00202257
0.0625923
-0.00207426
0.0608695
-0.00209952
0.0590912
-0.00210406
0.0572714
-0.00209247
0.0554226
-0.00206868
0.0535551
-0.0020359
0.0516783
-0.00199644
0.0498004
-0.00195185
0.0479289
-0.00190316
0.0460705
-0.00185107
0.0442316
-0.00179599
0.0424181
-0.00173816
0.0406359
-0.00167774
0.0388903
-0.00161486
0.0371867
-0.00154966
0.0355301
-0.00148232
0.0339253
-0.00141307
0.0323766
-0.00134219
0.0308881
-0.00127002
0.0294635
-0.00119691
0.0281056
-0.00112326
0.0268173
-0.00104947
0.0256003
-0.000975949
0.0244561
-0.000903093
0.0233855
-0.000831281
0.0223888
-0.000760854
0.0214658
-0.000692132
0.0206155
-0.000625379
0.0198368
-0.000560835
0.019128
-0.000498677
-0.000439061
0.0184872
0.0452933
-0.000584439
0.0441046
-0.000627279
0.0428226
-0.000655734
0.0414701
-0.000670036
0.0400688
-0.000672869
0.038637
-0.000667556
0.0371897
-0.000656663
0.0357392
-0.000641934
0.0342953
-0.000624683
0.0328654
-0.000605896
0.0314553
-0.000586216
0.0300696
-0.000566008
0.028712
-0.000545474
0.0273858
-0.000524723
0.0260937
-0.00050379
0.0248383
-0.000482671
0.023622
-0.000461344
0.0224471
-0.000439801
0.0213155
-0.000418048
0.0202294
-0.000396117
0.0191905
-0.000374054
0.0182004
-0.00035193
0.0172603
-0.000329819
0.0163713
-0.000307814
0.0155341
-0.000286
0.0147492
-0.000264474
0.0140166
-0.00024332
0.0133362
-0.000222625
0.0127075
-0.000202463
0.0121296
-0.000182906
0.0116015
-0.000164006
0.011122
-0.000145817
0.0106896
-0.000128367
0.0103026
-0.000111689
-9.57918e-05
0.0099594
0.01709
0.0164628
0.0158071
0.015137
0.0144642
0.0137966
0.01314
0.0124981
0.0118734
0.0112676
0.0106814
0.0101154
0.00956991
0.00904521
0.00854144
0.00805879
0.00759746
0.00715768
0.00673965
0.00634355
0.00596951
0.00561759
0.00528779
0.00497999
0.004694
0.00442954
0.00418623
0.00396362
0.00376117
0.00357827
0.00341427
0.00326846
0.0031401
0.00302841
0.00293263
5.33026e-05
-0.000429656
0.000479166
-0.000425722
0.000896981
-0.00041767
0.00130304
-0.000405911
0.00169413
-0.00039094
0.00206755
-0.000373268
0.00242114
-0.000353428
0.00275324
-0.000331947
0.00306272
-0.000309337
-0.000286072
0.00334894
0.00238646
-0.00136439
0.00330929
-0.00134822
0.00421267
-0.00132072
0.00509016
-0.00128305
0.00593608
-0.00123652
0.00674566
-0.0011825
0.00751498
-0.0011224
0.00824101
-0.00105764
0.00892157
-0.000989557
-0.000919452
0.00955527
0.0068858
-0.00258062
0.0080797
-0.00254186
0.00924351
-0.00248426
0.0103706
-0.00240981
0.011455
-0.00232073
0.0124921
-0.00221928
0.0134778
-0.00210783
0.0144091
-0.00198866
0.0152838
-0.00186403
-0.00173603
0.0161007
0.0133837
-0.00391103
0.0146784
-0.00383635
0.0159309
-0.00373656
0.0171358
-0.00361452
0.0182886
-0.00347333
0.0193857
-0.00331615
0.0204242
-0.00314618
0.0214023
-0.00296654
0.0223188
-0.00278025
-0.0025901
0.023173
0.0214972
-0.00522967
0.0227649
-0.00510398
0.0239774
-0.00494891
0.0251312
-0.00476823
0.0262239
-0.00456585
0.0272537
-0.00434578
0.0282196
-0.00411195
0.0291214
-0.00386819
0.0299594
-0.00361811
-0.00336508
0.0307345
0.0306368
-0.00643189
0.0317739
-0.00624103
0.0328441
-0.00601897
0.0338462
-0.0057703
0.0347802
-0.00549972
0.0356464
-0.00521189
0.0364459
-0.00491139
0.0371804
-0.00460254
0.0378517
-0.00428941
-0.00397572
0.0384625
0.0400745
-0.00741982
0.0409875
-0.00715397
0.0418263
-0.00685778
0.0425926
-0.00653651
0.0432883
-0.00619544
0.0439162
-0.00583974
0.0444792
-0.00547436
0.0449806
-0.00510397
0.0454241
-0.00473282
-0.00436478
0.0458131
0.0490112
-0.00810021
0.0496144
-0.00775715
0.0501438
-0.00738726
0.0506035
-0.00699622
0.0509977
-0.00658965
0.0513309
-0.00617291
0.0516076
-0.0057511
0.0518325
-0.00532888
0.0520101
-0.00491049
-0.00449967
0.052145
0.0566288
-0.00839465
0.0568537
-0.00798213
0.057015
-0.00754854
0.0571184
-0.00709968
0.0571698
-0.00664115
0.057175
-0.00617822
0.0571396
-0.00571575
0.0570688
-0.00525818
0.0569676
-0.0048094
-0.0043728
0.0568407
0.0621539
-0.00825704
0.061965
-0.00779332
0.0617322
-0.00731579
0.0614624
-0.00683
0.0611623
-0.00634118
0.0608382
-0.00585417
0.0604956
-0.00537332
0.0601399
-0.00490253
0.0597755
-0.00444513
-0.00400394
0.0594065
0.0649542
-0.00768964
0.0643627
-0.00720186
0.0637548
-0.00670798
0.0631376
-0.00621295
0.0625177
-0.00572131
0.0619006
-0.00523718
0.0612913
-0.00476419
0.0606941
-0.00430545
0.0601125
-0.0038636
-0.00344076
0.0595492
0.064653
-0.00675064
0.0637222
-0.00627109
0.0628066
-0.00579247
0.0619124
-0.00531884
0.0610448
-0.00485383
0.0602082
-0.00440066
0.0594059
-0.00396204
0.0586406
-0.00354027
0.0579141
-0.00313717
-0.00275418
0.0572274
0.0612198
-0.00554935
0.0600591
-0.0051104
0.0589443
-0.0046777
0.0578796
-0.00425427
0.0568685
-0.00384274
0.0559131
-0.00344534
0.0550148
-0.0030639
0.0541744
-0.00269988
0.0533915
-0.00235438
-0.00202821
0.0526654
0.0550015
-0.00422937
0.053749
-0.00385798
0.0525671
-0.00349579
0.0514576
-0.0031448
0.0504214
-0.00280665
0.0494587
-0.0024827
0.0485688
-0.00217399
0.0477501
-0.00188131
0.0470009
-0.00160519
-0.00134595
0.0463185
0.0466735
-0.00294294
0.0454715
-0.00265603
0.0443545
-0.00237878
0.043322
-0.00211229
0.0423728
-0.00185746
0.041505
-0.00161495
0.0407162
-0.00138524
0.0400035
-0.00116864
0.0393635
-0.000965301
-0.000775256
0.0387928
0.0371185
-0.0018225
0.0360869
-0.00162436
0.0351424
-0.00143432
0.034283
-0.00125288
0.033506
-0.00108041
0.0328082
-0.000917148
0.0321862
-0.000763233
0.0316362
-0.000618723
0.0311545
-0.000483587
-0.000357742
0.0307369
0.0272619
-0.000957276
0.0264774
-0.000839859
0.025771
-0.00072791
0.0251397
-0.000621576
0.0245803
-0.000520959
0.0240892
-0.000426091
0.0236629
-0.000336976
0.0232978
-0.000253566
0.0229899
-0.000175797
-0.000103567
0.0227357
0.017912
-0.000382084
0.0174
-0.000327829
0.0169485
-0.000276328
0.0165545
-0.00022761
0.0162152
-0.000181659
0.0159276
-0.000138468
0.0156886
-9.7993e-05
0.0154952
-6.02023e-05
0.0153444
-2.50366e-05
7.55071e-06
0.0152333
0.00965803
-8.06878e-05
0.00939659
-6.63709e-05
0.00917312
-5.28418e-05
0.0089856
-4.00844e-05
0.00883204
-2.80926e-05
0.00871042
-1.68463e-05
0.00861875
-6.3377e-06
0.00855509
3.45466e-06
0.00851749
1.25435e-05
2.09524e-05
0.00850407
0.00285194
0.00278557
0.00273273
0.00269265
0.00266456
0.00264771
0.00264137
0.00264483
0.00265737
0.00267832
0.00361167
-0.00026259
0.00385108
-0.000239272
0.00406767
-0.000216453
0.0042622
-0.000194407
0.00443567
-0.000173357
0.00458925
-0.000153471
0.00472422
-0.000134872
0.00484194
-0.000117636
0.00494383
-0.000101804
0.00503128
-8.73809e-05
0.00510569
-7.4349e-05
0.00516841
-6.26642e-05
0.00522072
-5.22694e-05
0.00526385
-4.30917e-05
0.00529893
-3.50527e-05
0.00532701
-2.80658e-05
0.00534907
-2.20447e-05
0.00536598
-1.69004e-05
0.00537854
-1.25475e-05
0.00538744
-8.90141e-06
0.00539332
-5.88346e-06
0.00539673
-3.41752e-06
0.00539816
-1.43389e-06
0.00539802
1.32679e-07
0.00539667
1.33868e-06
0.00539442
2.23724e-06
0.00539153
2.87817e-06
0.00538821
3.30718e-06
0.00538464
3.56465e-06
0.00538095
3.68707e-06
0.00537723
3.70661e-06
0.00537358
3.65202e-06
0.00537003
3.54868e-06
0.0053666
3.41907e-06
3.28329e-06
0.00536332
0.0101415
-0.000848502
0.0106803
-0.000777772
0.0111723
-0.000708195
0.0116188
-0.000640566
0.0120212
-0.000575543
0.0123816
-0.00051365
0.0127022
-0.000455283
0.0129855
-0.000400723
0.013234
-0.000350141
0.0134504
-0.000303619
0.0136374
-0.000261156
0.0137975
-0.000222686
0.0139334
-0.000188085
0.0140476
-0.00015719
0.0141424
-0.000129803
0.0142201
-0.000105705
0.0142827
-8.46602e-05
0.0143323
-6.64273e-05
0.0143705
-5.07614e-05
0.014399
-3.74216e-05
0.0144193
-2.61726e-05
0.0144327
-1.67892e-05
0.0144403
-9.05744e-06
0.0144432
-2.77666e-06
0.0144423
2.23928e-06
0.0144383
6.16208e-06
0.014432
9.15127e-06
0.014424
1.13541e-05
0.0144146
1.29048e-05
0.0144044
1.39252e-05
0.0143935
1.45248e-05
0.0143824
1.48022e-05
0.0143711
1.48456e-05
0.0143598
1.47339e-05
1.45375e-05
0.0143485
0.0168591
-0.00160662
0.0175591
-0.00147756
0.0182015
-0.0013504
0.0187877
-0.0012265
0.0193193
-0.00110698
0.0197986
-0.000992752
0.0202281
-0.00088453
0.0206103
-0.000782836
0.0209484
-0.000688019
0.0212451
-0.000600272
0.0215038
-0.000519653
0.0217273
-0.000446103
0.0219187
-0.000379465
0.0220811
-0.000319503
0.0222173
-0.000265918
0.02233
-0.000218366
0.0224218
-0.000176467
0.0224953
-0.000139821
0.0225525
-0.000108017
0.0225958
-8.06414e-05
0.0226269
-5.72862e-05
0.0226476
-3.75532e-05
0.0226596
-2.10598e-05
0.0226643
-7.44241e-06
0.0226629
3.64067e-06
0.0226565
1.25105e-05
0.0226462
1.94682e-05
0.0226327
2.47935e-05
0.0226169
2.8744e-05
0.0225992
3.15555e-05
0.0225803
3.34424e-05
0.0225605
3.45992e-05
0.0225401
3.52015e-05
0.0225195
3.54075e-05
3.53601e-05
0.0224986
0.0239653
-0.00239871
0.0246964
-0.0022084
0.0253674
-0.00202123
0.0259801
-0.001839
0.0265364
-0.00166318
0.0270389
-0.00149501
0.0274899
-0.00133542
0.0278923
-0.00118513
0.028249
-0.00104462
0.028563
-0.00091416
0.0288373
-0.000793846
0.0290749
-0.000683621
0.0292788
-0.000583295
0.0294519
-0.000492569
0.0295971
-0.000411057
0.0297171
-0.000338305
0.0298145
-0.00027381
0.0298917
-0.000217033
0.0299511
-0.000167415
0.0299949
-0.00012439
0.030025
-8.73902e-05
0.0300433
-5.58597e-05
0.0300514
-2.92583e-05
0.0300511
-7.06926e-06
0.0300435
1.12009e-05
0.03003
2.60232e-05
0.0300116
3.78414e-05
0.0299893
4.70696e-05
0.0299639
5.40918e-05
0.0299362
5.92624e-05
0.0299068
6.29064e-05
0.029876
6.53212e-05
0.0298445
6.67772e-05
0.0298124
6.752e-05
6.77718e-05
0.02978
0.0314481
-0.00311216
0.032102
-0.00286208
0.0326981
-0.00261725
0.0332389
-0.00237969
0.033727
-0.00215111
0.0341649
-0.00193287
0.0345557
-0.00172603
0.034902
-0.00153135
0.0352068
-0.00134934
0.035473
-0.00118027
0.0357034
-0.00102419
0.0359008
-0.000881004
0.036068
-0.000750435
0.0362076
-0.000632101
0.0363221
-0.000525513
0.0364139
-0.000430105
0.0364854
-0.000345255
0.0365386
-0.000270299
0.0365758
-0.000204549
0.0365987
-0.000147304
0.0366092
-9.78657e-05
0.0366088
-5.55447e-05
0.0365992
-1.96726e-05
0.0365818
1.03978e-05
0.0365577
3.52952e-05
0.036528
5.56193e-05
0.0364939
7.19343e-05
0.0364562
8.47691e-05
0.0364157
9.46172e-05
0.036373
0.000101937
0.0363288
0.000107152
0.0362835
0.000110651
0.0362375
0.000112792
0.0361911
0.0001139
0.000114272
0.0361446
0.0390152
-0.00366481
0.0395129
-0.00335963
0.0399584
-0.00306269
0.0403549
-0.00277613
0.0407055
-0.00250166
0.0410134
-0.00224064
0.0412815
-0.00199409
0.0415129
-0.00176269
0.0417104
-0.00154684
0.0418769
-0.00134672
0.042015
-0.00116225
0.0421272
-0.000993201
0.042216
-0.000839174
0.0422836
-0.000699647
0.0423321
-0.000573999
0.0423635
-0.000461532
0.0423798
-0.000361494
0.0423826
-0.000273095
0.0423735
-0.000195525
0.0423542
-0.000127965
0.0423259
-6.96045e-05
0.04229
-1.96501e-05
0.0422476
2.26781e-05
0.0421999
5.81462e-05
0.0421477
8.74856e-05
0.0420919
0.000111389
0.0420333
0.000130511
0.0419726
0.000145468
0.0419104
0.000156838
0.0418472
0.000165159
0.0417834
0.000170929
0.0417194
0.000174611
0.0416556
0.000176628
0.0415922
0.000177369
0.00017719
0.0415293
0.0461516
-0.00400326
0.0464432
-0.00365118
0.0466915
-0.00331104
0.0469003
-0.00298484
0.0470729
-0.00267421
0.0472125
-0.00238032
0.0473225
-0.00210401
0.0474056
-0.0018458
0.0474647
-0.00160589
0.0475022
-0.00138426
0.0475206
-0.00118065
0.0475221
-0.000994641
0.0475086
-0.000825656
0.0474819
-0.000673009
0.0474438
-0.000535918
0.0473958
-0.000413541
0.0473393
-0.000304987
0.0472755
-0.000209339
0.0472057
-0.000125674
0.0471308
-5.30708e-05
0.0470518
9.37429e-06
0.0469696
6.25677e-05
0.0468848
0.000107391
0.0467983
0.00014468
0.0467105
0.000175236
0.0466221
0.000199818
0.0465334
0.000219146
0.046445
0.000233897
0.0463571
0.000244707
0.0462701
0.000252167
0.0461842
0.000256828
0.0460996
0.0002592
0.0460165
0.000259751
0.045935
0.000258913
0.000257082
0.0458551
0.0522413
-0.00409966
0.0523033
-0.0037132
0.0523348
-0.00334252
0.0523393
-0.00298941
0.0523203
-0.00265519
0.0522807
-0.00234079
0.0522235
-0.00204678
0.0521511
-0.00177342
0.0520658
-0.00152066
0.0519698
-0.00128824
0.0518648
-0.0010757
0.0517525
-0.000882397
0.0516344
-0.000707582
0.0515118
-0.000550389
0.0513857
-0.000409887
0.0512572
-0.00028509
0.0511272
-0.000174986
0.0509964
-7.85517e-05
0.0508655
5.22558e-06
0.050735
7.73712e-05
0.0506055
0.000138896
0.0504773
0.000190764
0.0503508
0.000233903
0.0502262
0.000269202
0.0501039
0.000297512
0.0499841
0.000319635
0.0498669
0.000336333
0.0497525
0.000348319
0.0496409
0.000356262
0.0495323
0.000360783
0.0494267
0.000362462
0.049324
0.000361833
0.0492244
0.000359392
0.0491277
0.000355591
0.000350847
0.049034
0.0566922
-0.00395124
0.056526
-0.00354707
0.0563455
-0.00316213
0.0561539
-0.00279783
0.0559537
-0.00245514
0.0557475
-0.00213464
0.0555373
-0.00183659
0.0553247
-0.00156094
0.0551114
-0.00130742
0.0548987
-0.00107551
0.0546875
-0.000864548
0.0544787
-0.000673715
0.0542732
-0.000502091
0.0540715
-0.000348678
0.053874
-0.000212421
0.0536811
-9.22361e-05
0.0534931
1.29686e-05
0.0533102
0.000104301
0.0531325
0.000182864
0.0529602
0.000249722
0.0527931
0.000305907
0.0526315
0.000352419
0.0524751
0.000390221
0.0523241
0.000420226
0.0521783
0.000443306
0.0520376
0.000460283
0.051902
0.000471931
0.0517713
0.000478976
0.0516455
0.000482097
0.0515243
0.000481924
0.0514078
0.000479043
0.0512956
0.000473997
0.0511877
0.000467284
0.0510839
0.000459363
0.000450654
0.0509841
0.0590365
-0.00358129
0.0586683
-0.00317899
0.0583045
-0.0027984
0.057947
-0.00244047
0.0575975
-0.00210576
0.0572573
-0.00179451
0.0569273
-0.00150665
0.0566081
-0.00124187
0.0563003
-0.000999647
0.056004
-0.000779292
0.0557194
-0.000579969
0.0554463
-0.000400735
0.0551847
-0.000240565
0.0549344
-9.83739e-05
0.054695
2.69486e-05
0.0544662
0.000136531
0.0542476
0.000231503
0.0540389
0.000312981