/*--------------------------------*- C++ -*----------------------------------*\
| =========                 |                                                 |
| \\      /  F ield         | OpenFOAM: The Open Source CFD Toolbox           |
|  \\    /   O peration     | Version:  2406                                  |
|   \\  /    A nd           | Website:  www.openfoam.com                      |
|    \\/     M anipulation  |                                                 |
\*---------------------------------------------------------------------------*/
FoamFile
{
    version     2.0;
    format      ascii;
    arch        "LSB;label=32;scalar=64";
    class       volScalarField;
    location    "33";
    object      p;
}
// * * * * * * * * * * * * * * * * * * * * * * * * * * * * * * * * * * * * * //

dimensions      [0 2 -2 0 0 0 0];

internalField   nonuniform List<scalar> 
1900
(
0.375896
0.354899
0.33141
0.307383
0.281699
0.253875
0.223503
0.189777
0.151555
0.10086
0.382814
0.357153
0.331333
0.307042
0.281446
0.253739
0.223888
0.191504
0.155817
0.115951
0.387957
0.359716
0.332448
0.308435
0.28358
0.256803
0.228613
0.199456
0.169969
0.142137
0.393137
0.363904
0.335916
0.312434
0.288765
0.263598
0.237858
0.21251
0.188493
0.167461
0.398775
0.369195
0.341022
0.318158
0.295718
0.272266
0.248899
0.226729
0.206513
0.189221
0.403984
0.374379
0.346492
0.324272
0.302851
0.280844
0.259357
0.239414
0.221527
0.206175
0.407709
0.378406
0.351199
0.329508
0.308722
0.287708
0.267475
0.248848
0.232149
0.217604
0.409072
0.380709
0.354492
0.333014
0.31238
0.291855
0.272264
0.254199
0.237883
0.223463
0.40691
0.38098
0.356097
0.334453
0.31354
0.293041
0.273545
0.255461
0.238993
0.224301
0.400447
0.378967
0.356056
0.334338
0.31309
0.292396
0.27269
0.254302
0.237465
0.22238
0.134589
0.133727
0.134021
0.136112
0.13984
0.144932
0.151101
0.158057
0.165511
0.173181
0.1808
0.188125
0.194944
0.201085
0.206416
0.210851
0.214341
0.216875
0.218476
0.219192
0.219091
0.218253
0.216766
0.214721
0.212206
0.209306
0.206098
0.202652
0.199029
0.195282
0.191454
0.187582
0.183695
0.179815
0.175959
0.135524
0.134638
0.13496
0.136983
0.14049
0.145248
0.151034
0.157606
0.164701
0.172056
0.179408
0.186519
0.193176
0.199203
0.204466
0.208871
0.212365
0.214935
0.216599
0.217399
0.217399
0.216676
0.215312
0.213396
0.211012
0.208242
0.205162
0.201837
0.19833
0.194689
0.19096
0.187177
0.18337
0.179561
0.175767
0.135147
0.13422
0.134591
0.136646
0.140073
0.144664
0.150243
0.156604
0.163506
0.170694
0.177912
0.184918
0.191499
0.197475
0.202709
0.207106
0.210611
0.21321
0.214917
0.215776
0.215848
0.215208
0.213936
0.212118
0.209838
0.207174
0.2042
0.200982
0.197576
0.194034
0.190398
0.186701
0.182974
0.179237
0.175509
0.132408
0.13165
0.132289
0.134617
0.138249
0.14298
0.148657
0.15509
0.162051
0.169289
0.176548
0.183587
0.190189
0.196178
0.201417
0.205813
0.209315
0.21191
0.213617
0.214482
0.214568
0.213951
0.212714
0.21094
0.208714
0.206113
0.203209
0.200065
0.196738
0.193275
0.189718
0.1861
0.182448
0.178783
0.175122
0.126902
0.126778
0.128171
0.131177
0.135369
0.14055
0.146585
0.153303
0.160487
0.167896
0.175278
0.182398
0.189045
0.195046
0.200272
0.204636
0.208095
0.210643
0.212305
0.213132
0.213192
0.212563
0.211329
0.209576
0.207386
0.204834
0.201992
0.19892
0.195672
0.192294
0.188824
0.185294
0.181729
0.178148
0.174568
0.118257
0.119555
0.122486
0.126763
0.131948
0.137888
0.14449
0.151624
0.159108
0.16672
0.174223
0.181394
0.188035
0.193986
0.19913
0.203394
0.206743
0.209184
0.210749
0.211494
0.211494
0.210828
0.209582
0.207842
0.205686
0.203189
0.200419
0.197433
0.194281
0.191007
0.187645
0.184224
0.180767
0.177293
0.173815
0.105939
0.109976
0.115681
0.121989
0.128607
0.135558
0.142858
0.150457
0.158229
0.165991
0.173535
0.180659
0.187187
0.192979
0.197937
0.202002
0.205157
0.207418
0.208828
0.20945
0.20936
0.208641
0.207377
0.205651
0.203541
0.201115
0.198437
0.19556
0.19253
0.189386
0.186158
0.182874
0.179551
0.176208
0.172856
0.0874312
0.0975528
0.108392
0.117595
0.125962
0.134076
0.142109
0.150118
0.158077
0.165863
0.173307
0.180237
0.186504
0.191997
0.19664
0.200398
0.203268
0.205278
0.206481
0.206944
0.206745
0.205966
0.20469
0.202993
0.200947
0.198617
0.196058
0.193319
0.190441
0.187455
0.184391
0.181269
0.178108
0.174919
0.171715
0.0524436
0.080415
0.10121
0.114115
0.124398
0.133768
0.142495
0.150782
0.158755
0.166382
0.173541
0.180097
0.185938
0.190982
0.195183
0.198527
0.201031
0.202732
0.20369
0.203975
0.203664
0.202835
0.201562
0.199918
0.197965
0.19576
0.193352
0.190781
0.188083
0.185284
0.182409
0.179474
0.176495
0.173482
0.170444
0.00384013
0.0631574
0.0967271
0.112934
0.124674
0.135035
0.144224
0.152543
0.160283
0.167514
0.174172
0.180161
0.185407
0.189864
0.193512
0.196361
0.198441
0.1998
0.2005
0.200609
0.2002
0.199341
0.198101
0.196539
0.194711
0.192662
0.190434
0.188059
0.185566
0.182976
0.180309
0.177578
0.174795
0.17197
0.169109
0.0495085
0.0774754
0.104436
0.118315
0.12882
0.138715
0.147601
0.155482
0.162633
0.169177
0.175092
0.180322
0.184824
0.188581
0.191601
0.193908
0.195543
0.196559
0.197014
0.196971
0.196493
0.195639
0.194465
0.193019
0.191345
0.189479
0.187454
0.185294
0.183022
0.180654
0.178204
0.175684
0.173102
0.170468
0.167786
0.0884732
0.0990701
0.116282
0.127384
0.136192
0.144715
0.152549
0.159475
0.165653
0.171207
0.17615
0.180455
0.184103
0.187098
0.18946
0.191225
0.192434
0.193138
0.193387
0.193235
0.19273
0.191919
0.190844
0.189543
0.188046
0.186382
0.184572
0.182635
0.180587
0.17844
0.176206
0.173893
0.171508
0.169057
0.166547
0.123825
0.124151
0.132437
0.139869
0.146311
0.15269
0.158749
0.164191
0.169028
0.173338
0.177139
0.180419
0.183171
0.185403
0.187138
0.188408
0.18925
0.189702
0.189804
0.189595
0.189109
0.188378
0.187432
0.186294
0.184987
0.183528
0.181932
0.180213
0.178381
0.176444
0.174412
0.17229
0.170086
0.167804
0.16545
0.152911
0.148487
0.150512
0.153985
0.157585
0.161432
0.165314
0.168943
0.172228
0.175177
0.177793
0.180059
0.181964
0.183509
0.184705
0.185573
0.186136
0.186418
0.186443
0.186232
0.185807
0.185186
0.184386
0.18342
0.182301
0.18104
0.179646
0.178126
0.17649
0.174742
0.172888
0.170935
0.168889
0.166753
0.164533
0.176441
0.169623
0.167419
0.167306
0.168058
0.169401
0.171099
0.172896
0.174651
0.176314
0.177855
0.17924
0.180442
0.181443
0.182239
0.182831
0.183223
0.183424
0.18344
0.18328
0.18295
0.182458
0.181809
0.181011
0.180068
0.178987
0.177771
0.176427
0.174958
0.17337
0.171667
0.169855
0.167939
0.165923
0.163814
0.194058
0.185745
0.18072
0.177787
0.176105
0.175303
0.175129
0.175357
0.17583
0.176455
0.177164
0.177898
0.178607
0.179254
0.179812
0.180263
0.180596
0.1808
0.18087
0.1808
0.180589
0.180235
0.179736
0.179093
0.178308
0.177382
0.176318
0.175119
0.173788
0.172329
0.170747
0.169047
0.167233
0.165312
0.163289
0.205524
0.196145
0.18927
0.18434
0.180842
0.178442
0.176897
0.175998
0.175579
0.175513
0.175701
0.176056
0.176507
0.176995
0.177476
0.177915
0.178284
0.178563
0.178735
0.178786
0.178708
0.178492
0.178135
0.177632
0.176983
0.176188
0.175249
0.174167
0.172945
0.171588
0.170099
0.168484
0.166749
0.164899
0.16294
0.211113
0.200957
0.19292
0.186733
0.182081
0.178693
0.176337
0.174807
0.173923
0.173536
0.173516
0.173757
0.174168
0.174675
0.175219
0.175754
0.176241
0.176653
0.176965
0.17716
0.177223
0.177147
0.176923
0.176549
0.176019
0.175337
0.174501
0.173514
0.172379
0.171101
0.169685
0.168135
0.166458
0.16466
0.162747
0.211539
0.20081
0.192094
0.185241
0.180027
0.176212
0.173564
0.171864
0.170915
0.170543
0.170602
0.170965
0.17153
0.172211
0.172942
0.173668
0.174346
0.174943
0.175433
0.175797
0.176019
0.17609
0.176002
0.175751
0.175335
0.174755
0.174011
0.173107
0.172046
0.170834
0.169475
0.167977
0.166344
0.164585
0.162706
0.209216
0.198087
0.189006
0.181866
0.176471
0.172583
0.169956
0.168352
0.167555
0.167375
0.167649
0.16824
0.169038
0.169952
0.170909
0.171851
0.172734
0.173522
0.17419
0.174716
0.175088
0.175294
0.175328
0.175187
0.174869
0.174376
0.17371
0.172874
0.171872
0.170712
0.169398
0.167938
0.166339
0.164607
0.162751
0.172141
0.168368
0.164647
0.16098
0.157369
0.153812
0.15031
0.146858
0.143455
0.140097
0.172003
0.168277
0.164595
0.160961
0.157377
0.153843
0.150358
0.14692
0.143528
0.140177
0.171803
0.168127
0.16449
0.160894
0.157343
0.153836
0.150374
0.146954
0.143576
0.140236
0.171478
0.16786
0.164274
0.160724
0.157214
0.153743
0.150311
0.146919
0.143563
0.140242
0.171
0.167453
0.163932
0.160442
0.156985
0.153562
0.150173
0.146817
0.143493
0.1402
0.170343
0.166886
0.163449
0.160036
0.156648
0.153288
0.149955
0.146648
0.143368
0.140112
0.169503
0.166158
0.162824
0.159506
0.156205
0.152922
0.149659
0.146414
0.143188
0.13998
0.168503
0.165288
0.162076
0.158869
0.155669
0.152478
0.149297
0.146125
0.142963
0.139812
0.167388
0.164319
0.161241
0.158157
0.155069
0.151979
0.148888
0.145797
0.142707
0.139618
0.166218
0.163303
0.160366
0.157411
0.154441
0.151456
0.14846
0.145454
0.142438
0.139415
0.165062
0.1623
0.159504
0.156678
0.153823
0.150944
0.148041
0.145118
0.142177
0.139218
0.163982
0.161366
0.158703
0.155997
0.153252
0.150471
0.147656
0.144811
0.141939
0.139041
0.163028
0.160544
0.158001
0.155404
0.152756
0.150062
0.147326
0.14455
0.141739
0.138895
0.162235
0.159863
0.157422
0.154917
0.152352
0.149733
0.147062
0.144345
0.141585
0.138786
0.161617
0.159336
0.156977
0.154546
0.152048
0.149488
0.14687
0.144199
0.141479
0.138716
0.161169
0.158959
0.156663
0.154289
0.151841
0.149325
0.146747
0.14411
0.141421
0.138684
0.160877
0.158719
0.156469
0.154136
0.151724
0.14924
0.146689
0.144077
0.141408
0.138689
0.160727
0.158604
0.156387
0.154081
0.151694
0.149231
0.146698
0.1441
0.141444
0.138734
0.160714
0.158616
0.15642
0.154131
0.151758
0.149306
0.146781
0.14419
0.141539
0.138832
0.160778
0.158696
0.156512
0.154234
0.151868
0.149421
0.1469
0.14431
0.141659
0.138952
0.13678
0.133501
0.130257
0.127045
0.12386
0.1207
0.117562
0.114443
0.111342
0.108255
0.105181
0.102117
0.0990628
0.0960159
0.0929751
0.0899391
0.0869068
0.0838771
0.0808491
0.077822
0.0747952
0.0717679
0.0687396
0.06571
0.0626785
0.059645
0.0566091
0.0535706
0.0505296
0.0474858
0.0444392
0.0413899
0.038338
0.0352834
0.0322263
0.136865
0.133589
0.130346
0.127133
0.123946
0.120784
0.117642
0.11452
0.111414
0.108322
0.105243
0.102175
0.099115
0.0960629
0.0930171
0.0899762
0.0869392
0.0839051
0.0808729
0.0778419
0.0748115
0.0717809
0.0687496
0.0657172
0.0626834
0.0596477
0.05661
0.0535701
0.0505277
0.0474829
0.0444355
0.0413856
0.0383332
0.0352783
0.0322211
0.136933
0.133663
0.130423
0.127212
0.124025
0.120862
0.117718
0.114593
0.111483
0.108388
0.105304
0.102231
0.0991667
0.0961099
0.0930594
0.0900139
0.0869725
0.0839341
0.0808979
0.0778632
0.0748292
0.0717954
0.0687613
0.0657263
0.0626902
0.0596525
0.056613
0.0535715
0.0505279
0.047482
0.0444337
0.0413831
0.0383302
0.0352749
0.0322175
0.136954
0.133696
0.130466
0.127262
0.124081
0.120921
0.11778
0.114655
0.111545
0.108448
0.105363
0.102287
0.0992197
0.0961596
0.0931055
0.0900564
0.0870112
0.0839691
0.0809293
0.077891
0.0748537
0.0718167
0.0687795
0.0657417
0.0627029
0.0596629
0.0566212
0.0535778
0.0505325
0.0474851
0.0444356
0.0413839
0.0383301
0.0352741
0.032216
0.136935
0.133697
0.130483
0.127292
0.124121
0.120969
0.117833
0.114712
0.111605
0.108509
0.105424
0.102347
0.0992782
0.0962159
0.0931591
0.0901068
0.0870583
0.0840127
0.0809693
0.0779274
0.0748865
0.071846
0.0688054
0.0657644
0.0627226
0.0596797
0.0566354
0.0535896
0.0505421
0.0474927
0.0444414
0.0413882
0.038333
0.0352759
0.0322169
0.136879
0.133668
0.130477
0.127305
0.12415
0.12101
0.117884
0.114771
0.111669
0.108576
0.105493
0.102416
0.099347
0.0962831
0.0932241
0.090169
0.0871172
0.084068
0.0810208
0.0779749
0.0749299
0.0718854
0.0688408
0.0657959
0.0627504
0.059704
0.0566564
0.0536075
0.0505571
0.0475051
0.0444515
0.0413961
0.0383391
0.0352803
0.0322199
0.136789
0.133613
0.130452
0.127306
0.124171
0.121048
0.117936
0.114833
0.111739
0.108652
0.105572
0.102497
0.0994284
0.0963637
0.0933028
0.0902451
0.0871899
0.0841368
0.0810853
0.0780349
0.0749853
0.071936
0.0688867
0.0658372
0.0627872
0.0597364
0.0566847
0.0536318
0.0505778
0.0475225
0.0444658
0.0414077
0.0383482
0.0352872
0.0322249
0.136669
0.133536
0.130412
0.127296
0.124187
0.121085
0.11799
0.1149
0.111816
0.108737
0.105662
0.10259
0.0995226
0.0964576
0.0933951
0.0903348
0.0872762
0.0842189
0.0811627
0.0781073
0.0750524
0.0719977
0.0689429
0.0658879
0.0628326
0.0597766
0.0567199
0.0536624
0.050604
0.0475446
0.0444842
0.0414227
0.0383602
0.0352965
0.0322318
0.136531
0.133445
0.130361
0.12728
0.1242
0.121122
0.118046
0.114972
0.1119
0.10883
0.105761
0.102694
0.0996278
0.0965629
0.0934991
0.0904361
0.0873739
0.0843123
0.081251
0.0781901
0.0751293
0.0720686
0.0690077
0.0659466
0.0628852
0.0598234
0.0567611
0.0536983
0.0506349
0.0475708
0.0445061
0.0414406
0.0383745
0.0353077
0.0322403
0.136385
0.133349
0.130308
0.127263
0.124214
0.121162
0.118107
0.115049
0.11199
0.10893
0.105868
0.102805
0.0997407
0.0966761
0.093611
0.0905454
0.0874795
0.0844132
0.0813467
0.0782799
0.0752129
0.0721457
0.0690783
0.0660106
0.0629427
0.0598746
0.0568062
0.0537376
0.0506688
0.0475996
0.0445302
0.0414605
0.0383905
0.0353203
0.0322498
0.136245
0.133258
0.13026
0.12725
0.124232
0.121205
0.11817
0.11513
0.112084
0.109033
0.105977
0.102919
0.099857
0.0967926
0.0937262
0.0906579
0.0875881
0.0845171
0.0814451
0.0783724
0.075299
0.0722252
0.069151
0.0660766
0.0630021
0.0599275
0.0568529
0.0537783
0.0507038
0.0476295
0.0445552
0.0414811
0.0384072
0.0353334
0.0322598
0.136121
0.13318
0.130221
0.127246
0.124255
0.121252
0.118237
0.115212
0.112178
0.109135
0.106086
0.103032
0.0999716
0.0969073
0.0938393
0.0907682
0.0876946
0.0846188
0.0815415
0.0784628
0.0753831
0.0723028
0.069222
0.066141
0.06306
0.059979
0.0568983
0.0538179
0.050738
0.0476585
0.0445795
0.0415011
0.0384233
0.0353461
0.0322694
0.136022
0.133122
0.130197
0.127251
0.124286
0.121303
0.118305
0.115293
0.112269
0.109234
0.106191
0.103139
0.10008
0.0970152
0.0939454
0.0908714
0.0877939
0.0847136
0.081631
0.0785467
0.075461
0.0723746
0.0692876
0.0662004
0.0631133
0.0600264
0.05694
0.0538542
0.0507692
0.047685
0.0446017
0.0415194
0.038438
0.0353576
0.0322781
0.135952
0.133085
0.13019
0.127268
0.124323
0.121357
0.118373
0.115371
0.112355
0.109326
0.106286
0.103236
0.100178
0.0971123
0.0940404
0.0909634
0.0878821
0.0847974
0.08171
0.0786204
0.0755294
0.0724374
0.0693448
0.066252
0.0631595
0.0600674
0.0569759
0.0538854
0.0507959
0.0477076
0.0446205
0.0415348
0.0384503
0.0353672
0.0322853
0.135912
0.133072
0.130199
0.127296
0.124367
0.121413
0.118438
0.115445
0.112434
0.109409
0.106371
0.103322
0.100263
0.0971961
0.0941219
0.0910418
0.0879569
0.084868
0.0817762
0.0786819
0.0755861
0.0724892
0.0693918
0.0662942
0.0631971
0.0601005
0.057005
0.0539104
0.0508173
0.0477255
0.0446354
0.0415467
0.0384598
0.0353744
0.0322907
0.135902
0.133081
0.130224
0.127334
0.124415
0.121471
0.118502
0.115513
0.112506
0.109483
0.106445
0.103396
0.100336
0.0972663
0.0941894
0.0911061
0.0880177
0.084925
0.0818291
0.0787308
0.0756308
0.0725297
0.0694282
0.0663268
0.0632258
0.0601256
0.0570266
0.0539289
0.0508328
0.0477384
0.0446458
0.041555
0.0384661
0.0353791
0.032294
0.135922
0.133113
0.130266
0.127385
0.124472
0.121532
0.118566
0.115579
0.112573
0.109549
0.106511
0.10346
0.100397
0.0973251
0.094245
0.0911585
0.0880663
0.0849702
0.0818703
0.0787684
0.0756646
0.0725601
0.069455
0.0663504
0.0632461
0.0601432
0.0570413
0.0539414
0.0508428
0.0477466
0.0446519
0.0415598
0.0384693
0.0353814
0.032295
0.135976
0.133173
0.130331
0.127452
0.124542
0.121602
0.118637
0.115649
0.112641
0.109615
0.106574
0.103519
0.100453
0.0973771
0.0942935
0.0912027
0.088107
0.0850065
0.0819033
0.0787973
0.0756903
0.0725821
0.0694742
0.0663664
0.0632598
0.0601541
0.0570503
0.053948
0.0508481
0.0477499
0.0446544
0.0415607
0.0384697
0.0353805
0.032294
0.136075
0.133272
0.130429
0.127548
0.124635
0.121692
0.118722
0.11573
0.112717
0.109686
0.106639
0.103579
0.100508
0.0974273
0.0943383
0.0912429
0.0881422
0.0850375
0.0819298
0.0788201
0.0757092
0.0725979
0.0694868
0.0663764
0.0632671
0.0601595
0.0570537
0.05395
0.0508485
0.0477494
0.0446527
0.0415586
0.0384668
0.0353774
0.0322903
0.136193
0.133387
0.13054
0.127656
0.124737
0.121789
0.118814
0.115816
0.112797
0.10976
0.106708
0.103642
0.100565
0.0974783
0.0943838
0.091283
0.0881772
0.0850678
0.0819556
0.0788417
0.075727
0.0726122
0.0694979
0.0663847
0.063273
0.0601631
0.0570554
0.0539501
0.0508472
0.047747
0.0446495
0.0415546
0.0384623
0.0353726
0.0322854
0.0291668
0.0261051
0.0230413
0.0199756
0.0169081
0.0138388
0.010768
0.00769645
0.00462166
0.00154282
0.0291615
0.0260999
0.0230362
0.0199708
0.0169036
0.0138338
0.010763
0.00769748
0.00461369
0.00153247
0.0291578
0.0260961
0.0230325
0.0199672
0.0169003
0.0138304
0.0107597
0.00769687
0.00461323
0.00153346
0.029156
0.0260939
0.0230301
0.0199647
0.0168976
0.013828
0.0107574
0.00769443
0.00461027
0.00153331
0.029156
0.0260933
0.023029
0.0199632
0.0168959
0.0138262
0.010756
0.00769273
0.00460696
0.00153286
0.0291578
0.0260941
0.023029
0.0199626
0.0168948
0.0138249
0.0107547
0.00769138
0.00460404
0.00153258
0.0291612
0.0260962
0.0230299
0.0199626
0.0168941
0.0138237
0.0107534
0.00768975
0.00460091
0.00153185
0.029166
0.0260993
0.0230316
0.0199631
0.0168937
0.0138226
0.010752
0.00768789
0.00459769
0.00153061
0.0291721
0.0261033
0.023034
0.0199641
0.0168935
0.0138216
0.0107505
0.00768593
0.00459467
0.001529
0.029179
0.026108
0.0230368
0.0199654
0.0168936
0.0138208
0.0107491
0.00768396
0.00459205
0.00152715
0.0291863
0.026113
0.0230398
0.0199668
0.0168938
0.0138201
0.0107477
0.00768212
0.00458998
0.00152522
0.0291933
0.0261178
0.0230427
0.0199683
0.0168941
0.0138195
0.0107464
0.00768044
0.00458859
0.00152336
0.0291997
0.0261221
0.0230454
0.0199695
0.0168944
0.0138189
0.0107453
0.00767904
0.00458793
0.00152171
0.0292048
0.0261255
0.0230474
0.0199705
0.0168945
0.0138184
0.0107443
0.00767787
0.00458796
0.00152039
0.0292085
0.0261279
0.0230486
0.0199709
0.0168942
0.0138179
0.0107432
0.00767691
0.00458848
0.00151939
0.0292106
0.0261289
0.0230489
0.0199706
0.0168936
0.0138169
0.010742
0.00767581
0.00458929
0.00151876
0.029211
0.0261285
0.0230482
0.0199693
0.0168925
0.0138154
0.0107404
0.00767485
0.00459067
0.00151893
0.0292091
0.0261267
0.0230457
0.0199672
0.01689
0.0138133
0.0107384
0.00767372
0.00459124
0.00151902
0.0292055
0.0261228
0.0230421
0.0199633
0.0168864
0.0138099
0.0107355
0.00766919
0.00458815
0.00151744
0.0292005
0.0261178
0.0230371
0.0199584
0.0168815
0.0138061
0.0107323
0.00766065
0.00458893
0.00152301
)
;

boundaryField
{
    inlet
    {
        type            zeroGradient;
    }
    outlet
    {
        type            fixedValue;
        value           uniform 0;
    }
    upperWall
    {
        type            zeroGradient;
    }
    lowerWall
    {
        type            zeroGradient;
    }
    frontAndBack
    {
        type            empty;
    }
}


// ************************************************************************* //
