/*--------------------------------*- C++ -*----------------------------------*\
| =========                 |                                                 |
| \\      /  F ield         | OpenFOAM: The Open Source CFD Toolbox           |
|  \\    /   O peration     | Version:  2406                                  |
|   \\  /    A nd           | Website:  www.openfoam.com                      |
|    \\/     M anipulation  |                                                 |
\*---------------------------------------------------------------------------*/
FoamFile
{
    version     2.0;
    format      ascii;
    arch        "LSB;label=32;scalar=64";
    class       volVectorField;
    location    "33";
    object      U;
}
// * * * * * * * * * * * * * * * * * * * * * * * * * * * * * * * * * * * * * //

dimensions      [0 1 -1 0 0 0 0];

internalField   nonuniform List<vector> 
1900
(
(0.188048 -0.00168748 0)
(0.195422 -0.00165164 0)
(0.200338 -0.00128169 0)
(0.204219 -0.00133333 0)
(0.208851 -0.00164149 0)
(0.214864 -0.00221609 0)
(0.222985 -0.00333057 0)
(0.234774 -0.00568458 0)
(0.254944 -0.0130347 0)
(0.281943 -0.0458887 0)
(0.504412 -0.00386744 0)
(0.509375 -0.00661931 0)
(0.514858 -0.00704202 0)
(0.520011 -0.00787847 0)
(0.526891 -0.00968655 0)
(0.536141 -0.0126462 0)
(0.548218 -0.0174728 0)
(0.564105 -0.0256554 0)
(0.58539 -0.0403945 0)
(0.607958 -0.0709772 0)
(0.745142 -0.00336812 0)
(0.748539 -0.00779664 0)
(0.7524 -0.0106261 0)
(0.755894 -0.0135394 0)
(0.761166 -0.0173787 0)
(0.76867 -0.0226384 0)
(0.778242 -0.0301605 0)
(0.789786 -0.0413496 0)
(0.802816 -0.0584073 0)
(0.813984 -0.0850073 0)
(0.905646 -0.00300294 0)
(0.908283 -0.00814257 0)
(0.910741 -0.0125165 0)
(0.912025 -0.0170276 0)
(0.914318 -0.022402 0)
(0.918038 -0.0291811 0)
(0.92266 -0.0380786 0)
(0.927559 -0.0500524 0)
(0.931746 -0.0661706 0)
(0.932973 -0.0873289 0)
(0.985814 -0.0027039 0)
(0.987816 -0.00778374 0)
(0.988999 -0.012675 0)
(0.988149 -0.0178553 0)
(0.987385 -0.0238025 0)
(0.987095 -0.0309626 0)
(0.986608 -0.0398425 0)
(0.985153 -0.050978 0)
(0.981791 -0.0647689 0)
(0.97505 -0.0811981 0)
(0.985745 -0.00217073 0)
(0.987151 -0.00653013 0)
(0.987106 -0.011164 0)
(0.984345 -0.0162026 0)
(0.980945 -0.0218411 0)
(0.977225 -0.028404 0)
(0.972455 -0.0362203 0)
(0.965884 -0.0455342 0)
(0.956751 -0.056413 0)
(0.944103 -0.0685845 0)
(0.905447 -0.00125076 0)
(0.90636 -0.00433386 0)
(0.905296 -0.00821604 0)
(0.901113 -0.0125347 0)
(0.895867 -0.01721 0)
(0.889752 -0.0224789 0)
(0.882023 -0.028543 0)
(0.872017 -0.0354703 0)
(0.859168 -0.0431895 0)
(0.84288 -0.0514164 0)
(0.744836 0.000271402 0)
(0.745651 -0.00125856 0)
(0.744284 -0.00432637 0)
(0.739708 -0.00766371 0)
(0.733871 -0.0109979 0)
(0.726823 -0.0145694 0)
(0.717882 -0.0185145 0)
(0.706545 -0.0228249 0)
(0.69245 -0.0274141 0)
(0.675278 -0.0320897 0)
(0.504093 0.00218466 0)
(0.506291 0.00177405 0)
(0.50619 -0.000808096 0)
(0.502799 -0.00308702 0)
(0.497987 -0.00492534 0)
(0.49185 -0.0067014 0)
(0.483939 -0.00854138 0)
(0.473989 -0.0104362 0)
(0.461848 -0.0123491 0)
(0.447415 -0.0142013 0)
(0.18786 0.00131244 0)
(0.19362 0.000731826 0)
(0.195202 -5.20261e-05 0)
(0.194065 -0.00041899 0)
(0.191911 -0.00066016 0)
(0.188926 -0.000904023 0)
(0.184983 -0.00114341 0)
(0.180048 -0.00135908 0)
(0.174127 -0.00154909 0)
(0.167243 -0.00171263 0)
(-0.000308788 0.000298384 0)
(-0.00299898 0.000898263 0)
(-0.00733806 0.0011651 0)
(-0.0121303 0.00114163 0)
(-0.0163849 0.000976289 0)
(-0.0196339 0.00074513 0)
(-0.0216888 0.00048898 0)
(-0.0225041 0.000230154 0)
(-0.0221175 -1.82742e-05 0)
(-0.0206186 -0.000247575 0)
(-0.0181302 -0.000451018 0)
(-0.0147976 -0.00062365 0)
(-0.0107791 -0.000762173 0)
(-0.00623822 -0.000865068 0)
(-0.0013364 -0.000932327 0)
(0.00377342 -0.000965487 0)
(0.00895163 -0.000967994 0)
(0.0140751 -0.000944686 0)
(0.0190399 -0.000900506 0)
(0.0237624 -0.000840477 0)
(0.0281793 -0.000769404 0)
(0.0322463 -0.000691711 0)
(0.0359363 -0.000611205 0)
(0.0392373 -0.000531067 0)
(0.0421501 -0.000453759 0)
(0.0446854 -0.000381124 0)
(0.0468618 -0.000314378 0)
(0.0487032 -0.00025426 0)
(0.0502372 -0.000201061 0)
(0.0514933 -0.000154773 0)
(0.0525014 -0.000115116 0)
(0.0532913 -8.16705e-05 0)
(0.0538914 -5.38833e-05 0)
(0.0543283 -3.11735e-05 0)
(0.0546265 -1.29154e-05 0)
(-0.00102343 0.00307268 0)
(-0.00774694 0.00724134 0)
(-0.0171135 0.00893903 0)
(-0.0268458 0.00861511 0)
(-0.0350826 0.00708691 0)
(-0.0409292 0.0049583 0)
(-0.0440271 0.0026039 0)
(-0.0443228 0.000245426 0)
(-0.0419466 -0.00198507 0)
(-0.0371409 -0.00400514 0)
(-0.0302147 -0.00576174 0)
(-0.0215142 -0.00722252 0)
(-0.0114017 -0.00837201 0)
(-0.000238907 -0.00920901 0)
(0.0116264 -0.00974417 0)
(0.0238704 -0.00999909 0)
(0.0362016 -0.0100036 0)
(0.0483652 -0.00979285 0)
(0.0601467 -0.00940458 0)
(0.0713733 -0.00887696 0)
(0.0819121 -0.00824694 0)
(0.0916682 -0.00754874 0)
(0.100582 -0.00681287 0)
(0.108622 -0.00606546 0)
(0.115787 -0.00532805 0)
(0.122092 -0.00461762 0)
(0.127574 -0.00394685 0)
(0.132277 -0.00332452 0)
(0.136258 -0.00275609 0)
(0.139578 -0.00224417 0)
(0.142301 -0.00178914 0)
(0.14449 -0.00138963 0)
(0.146207 -0.00104301 0)
(0.147514 -0.00074577 0)
(0.148464 -0.000493865 0)
(-0.00151294 0.00806464 0)
(-0.0106932 0.0170487 0)
(-0.022342 0.020005 0)
(-0.0335923 0.0186009 0)
(-0.0422943 0.0146231 0)
(-0.0475335 0.00937811 0)
(-0.049024 0.00370277 0)
(-0.04683 -0.00189567 0)
(-0.0412241 -0.00711617 0)
(-0.0325972 -0.0117765 0)
(-0.0214028 -0.0157697 0)
(-0.00812061 -0.01904 0)
(0.0067701 -0.0215695 0)
(0.0228055 -0.0233712 0)
(0.0395546 -0.0244829 0)
(0.056624 -0.0249621 0)
(0.0736652 -0.0248801 0)
(0.0903781 -0.0243166 0)
(0.106512 -0.0233558 0)
(0.121867 -0.0220819 0)
(0.136288 -0.0205757 0)
(0.149667 -0.0189123 0)
(0.161932 -0.0171587 0)
(0.173051 -0.015373 0)
(0.183017 -0.0136034 0)
(0.191852 -0.0118889 0)
(0.199596 -0.0102592 0)
(0.206304 -0.00873569 0)
(0.212045 -0.00733251 0)
(0.216891 -0.00605747 0)
(0.220922 -0.00491324 0)
(0.224218 -0.00389838 0)
(0.226857 -0.00300835 0)
(0.228916 -0.00223633 0)
(0.230468 -0.00157399 0)
(-0.00179176 0.0143549 0)
(-0.0118505 0.028417 0)
(-0.0233021 0.0318204 0)
(-0.0330543 0.028241 0)
(-0.0391171 0.0207572 0)
(-0.0408934 0.0114858 0)
(-0.0383901 0.0017555 0)
(-0.0319088 -0.00764335 0)
(-0.0219056 -0.0162525 0)
(-0.00891242 -0.0238094 0)
(0.00651457 -0.030175 0)
(0.0238231 -0.0352922 0)
(0.0424909 -0.0391628 0)
(0.0620334 -0.0418329 0)
(0.0820126 -0.043383 0)
(0.102041 -0.043918 0)
(0.121784 -0.0435604 0)
(0.140961 -0.0424424 0)
(0.159342 -0.0406999 0)
(0.176748 -0.038467 0)
(0.193046 -0.0358711 0)
(0.208143 -0.0330296 0)
(0.221987 -0.0300473 0)
(0.234553 -0.0270151 0)
(0.24585 -0.0240091 0)
(0.255903 -0.0210909 0)
(0.264761 -0.0183082 0)
(0.272482 -0.015696 0)
(0.27914 -0.0132782 0)
(0.284809 -0.0110686 0)
(0.289574 -0.00907322 0)
(0.293515 -0.0072912 0)
(0.296717 -0.00571668 0)
(0.29926 -0.00433996 0)
(0.30122 -0.00314865 0)
(-0.00197178 0.0209842 0)
(-0.011463 0.0391395 0)
(-0.0201488 0.0414212 0)
(-0.0253033 0.0343017 0)
(-0.0256626 0.0223989 0)
(-0.0212796 0.00862004 0)
(-0.0126247 -0.00530931 0)
(-0.000297595 -0.0184151 0)
(0.0150561 -0.0301542 0)
(0.0328015 -0.0402447 0)
(0.0523409 -0.0485618 0)
(0.0731235 -0.0550817 0)
(0.0946534 -0.0598514 0)
(0.116492 -0.0629684 0)
(0.138261 -0.064568 0)
(0.159635 -0.0648112 0)
(0.18035 -0.0638758 0)
(0.20019 -0.0619472 0)
(0.218989 -0.0592116 0)
(0.236627 -0.055849 0)
(0.253021 -0.0520287 0)
(0.268123 -0.0479051 0)
(0.281916 -0.0436149 0)
(0.294408 -0.0392763 0)
(0.305624 -0.034988 0)
(0.31561 -0.0308298 0)
(0.324422 -0.0268637 0)
(0.332124 -0.0231354 0)
(0.33879 -0.0196763 0)
(0.344496 -0.0165049 0)
(0.349321 -0.0136295 0)
(0.353342 -0.0110496 0)
(0.356637 -0.00875819 0)
(0.359283 -0.00674289 0)
(0.361351 -0.00498777 0)
(-0.00206488 0.0272748 0)
(-0.00936668 0.0470993 0)
(-0.012187 0.0457974 0)
(-0.0092081 0.0335995 0)
(-0.000679489 0.0166698 0)
(0.0123851 -0.00155807 0)
(0.028998 -0.0192166 0)
(0.0482805 -0.0353132 0)
(0.0694751 -0.0493477 0)
(0.0919389 -0.0611003 0)
(0.115125 -0.0705133 0)
(0.138568 -0.0776305 0)
(0.161875 -0.0825649 0)
(0.18472 -0.0854784 0)
(0.206836 -0.0865673 0)
(0.228014 -0.0860499 0)
(0.248096 -0.0841571 0)
(0.266966 -0.0811226 0)
(0.284552 -0.0771758 0)
(0.300813 -0.0725346 0)
(0.315739 -0.0674007 0)
(0.329342 -0.0619559 0)
(0.341654 -0.0563597 0)
(0.352722 -0.050748 0)
(0.362601 -0.0452338 0)
(0.371358 -0.0399077 0)
(0.37906 -0.0348394 0)
(0.38578 -0.0300799 0)
(0.391591 -0.0256635 0)
(0.396567 -0.0216104 0)
(0.400779 -0.0179286 0)
(0.404296 -0.0146167 0)
(0.407187 -0.0116653 0)
(0.409514 -0.00905948 0)
(0.41134 -0.00677979 0)
(-0.00191675 0.0328014 0)
(-0.00422311 0.0497006 0)
(0.00325953 0.0412584 0)
(0.0186491 0.0226245 0)
(0.039229 0.000789759 0)
(0.0629808 -0.0210106 0)
(0.0885626 -0.0411482 0)
(0.115018 -0.0588417 0)
(0.141668 -0.0737749 0)
(0.168022 -0.0858703 0)
(0.193712 -0.0951784 0)
(0.218457 -0.101829 0)
(0.242045 -0.106008 0)
(0.26432 -0.10794 0)
(0.285176 -0.107878 0)
(0.304548 -0.106088 0)
(0.322411 -0.102846 0)
(0.338771 -0.098422 0)
(0.353659 -0.0930766 0)
(0.367126 -0.0870535 0)
(0.379241 -0.0805746 0)
(0.390079 -0.0738365 0)
(0.399724 -0.0670098 0)
(0.408263 -0.0602375 0)
(0.415782 -0.0536368 0)
(0.422365 -0.0472999 0)
(0.428093 -0.0412968 0)
(0.433044 -0.0356768 0)
(0.437289 -0.0304722 0)
(0.440895 -0.0257003 0)
(0.443926 -0.0213659 0)
(0.446439 -0.0174642 0)
(0.448486 -0.0139823 0)
(0.450118 -0.0109015 0)
(0.45138 -0.00819917 0)
(-0.000961908 0.0362498 0)
(0.00831618 0.0421555 0)
(0.0330098 0.0227002 0)
(0.0656028 -0.00242273 0)
(0.100541 -0.0275673 0)
(0.135438 -0.050783 0)
(0.169267 -0.0711598 0)
(0.201472 -0.0883481 0)
(0.23175 -0.102303 0)
(0.25996 -0.113113 0)
(0.286044 -0.120931 0)
(0.30999 -0.125957 0)
(0.331817 -0.128429 0)
(0.351573 -0.128615 0)
(0.369332 -0.126806 0)
(0.385189 -0.123299 0)
(0.399255 -0.118396 0)
(0.411656 -0.112387 0)
(0.422524 -0.105548 0)
(0.431998 -0.0981329 0)
(0.440213 -0.0903688 0)
(0.447302 -0.0824543 0)
(0.453393 -0.0745577 0)
(0.458602 -0.0668184 0)
(0.463037 -0.0593474 0)
(0.466795 -0.05223 0)
(0.469962 -0.0455283 0)
(0.472614 -0.0392845 0)
(0.474818 -0.0335232 0)
(0.47663 -0.0282549 0)
(0.478099 -0.0234781 0)
(0.479269 -0.0191823 0)
(0.480176 -0.0153498 0)
(0.480852 -0.0119577 0)
(0.481325 -0.00897929 0)
(0.00816459 0.0243391 0)
(0.0422658 0.011576 0)
(0.0924915 -0.017693 0)
(0.144927 -0.0450721 0)
(0.192781 -0.0689889 0)
(0.235561 -0.0896876 0)
(0.27382 -0.107119 0)
(0.307915 -0.121267 0)
(0.338137 -0.132228 0)
(0.364791 -0.140146 0)
(0.388162 -0.145199 0)
(0.408511 -0.1476 0)
(0.426082 -0.147595 0)
(0.441112 -0.145465 0)
(0.453836 -0.141506 0)
(0.464487 -0.136026 0)
(0.473294 -0.12933 0)
(0.480481 -0.121708 0)
(0.486262 -0.113436 0)
(0.490836 -0.104758 0)
(0.494389 -0.0958948 0)
(0.497092 -0.0870311 0)
(0.499094 -0.0783225 0)
(0.500528 -0.0698936 0)
(0.501507 -0.0618409 0)
(0.502127 -0.0542353 0)
(0.50247 -0.0471253 0)
(0.5026 -0.0405405 0)
(0.502569 -0.0344944 0)
(0.50242 -0.0289877 0)
(0.502184 -0.0240106 0)
(0.501885 -0.0195457 0)
(0.501542 -0.0155693 0)
(0.501166 -0.0120541 0)
(0.500767 -0.0089697 0)
(0.0773984 -0.0328145 0)
(0.144728 -0.061072 0)
(0.213069 -0.083662 0)
(0.274058 -0.102193 0)
(0.324098 -0.118062 0)
(0.365608 -0.131885 0)
(0.40072 -0.143488 0)
(0.43045 -0.152611 0)
(0.455423 -0.159153 0)
(0.476181 -0.163133 0)
(0.493203 -0.164654 0)
(0.506909 -0.163882 0)
(0.517679 -0.161038 0)
(0.525871 -0.156382 0)
(0.531825 -0.150196 0)
(0.535863 -0.142775 0)
(0.538288 -0.134408 0)
(0.539384 -0.125371 0)
(0.539408 -0.115918 0)
(0.538591 -0.106276 0)
(0.53714 -0.0966391 0)
(0.535232 -0.0871713 0)
(0.533018 -0.0780043 0)
(0.530623 -0.0692406 0)
(0.528149 -0.0609554 0)
(0.525676 -0.0532005 0)
(0.523265 -0.046007 0)
(0.52096 -0.0393895 0)
(0.518793 -0.0333485 0)
(0.516783 -0.0278737 0)
(0.514939 -0.0229466 0)
(0.513264 -0.0185424 0)
(0.511755 -0.0146322 0)
(0.510405 -0.0111844 0)
(0.509204 -0.00816568 0)
(0.35446 -0.115263 0)
(0.382655 -0.133529 0)
(0.41667 -0.142631 0)
(0.454678 -0.151049 0)
(0.488275 -0.159012 0)
(0.516278 -0.166089 0)
(0.539451 -0.171836 0)
(0.558202 -0.175855 0)
(0.572816 -0.177907 0)
(0.583662 -0.177917 0)
(0.591153 -0.175932 0)
(0.595701 -0.172084 0)
(0.597703 -0.166568 0)
(0.597549 -0.159624 0)
(0.595609 -0.151513 0)
(0.592237 -0.142506 0)
(0.587756 -0.132867 0)
(0.582463 -0.122843 0)
(0.576618 -0.112656 0)
(0.570448 -0.102503 0)
(0.564146 -0.0925459 0)
(0.557869 -0.0829175 0)
(0.551744 -0.0737204 0)
(0.545868 -0.0650302 0)
(0.540312 -0.056898 0)
(0.535127 -0.0493543 0)
(0.530343 -0.0424123 0)
(0.525975 -0.0360709 0)
(0.522025 -0.0303184 0)
(0.518486 -0.0251344 0)
(0.515342 -0.0204925 0)
(0.512573 -0.0163622 0)
(0.510153 -0.0127104 0)
(0.508057 -0.00950254 0)
(0.506257 -0.0067039 0)
(0.624541 -0.119708 0)
(0.626364 -0.148823 0)
(0.631494 -0.163574 0)
(0.642228 -0.17273 0)
(0.653437 -0.179029 0)
(0.662694 -0.183161 0)
(0.669508 -0.185423 0)
(0.673658 -0.185889 0)
(0.675036 -0.184554 0)
(0.673744 -0.181455 0)
(0.670032 -0.176695 0)
(0.664221 -0.17044 0)
(0.65666 -0.162896 0)
(0.647706 -0.154299 0)
(0.637709 -0.144896 0)
(0.627 -0.134934 0)
(0.615882 -0.124645 0)
(0.60462 -0.114243 0)
(0.593444 -0.103912 0)
(0.582542 -0.0938104 0)
(0.572065 -0.0840643 0)
(0.562125 -0.0747718 0)
(0.552805 -0.0660042 0)
(0.544159 -0.0578093 0)
(0.536216 -0.0502145 0)
(0.528984 -0.0432302 0)
(0.522457 -0.0368532 0)
(0.516615 -0.0310695 0)
(0.511429 -0.0258571 0)
(0.506862 -0.0211881 0)
(0.502875 -0.017031 0)
(0.499424 -0.0133516 0)
(0.496464 -0.0101149 0)
(0.493952 -0.00728563 0)
(0.491842 -0.00482917 0)
(0.816706 -0.118998 0)
(0.809309 -0.145154 0)
(0.79971 -0.161702 0)
(0.791882 -0.172259 0)
(0.784779 -0.178777 0)
(0.777073 -0.18208 0)
(0.768246 -0.182776 0)
(0.758035 -0.181298 0)
(0.746287 -0.177928 0)
(0.73302 -0.172891 0)
(0.718407 -0.166409 0)
(0.702708 -0.158718 0)
(0.686224 -0.15006 0)
(0.669266 -0.14068 0)
(0.652141 -0.130815 0)
(0.635128 -0.120686 0)
(0.618478 -0.110492 0)
(0.602399 -0.100408 0)
(0.587059 -0.0905792 0)
(0.572587 -0.0811219 0)
(0.559071 -0.0721255 0)
(0.546566 -0.0636542 0)
(0.535099 -0.0557497 0)
(0.52467 -0.048435 0)
(0.51526 -0.0417168 0)
(0.506837 -0.0355894 0)
(0.499352 -0.0300371 0)
(0.492754 -0.0250369 0)
(0.486984 -0.0205604 0)
(0.481978 -0.0165759 0)
(0.477675 -0.0130497 0)
(0.474012 -0.00994727 0)
(0.470928 -0.00723418 0)
(0.468365 -0.00487674 0)
(0.466267 -0.00284248 0)
(0.927634 -0.111685 0)
(0.914676 -0.132751 0)
(0.897467 -0.14787 0)
(0.878975 -0.157921 0)
(0.859805 -0.163953 0)
(0.839776 -0.166596 0)
(0.818864 -0.166409 0)
(0.797128 -0.163906 0)
(0.774642 -0.15951 0)
(0.751543 -0.153567 0)
(0.728048 -0.14639 0)
(0.704427 -0.138266 0)
(0.680961 -0.129461 0)
(0.657925 -0.12022 0)
(0.635573 -0.11076 0)
(0.614121 -0.101271 0)
(0.593749 -0.091913 0)
(0.574591 -0.0828191 0)
(0.556741 -0.0740932 0)
(0.540255 -0.0658132 0)
(0.525153 -0.0580337 0)
(0.511428 -0.0507892 0)
(0.499048 -0.044097 0)
(0.487964 -0.0379601 0)
(0.478112 -0.0323708 0)
(0.469419 -0.0273124 0)
(0.461806 -0.022762 0)
(0.455193 -0.0186924 0)
(0.449496 -0.0150732 0)
(0.444633 -0.0118729 0)
(0.440527 -0.00905905 0)
(0.437102 -0.00659961 0)
(0.434285 -0.00446338 0)
(0.43201 -0.00262034 0)
(0.430214 -0.00104209 0)
(0.963035 -0.0989445 0)
(0.945077 -0.114845 0)
(0.922636 -0.126881 0)
(0.897549 -0.134963 0)
(0.870763 -0.139582 0)
(0.842694 -0.141178 0)
(0.813714 -0.140197 0)
(0.784192 -0.137111 0)
(0.754454 -0.132356 0)
(0.724804 -0.126312 0)
(0.695549 -0.119311 0)
(0.666985 -0.111645 0)
(0.639384 -0.103568 0)
(0.612981 -0.0952958 0)
(0.587965 -0.0870093 0)
(0.56448 -0.0788561 0)
(0.542627 -0.0709531 0)
(0.52246 -0.0633896 0)
(0.503996 -0.0562307 0)
(0.487221 -0.0495201 0)
(0.472092 -0.0432843 0)
(0.458546 -0.0375347 0)
(0.446501 -0.0322713 0)
(0.43587 -0.0274847 0)
(0.426554 -0.0231589 0)
(0.418452 -0.0192725 0)
(0.411465 -0.0158008 0)
(0.405493 -0.012717 0)
(0.400438 -0.00999301 0)
(0.396211 -0.00760062 0)
(0.392723 -0.00551189 0)
(0.389894 -0.00369962 0)
(0.387647 -0.00213783 0)
(0.385915 -0.000801854 0)
(0.384631 0.00033139 0)
(0.926925 -0.0811137 0)
(0.904869 -0.092299 0)
(0.878683 -0.100831 0)
(0.849556 -0.106402 0)
(0.818427 -0.109233 0)
(0.785966 -0.109647 0)
(0.752768 -0.108009 0)
(0.719385 -0.104719 0)
(0.686294 -0.100168 0)
(0.653901 -0.0946966 0)
(0.622552 -0.0885989 0)
(0.592539 -0.0821215 0)
(0.564091 -0.0754682 0)
(0.537381 -0.0688034 0)
(0.512522 -0.062256 0)
(0.489579 -0.0559242 0)
(0.468571 -0.0498803 0)
(0.449479 -0.0441746 0)
(0.432257 -0.0388395 0)
(0.41683 -0.0338932 0)
(0.403109 -0.0293417 0)
(0.390992 -0.0251826 0)
(0.380368 -0.0214064 0)
(0.371123 -0.0179985 0)
(0.363143 -0.0149408 0)
(0.356315 -0.0122129 0)
(0.35053 -0.00979252 0)
(0.345683 -0.00765733 0)
(0.341675 -0.00578439 0)
(0.338415 -0.00415149 0)
(0.335817 -0.0027368 0)
(0.333802 -0.00151977 0)
(0.332298 -0.00048057 0)
(0.331238 0.000398973 0)
(0.330562 0.0011361 0)
(0.822632 -0.0595296 0)
(0.798327 -0.0665841 0)
(0.770502 -0.0718055 0)
(0.740056 -0.0749455 0)
(0.707876 -0.0761311 0)
(0.674722 -0.0756171 0)
(0.641271 -0.0737009 0)
(0.608124 -0.0706981 0)
(0.575781 -0.0669089 0)
(0.54464 -0.0625926 0)
(0.515008 -0.0579625 0)
(0.487109 -0.0531892 0)
(0.461095 -0.0484064 0)
(0.437053 -0.0437156 0)
(0.415016 -0.0391913 0)
(0.394973 -0.0348856 0)
(0.376878 -0.0308333 0)
(0.360657 -0.0270551 0)
(0.34622 -0.0235612 0)
(0.333461 -0.0203536 0)
(0.322265 -0.0174285 0)
(0.312515 -0.0147772 0)
(0.304091 -0.0123883 0)
(0.296876 -0.0102477 0)
(0.290755 -0.00834041 0)
(0.285621 -0.00665031 0)
(0.281369 -0.00516123 0)
(0.277904 -0.00385683 0)
(0.275134 -0.00272138 0)
(0.272978 -0.00173939 0)
(0.271359 -0.000896364 0)
(0.270208 -0.000178296 0)
(0.269462 0.000427655 0)
(0.269065 0.000933716 0)
(0.268964 0.00135091 0)
(0.654829 -0.036497 0)
(0.631206 -0.0401493 0)
(0.604917 -0.042653 0)
(0.576727 -0.0438901 0)
(0.54744 -0.0439668 0)
(0.517778 -0.0430758 0)
(0.488365 -0.0414283 0)
(0.459717 -0.0392316 0)
(0.432239 -0.0366719 0)
(0.406224 -0.0339022 0)
(0.381872 -0.0310412 0)
(0.359304 -0.0281781 0)
(0.338577 -0.0253788 0)
(0.319697 -0.0226894 0)
(0.302632 -0.0201409 0)
(0.287318 -0.0177524 0)
(0.273675 -0.0155341 0)
(0.261604 -0.0134898 0)
(0.251001 -0.0116187 0)
(0.241756 -0.00991677 0)
(0.23376 -0.0083777 0)
(0.226903 -0.00699354 0)
(0.221078 -0.0057555 0)
(0.216184 -0.00465407 0)
(0.212124 -0.00367961 0)
(0.208809 -0.00282232 0)
(0.206153 -0.0020727 0)
(0.204079 -0.00142133 0)
(0.202514 -0.000859336 0)
(0.201394 -0.000378089 0)
(0.200658 3.03981e-05 0)
(0.200254 0.000373793 0)
(0.200132 0.000659075 0)
(0.200248 0.000892869 0)
(0.200565 0.00108112 0)
(0.430699 -0.015845 0)
(0.411917 -0.0170889 0)
(0.391535 -0.0177938 0)
(0.37017 -0.0179456 0)
(0.348442 -0.0176258 0)
(0.326887 -0.0169447 0)
(0.305937 -0.0160064 0)
(0.285922 -0.0149029 0)
(0.267071 -0.0137099 0)
(0.249531 -0.0124853 0)
(0.233378 -0.0112701 0)
(0.218637 -0.0100928 0)
(0.205296 -0.00897213 0)
(0.193314 -0.0079196 0)
(0.182628 -0.00694123 0)
(0.173166 -0.00603945 0)
(0.164847 -0.00521387 0)
(0.157587 -0.00446272 0)
(0.151299 -0.00378291 0)
(0.1459 -0.00317096 0)
(0.141307 -0.00262275 0)
(0.137443 -0.00213424 0)
(0.134231 -0.00170102 0)
(0.131603 -0.00131903 0)
(0.129493 -0.000983987 0)
(0.127841 -0.000692059 0)
(0.12659 -0.000439264 0)
(0.12569 -0.000222126 0)
(0.125093 -3.70321e-05 0)
(0.124758 0.000119095 0)
(0.124646 0.000249476 0)
(0.124723 0.000356763 0)
(0.124959 0.000443751 0)
(0.125325 0.000512694 0)
(0.125798 0.000565982 0)
(0.159462 -0.00183559 0)
(0.150941 -0.0018945 0)
(0.141935 -0.00187705 0)
(0.132742 -0.00179373 0)
(0.123637 -0.00166729 0)
(0.114834 -0.00151822 0)
(0.106484 -0.00136081 0)
(0.0986874 -0.00120468 0)
(0.0915003 -0.00105581 0)
(0.0849454 -0.000917222 0)
(0.0790214 -0.000790106 0)
(0.0737111 -0.000674802 0)
(0.0689865 -0.000571257 0)
(0.0648127 -0.000479057 0)
(0.0611514 -0.000397506 0)
(0.0579627 -0.000325693 0)
(0.0552069 -0.000262661 0)
(0.0528451 -0.000207467 0)
(0.05084 -0.000159274 0)
(0.0491564 -0.000117332 0)
(0.0477608 -8.09987e-05 0)
(0.0466222 -4.96914e-05 0)
(0.0457118 -2.29088e-05 0)
(0.0450027 -1.78685e-07 0)
(0.0444704 1.89067e-05 0)
(0.0440924 3.47398e-05 0)
(0.0438481 4.76572e-05 0)
(0.0437188 5.7988e-05 0)
(0.0436876 6.6014e-05 0)
(0.0437394 7.20206e-05 0)
(0.0438604 7.62444e-05 0)
(0.0440387 7.89289e-05 0)
(0.0442634 8.02781e-05 0)
(0.044525 8.05026e-05 0)
(0.0448151 7.9774e-05 0)
(0.0548083 1.47802e-06 0)
(0.0548938 1.2588e-05 0)
(0.0549005 2.09234e-05 0)
(0.054844 2.69657e-05 0)
(0.0547375 3.11206e-05 0)
(0.0545926 3.37662e-05 0)
(0.0544191 3.52055e-05 0)
(0.0542252 3.57155e-05 0)
(0.0540178 3.55073e-05 0)
(0.0538027 3.47735e-05 0)
(0.149112 -0.000282976 0)
(0.149503 -0.000108731 0)
(0.14968 3.31529e-05 0)
(0.149681 0.000146733 0)
(0.14954 0.000235799 0)
(0.149285 0.000303833 0)
(0.148941 0.000353982 0)
(0.148532 0.000389053 0)
(0.148074 0.00041152 0)
(0.147584 0.000423547 0)
(0.231581 -0.00101213 0)
(0.232318 -0.000541115 0)
(0.232737 -0.000151328 0)
(0.232889 0.000166592 0)
(0.232821 0.000421501 0)
(0.232575 0.000621666 0)
(0.232185 0.000774667 0)
(0.231684 0.000887382 0)
(0.231099 0.000965948 0)
(0.230454 0.00101581 0)
(0.302672 -0.00212865 0)
(0.303682 -0.00126495 0)
(0.304314 -0.00054224 0)
(0.304625 5.4556e-05 0)
(0.304667 0.000539924 0)
(0.304486 0.000927533 0)
(0.304125 0.00123009 0)
(0.303618 0.00145923 0)
(0.303 0.00162549 0)
(0.302297 0.00173828 0)
(0.362909 -0.00347442 0)
(0.364022 -0.00218306 0)
(0.364749 -0.0010933 0)
(0.365145 -0.000184853 0)
(0.36526 0.000561988 0)
(0.36514 0.00116595 0)
(0.364826 0.00164458 0)
(0.364353 0.00201413 0)
(0.363755 0.00228939 0)
(0.36306 0.00248376 0)
(0.412721 -0.00480409 0)
(0.41371 -0.00310855 0)
(0.414359 -0.00166858 0)
(0.414712 -0.000459616 0)
(0.414813 0.000542332 0)
(0.414699 0.00136018 0)
(0.414406 0.00201553 0)
(0.413965 0.00252843 0)
(0.413406 0.00291734 0)
(0.412753 0.00319904 0)
(0.452314 -0.00584954 0)
(0.452958 -0.00382538 0)
(0.453349 -0.0020988 0)
(0.45352 -0.000641994 0)
(0.4535 0.000572201 0)
(0.453318 0.00156977 0)
(0.453 0.00237521 0)
(0.452567 0.00301137 0)
(0.452042 0.0034993 0)
(0.451444 0.00385828 0)
(0.48162 -0.00638584 0)
(0.481758 -0.00414722 0)
(0.481758 -0.00223305 0)
(0.48164 -0.000613289 0)
(0.481418 0.000741256 0)
(0.481108 0.00185843 0)
(0.480722 0.00276443 0)
(0.480275 0.00348367 0)
(0.479777 0.00403871 0)
(0.479238 0.0044502 0)
(0.500351 -0.00628451 0)
(0.499922 -0.00396626 0)
(0.499484 -0.00198295 0)
(0.499037 -0.000303302 0)
(0.498585 0.0011028 0)
(0.498127 0.00226387 0)
(0.497666 0.00320662 0)
(0.497202 0.00395588 0)
(0.496738 0.00453457 0)
(0.496273 0.00496367 0)
(0.50814 -0.00554245 0)
(0.5072 -0.00328122 0)
(0.506371 -0.00134934 0)
(0.505641 0.000284656 0)
(0.504998 0.00165067 0)
(0.50443 0.00277676 0)
(0.503927 0.00368909 0)
(0.503479 0.00441184 0)
(0.50308 0.00496728 0)
(0.502721 0.00537577 0)
(0.504723 -0.00428004 0)
(0.503428 -0.00219751 0)
(0.502345 -0.000424199 0)
(0.50145 0.0010704 0)
(0.500717 0.00231484 0)
(0.500125 0.00333574 0)
(0.499655 0.00415772 0)
(0.499289 0.00480344 0)
(0.49901 0.00529365 0)
(0.498804 0.00564725 0)
(0.490093 -0.00271201 0)
(0.488665 -0.000902165 0)
(0.48752 0.000630664 0)
(0.486622 0.00191472 0)
(0.48594 0.00297625 0)
(0.485444 0.00383953 0)
(0.485106 0.00452685 0)
(0.484903 0.00505855 0)
(0.484812 0.0054532 0)
(0.484815 0.0057276 0)
(0.464581 -0.00110056 0)
(0.463259 0.000378151 0)
(0.462256 0.00162065 0)
(0.461531 0.00265203 0)
(0.461044 0.00349534 0)
(0.460763 0.00417177 0)
(0.460655 0.00470056 0)
(0.460692 0.00509925 0)
(0.46085 0.00538365 0)
(0.461107 0.00556809 0)
(0.428839 0.000298169 0)
(0.427832 0.00142514 0)
(0.427146 0.00236178 0)
(0.426735 0.0031291 0)
(0.426559 0.0037464 0)
(0.426583 0.00423112 0)
(0.426773 0.00459914 0)
(0.427102 0.00486469 0)
(0.427542 0.00504068 0)
(0.428072 0.0051386 0)
(0.383739 0.00128333 0)
(0.383185 0.00207369 0)
(0.382921 0.00272068 0)
(0.382905 0.00324082 0)
(0.383097 0.00364917 0)
(0.383462 0.00395924 0)
(0.38397 0.0041833 0)
(0.384592 0.00433224 0)
(0.385305 0.0044159 0)
(0.386086 0.004443 0)
(0.330218 0.00174638 0)
(0.330156 0.00224447 0)
(0.330332 0.00264339 0)
(0.330708 0.00295526 0)
(0.331248 0.00319071 0)
(0.331922 0.00335958 0)
(0.332703 0.00347039 0)
(0.333566 0.00353104 0)
(0.33449 0.00354824 0)
(0.335456 0.00352827 0)
(0.269115 0.00168965 0)
(0.269477 0.00195918 0)
(0.270012 0.00216815 0)
(0.27069 0.00232408 0)
(0.271481 0.00243401 0)
(0.272361 0.00250397 0)
(0.273307 0.00253957 0)
(0.2743 0.00254554 0)
(0.275323 0.00252633 0)
(0.276362 0.0024856 0)
(0.201048 0.00122945 0)
(0.201665 0.00134276 0)
(0.20239 0.00142569 0)
(0.2032 0.00148222 0)
(0.204074 0.00151607 0)
(0.204993 0.0015304 0)
(0.205943 0.00152818 0)
(0.206909 0.00151183 0)
(0.207879 0.00148367 0)
(0.208844 0.00144557 0)
(0.126357 0.000605463 0)
(0.126982 0.000633132 0)
(0.127657 0.000650461 0)
(0.128369 0.000659086 0)
(0.129104 0.000660145 0)
(0.129852 0.000654953 0)
(0.130605 0.000644364 0)
(0.131354 0.000629422 0)
(0.132092 0.000610747 0)
(0.132815 0.00058916 0)
(0.0451266 7.82704e-05 0)
(0.0454531 7.61323e-05 0)
(0.0457892 7.35068e-05 0)
(0.0461302 7.05044e-05 0)
(0.0464722 6.72428e-05 0)
(0.0468119 6.3804e-05 0)
(0.0471463 6.02777e-05 0)
(0.0474733 5.67196e-05 0)
(0.0477908 5.31943e-05 0)
(0.0480974 4.97343e-05 0)
(0.0535844 3.36519e-05 0)
(0.053367 3.22698e-05 0)
(0.0531533 3.071e-05 0)
(0.0529458 2.90523e-05 0)
(0.0527464 2.73409e-05 0)
(0.0525566 2.56228e-05 0)
(0.0523774 2.39168e-05 0)
(0.0522095 2.22489e-05 0)
(0.0520535 2.06224e-05 0)
(0.0519096 1.90513e-05 0)
(0.0517779 1.75306e-05 0)
(0.0516582 1.60683e-05 0)
(0.0515505 1.4656e-05 0)
(0.0514543 1.32998e-05 0)
(0.0513693 1.19909e-05 0)
(0.051295 1.07356e-05 0)
(0.0512308 9.5261e-06 0)
(0.0511762 8.37019e-06 0)
(0.0511306 7.26137e-06 0)
(0.0510932 6.20891e-06 0)
(0.0510635 5.2072e-06 0)
(0.0510407 4.26661e-06 0)
(0.0510241 3.38184e-06 0)
(0.0510132 2.5634e-06 0)
(0.0510071 1.80565e-06 0)
(0.0510054 1.11858e-06 0)
(0.0510073 4.95209e-07 0)
(0.0510122 -5.52401e-08 0)
(0.0510197 -5.41546e-07 0)
(0.0510293 -9.55769e-07 0)
(0.0510403 -1.3088e-06 0)
(0.0510526 -1.59397e-06 0)
(0.0510655 -1.82446e-06 0)
(0.0510789 -1.99482e-06 0)
(0.0510924 -2.11951e-06 0)
(0.147074 0.000427005 0)
(0.146556 0.000423505 0)
(0.146039 0.000414422 0)
(0.14553 0.000400926 0)
(0.145034 0.000384005 0)
(0.144557 0.000364496 0)
(0.144101 0.000343099 0)
(0.143671 0.000320404 0)
(0.143267 0.000296906 0)
(0.142892 0.000273019 0)
(0.142545 0.000249091 0)
(0.142227 0.000225413 0)
(0.141938 0.000202227 0)
(0.141678 0.000179736 0)
(0.141446 0.00015811 0)
(0.14124 0.000137484 0)
(0.141061 0.00011797 0)
(0.140906 9.96562e-05 0)
(0.140774 8.26081e-05 0)
(0.140664 6.68706e-05 0)
(0.140574 5.24725e-05 0)
(0.140502 3.94226e-05 0)
(0.140447 2.77168e-05 0)
(0.140407 1.73332e-05 0)
(0.140381 8.23961e-06 0)
(0.140366 3.87999e-07 0)
(0.140361 -6.27754e-06 0)
(0.140366 -1.18248e-05 0)
(0.140377 -1.63269e-05 0)
(0.140395 -1.98655e-05 0)
(0.140417 -2.25252e-05 0)
(0.140443 -2.43951e-05 0)
(0.140472 -2.55648e-05 0)
(0.140502 -2.61254e-05 0)
(0.140534 -2.6167e-05 0)
(0.229768 0.00104175 0)
(0.229058 0.00104792 0)
(0.228339 0.00103791 0)
(0.227622 0.00101484 0)
(0.226916 0.000981352 0)
(0.226231 0.00093972 0)
(0.225571 0.000891868 0)
(0.224943 0.000839448 0)
(0.224349 0.000783843 0)
(0.223793 0.000726246 0)
(0.223276 0.000667649 0)
(0.222799 0.000608913 0)
(0.222363 0.000550746 0)
(0.221968 0.000493765 0)
(0.221612 0.000438471 0)
(0.221296 0.000385301 0)
(0.221018 0.000334595 0)
(0.220775 0.000286648 0)
(0.220567 0.000241675 0)
(0.220391 0.000199852 0)
(0.220245 0.000161287 0)
(0.220126 0.000126057 0)
(0.220033 9.41775e-05 0)
(0.219962 6.56392e-05 0)
(0.219912 4.03788e-05 0)
(0.21988 1.83139e-05 0)
(0.219864 -6.8406e-07 0)
(0.219861 -1.67557e-05 0)
(0.21987 -3.00804e-05 0)
(0.219889 -4.08416e-05 0)
(0.219915 -4.92526e-05 0)
(0.219947 -5.55226e-05 0)
(0.219984 -5.98828e-05 0)
(0.220024 -6.25527e-05 0)
(0.220067 -6.37675e-05 0)
(0.301533 0.00180597 0)
(0.30073 0.00183592 0)
(0.299906 0.00183458 0)
(0.299074 0.00180757 0)
(0.298248 0.00175975 0)
(0.297438 0.00169531 0)
(0.296653 0.00161788 0)
(0.295899 0.00153057 0)
(0.295182 0.00143606 0)
(0.294506 0.00133662 0)
(0.293873 0.00123423 0)
(0.293287 0.00113058 0)
(0.292747 0.00102709 0)
(0.292254 0.00092499 0)
(0.291809 0.000825328 0)
(0.29141 0.000728976 0)
(0.291056 0.000636667 0)
(0.290745 0.000548997 0)
(0.290475 0.000466447 0)
(0.290245 0.000389383 0)
(0.290051 0.000318074 0)
(0.289892 0.000252688 0)
(0.289763 0.000193311 0)
(0.289663 0.000139942 0)
(0.289588 9.25127e-05 0)
(0.289537 5.08796e-05 0)
(0.289505 1.4845e-05 0)
(0.289491 -1.58465e-05 0)
(0.289492 -4.14913e-05 0)
(0.289505 -6.24278e-05 0)
(0.289529 -7.90189e-05 0)
(0.289561 -9.1654e-05 0)
(0.289599 -0.000100732 0)
(0.289642 -0.000106662 0)
(0.289688 -0.000109852 0)
(0.362292 0.00260922 0)
(0.361475 0.00267643 0)
(0.360627 0.0026948 0)
(0.359764 0.00267261 0)
(0.3589 0.0026171 0)
(0.358046 0.00253459 0)
(0.357213 0.00243057 0)
(0.356407 0.00230982 0)
(0.355637 0.00217647 0)
(0.354906 0.00203411 0)
(0.354218 0.00188583 0)
(0.353577 0.00173432 0)
(0.352984 0.00158189 0)
(0.35244 0.00143052 0)
(0.351944 0.00128192 0)
(0.351498 0.00113754 0)
(0.351099 0.000998582 0)
(0.350747 0.000866064 0)
(0.350439 0.000740801 0)
(0.350173 0.000623435 0)
(0.349947 0.000514443 0)
(0.349758 0.000414151 0)
(0.349604 0.000322744 0)
(0.34948 0.000240277 0)
(0.349386 0.000166687 0)
(0.349316 0.0001018 0)
(0.34927 4.53482e-05 0)
(0.349243 -3.02186e-06 0)
(0.349233 -4.37367e-05 0)
(0.349238 -7.72825e-05 0)
(0.349254 -0.000104194 0)
(0.349281 -0.000125041 0)
(0.349315 -0.000140417 0)
(0.349355 -0.000150928 0)
(0.3494 -0.000157185 0)
(0.412029 0.00338866 0)
(0.411254 0.00349978 0)
(0.410446 0.00354448 0)
(0.409619 0.00353347 0)
(0.408787 0.0034762 0)
(0.407961 0.003381 0)
(0.407152 0.00325516 0)
(0.406366 0.00310507 0)
(0.40561 0.00293633 0)
(0.40489 0.00275383 0)
(0.40421 0.00256183 0)
(0.403572 0.00236405 0)
(0.40298 0.00216371 0)
(0.402433 0.00196363 0)
(0.401934 0.00176621 0)
(0.401481 0.00157353 0)
(0.401075 0.00138735 0)
(0.400714 0.00120914 0)