/*--------------------------------*- C++ -*----------------------------------*\
| =========                 |                                                 |
| \\      /  F ield         | OpenFOAM: The Open Source CFD Toolbox           |
|  \\    /   O peration     | Version:  2406                                  |
|   \\  /    A nd           | Website:  www.openfoam.com                      |
|    \\/     M anipulation  |                                                 |
\*---------------------------------------------------------------------------*/
FoamFile
{
    version     2.0;
    format      ascii;
    arch        "LSB;label=32;scalar=64";
    class       volScalarField;
    location    "100";
    object      p;
}
// * * * * * * * * * * * * * * * * * * * * * * * * * * * * * * * * * * * * * //

dimensions      [0 2 -2 0 0 0 0];

internalField   nonuniform List<scalar> 
1900
(
-0.0769084
-0.0771425
-0.0783578
-0.0803819
-0.082956
-0.0860128
-0.0895473
-0.0935761
-0.0980919
-0.103098
-0.0740239
-0.0759332
-0.0780458
-0.0802444
-0.0828287
-0.0858893
-0.089373
-0.0932365
-0.0974302
-0.101737
-0.0711725
-0.0744896
-0.077506
-0.0798114
-0.0822456
-0.0851346
-0.0883504
-0.0917149
-0.0950098
-0.0977842
-0.0684778
-0.0723991
-0.0759652
-0.0783969
-0.0807095
-0.0833938
-0.0862939
-0.089164
-0.0918035
-0.0939499
-0.0660141
-0.0701547
-0.0739771
-0.0764715
-0.0786617
-0.0811248
-0.0837233
-0.0862097
-0.0884411
-0.0902828
-0.0640963
-0.0682422
-0.0720162
-0.0744062
-0.0764448
-0.0787096
-0.0810669
-0.08329
-0.085283
-0.0869847
-0.0630644
-0.0669962
-0.0704304
-0.0725747
-0.0744597
-0.0765712
-0.0787574
-0.0808237
-0.0827059
-0.084376
-0.0631878
-0.0665092
-0.0693438
-0.071245
-0.0730502
-0.0750623
-0.0771354
-0.0791234
-0.080976
-0.0826678
-0.0646822
-0.0666078
-0.0685506
-0.070321
-0.0721929
-0.0742136
-0.0762756
-0.0782806
-0.0801745
-0.081922
-0.067203
-0.0674959
-0.0685882
-0.0702116
-0.072075
-0.0740627
-0.0761034
-0.0781199
-0.0800444
-0.0818301
-0.0959885
-0.0960751
-0.0961468
-0.0961697
-0.0961475
-0.0960848
-0.0959828
-0.0958401
-0.0956543
-0.0954229
-0.0951436
-0.0948142
-0.0944328
-0.0939978
-0.0935077
-0.092961
-0.0923564
-0.0916924
-0.0909679
-0.0901812
-0.0893311
-0.0884158
-0.0874337
-0.086383
-0.0852619
-0.0840682
-0.0827998
-0.0814545
-0.0800298
-0.0785236
-0.0769334
-0.0752569
-0.0734921
-0.0716371
-0.0696904
-0.0958902
-0.0959812
-0.0960438
-0.0960564
-0.0960304
-0.0959694
-0.0958716
-0.0957341
-0.0955538
-0.0953278
-0.0950536
-0.0947291
-0.0943523
-0.0939217
-0.0934358
-0.0928931
-0.0922924
-0.0916323
-0.0909116
-0.0901287
-0.0892824
-0.0883711
-0.0873931
-0.0863467
-0.0852301
-0.0840412
-0.082778
-0.0814384
-0.0800199
-0.0785204
-0.0769375
-0.0752691
-0.073513
-0.0716675
-0.0697311
-0.095827
-0.095935
-0.0959979
-0.0960042
-0.0959768
-0.095919
-0.0958269
-0.0956959
-0.095522
-0.0953021
-0.0950336
-0.0947143
-0.0943424
-0.0939163
-0.0934348
-0.0928964
-0.0922998
-0.0916439
-0.0909274
-0.090149
-0.0893073
-0.0884008
-0.0874279
-0.0863871
-0.0852765
-0.0840943
-0.0828383
-0.0815064
-0.0800964
-0.0786061
-0.0770331
-0.0753753
-0.0736305
-0.0717969
-0.0698729
-0.0958966
-0.0960201
-0.0960855
-0.0960885
-0.0960611
-0.0960058
-0.095917
-0.0957893
-0.0956183
-0.0954007
-0.0951341
-0.0948164
-0.094446
-0.0940214
-0.0935413
-0.0930044
-0.0924097
-0.0917558
-0.0910417
-0.090266
-0.0894275
-0.0885247
-0.0875563
-0.0865205
-0.0854156
-0.0842397
-0.0829909
-0.0816669
-0.0802656
-0.0787846
-0.0772216
-0.0755742
-0.0738401
-0.0720171
-0.0701036
-0.0961804
-0.0962983
-0.0963492
-0.0963383
-0.0963018
-0.0962394
-0.096144
-0.0960097
-0.0958322
-0.0956085
-0.0953361
-0.0950132
-0.0946381
-0.0942094
-0.0937258
-0.0931862
-0.0925893
-0.0919341
-0.0912192
-0.0904436
-0.0896059
-0.0887047
-0.0877386
-0.086706
-0.085605
-0.0844338
-0.0831903
-0.0818722
-0.0804772
-0.0790029
-0.0774465
-0.075806
-0.0740789
-0.0722631
-0.0703566
-0.0967605
-0.096822
-0.0968109
-0.0967516
-0.0966796
-0.0965883
-0.0964677
-0.0963114
-0.0961145
-0.0958738
-0.0955866
-0.0952509
-0.0948648
-0.0944266
-0.0939348
-0.0933881
-0.0927854
-0.0921254
-0.0914067
-0.0906281
-0.0897884
-0.0888861
-0.0879195
-0.0868871
-0.0857869
-0.0846169
-0.0833752
-0.0820598
-0.0806678
-0.0791966
-0.0776438
-0.0760067
-0.0742831
-0.0724704
-0.0705669
-0.0977296
-0.0976204
-0.0974408
-0.0972635
-0.0971111
-0.0969604
-0.0967936
-0.0966002
-0.0963736
-0.0961085
-0.0958012
-0.0954488
-0.0950486
-0.0945986
-0.0940973
-0.0935429
-0.0929339
-0.0922687
-0.0915456
-0.0907636
-0.0899214
-0.0890172
-0.0880493
-0.0870158
-0.0859148
-0.0847439
-0.0835011
-0.0821838
-0.0807897
-0.079316
-0.0777601
-0.0761195
-0.0743918
-0.0725746
-0.070666
-0.0993476
-0.0987048
-0.0981112
-0.0977124
-0.0974357
-0.0972069
-0.0969888
-0.0967609
-0.0965097
-0.0962263
-0.0959051
-0.0955418
-0.0951328
-0.0946752
-0.0941669
-0.0936066
-0.0929926
-0.092323
-0.091596
-0.0908102
-0.0899636
-0.0890544
-0.088081
-0.0870414
-0.0859336
-0.0847552
-0.083504
-0.0821776
-0.0807734
-0.0792888
-0.0777212
-0.0760682
-0.0743276
-0.0724974
-0.0705762
-0.102719
-0.100116
-0.0985421
-0.0978765
-0.0974979
-0.097201
-0.0969494
-0.0967099
-0.0964537
-0.0961672
-0.0958446
-0.0954807
-0.0950713
-0.0946131
-0.0941039
-0.0935413
-0.0929234
-0.0922484
-0.0915149
-0.0907211
-0.0898652
-0.0889455
-0.0879601
-0.0869071
-0.0857842
-0.0845893
-0.0833199
-0.0819738
-0.0805485
-0.0790417
-0.0774513
-0.0757751
-0.0740117
-0.0721597
-0.0702186
-0.108491
-0.10153
-0.0983821
-0.097649
-0.0972938
-0.0969445
-0.0966727
-0.0964503
-0.096216
-0.0959442
-0.0956303
-0.0952715
-0.0948638
-0.0944045
-0.093891
-0.0933216
-0.0926944
-0.0920079
-0.0912605
-0.0904504
-0.0895757
-0.0886347
-0.0876256
-0.0865464
-0.0853951
-0.0841697
-0.082868
-0.0814881
-0.0800281
-0.0784862
-0.076861
-0.0751513
-0.0733566
-0.0714768
-0.0695125
-0.105568
-0.100757
-0.0977955
-0.0972207
-0.0970114
-0.0966572
-0.0963434
-0.0961079
-0.0958744
-0.0955998
-0.0952788
-0.0949116
-0.0944942
-0.0940226
-0.0934938
-0.0929059
-0.0922571
-0.0915458
-0.0907703
-0.089929
-0.0890201
-0.0880419
-0.0869928
-0.0858714
-0.0846759
-0.0834049
-0.0820568
-0.0806302
-0.0791241
-0.0775376
-0.0758706
-0.0741231
-0.0722958
-0.0703902
-0.0684085
-0.103151
-0.100331
-0.0977488
-0.0968717
-0.0965652
-0.0962022
-0.0958512
-0.0955794
-0.0953276
-0.0950407
-0.094705
-0.0943202
-0.0938828
-0.0933878
-0.0928318
-0.0922126
-0.0915288
-0.0907788
-0.0899612
-0.0890746
-0.0881175
-0.0870886
-0.0859869
-0.0848115
-0.0835615
-0.0822361
-0.0808346
-0.0793567
-0.0778023
-0.0761721
-0.0744669
-0.0726884
-0.0708388
-0.0689211
-0.0669389
-0.0989019
-0.0979749
-0.0965763
-0.0958743
-0.0956028
-0.0953307
-0.0950228
-0.0947445
-0.0944785
-0.0941801
-0.0938301
-0.0934258
-0.0929646
-0.0924415
-0.0918529
-0.0911967
-0.0904717
-0.0896771
-0.0888115
-0.0878741
-0.0868639
-0.0857805
-0.0846235
-0.083393
-0.082089
-0.0807118
-0.0792617
-0.0777397
-0.076147
-0.0744853
-0.0727571
-0.0709654
-0.0691137
-0.0672063
-0.065248
-0.0951772
-0.0952542
-0.0947212
-0.0943076
-0.0941246
-0.0939672
-0.0937599
-0.0935333
-0.0932922
-0.09301
-0.0926682
-0.0922619
-0.091789
-0.0912463
-0.0906313
-0.089943
-0.089181
-0.0883453
-0.0874354
-0.0864512
-0.0853929
-0.0842608
-0.083056
-0.0817794
-0.0804321
-0.0790156
-0.0775314
-0.0759814
-0.0743683
-0.0726949
-0.0709648
-0.0691821
-0.0673514
-0.0654776
-0.0635663
-0.0915433
-0.0921121
-0.0922053
-0.0922013
-0.0922484
-0.0922777
-0.0922305
-0.0921154
-0.0919443
-0.091709
-0.0913981
-0.0910074
-0.0905369
-0.0899862
-0.0893551
-0.0886445
-0.0878552
-0.0869882
-0.0860443
-0.0850245
-0.0839301
-0.0827629
-0.0815248
-0.0802178
-0.0788442
-0.0774062
-0.0759065
-0.0743482
-0.0727346
-0.0710696
-0.0693575
-0.067603
-0.0658112
-0.0639874
-0.0621373
-0.0883091
-0.0892078
-0.0897627
-0.0901408
-0.0904414
-0.0906594
-0.0907699
-0.0907764
-0.0906907
-0.0905146
-0.0902446
-0.0898798
-0.0894223
-0.0888746
-0.0882391
-0.0875181
-0.0867139
-0.0858288
-0.0848649
-0.0838245
-0.0827101
-0.0815245
-0.0802705
-0.0789508
-0.0775687
-0.0761271
-0.0746295
-0.0730795
-0.0714813
-0.069839
-0.0681573
-0.0664411
-0.0646955
-0.0629257
-0.0611372
-0.0857895
-0.0869166
-0.0877805
-0.0884464
-0.0889676
-0.0893567
-0.0896102
-0.0897325
-0.0897335
-0.0896197
-0.0893941
-0.0890602
-0.0886227
-0.0880865
-0.087456
-0.0867353
-0.0859279
-0.0850373
-0.084067
-0.0830202
-0.0819006
-0.0807114
-0.079456
-0.0781379
-0.0767605
-0.0753275
-0.0738427
-0.0723101
-0.0707338
-0.0691184
-0.0674684
-0.0657885
-0.0640837
-0.062359
-0.0606193
-0.0841659
-0.0854455
-0.0865056
-0.0873661
-0.0880497
-0.0885685
-0.0889281
-0.0891362
-0.0892028
-0.0891371
-0.0889466
-0.0886385
-0.0882196
-0.0876963
-0.0870746
-0.0863596
-0.085556
-0.0846682
-0.0837005
-0.0826569
-0.0815411
-0.080357
-0.0791082
-0.0777983
-0.0764311
-0.0750105
-0.0735402
-0.0720244
-0.0704672
-0.0688731
-0.0672464
-0.0655918
-0.0639138
-0.0622172
-0.0605067
-0.0834932
-0.084867
-0.0860347
-0.0869992
-0.0877702
-0.0883581
-0.0887729
-0.0890252
-0.089126
-0.0890862
-0.0889156
-0.0886228
-0.0882159
-0.0877022
-0.087088
-0.0863793
-0.0855812
-0.0846987
-0.0837361
-0.0826978
-0.0815875
-0.0804093
-0.0791669
-0.0778639
-0.0765042
-0.0750917
-0.0736301
-0.0721235
-0.0705761
-0.068992
-0.0673756
-0.0657313
-0.0640636
-0.0623771
-0.0606763
-0.0834448
-0.0848666
-0.0860834
-0.0870931
-0.0879015
-0.0885184
-0.0889556
-0.0892247
-0.0893379
-0.0893068
-0.089142
-0.0888531
-0.0884488
-0.0879367
-0.0873236
-0.0866156
-0.0858182
-0.0849363
-0.0839744
-0.0829368
-0.0818275
-0.0806503
-0.079409
-0.0781073
-0.0767489
-0.0753377
-0.0738773
-0.0723719
-0.0708254
-0.0692421
-0.0676261
-0.0659818
-0.0643137
-0.0626263
-0.0609241
-0.067651
-0.0655184
-0.0632932
-0.0609764
-0.0585707
-0.0560794
-0.0535074
-0.0508612
-0.0481487
-0.0453798
-0.0677026
-0.0655817
-0.0633686
-0.0610644
-0.0586712
-0.0561925
-0.0536332
-0.0509997
-0.0482996
-0.0455424
-0.067857
-0.0657487
-0.0635482
-0.0612564
-0.0588755
-0.0564086
-0.0538603
-0.0512366
-0.0485451
-0.045795
-0.0680983
-0.0660004
-0.0638099
-0.0615275
-0.0591549
-0.0566953
-0.054153
-0.0515339
-0.0488455
-0.046097
-0.0683577
-0.0662656
-0.0640808
-0.061804
-0.0594363
-0.0569809
-0.0544422
-0.0518262
-0.0491407
-0.0463953
-0.0685708
-0.0664813
-0.0642981
-0.0620222
-0.0596555
-0.0572012
-0.0546643
-0.0520511
-0.0493699
-0.0466309
-0.0686648
-0.0665703
-0.0643828
-0.0621036
-0.0597353
-0.0572817
-0.0547485
-0.0521429
-0.0494739
-0.0467525
-0.0685632
-0.0664585
-0.0642631
-0.0619793
-0.0596105
-0.0571618
-0.0546398
-0.0520527
-0.0494106
-0.0467253
-0.0681886
-0.0660708
-0.0638676
-0.0615823
-0.0592199
-0.0567866
-0.0542904
-0.0517406
-0.0491483
-0.0465258
-0.0674654
-0.0653379
-0.063134
-0.0608584
-0.0585177
-0.0561193
-0.0536723
-0.051187
-0.048675
-0.0461486
-0.0663538
-0.0642301
-0.0620427
-0.0597981
-0.0575036
-0.0551679
-0.0528008
-0.0504127
-0.048015
-0.0456197
-0.0648968
-0.0628001
-0.0606553
-0.0584697
-0.0562514
-0.0540095
-0.0517534
-0.0494933
-0.0472397
-0.045003
-0.0632443
-0.0612016
-0.0591267
-0.0570273
-0.0549116
-0.052788
-0.0506654
-0.0485527
-0.0464588
-0.0443922
-0.0616236
-0.059656
-0.0576703
-0.0556738
-0.053674
-0.0516784
-0.0496946
-0.0477297
-0.0457909
-0.0438847
-0.0602669
-0.0583824
-0.0564901
-0.0545965
-0.0527081
-0.050831
-0.0489714
-0.0471349
-0.0453268
-0.0435519
-0.0593356
-0.0575264
-0.0557153
-0.0539078
-0.0521092
-0.0503248
-0.0485593
-0.0468171
-0.0451023
-0.0434183
-0.0588698
-0.0571154
-0.0553612
-0.0536119
-0.0518722
-0.0501464
-0.0484386
-0.0467523
-0.045091
-0.0434575
-0.058787
-0.0570627
-0.0553385
-0.0536188
-0.0519077
-0.0502092
-0.0485271
-0.0468646
-0.0452249
-0.0436106
-0.0589659
-0.0572502
-0.0555337
-0.0538207
-0.0521153
-0.0504214
-0.0487425
-0.047082
-0.045443
-0.0438282
-0.0592117
-0.0574934
-0.0557737
-0.0540568
-0.0523468
-0.0506477
-0.048963
-0.0472961
-0.0456502
-0.0440279
-0.0425656
-0.0397192
-0.0368548
-0.033988
-0.0311354
-0.0283143
-0.0255422
-0.0228366
-0.0202144
-0.0176918
-0.0152834
-0.0130025
-0.01086
-0.00886487
-0.00702382
-0.00534084
-0.00381736
-0.00245333
-0.00124666
-0.000192849
0.00071419
0.00148192
0.0021189
0.00263451
0.00303867
0.00334152
0.00355325
0.00368385
0.00374295
0.00373967
0.0036825
0.00357923
0.0034369
0.00326178
0.00305932
-0.0427391
-0.0399026
-0.0370471
-0.0341879
-0.0313415
-0.0285253
-0.0257569
-0.0230538
-0.020433
-0.0179108
-0.0155021
-0.0132201
-0.0110755
-0.00907727
-0.00723278
-0.00554615
-0.00401925
-0.00265165
-0.00144082
-0.000382318
0.000529928
0.00130338
0.00194659
0.00246891
0.00288021
0.00319059
0.00341017
0.00354889
0.00361629
0.0036214
0.00357263
0.00347771
0.00334358
0.00317642
0.00298165
-0.0429975
-0.0401652
-0.0373125
-0.0344548
-0.0316087
-0.0287918
-0.0260218
-0.0233163
-0.0206927
-0.0181677
-0.0157561
-0.013471
-0.0113237
-0.00932304
-0.00747594
-0.0057866
-0.00425684
-0.0028862
-0.00167213
-0.000610129
0.000305962
0.0010837
0.00173171
0.0022594
0.00267668
0.00299369
0.00322054
0.00336714
0.00344298
0.00345706
0.00341771
0.00333255
0.00320847
0.00305157
0.00286714
-0.0433
-0.0404676
-0.0376142
-0.0347553
-0.0319079
-0.0290897
-0.0263186
-0.0236127
-0.0209893
-0.018465
-0.0160549
-0.0137721
-0.0116279
-0.00963106
-0.00778822
-0.00610336
-0.00457806
-0.0032116
-0.00200113
-0.000941879
-2.7438e-05
0.00074996
0.00139911
0.00192956
0.00235128
0.00267443
0.00290912
0.00306519
0.00315206
0.00317858
0.00315297
0.00308269
0.00297447
0.00283424
0.00266715
-0.0436013
-0.0407722
-0.0379227
-0.035069
-0.0322282
-0.0294183
-0.0266577
-0.0239644
-0.0213557
-0.0188481
-0.0164563
-0.0141932
-0.0120696
-0.0100939
-0.00827186
-0.00660708
-0.00510052
-0.0037509
-0.00255484
-0.00150713
-0.000601005
0.000171568
0.00081956
0.00135258
0.0017806
0.00211367
0.00236175
0.00253444
0.00264092
0.00268972
0.00268875
0.00264515
0.00256533
0.00245492
0.00231877
-0.0438462
-0.0410294
-0.038196
-0.0353623
-0.0325458
-0.0297646
-0.0270368
-0.0243802
-0.0218119
-0.0193474
-0.0170008
-0.0147841
-0.0127071
-0.0107772
-0.00899921
-0.0073756
-0.00590642
-0.00458956
-0.00342094
-0.00239477
-0.00150389
-0.000740025
-9.4122e-05
0.000443367
0.000882211
0.00123217
0.00150277
0.00170318
0.00184201
0.00192728
0.00196633
0.00196574
0.00193139
0.00186842
0.00178124
-0.0439913
-0.0412047
-0.0384084
-0.0356189
-0.0328538
-0.0301307
-0.0274674
-0.0248806
-0.0223864
-0.0199992
-0.0177315
-0.0155939
-0.0135944
-0.011739
-0.010031
-0.00847136
-0.00705899
-0.00579071
-0.00466163
-0.00366539
-0.00279448
-0.00204053
-0.0013946
-0.000847456
-0.000389786
-1.24484e-05
0.000293389
0.00053609
0.000723468
0.000862693
0.000960269
0.001022
0.001053
0.0010577
0.00103992
-0.0440101
-0.0412797
-0.0385498
-0.035837
-0.033158
-0.0305299
-0.0279688
-0.0254903
-0.0231084
-0.0208355
-0.0186822
-0.0166567
-0.0147651
-0.0130111
-0.0113963
-0.00992
-0.00857977
-0.00737136
-0.00628914
-0.00532633
-0.00447531
-0.00372788
-0.00307552
-0.00250962
-0.0020217
-0.00160355
-0.00124739
-0.000945939
-0.000692495
-0.000480982
-0.000305968
-0.000162648
-4.68406e-05
4.50519e-05
0.000116076
-0.0438868
-0.0412459
-0.0386184
-0.0360201
-0.0334664
-0.0309727
-0.028553
-0.0262207
-0.0239872
-0.0218624
-0.019854
-0.0179677
-0.0162071
-0.0145738
-0.0130672
-0.0116853
-0.0104242
-0.00927901
-0.00824352
-0.00731091
-0.00647381
-0.00572458
-0.00505547
-0.00445891
-0.00392755
-0.00345444
-0.00303311
-0.00265762
-0.00232257
-0.00202317
-0.00175519
-0.00151493
-0.00129923
-0.00110542
-0.000931233
-0.0436214
-0.0411072
-0.0386201
-0.0361741
-0.0337827
-0.0314587
-0.0292136
-0.0270576
-0.0249992
-0.0230452
-0.0212005
-0.019468
-0.017849
-0.0163428
-0.0149473
-0.0136592
-0.0124738
-0.0113858
-0.010389
-0.00947696
-0.008643
-0.00788041
-0.00718262
-0.00654334
-0.00595664
-0.00541702
-0.00491947
-0.00445948
-0.00403306
-0.00363669
-0.00326736
-0.00292247
-0.00259986
-0.00229771
-0.00201453
-0.043239
-0.0408853
-0.0385707
-0.0363068
-0.0341043
-0.0319731
-0.0299215
-0.0279566
-0.0260837
-0.0243066
-0.0226275
-0.0210469
-0.0195642
-0.018177
-0.0168823
-0.0156759
-0.0145531
-0.0135085
-0.0125366
-0.0116318
-0.0107884
-0.010001
-0.00926437
-0.00857367
-0.00792446
-0.00731274
-0.00673492
-0.00618788
-0.00566888
-0.0051756
-0.0047061
-0.00425874
-0.0038322
-0.0034254
-0.00303747
-0.0427938
-0.0406222
-0.0384977
-0.0364291
-0.0344242
-0.0324896
-0.0306307
-0.0288515
-0.0271546
-0.0255414
-0.0240119
-0.0225651
-0.0211988
-0.0199101
-0.0186954
-0.0175506
-0.0164712
-0.0154526
-0.0144903
-0.0135796
-0.0127163
-0.0118962
-0.0111154
-0.0103707
-0.00965895
-0.00897738
-0.0083237
-0.00769591
-0.00709234
-0.0065116
-0.00595257
-0.00541437
-0.00489628
-0.0043978
-0.0039185
-0.0423612
-0.0403735
-0.0384358
-0.0365542
-0.0347336
-0.032978
-0.0312902
-0.0296719
-0.0281237
-0.0266453
-0.0252356
-0.0238925
-0.0226136
-0.0213956
-0.0202354
-0.0191293
-0.0180736
-0.0170647
-0.0160991
-0.0151734
-0.0142845
-0.0134295
-0.012606
-0.0118115
-0.0110442
-0.0103023
-0.00958448
-0.00888953
-0.00821654
-0.00756477
-0.00693364
-0.00632276
-0.00573184
-0.00516076
-0.00460965
-0.0420171
-0.0401932
-0.0384177
-0.0366942
-0.0350256
-0.0334138
-0.0318599
-0.0303642
-0.0289262
-0.0275448
-0.0262185
-0.024945
-0.0237221
-0.0225471
-0.0214172
-0.0203297
-0.0192817
-0.0182707
-0.0172942
-0.0163498
-0.0154354
-0.0145491
-0.0136892
-0.0128544
-0.0120434
-0.0112552
-0.0104889
-0.00974402
-0.00901998
-0.00831642
-0.00763312
-0.00696999
-0.00632722
-0.00570491
-0.00510283
-0.0418143
-0.0401174
-0.0384642
-0.0368569
-0.0352968
-0.0337849
-0.0323214
-0.0309059
-0.0295377
-0.0282156
-0.026938
-0.0257033
-0.0245095
-0.0233547
-0.0222366
-0.0211535
-0.0201032
-0.019084
-0.0180941
-0.0171319
-0.016196
-0.0152851
-0.0143982
-0.0135344
-0.0126927
-0.0118727
-0.0110737
-0.0102955
-0.00953778
-0.00880038
-0.00808339
-0.00738699
-0.006711
-0.00605532
-0.00541998
-0.0417682
-0.0401544
-0.0385788
-0.0370429
-0.0355475
-0.0340932
-0.0326798
-0.0313072
-0.0299745
-0.0286809
-0.0274253
-0.0262062
-0.0250224
-0.0238724
-0.0227546
-0.0216678
-0.0206104
-0.0195811
-0.0185787
-0.017602
-0.01665
-0.0157218
-0.0148166
-0.0139337
-0.0130725
-0.0122326
-0.0114136
-0.0106152
-0.00983746
-0.00908034
-0.00834373
-0.00762751
-0.00693173
-0.00625649
-0.00560194
-0.0418542
-0.0402832
-0.0387462
-0.0372443
-0.0357783
-0.0343486
-0.0329555
-0.0315986
-0.0302777
-0.0289921
-0.0277409
-0.0265233
-0.0253382
-0.0241845
-0.0230612
-0.0219671
-0.0209011
-0.0198622
-0.0188494
-0.0178616
-0.0168982
-0.0159582
-0.0150411
-0.0141462
-0.0132731
-0.0124214
-0.0115907
-0.010781
-0.00999216
-0.00922387
-0.0084762
-0.00774912
-0.00704277
-0.00635719
-0.00569256
-0.0420241
-0.0404673
-0.0389418
-0.0374488
-0.0359893
-0.0345639
-0.0331727
-0.031816
-0.0304933
-0.0292044
-0.0279485
-0.0267252
-0.0255334
-0.0243724
-0.0232412
-0.0221388
-0.0210642
-0.0200166
-0.018995
-0.0179987
-0.0170266
-0.0160783
-0.015153
-0.0142503
-0.0133695
-0.0125105
-0.0116728
-0.0108563
-0.0100607
-0.0092861
-0.00853231
-0.00779945
-0.00708751
-0.00639665
-0.00572687
-0.0422398
-0.04068
-0.0391505
-0.0376524
-0.036187
-0.0347548
-0.0333562
-0.0319915
-0.0306604
-0.0293628
-0.0280981
-0.0268658
-0.025665
-0.024495
-0.023355
-0.0222439
-0.021161
-0.0201052
-0.0190758
-0.0180718
-0.0170926
-0.0161373
-0.0152055
-0.0142965
-0.0134099
-0.0125452
-0.0117023
-0.0108808
-0.0100805
-0.00930149
-0.00854363
-0.00780693
-0.00709147
-0.00639728
-0.00572448
-0.0424317
-0.0408637
-0.0393256
-0.0378189
-0.0363445
-0.0349033
-0.0334957
-0.032122
-0.030782
-0.0294756
-0.0282023
-0.0269616
-0.0257527
-0.0245748
-0.0234271
-0.0223087
-0.0212188
-0.0201563
-0.0191204
-0.0181104
-0.0171254
-0.0161646
-0.0152276
-0.0143136
-0.0134223
-0.0125533
-0.0117062
-0.0108808
-0.0100769
-0.00929453
-0.00853354
-0.00779396
-0.00707583
-0.00637924
-0.00570425
0.00283422
0.00259039
0.00233102
0.0020586
0.00177497
0.00148135
0.00117824
0.000866234
0.00054447
0.00021536
0.00276387
0.00252696
0.00227406
0.00200762
0.00172947
0.00144085
0.00114232
0.000835297
0.000516402
0.000210877
0.00265974
0.00243315
0.00219044
0.00193403
0.0016657
0.00138675
0.00109755
0.000800339
0.000488236
0.000211138
0.00247761
0.00226927
0.00204509
0.0018074
0.00155791
0.00129789
0.00102756
0.000749245
0.000454715
0.000198978
0.00216104
0.00198515
0.00179389
0.00158943
0.00137341
0.00114688
0.000910467
0.00066468
0.000407006
0.000160243
0.00167359
0.00154856
0.00140866
0.00125586
0.00109169
0.000917009
0.000733172
0.000537424
0.000341013
9.37832e-05
0.00100284
0.000949103
0.00088086
0.000799798
0.000707402
0.000604119
0.000492852
0.000365881
0.000253887
9.44596e-06
0.000168784
0.000205275
0.000227288
0.000236189
0.000233332
0.000218948
0.000197103
0.000155822
0.000144023
-7.75602e-05
-0.000774812
-0.000634615
-0.000509349
-0.00039799
-0.000299315
-0.000213435
-0.000135267
-7.98125e-05
1.34144e-05
-0.000152274
-0.00174908
-0.00150037
-0.00126751
-0.00104982
-0.000846302
-0.000657158
-0.000477386
-0.000322227
-0.000130192
-0.000203974
-0.00266774
-0.00231561
-0.00198057
-0.00166224
-0.00135997
-0.00107396
-0.000799928
-0.000550844
-0.000274829
-0.000228395
-0.00345812
-0.00301655
-0.00259355
-0.00218875
-0.00180157
-0.00143229
-0.00107795
-0.000747716
-0.000406262
-0.000228054
-0.00407845
-0.00356684
-0.00307458
-0.00260158
-0.00214764
-0.0017129
-0.00129588
-0.000901313
-0.000512267
-0.000211032
-0.00452082
-0.00395891
-0.00341713
-0.0028955
-0.00239392
-0.00191244
-0.00145046
-0.00100932
-0.000586618
-0.000187663
-0.00480516
-0.00421093
-0.00363738
-0.00308448
-0.0025522
-0.00204039
-0.00154899
-0.0010771
-0.000630397
-0.000167036
-0.0049682
-0.00435535
-0.00376347
-0.00319252
-0.00264245
-0.00211305
-0.00160419
-0.00111431
-0.000650116
-0.000154643
-0.00504891
-0.0044264
-0.00382499
-0.00324475
-0.00268553
-0.00214715
-0.00162933
-0.00113058
-0.000654072
-0.000151767
-0.00507835
-0.00445109
-0.00384519
-0.00326059
-0.00269725
-0.00215496
-0.00163344
-0.00113155
-0.0006477
-0.000155678
-0.00507314
-0.00444332
-0.00383505
-0.00324835
-0.00268314
-0.0021393
-0.0016167
-0.00111422
-0.000627856
-0.000158652
-0.00505095
-0.0044194
-0.00380965
-0.0032217
-0.0026555
-0.00211102
-0.00158831
-0.00108631
-0.000601462
-0.000154724
)
;

boundaryField
{
    inlet
    {
        type            zeroGradient;
    }
    outlet
    {
        type            fixedValue;
        value           uniform 0;
    }
    upperWall
    {
        type            zeroGradient;
    }
    lowerWall
    {
        type            zeroGradient;
    }
    frontAndBack
    {
        type            empty;
    }
}


// ************************************************************************* //
