/*--------------------------------*- C++ -*----------------------------------*\
| =========                 |                                                 |
| \\      /  F ield         | OpenFOAM: The Open Source CFD Toolbox           |
|  \\    /   O peration     | Version:  2406                                  |
|   \\  /    A nd           | Website:  www.openfoam.com                      |
|    \\/     M anipulation  |                                                 |
\*---------------------------------------------------------------------------*/
FoamFile
{
    version     2.0;
    format      ascii;
    arch        "LSB;label=32;scalar=64";
    class       volScalarField;
    location    "62";
    object      p;
}
// * * * * * * * * * * * * * * * * * * * * * * * * * * * * * * * * * * * * * //

dimensions      [0 2 -2 0 0 0 0];

internalField   nonuniform List<scalar> 
1800
(
0.0799751
0.0814658
0.0822566
0.0820168
0.0811109
0.0796766
0.0776475
0.0749255
0.0714239
0.0670198
0.0827229
0.0827585
0.0827416
0.0823204
0.0813849
0.0799375
0.0779542
0.0753883
0.0722215
0.0684866
0.0863649
0.0850959
0.0841995
0.0836156
0.0827808
0.0814979
0.0798043
0.0777673
0.0755128
0.0733541
0.090531
0.0886543
0.0872274
0.0865299
0.0858378
0.0848134
0.0835248
0.0821118
0.0807155
0.0795411
0.0948837
0.0927705
0.0911156
0.0904075
0.0899041
0.0891991
0.0883609
0.0875473
0.0868696
0.0864429
0.0987947
0.0966624
0.0950837
0.094549
0.0942958
0.0939217
0.0935044
0.0931947
0.0930728
0.0931985
0.101583
0.0996632
0.0984433
0.098217
0.0982198
0.0981328
0.0980543
0.0981117
0.0983603
0.0988348
0.102701
0.101402
0.100792
0.100858
0.101022
0.101129
0.101278
0.101554
0.101997
0.102639
0.101876
0.10189
0.102147
0.102402
0.102575
0.102732
0.102943
0.103257
0.10372
0.104367
0.0998586
0.101252
0.102224
0.102603
0.102794
0.102993
0.10323
0.103539
0.103977
0.10459
0.0675199
0.0674776
0.0674348
0.0674028
0.0673789
0.0673612
0.0673499
0.067346
0.0673503
0.0673643
0.0673892
0.0674276
0.0674831
0.0675627
0.0676779
0.0678488
0.0681089
0.0685112
0.0691337
0.070084
0.0715
0.0735471
0.0764063
0.0802461
0.0852015
0.0913844
0.0987741
0.107077
0.115727
0.123911
0.130709
0.135325
0.136846
0.134426
0.127774
0.0675694
0.0675244
0.0674864
0.0674608
0.0674413
0.0674268
0.0674188
0.0674191
0.0674292
0.0674513
0.0674878
0.0675425
0.0676197
0.0677245
0.0678639
0.0680498
0.0683048
0.0686673
0.0691949
0.0699704
0.071112
0.0727849
0.0752157
0.0786857
0.0834482
0.0895616
0.0968806
0.105078
0.113583
0.121675
0.128432
0.132829
0.133974
0.131178
0.124133
0.0676069
0.067552
0.0675134
0.0674909
0.0674728
0.0674584
0.0674503
0.0674513
0.0674632
0.0674883
0.0675292
0.067588
0.0676653
0.0677598
0.0678703
0.0679995
0.0681588
0.0683709
0.0686732
0.0691418
0.0699304
0.0712823
0.073487
0.0768274
0.0814679
0.0874041
0.0944774
0.102376
0.110506
0.11806
0.124079
0.127554
0.127598
0.123548
0.11514
0.0675811
0.0675159
0.067475
0.0674518
0.0674305
0.0674126
0.0674015
0.0673999
0.0674107
0.0674355
0.0674752
0.067528
0.0675888
0.0676504
0.0677067
0.0677569
0.067809
0.0678817
0.068017
0.0683172
0.0689781
0.0702597
0.0723648
0.0755319
0.0799535
0.0856184
0.0923373
0.099708
0.107075
0.113567
0.11817
0.119837
0.117655
0.111018
0.099835
0.0674395
0.0673728
0.0673358
0.0673142
0.0672926
0.0672736
0.0672624
0.067262
0.0672751
0.0673023
0.0673414
0.0673873
0.0674326
0.0674699
0.0674954
0.06751
0.067523
0.0675564
0.0676528
0.0679197
0.0685497
0.0697879
0.0718803
0.0750269
0.0793418
0.0847706
0.0910511
0.0976902
0.103951
0.10888
0.111379
0.11031
0.104674
0.0938193
0.0779013
0.0671245
0.0670818
0.0670729
0.0670706
0.0670633
0.0670566
0.0670572
0.0670691
0.0670939
0.0671312
0.0671776
0.0672278
0.067275
0.067316
0.0673484
0.0673667
0.0673802
0.0674251
0.0675668
0.067929
0.0687037
0.0701203
0.0723922
0.075673
0.0800116
0.0852818
0.0911297
0.0969586
0.101931
0.105004
0.104991
0.100648
0.0908402
0.074554
0.0518677
0.0665694
0.0666168
0.0667004
0.0667624
0.0667987
0.0668272
0.0668574
0.0668957
0.066945
0.0670025
0.0670646
0.0671302
0.067193
0.0672476
0.0672987
0.0673562
0.0674415
0.0676087
0.0679499
0.0686009
0.0697463
0.0715889
0.074299
0.0779684
0.0825597
0.0878497
0.0933888
0.0984915
0.102232
0.103478
0.100893
0.0931074
0.0788321
0.0567783
0.027192
0.0656146
0.0659776
0.0663089
0.0665082
0.0666217
0.0667
0.0667651
0.0668283
0.0668991
0.0669764
0.0670562
0.0671411
0.0672347
0.0673445
0.0674892
0.0676974
0.0680142
0.0685163
0.0693153
0.0705515
0.0723867
0.0749752
0.0784202
0.0827274
0.0877648
0.0932291
0.0986215
0.103239
0.106142
0.106148
0.101626
0.0907641
0.0709221
0.0407983
0.00142315
0.0635891
0.0652041
0.0661398
0.066473
0.0666377
0.0667661
0.0668557
0.0669252
0.0670035
0.0671048
0.0672378
0.0674146
0.0676532
0.0679775
0.0684216
0.0690329
0.069877
0.0710429
0.0726407
0.07479
0.077604
0.0811651
0.0854903
0.0904997
0.095996
0.101651
0.107001
0.111441
0.114186
0.114231
0.109912
0.0989813
0.075563
0.0355532
-0.034815
0.0597293
0.064516
0.0664589
0.0666466
0.066737
0.0669449
0.0671187
0.067269
0.0674689
0.0677493
0.0681202
0.0686059
0.0692443
0.0700753
0.0711408
0.0724925
0.0741951
0.0763248
0.0789631
0.0821827
0.0860309
0.0905116
0.095566
0.10106
0.106777
0.112425
0.117647
0.12203
0.125105
0.126335
0.124803
0.119255
0.104397
0.0737563
-0.0283218
0.0633361
0.065946
0.0674388
0.0674001
0.0674239
0.0677813
0.0682134
0.0686742
0.0692443
0.0699659
0.0708546
0.0719433
0.0732789
0.0749027
0.0768481
0.0791502
0.0818501
0.084992
0.0886136
0.0927331
0.0973366
0.102368
0.107724
0.113252
0.118754
0.12401
0.128787
0.132881
0.136126
0.138435
0.139735
0.140153
0.139001
0.137114
0.117603
0.0661902
0.0671626
0.0686775
0.0693933
0.0699162
0.0706529
0.0715493
0.0725543
0.0737087
0.0750584
0.0766359
0.0784782
0.0806228
0.0830951
0.0859073
0.0890686
0.0925892
0.0964766
0.100726
0.105309
0.110168
0.115213
0.120324
0.125358
0.13016
0.134583
0.138508
0.141872
0.144693
0.147097
0.149314
0.151736
0.1546
0.158284
0.159249
0.0721229
0.0724571
0.0735986
0.0745698
0.0754176
0.0764796
0.0778195
0.0793707
0.0811184
0.0830968
0.0853427
0.0878809
0.0907232
0.0938684
0.097305
0.101017
0.104986
0.109187
0.113579
0.118104
0.122681
0.127211
0.131586
0.135693
0.139432
0.142725
0.145533
0.147872
0.149824
0.151558
0.15333
0.155501
0.158395
0.162215
0.165092
0.0789325
0.0792151
0.0802123
0.0814304
0.0827423
0.084285
0.0861085
0.0881681
0.0904447
0.0929611
0.0957402
0.0987839
0.102077
0.105596
0.109308
0.113179
0.117167
0.121223
0.125287
0.129289
0.133152
0.136795
0.140141
0.143128
0.145711
0.147872
0.14962
0.150999
0.152091
0.153034
0.154036
0.155387
0.157403
0.160143
0.162357
0.0864355
0.0870092
0.0881305
0.0895864
0.0912506
0.0931411
0.0952863
0.0976753
0.100295
0.103143
0.106213
0.10948
0.11291
0.11646
0.120087
0.12374
0.127367
0.13091
0.134312
0.137513
0.140462
0.143113
0.145437
0.147418
0.149058
0.150376
0.151399
0.152164
0.152723
0.153163
0.153641
0.154406
0.155723
0.157532
0.158987
0.0936529
0.0945142
0.0957875
0.0973923
0.0992508
0.101346
0.103682
0.10625
0.109027
0.111985
0.115093
0.118312
0.121597
0.124899
0.128167
0.13135
0.134398
0.137267
0.139915
0.142312
0.144438
0.146286
0.147862
0.149183
0.150271
0.151153
0.151849
0.152373
0.15274
0.153002
0.153282
0.153793
0.154703
0.155915
0.156823
0.0995784
0.100633
0.102011
0.103684
0.105611
0.107769
0.110143
0.11271
0.11544
0.118295
0.121234
0.124211
0.127181
0.130093
0.132904
0.13557
0.138057
0.14034
0.142402
0.144237
0.145849
0.147248
0.148455
0.149492
0.150381
0.151139
0.151772
0.152276
0.152649
0.152927
0.153215
0.153668
0.154397
0.155259
0.155727
0.10351
0.104636
0.106028
0.107676
0.109558
0.111653
0.113936
0.11638
0.118951
0.121608
0.124309
0.127011
0.129669
0.132243
0.134698
0.137005
0.139144
0.141105
0.142883
0.144481
0.145907
0.147173
0.148295
0.149286
0.15016
0.150925
0.151583
0.152131
0.152573
0.152945
0.153332
0.153845
0.154506
0.155079
0.155235
0.105229
0.106323
0.107656
0.109224
0.111011
0.112999
0.115162
0.117473
0.119898
0.122399
0.124937
0.127473
0.129968
0.132389
0.134705
0.136894
0.13894
0.140835
0.142575
0.144159
0.14559
0.146873
0.148017
0.149034
0.149933
0.150723
0.151409
0.151999
0.152512
0.152987
0.153489
0.154068
0.154671
0.155064
0.155083
0.105407
0.106446
0.107714
0.109211
0.110927
0.112845
0.114943
0.117192
0.119561
0.122015
0.124517
0.127028
0.129512
0.131934
0.134263
0.136475
0.13855
0.140476
0.142248
0.143864
0.145326
0.146641
0.147816
0.148862
0.149786
0.150597
0.151301
0.151914
0.152465
0.153002
0.153578
0.15421
0.154805
0.155146
0.155138
0.117077
0.102951
0.0863678
0.0684673
0.0503289
0.0328217
0.0165676
0.0019563
-0.0108111
-0.0217966
0.11303
0.098548
0.0817429
0.0638001
0.0457763
0.0284874
0.0125122
-0.00179847
-0.0143482
-0.0252004
0.102651
0.0869485
0.069356
0.0512034
0.0334657
0.0168043
0.00168764
-0.011623
-0.0230937
-0.0328382
0.084636
0.0666839
0.0478299
0.0295486
0.0125241
-0.00286688
-0.0163063
-0.0276872
-0.0371579
-0.0449894
0.0580396
0.0366514
0.0165737
-0.00108983
-0.016559
-0.0298392
-0.040692
-0.0491977
-0.0557658
-0.0608653
0.0242159
-0.00277083
-0.0237541
-0.0394985
-0.0522525
-0.0623252
-0.0694572
-0.0740478
-0.0768383
-0.0784768
-0.01146
-0.0475523
-0.0696825
-0.0827767
-0.0920475
-0.0976911
-0.0996464
-0.0990659
-0.0971534
-0.0947142
-0.0534814
-0.0973092
-0.116605
-0.124047
-0.127224
-0.126321
-0.122065
-0.116196
-0.109879
-0.103742
-0.131903
-0.158438
-0.156881
-0.150714
-0.143552
-0.135735
-0.127753
-0.120001
-0.112534
-0.105239
-0.221701
-0.19521
-0.169298
-0.158672
-0.148535
-0.13821
-0.128713
-0.12025
-0.112713
-0.10574
-0.0312817
-0.0394755
-0.0464472
-0.0522551
-0.0569904
-0.0607532
-0.0636309
-0.0656977
-0.0670206
-0.0676626
-0.0676833
-0.0671383
-0.0660801
-0.0645583
-0.0626214
-0.0603174
-0.0576944
-0.0548009
-0.051686
-0.0483995
-0.0449917
-0.0415135
-0.0380162
-0.0345502
-0.0311642
-0.0279027
-0.0248041
-0.021898
-0.0192044
-0.0167334
-0.0144859
-0.0124579
-0.0106409
-0.00902291
-0.00759033
-0.0344359
-0.0421959
-0.0486682
-0.0540094
-0.0583447
-0.0617755
-0.0643827
-0.0662317
-0.0673788
-0.0678765
-0.0677759
-0.0671269
-0.0659782
-0.0643769
-0.0623691
-0.0600008
-0.0573178
-0.0543674
-0.0511979
-0.0478598
-0.0444055
-0.0408887
-0.0373638
-0.0338842
-0.0305006
-0.0272578
-0.0241928
-0.0213317
-0.0186894
-0.0162702
-0.0140711
-0.0120876
-0.0103128
-0.00873564
-0.00734366
-0.0410367
-0.0478959
-0.0536058
-0.0583189
-0.0621442
-0.0651627
-0.0674408
-0.0690333
-0.0699859
-0.0703398
-0.0701351
-0.0694113
-0.068207
-0.0665599
-0.0645074
-0.0620871
-0.0593375
-0.0562987
-0.053014
-0.0495304
-0.0459
-0.0421792
-0.0384284
-0.0347093
-0.0310827
-0.0276046
-0.0243227
-0.0212731
-0.0184792
-0.015951
-0.0136873
-0.0116788
-0.00990934
-0.0083576
-0.00700019
-0.0514648
-0.0568432
-0.0613218
-0.0650222
-0.0680212
-0.0703803
-0.0721539
-0.0733822
-0.0740916
-0.0743053
-0.0740472
-0.0733419
-0.0722125
-0.070681
-0.068769
-0.0664986
-0.0638928
-0.0609764
-0.0577771
-0.054327
-0.0506641
-0.0468339
-0.0428892
-0.0388898
-0.0349005
-0.0309885
-0.0272189
-0.0236511
-0.0203349
-0.0173077
-0.0145929
-0.0122001
-0.0101242
-0.00834688
-0.00684092
-0.0649066
-0.0682427
-0.071095
-0.0735113
-0.0754816
-0.0770281
-0.0781898
-0.0789831
-0.0794041
-0.0794499
-0.0791277
-0.0784509
-0.077434
-0.0760887
-0.074424
-0.0724463
-0.0701612
-0.0675742
-0.0646932
-0.0615299
-0.0581018
-0.0544331
-0.0505563
-0.046513
-0.0423537
-0.0381368
-0.0339272
-0.0297926
-0.0258011
-0.0220174
-0.0185004
-0.0152997
-0.0124519
-0.00997856
-0.00788282
-0.079503
-0.0804112
-0.0814437
-0.0824923
-0.0833868
-0.0840892
-0.0846234
-0.0849849
-0.0851399
-0.0850546
-0.0847107
-0.0841051
-0.0832444
-0.0821372
-0.080788
-0.0791944
-0.0773476
-0.0752357
-0.0728468
-0.0701725
-0.0672095
-0.0639608
-0.0604371
-0.0566574
-0.0526494
-0.0484501
-0.044105
-0.0396668
-0.0351944
-0.0307529
-0.0264133
-0.022252
-0.0183483
-0.0147781
-0.0116056
-0.0924163
-0.0909709
-0.0904536
-0.0903766
-0.0903872
-0.0904047
-0.0904214
-0.0904115
-0.0903373
-0.090159
-0.0898392
-0.0893537
-0.088696
-0.0878709
-0.086883
-0.0857284
-0.0843914
-0.082848
-0.0810703
-0.0790317
-0.0767093
-0.0740865
-0.0711541
-0.0679113
-0.0643658
-0.0605338
-0.0564374
-0.0521035
-0.0475622
-0.0428504
-0.0380163
-0.0331255
-0.0282644
-0.0235389
-0.0190671
-0.0986668
-0.0958936
-0.094838
-0.0943613
-0.0940541
-0.0938798
-0.0937829
-0.0936949
-0.0935866
-0.0934407
-0.0932293
-0.0929243
-0.0925135
-0.0920005
-0.0913933
-0.0906928
-0.0898862
-0.0889475
-0.0878413
-0.086528
-0.0849684
-0.0831279
-0.0809795
-0.0785052
-0.0756978
-0.0725579
-0.0690903
-0.0652963
-0.0611715
-0.0567089
-0.0519088
-0.0467904
-0.0414055
-0.0358467
-0.0302479
-0.0991031
-0.096338
-0.0955748
-0.0952231
-0.0949581
-0.0948308
-0.0947952
-0.0947764
-0.0947437
-0.0946887
-0.0945965
-0.094449
-0.0942383
-0.0939704
-0.0936586
-0.0933125
-0.0929305
-0.0924961
-0.0919788
-0.0913361
-0.0905197
-0.0894828
-0.0881847
-0.0865965
-0.0847018
-0.0824959
-0.0799738
-0.0771173
-0.0738866
-0.0702233
-0.0660614
-0.0613479
-0.0560658
-0.0502549
-0.044022
-0.0991138
-0.0964803
-0.0956408
-0.0953021
-0.0951207
-0.0950481
-0.0950394
-0.0950498
-0.0950547
-0.0950405
-0.0949955
-0.0949113
-0.0947864
-0.0946291
-0.0944564
-0.0942853
-0.0941256
-0.0939749
-0.0938137
-0.0936061
-0.0933055
-0.0928628
-0.0922344
-0.0913897
-0.0903184
-0.0890279
-0.0875242
-0.0857861
-0.0837504
-0.0813094
-0.0783196
-0.0746298
-0.0701223
-0.0647474
-0.058545
-0.0967217
-0.0960491
-0.0955808
-0.0953588
-0.0952521
-0.0952037
-0.095191
-0.0951934
-0.0951922
-0.0951717
-0.0951197
-0.0950305
-0.0949082
-0.0947656
-0.0946224
-0.0945012
-0.0944202
-0.0943861
-0.0943857
-0.0943864
-0.0943451
-0.0942163
-0.0939612
-0.0935559
-0.0930071
-0.0923521
-0.0916302
-0.090845
-0.089943
-0.0887965
-0.0872002
-0.084904
-0.0816694
-0.0773247
-0.0718016
-0.0955947
-0.0954724
-0.0953147
-0.0952122
-0.095161
-0.0951422
-0.0951445
-0.0951554
-0.0951601
-0.095144
-0.0950969
-0.0950137
-0.0948974
-0.0947609
-0.0946254
-0.0945157
-0.0944532
-0.0944503
-0.094501
-0.0945757
-0.0946276
-0.09461
-0.0944868
-0.0942443
-0.0939122
-0.093569
-0.0932945
-0.0931299
-0.0930561
-0.0929536
-0.0925841
-0.0916326
-0.0897698
-0.0867085
-0.0822568
-0.0950209
-0.0950225
-0.0949927
-0.0949648
-0.094958
-0.0949671
-0.0949877
-0.0950126
-0.0950318
-0.0950334
-0.0950058
-0.0949428
-0.0948446
-0.094722
-0.0945974
-0.094498
-0.0944484
-0.0944615
-0.094528
-0.0946159
-0.0946784
-0.0946719
-0.0945623
-0.0943301
-0.0940158
-0.0937408
-0.0936306
-0.0937753
-0.0942082
-0.0948243
-0.0953594
-0.095447
-0.0947046
-0.0927756
-0.0893842
-0.0946662
-0.094711
-0.0947284
-0.0947346
-0.0947476
-0.0947694
-0.0947971
-0.0948266
-0.0948517
-0.0948631
-0.0948514
-0.0948095
-0.0947364
-0.0946406
-0.0945394
-0.0944553
-0.0944111
-0.0944213
-0.0944839
-0.0945738
-0.0946457
-0.0946448
-0.0945208
-0.0942497
-0.093906
-0.093636
-0.0935654
-0.0938198
-0.0944964
-0.0955253
-0.0966266
-0.0973953
-0.0973987
-0.0962316
-0.0935856
-0.0944585
-0.0945147
-0.0945483
-0.0945664
-0.0945867
-0.0946114
-0.094638
-0.0946659
-0.0946906
-0.0947065
-0.0947059
-0.0946822
-0.0946334
-0.0945637
-0.0944843
-0.0944113
-0.0943605
-0.0943434
-0.0943627
-0.0944084
-0.0944555
-0.0944646
-0.0943872
-0.0941916
-0.0939057
-0.0936241
-0.093521
-0.0938382
-0.0946897
-0.0959544
-0.0973477
-0.0984719
-0.0988599
-0.098048
-0.095719
-0.0943573
-0.0944114
-0.094447
-0.0944678
-0.0944881
-0.0945103
-0.0945337
-0.0945569
-0.0945773
-0.0945917
-0.0945951
-0.0945831
-0.0945538
-0.0945097
-0.0944575
-0.0944057
-0.0943613
-0.0943286
-0.0943086
-0.0942997
-0.094297
-0.0942872
-0.0942437
-0.0941368
-0.0939604
-0.0937621
-0.0936899
-0.0939756
-0.0947934
-0.0961017
-0.0976244
-0.0988971
-0.0994249
-0.0987171
-0.0964187
-0.0943277
-0.0943739
-0.094407
-0.0944274
-0.0944469
-0.0944664
-0.0944858
-0.0945039
-0.0945195
-0.0945303
-0.0945335
-0.0945265
-0.0945081
-0.0944803
-0.0944479
-0.0944157
-0.0943859
-0.0943566
-0.0943257
-0.0942919
-0.0942583
-0.0942301
-0.0942073
-0.0941762
-0.0941177
-0.0940371
-0.09401
-0.0942032
-0.0948029
-0.0958767
-0.0972593
-0.0985143
-0.0990199
-0.0982101
-0.0957207
-0.0943411
-0.0943773
-0.0944074
-0.094428
-0.094447
-0.0944653
-0.0944824
-0.0944972
-0.0945091
-0.0945167
-0.0945185
-0.0945132
-0.0945003
-0.0944816
-0.0944599
-0.0944394
-0.0944216
-0.0944042
-0.0943824
-0.0943536
-0.0943194
-0.0942895
-0.0942757
-0.0942833
-0.0943046
-0.0943299
-0.0943703
-0.0944847
-0.0947717
-0.0953104
-0.0960736
-0.0968322
-0.0971151
-0.0963065
-0.0938847
-0.0943734
-0.0944016
-0.0944297
-0.0944527
-0.0944731
-0.0944917
-0.094508
-0.0945218
-0.0945322
-0.0945381
-0.0945388
-0.0945337
-0.0945231
-0.0945083
-0.0944915
-0.094475
-0.0944609
-0.0944495
-0.0944382
-0.0944242
-0.0944077
-0.094395
-0.0943979
-0.094428
-0.0944912
-0.0945847
-0.0946968
-0.0948153
-0.0949307
-0.0950282
-0.0950713
-0.0949562
-0.09445
-0.0931654
-0.090622
-0.0944022
-0.0944282
-0.0944591
-0.0944862
-0.094509
-0.0945286
-0.0945451
-0.0945584
-0.0945678
-0.0945727
-0.0945728
-0.0945681
-0.0945591
-0.094547
-0.0945333
-0.0945197
-0.094508
-0.0944993
-0.0944945
-0.0944945
-0.0945005
-0.094516
-0.0945473
-0.0946035
-0.094696
-0.0948355
-0.0950248
-0.0952481
-0.0954567
-0.0955595
-0.0954234
-0.0948736
-0.0936836
-0.0915729
-0.088243
-0.00632723
-0.00521716
-0.00424432
-0.00339405
-0.0026559
-0.0020242
-0.00149644
-0.00107466
-0.000742047
-0.00034991
-0.00612022
-0.00504802
-0.00410971
-0.00328827
-0.00256878
-0.00194097
-0.00141036
-0.000992803
-0.000678427
-0.000350967
-0.00581388
-0.00477834
-0.00387508
-0.0030841
-0.00238643
-0.00176976
-0.001243
-0.000839551
-0.00057548
-0.000362466
-0.00557306
-0.00450671
-0.00360326
-0.00282601
-0.00214543
-0.00154496
-0.00103612
-0.000655915
-0.000452568
-0.000367338
-0.0061478
-0.00473811
-0.00360492
-0.00269369
-0.00195174
-0.00134072
-0.000847483
-0.000504618
-0.000351483
-0.000398462
-0.00887299
-0.00659526
-0.00475776
-0.0033194
-0.00222095
-0.00140304
-0.000812769
-0.000455268
-0.000268056
-0.000639219
-0.0149659
-0.0113363
-0.00824731
-0.0057277
-0.00376169
-0.00231303
-0.00129048
-0.000725144
-0.000252706
-0.00129411
-0.0247749
-0.0196078
-0.0149164
-0.0108399
-0.00745915
-0.0048211
-0.00282595
-0.00165104
-0.00034321
-0.00251882
-0.0375387
-0.0310278
-0.0247382
-0.0189182
-0.0137642
-0.00945764
-0.00591713
-0.00361384
-0.000763792
-0.00430567
-0.05165
-0.0442859
-0.0367401
-0.0293399
-0.0223823
-0.0161965
-0.0107334
-0.00684452
-0.00186088
-0.00623726
-0.0651564
-0.0575684
-0.04932
-0.0407757
-0.0323031
-0.0243538
-0.0169366
-0.0112186
-0.00394081
-0.0077202
-0.0763599
-0.0691117
-0.060742
-0.0516051
-0.0421008
-0.0327682
-0.0236937
-0.0161999
-0.00701938
-0.00833096
-0.0843789
-0.077758
-0.069665
-0.0604005
-0.0503621
-0.0401261
-0.0299011
-0.0209395
-0.0106614
-0.00796903
-0.0892727
-0.0832258
-0.0755035
-0.0663314
-0.056085
-0.045346
-0.0344805
-0.0244988
-0.0140669
-0.00681619
-0.0917055
-0.085931
-0.0783976
-0.0692639
-0.058886
-0.04784
-0.0366759
-0.0261147
-0.0163193
-0.00518967
-0.0923872
-0.0865673
-0.0789327
-0.0696076
-0.0589553
-0.0475681
-0.0361971
-0.0253601
-0.0166654
-0.00336832
-0.091493
-0.0854677
-0.0775613
-0.0678814
-0.0568014
-0.0449416
-0.0332437
-0.02223
-0.014689
-0.00141871
-0.0895633
-0.0832507
-0.0748959
-0.0646653
-0.0530181
-0.0405774
-0.0283791
-0.0171271
-0.010433
0.0008491
-0.0863444
-0.0799849
-0.0714687
-0.0609639
-0.0488344
-0.0357688
-0.0228554
-0.0110688
-0.00433034
0.00417541
-0.0834341
-0.0769169
-0.0684404
-0.0579286
-0.045683
-0.032297
-0.0187308
-0.00689578
0.000572326
0.00782618
)
;

boundaryField
{
    inlet
    {
        type            zeroGradient;
    }
    outlet
    {
        type            fixedValue;
        value           uniform 0;
    }
    upperWall
    {
        type            zeroGradient;
    }
    lowerWall
    {
        type            zeroGradient;
    }
    frontAndBack
    {
        type            empty;
    }
}


// ************************************************************************* //
