/*--------------------------------*- C++ -*----------------------------------*\
| =========                 |                                                 |
| \\      /  F ield         | OpenFOAM: The Open Source CFD Toolbox           |
|  \\    /   O peration     | Version:  2406                                  |
|   \\  /    A nd           | Website:  www.openfoam.com                      |
|    \\/     M anipulation  |                                                 |
\*---------------------------------------------------------------------------*/
FoamFile
{
    version     2.0;
    format      ascii;
    arch        "LSB;label=32;scalar=64";
    class       surfaceScalarField;
    location    "62";
    object      phi;
}
// * * * * * * * * * * * * * * * * * * * * * * * * * * * * * * * * * * * * * //

dimensions      [0 3 -1 0 0 0 0];

oriented        oriented;

internalField   nonuniform List<scalar> 
3470
(
0.0194699
-0.000469945
0.0202001
-0.000730139
0.0210134
-0.000813387
0.0218802
-0.000866832
0.0228039
-0.000923644
0.0237972
-0.000993343
0.0248862
-0.00108898
0.0261206
-0.00123443
0.0275478
-0.00142729
-0.00204446
0.0295923
0.0508477
-0.000317629
0.0508624
-0.000744912
0.0510686
-0.00101957
0.051447
-0.00124529
0.0519933
-0.00146991
0.0527089
-0.00170895
0.0536009
-0.00198099
0.0546834
-0.00231696
0.0560105
-0.00275447
-0.00338029
0.0573464
0.0749466
-0.000264188
0.0749168
-0.000715127
0.074979
-0.00108181
0.0751467
-0.00141306
0.0754262
-0.00174942
0.0758259
-0.00210859
0.0763512
-0.00250635
0.0769997
-0.00296547
0.0777543
-0.00350904
-0.00416252
0.0785365
0.0909725
-0.00023672
0.0909223
-0.000664884
0.0909009
-0.00106048
0.0909321
-0.00144424
0.0910229
-0.00184027
0.0911772
-0.00226288
0.091395
-0.00272419
0.0916684
-0.00323882
0.0919797
-0.00382035
-0.0044782
0.0922953
0.0989658
-0.000202478
0.0988781
-0.000577275
0.0987726
-0.000954963
0.0986727
-0.00134439
0.0985854
-0.0017529
0.0985108
-0.00218827
0.0984458
-0.00265926
0.0983816
-0.00317458
0.0983021
-0.00374091
-0.00436059
0.0981845
0.0989465
-0.00014897
0.0988042
-0.000435021
0.0986081
-0.000758841
0.0983792
-0.0011155
0.0981215
-0.00149524
0.0978327
-0.00189944
0.0975073
-0.0023339
0.0971352
-0.00280247
0.0967009
-0.00330663
-0.00384523
0.0961855
0.0909147
-6.36666e-05
0.090703
-0.000223358
0.0904137
-0.000469498
0.0900624
-0.000764252
0.0896477
-0.00108051
0.0891648
-0.00141658
0.0886062
-0.00177535
0.0879599
-0.00215613
0.08721
-0.00255684
-0.00297474
0.0863395
0.0748504
8.59317e-05
0.0745603
6.67114e-05
0.0741889
-9.80659e-05
0.0737368
-0.000312245
0.0731971
-0.000540833
0.0725641
-0.000783575
0.0718287
-0.0010399
0.0709777
-0.00130521
0.0699966
-0.00157569
-0.0018484
0.0688702
0.0507222
0.000363695
0.0503995
0.000389439
0.0500425
0.000258892
0.049623
0.00010727
0.0491262
-4.40608e-05
0.0485383
-0.000195768
0.0478426
-0.000344158
0.0470225
-0.000485171
0.0460638
-0.000617026
-0.000738938
0.0449544
0.0193637
0.0197531
0.020012
0.0201193
0.0200752
0.0198794
0.0195352
0.0190501
0.018433
0.0176941
-3.67813e-05
3.67366e-05
-0.00014401
0.000107131
-0.000294126
0.000150015
-0.000463358
0.000169135
-0.000642254
0.000178803
-0.00082907
0.00018673
-0.00102522
0.000196069
-0.00123357
0.000208269
-0.0014582
0.000224566
-0.00170479
0.000246526
-0.00198103
0.000276191
-0.00229712
0.000316083
-0.00266665
0.000369538
-0.00310728
0.000440634
-0.00364106
0.00053377
-0.00429367
0.000652573
-0.00509118
0.000797433
-0.00605335
0.000962086
-0.00718272
0.0011293
-0.00845073
0.00126794
-0.00978604
0.00133524
-0.0110713
0.00128515
-0.012148
0.00107655
-0.0128316
0.000683479
-0.0129445
0.00011279
-0.0123693
-0.000575282
-0.0110545
-0.00131485
-0.00897772
-0.00207692
-0.00615279
-0.00282505
-0.00261937
-0.00353352
0.00156223
-0.0041817
0.00628008
-0.00471792
0.0113668
-0.00508675
0.0166361
-0.00526934
-0.005255
0.021891
-0.000149497
0.000186139
-0.000434651
0.000392058
-0.000791703
0.000506847
-0.00118185
0.000559077
-0.00158944
0.000586196
-0.00201156
0.000608667
-0.00245107
0.000635401
-0.00291383
0.00067087
-0.00340821
0.000718796
-0.00394522
0.00078341
-0.00453868
0.000869583
-0.0052051
0.000982492
-0.00596255
0.00112701
-0.0068282
0.00130628
-0.00781386
0.00151937
-0.00891905
0.00175764
-0.0101221
0.00200034
-0.0113709
0.00221072
-0.0125763
0.00233462
-0.0136134
0.0023049
-0.0143319
0.00205361
-0.0145772
0.0015303
-0.0142158
0.000714907
-0.013171
-0.000361484
-0.01144
-0.00161845
-0.00902307
-0.00299243
-0.00589316
-0.00444493
-0.00204035
-0.0059299
0.00252778
-0.00739331
0.00775663
-0.00876248
0.0135354
-0.00996054
0.0197376
-0.0109202
0.0262227
-0.0115719
0.0328173
-0.011864
-0.0117671
0.0393294
-0.000280341
0.000466388
-0.000752231
0.000863742
-0.00130121
0.00105563
-0.00187681
0.00113448
-0.00246189
0.0011711
-0.00305352
0.00120014
-0.00365453
0.00123625
-0.00427018
0.00128637
-0.00490705
0.00135554
-0.00557219
0.00144845
-0.00627186
0.00156919
-0.00700948
0.00172011
-0.00778265
0.00190019
-0.00857891
0.00210255
-0.00937096
0.00231139
-0.0101123
0.00249894
-0.010735
0.00262297
-0.0111509
0.00262657
-0.0112579
0.00244153
-0.0109518
0.0019987
-0.0101415
0.00124316
-0.00876857
0.000157222
-0.00683299
-0.00122088
-0.00435865
-0.00283606
-0.00132385
-0.00465346
0.00231656
-0.00663299
0.00658557
-0.00871405
0.0114685
-0.0108129
0.0169184
-0.0128432
0.0228659
-0.01471
0.0292194
-0.0163141
0.0358594
-0.0175603
0.042651
-0.0183635
0.0494363
-0.0186492
-0.0183664
0.0560355
-0.000411307
0.000877615
-0.00105018
0.00150243
-0.00174696
0.00175223
-0.00244102
0.00182838
-0.00311576
0.0018457
-0.00376857
0.00185282
-0.00440046
0.00186801
-0.00501241
0.00189819
-0.00560365
0.00194667
-0.00617038
0.00201509
-0.00670374
0.00210253
-0.00718765
0.00220403
-0.00759644
0.00230904
-0.00789284
0.00239899
-0.00802685
0.00244543
-0.00793723
0.0024093
-0.00755633
0.00224205
-0.00681715
0.00188736
-0.00566069
0.00128503
-0.00404706
0.00038499
-0.00196796
-0.000836041
0.00056302
-0.00237389
0.00355922
-0.00421721
0.00706172
-0.00633867
0.011096
-0.00868784
0.015665
-0.0112021
0.0207482
-0.0137973
0.0263053
-0.01637
0.0322706
-0.0188086
0.0385612
-0.0210006
0.0450832
-0.0228361
0.0517318
-0.024209
0.058392
-0.0250237
0.0649236
-0.0251808
-0.0246039
0.0711612
-0.000533983
0.00141152
-0.00129239
0.0022607
-0.00205464
0.00251434
-0.00275908
0.0025327
-0.00339496
0.00248146
-0.00396207
0.00241982
-0.00446003
0.00236585
-0.00488528
0.0023233
-0.00522964
0.00229089
-0.00547957
0.00226492
-0.00561487
0.00223777
-0.00560748
0.00219665
-0.00542154
0.00212314
-0.00501402
0.0019915
-0.0043362
0.00176758
-0.00333762
0.00141067
-0.00197416
0.000878502
-0.000213002
0.000126119
0.00196346
-0.000891529
0.00456785
-0.00221947
0.00761524
-0.00388349
0.0111252
-0.00588385
0.015108
-0.00820012
0.0195607
-0.0107914
0.0244626
-0.0135898
0.0297661
-0.0165056
0.0354017
-0.0194329
0.0412877
-0.022256
0.0473376
-0.0248585
0.0534695
-0.0271325
0.0596098
-0.0289765
0.0656974
-0.0302966
0.0716732
-0.0309996
0.0774391
-0.0309467
-0.0300179
0.082853
-0.000646646
0.00205811
-0.00144728
0.00306121
-0.00214451
0.00321146
-0.0027028
0.00309088
-0.00313127
0.00290982
-0.00343721
0.00272563
-0.00362171
0.00255019
-0.00367951
0.00238092
-0.0035986
0.0022098
-0.00336094
0.00202711
-0.00294228
0.00181903
-0.00231157
0.00156592
-0.00143279
0.00124437
-0.000267102
0.00082577
0.00122258
0.000277794
0.00307058
-0.000437492
0.00531358
-0.00136466
0.00798649
-0.00254691
0.0111152
-0.00402029
0.0147089
-0.00581324
0.0187608
-0.0079354
0.0232487
-0.0103718
0.0281306
-0.013082
0.0333404
-0.0160012
0.0387927
-0.0190422
0.0443889
-0.0221018
0.0500256
-0.0250696
0.0556064
-0.0278369
0.0610516
-0.0303037
0.0663069
-0.0323878
0.0713449
-0.0340145
0.0761775
-0.0351292
0.0808353
-0.0356574
0.0853155
-0.0354269
-0.0343224
0.0896199
-0.000750156
0.00280822
-0.00145941
0.00377036
-0.00187677
0.00362874
-0.00205798
0.003272
-0.00205723
0.00290897
-0.00189242
0.00256071
-0.00156574
0.00222335
-0.00107166
0.00188666
-0.000395954
0.00153393
0.000482586
0.00114846
0.00158995
0.000711639
0.00295619
0.000199686
0.00461683
-0.000416279
0.00661358
-0.00117103
0.00898998
-0.00209871
0.0117842
-0.00323184
0.0150212
-0.00460172
0.0187094
-0.00623526
0.0228392
-0.00815016
0.0273767
-0.0103508
0.0322636
-0.0128223
0.0374191
-0.0155273
0.0427432
-0.0184061
0.0481216
-0.0213797
0.0534341
-0.0243547
0.0585638
-0.0272314
0.0634064
-0.0299122
0.0678807
-0.0323111
0.0719375
-0.0343606
0.075569
-0.0360194
0.0788138
-0.0372594
0.0817702
-0.0380855
0.0845672
-0.0384545
0.0873566
-0.0382164
-0.0377075
0.0907416
-0.000813531
0.00362171
-0.00109425
0.00405102
-0.000819263
0.00335368
-0.000253952
0.00270663
0.000487852
0.0021671
0.00139553
0.00165293
0.00247789
0.00114087
0.0037471
0.000617335
0.00522134
5.95963e-05
0.00693032
-0.000560565
0.00891418
-0.00127223
0.0112134
-0.00209947
0.0138631
-0.00306606
0.0168882
-0.00419611
0.0203022
-0.0055128
0.0241064
-0.00703611
0.0282853
-0.00878073
0.0328035
-0.0107535
0.0376037
-0.0129504
0.042606
-0.0153532
0.0477111
-0.0179273
0.0528044
-0.0206207
0.057763
-0.0233648
0.0624626
-0.0260793
0.0667848
-0.0286769
0.0706247
-0.0310713
0.0738978
-0.0331854
0.076548
-0.0349613
0.0785578
-0.0363703
0.0799616
-0.0374233
0.0808766
-0.0381744
0.0815184
-0.0387275
0.0822176
-0.0391538
0.0833491
-0.039348
-0.0408448
0.0864862
-0.000369217
0.00399089
0.000870183
0.00281154
0.00259996
0.00162384
0.00439307
0.000913472
0.00624683
0.00031328
0.00820803
-0.000308348
0.0103162
-0.000967436
0.0126087
-0.00167524
0.0151219
-0.00245361
0.0178853
-0.00332404
0.0209182
-0.00430508
0.0242328
-0.00541404
0.0278337
-0.00666702
0.0317154
-0.00807774
0.0358589
-0.00965634
0.0402305
-0.0114078
0.0447802
-0.0133304
0.0494408
-0.0154142
0.0541292
-0.0176387
0.0587477
-0.0199717
0.0631883
-0.022368
0.0673375
-0.02477
0.0710821
-0.0271095
0.0743143
-0.0293115
0.076937
-0.0312996
0.0788681
-0.0330023
0.0800442
-0.0343616
0.0804257
-0.0353429
0.0800047
-0.0359493
0.0788189
-0.0362376
0.0770047
-0.0363603
0.0748614
-0.0365842
0.0731538
-0.0374463
0.0730334
-0.0392279
-0.043994
0.0761825
0.00558684
-0.00159599
0.00964658
-0.00124827
0.0129238
-0.00165347
0.0159959
-0.00215865
0.0189998
-0.00269067
0.0219974
-0.00330601
0.0250476
-0.00401768
0.0281971
-0.00482475
0.0314758
-0.0057324
0.034901
-0.00674927
0.0384794
-0.00788342
0.042207
-0.00914163
0.0460689
-0.0105289
0.0500384
-0.0120473
0.054077
-0.0136949
0.0581336
-0.0154644
0.062145
-0.0173419
0.0660367
-0.019306
0.0697246
-0.0213266
0.0731169
-0.023364
0.076118
-0.0253691
0.0786321
-0.0272841
0.080567
-0.0290443
0.0818378
-0.0305824
0.0823706
-0.0318325
0.0821049
-0.0327366
0.0809959
-0.0332527
0.0790161
-0.0333631
0.0761549
-0.0330882
0.0724175
-0.0325003
0.0678309
-0.0317738
0.0624592
-0.0312126
0.0567138
-0.031701
0.0522635
-0.0347777
-0.047396
0.0556654
0.0310323
-0.0030361
0.0333949
-0.00361083
0.035846
-0.00410466
0.0383816
-0.00469422
0.0410345
-0.00534366
0.0437874
-0.00605892
0.0466303
-0.00686065
0.0495624
-0.00775687
0.0525794
-0.00874938
0.0556703
-0.00984021
0.0588181
-0.0110312
0.0619991
-0.0123226
0.0651819
-0.0137117
0.068327
-0.0151924
0.0713862
-0.0167542
0.0743035
-0.0183817
0.0770149
-0.0200533
0.0794497
-0.0217408
0.0815317
-0.0234086
0.0831813
-0.0250137
0.0843184
-0.0265063
0.084865
-0.0278307
0.0847488
-0.0289281
0.0839067
-0.0297403
0.0822884
-0.0302142
0.0798594
-0.0303076
0.0766029
-0.0299962
0.0725193
-0.0292795
0.0676196
-0.0281885
0.0619095
-0.0267902
0.05534
-0.0252045
0.0477104
-0.023583
0.0382538
-0.0222446
0.0249007
-0.0214248
-0.0224953
0.0584878
-0.00417756
0.0598115
-0.00493453
0.0613178
-0.00561101
0.0629511
-0.00632749
0.0647125
-0.0071051
0.06659
-0.00793647
0.0685581
-0.00882875
0.0705918
-0.0097906
0.0726672
-0.0108248
0.0747578
-0.0119309
0.0768335
-0.0131069
0.0788595
-0.0143486
0.0807958
-0.0156481
0.0825973
-0.0169938
0.084213
-0.0183699
0.0855865
-0.0197552
0.0866567
-0.0211235
0.0873583
-0.0224424
0.0876238
-0.0236741
0.0873851
-0.024775
0.0865765
-0.0256977
0.0851383
-0.0263925
0.0830208
-0.0268106
0.0801889
-0.0269084
0.0766267
-0.026652
0.0723412
-0.0260221
0.0673639
-0.0250189
0.0617487
-0.0236644
0.0555627
-0.0220025
0.0488667
-0.0200943
0.0416719
-0.0180096
0.0338779
-0.0157891
0.0250688
-0.0134356
0.0144412
-0.0107972
-0.00805414
0.079283
-0.00492411
0.0800636
-0.00571516
0.080936
-0.0064834
0.0818763
-0.00726775
0.0828658
-0.00809462
0.0838928
-0.00896354
0.0849388
-0.00987478
0.0859804
-0.0108322
0.0869922
-0.0118366
0.0879462
-0.0128849
0.0888103
-0.013971
0.0895478
-0.0150862
0.0901182
-0.0162184
0.0904761
-0.0173518
0.0905723
-0.0184661
0.0903537
-0.0195366
0.0897646
-0.0205344
0.0887482
-0.021426
0.0872484
-0.0221743
0.0852132
-0.0227398
0.0825984
-0.0230828
0.0793718
-0.0231659
0.0755189
-0.0229578
0.0710475
-0.0224371
0.0659923
-0.0215968
0.0604172
-0.020447
0.0544146
-0.0190163
0.0481005
-0.0173503
0.0416026
-0.0155047
0.0350388
-0.0135306
0.0284747
-0.0114455
0.0218608
-0.00917528
0.0149461
-0.00652105
0.00744423
-0.00329525
-0.000609892
0.0925787
-0.0052075
0.0928375
-0.00597394
0.0930997
-0.0067457
0.0933598
-0.00752778
0.0936001
-0.00833493
0.0938063
-0.00916977
0.0939613
-0.0100298
0.0940427
-0.0109136
0.094024
-0.011818
0.0938762
-0.0127371
0.0935667
-0.0136615
0.0930596
-0.0145791
0.0923157
-0.0154746
0.091293
-0.0163291
0.0899473
-0.0171204
0.0882333
-0.0178227
0.0861067
-0.0184078
0.0835262
-0.0188455
0.080457
-0.0191051
0.0768747
-0.0191576
0.07277
-0.0189781
0.0681531
-0.018549
0.0630581
-0.0178628
0.0575464
-0.0169255
0.051708
-0.0157584
0.0456595
-0.0143984
0.0395393
-0.0128962
0.033499
-0.01131
0.0276876
-0.00969328
0.0222242
-0.00806732
0.0171498
-0.0063711
0.0123809
-0.00440649
0.00773988
-0.00187998
0.00329472
0.00115
0.00268485
0.098005
-0.005028
0.0977568
-0.0057258
0.097446
-0.00643484
0.0970679
-0.00714976
0.0966075
-0.00787458
0.0960476
-0.00860986
0.0953693
-0.0093515
0.09455
-0.0100943
0.093564
-0.0108321
0.0923834
-0.0115564
0.090978
-0.0122561
0.0893158
-0.0129169
0.0873634
-0.0135223
0.0850875
-0.0140532
0.0824557
-0.0144886
0.0794393
-0.0148063
0.0760155
-0.014984
0.0721707
-0.0150007
0.0679043
-0.0148388
0.0632326
-0.0144859
0.0581917
-0.0139373
0.0528407
-0.0131979
0.0472619
-0.012284
0.04156
-0.0112236
0.0358575
-0.010056
0.0302887
-0.00882962
0.0249909
-0.00759844
0.020095
-0.00641403
0.0157067
-0.00530504
0.0118727
-0.00423343
0.0085422
-0.00304061
0.00558209
-0.00144637
0.0029338
0.00076835
0.000891782
0.00319211
0.00357666
0.0955704
-0.00441287
0.0948433
-0.0049987
0.0939983
-0.00558989
0.0930272
-0.00617869
0.0919155
-0.00676291
0.0906458
-0.0073402
0.0891997
-0.00790536
0.087557
-0.00845156
0.0856958
-0.00897097
0.0835935
-0.00945414
0.0812271
-0.00988961
0.0785743
-0.0102642
0.0756154
-0.0105633
0.0723341
-0.010772
0.0687207
-0.0108752
0.0647738
-0.0108594
0.0605035
-0.0107137
0.0559338
-0.010431
0.0511051
-0.0100101
0.0460754
-0.00945618
0.0409204
-0.00878233
0.0357317
-0.00800925
0.0306124
-0.0071647
0.0256706
-0.00628184
0.0210119
-0.00539732
0.016732
-0.00454974
0.0129117
-0.00377817
0.0096105
-0.00311287
0.00684824
-0.00254284
0.00457985
-0.0019651
0.00270071
-0.00116152
0.00112983
0.000124473
-2.03068e-05
0.00191855
-0.00041776
0.00358967
0.00315891
0.0853317
-0.00340499
0.0841727
-0.0038398
0.0828528
-0.00426991
0.0813619
-0.00468783
0.0796879
-0.00508897
0.0778171
-0.00546942
0.0757357
-0.0058239
0.07343
-0.0061459
0.0708872
-0.00642822
0.0680961
-0.00666308
0.0650486
-0.00684205
0.0617409
-0.00695647
0.0581756
-0.00699807
0.0543634
-0.00695974
0.0503244
-0.00683629
0.0460903
-0.00662536
0.0417049
-0.00632821
0.0372243
-0.00595043
0.0327164
-0.00550216
0.0282581
-0.00499798
0.0239317
-0.00445595
0.0198188
-0.0038963
0.0159935
-0.00333947
0.0125164
-0.00280476
0.00942934
-0.00231033
0.00675544
-0.0018759
0.00450175
-0.00152456
0.0026583
-0.00126951
0.001186
-0.00107063
1.83725e-05
-0.000797566
-0.000892226
-0.00025101
-0.00148979
0.000722014
-0.00157684
0.00200562
-0.000940031
0.00295289
0.00221889
0.0675846
-0.0021194
0.0661279
-0.00238313
0.0644912
-0.00263319
0.0626673
-0.00286394
0.0606497
-0.00307142
0.0584328
-0.00325255
0.0560129
-0.00340407
0.0533893
-0.00352233
0.0505649
-0.0036038
0.0475471
-0.00364534
0.0443494
-0.0036443
0.0409917
-0.00359885
0.0375019
-0.00350827
0.0339155
-0.00337339
0.0302761
-0.00319682
0.0266338
-0.00298315
0.0230445
-0.00273889
0.0195663
-0.00247225
0.0162569
-0.00219279
0.013169
-0.00191016
0.0103461
-0.00163301
0.00781816
-0.00136845
0.00560005
-0.00112142
0.0036921
-0.000896874
0.00208238
-0.000700693
0.000749909
-0.000543532
-0.000333414
-0.00044136
-0.00120525
-0.000397806
-0.00190295
-0.000373062
-0.00243444
-0.00026619
-0.00274085
5.53132e-05
-0.00268066
0.000661762
-0.00208974
0.00141469
-0.000981267
0.00184444
0.00123763
0.0436847
-0.000849732
0.0422491
-0.000947573
0.0406463
-0.00103038
0.0388789
-0.00109657
0.0369529
-0.00114551
0.0348776
-0.00117724
0.0326655
-0.00119199
0.0303332
-0.00119001
0.0279012
-0.00117183
0.0253943
-0.00113844
0.0228412
-0.00109128
0.0202745
-0.00103215
0.0177294
-0.000963223
0.0152429
-0.000886869
0.0128515
-0.000805454
0.0105894
-0.000721153
0.00848631
-0.000635778
0.00656461
-0.000550582
0.00484018
-0.000468395
0.0033208
-0.000390827
0.00200558
-0.000317835
0.000887634
-0.000250566
-4.40685e-05
-0.000189785
-0.000805997
-0.000135019
-0.00141815
-8.86237e-05
-0.00190476
-5.70138e-05
-0.00229865
-4.75824e-05
-0.00263423
-6.23315e-05
-0.00292372
-8.36802e-05
-0.00312321
-6.67841e-05
-0.00311567
4.7695e-05
-0.00274313
0.000289164
-0.0019158
0.000587344
-0.000796828
0.000725468
0.000440797
0.0168443
0.0158968
0.0148664
0.0137698
0.0126243
0.011447
0.010255
0.009065
0.00789316
0.00675471
0.00566342
0.00463127
0.00366803
0.00278115
0.00197569
0.00125453
0.000618747
6.81581e-05
-0.000400245
-0.000791081
-0.00110893
-0.0013595
-0.0015493
-0.00168433
-0.00177297
-0.00183
-0.0018776
-0.00193995
-0.00202365
-0.00209045
-0.00204276
-0.00175361
-0.00116627
-0.000440797
0.0269305
-0.00503961
0.0315691
-0.00463862
0.0356593
-0.00409034
0.0391081
-0.00344886
0.0418741
-0.00276607
0.0439551
-0.00208113
0.0453763
-0.00142136
0.0461814
-0.000805215
0.0464146
-0.000233312
0.000293568
0.046121
0.0455642
-0.0112746
0.0513418
-0.0104163
0.0565261
-0.00927478
0.0610424
-0.00796527
0.0648672
-0.00659097
0.0680113
-0.00522536
0.0705101
-0.0039203
0.0724171
-0.00271238
0.0738087
-0.00162502
-0.000665548
0.0747677
0.0622547
-0.0174938
0.0679098
-0.0160714
0.0728841
-0.0142491
0.0771459
-0.0122272
0.0807154
-0.0101606
0.0836371
-0.00814717
0.0859717
-0.00625499
0.0877901
-0.00453083
0.0891635
-0.00299852
-0.0016621
0.0901599
0.0769044
-0.0232371
0.0819601
-0.021127
0.0862543
-0.0185434
0.0898246
-0.0157975
0.0927377
-0.0130737
0.0950606
-0.0104702
0.0968677
-0.0080622
0.0982383
-0.00590152
0.0992492
-0.00400949
-0.00238325
0.0999702
0.087693
-0.0280771
0.0917732
-0.0252072
0.0951052
-0.0218754
0.0977852
-0.0184776
0.0998773
-0.0151658
0.101438
-0.0120311
0.102547
-0.00917119
0.103296
-0.0066507
0.103775
-0.00448845
-0.00267277
0.104064
0.0934399
-0.0318971
0.0964954
-0.0282627
0.0988142
-0.0241943
0.10042
-0.0200836
0.101332
-0.0160781
0.101666
-0.0123645
0.101596
-0.00910132
0.10129
-0.0063453
0.100884
-0.00408221
-0.00226812
0.100479
0.0939343
-0.0350899
0.0958489
-0.0301774
0.0963813
-0.0247267
0.0956117
-0.0193141
0.0938889
-0.0143554
0.0917158
-0.0101916
0.0895057
-0.00689131
0.0875073
-0.00434708
0.0858489
-0.00242403
-0.001012
0.0845926
0.0884347
-0.0370385
0.0866131
-0.0283559
0.0819393
-0.0200531
0.0759435
-0.0133184
0.0699218
-0.0083339
0.0646501
-0.00492022
0.0604152
-0.00265666
0.057217
-0.00114931
0.0549307
-0.000138162
0.000474074
0.0534443
0.0705707
-0.0314268
0.0588928
-0.0166782
0.0460796
-0.00723997
0.0357601
-0.00299912
0.0283641
-0.000938206
0.023409
3.44385e-05
0.020316
0.000435811
0.0185687
0.000597367
0.0177247
0.000705357
0.000581001
0.0176171
0.0242386
0.00756036
0.000320305
-0.00267892
-0.00361729
-0.00358302
-0.00314739
-0.00255018
-0.00184504
-0.00126449
0.0453687
0.000752216
0.0442439
0.00112467
0.0428302
0.00141359
0.0411998
0.0016303
0.0394131
0.00178668
0.0375194
0.00189366
0.0355581
0.00196116
0.03356
0.00199803
0.0315481
0.00201181
0.0295394
0.00200864
0.0275459
0.00199338
0.025576
0.00196976
0.0236355
0.00194042
0.0217285
0.00190702
0.0198581
0.00187033
0.0180278
0.0018304
0.0162412
0.00178666
0.0145032
0.00173812
0.0128198
0.00168355
0.0111982
0.00162172
0.00964692
0.00155154
0.00817475
0.00147243
0.00679062
0.0013844
0.00550263
0.0012883
0.00431724
0.00118569
0.00323885
0.00107873
0.00226944
0.00096971
0.00140905
0.000860697
0.0006563
0.000753008
9.55253e-06
0.000646989
-0.000536244
0.000545985
-0.000987085
0.000451002
-0.00134839
0.000361451
-0.00162821
0.000279946
0.000208318
-0.00183635
0.0753451
0.000174794
0.0755649
0.000904742
0.0754481
0.00153031
0.0750165
0.00206181
0.0742917
0.00251145
0.0732946
0.00289065
0.0720457
0.00321006
0.0705639
0.00347969
0.068867
0.00370865
0.0669707
0.00390482
0.0648892
0.00407486
0.0626347
0.00422417
0.060218
0.00435697
0.0576489
0.00447615
0.0549359
0.00458332
0.0520875
0.00467879
0.0491127
0.0047616
0.0460214
0.00482955
0.0428258
0.00487934
0.039541
0.00490668
0.0361861
0.00490661
0.032785
0.0048738
0.0293666
0.00480306
0.0259654
0.00468985
0.0226205
0.0045309
0.0193748
0.00432479
0.0162725
0.0040725
0.0133558
0.00377776
0.0106619
0.00344729
0.0082187
0.00309062
0.00604519
0.00271987
0.00414869
0.00234786
0.00252381
0.00198666
0.0011576
0.00164654
0.00133379
3.2523e-05
0.0908469
-0.000512277
0.0912809
0.000470701
0.0914982
0.00131292
0.0915214
0.00203848
0.0913643
0.00266851
0.0910344
0.00322053
0.0905347
0.00370974
0.0898648
0.0041495
0.0890222
0.00455121
0.0880026
0.00492438
0.0868005
0.00527685
0.0854097
0.00561493
0.0838231
0.00594353
0.082033
0.00626614
0.0800315
0.00658484
0.0778101
0.00690021
0.0753605
0.00721126
0.0726748
0.00751525
0.0697467
0.00780755
0.066572
0.00808157
0.06315
0.00832874
0.0594853
0.00853868
0.0555891
0.00869948
0.0514809
0.00879829
0.04719
0.00882208
0.0427564
0.00875865
0.0382315
0.00859777
0.033677
0.00833255
0.0291639
0.00796069
0.0247691
0.00748567
0.0205718
0.0069175
0.0166471
0.00627279
0.0130598
0.00557409
0.00985816
0.00484841
0.00412445
0.00706774
0.100462
-0.00100409
0.100773
0.000159751
0.100937
0.00114835
0.100977
0.00199881
0.100906
0.00273921
0.100735
0.00339179
0.100468
0.00397608
0.100109
0.00450912
0.0996546
0.00500538
0.0991019
0.00547703
0.0984443
0.00593441
0.097673
0.00638608
0.0967774
0.00683904
0.0957447
0.00729879
0.0945601
0.00776942
0.0932067
0.00825361
0.0916655
0.00875247
0.0899155
0.00926527
0.087934
0.00978914
0.085697
0.0103187
0.0831803
0.0108456
0.0803606
0.0113586
0.0772172
0.0118431
0.0737342
0.0122815
0.0699026
0.0126539
0.0657232
0.0129383
0.0612091
0.0131122
0.0563882
0.0131537
0.0513059
0.0130432
0.0460261
0.0127657
0.0406312
0.0123126
0.0352205
0.0116837
0.0299052
0.0108895
0.0248022
0.00995159
0.00890295
0.0200238
0.104232
-0.00117172
0.104324
6.72857e-05
0.104364
0.00110821
0.10436
0.00200297
0.104315
0.00278372
0.104232
0.00347521
0.104109
0.00409933
0.103943
0.00467446
0.103733
0.00521579
0.103474
0.00573628
0.103161
0.00624723
0.102788
0.00675831
0.10235
0.00727778
0.101836
0.00781262
0.101236
0.00836877
0.100539
0.00895117
0.0997273
0.00956365
0.0987839
0.0102087
0.0976861
0.010887
0.096408
0.0115969
0.0949198
0.0123339
0.0931884
0.0130901
0.0911777
0.0138539
0.0888501
0.0146093
0.0861678
0.0153365
0.0830949
0.0160114
0.0796006
0.0166067
0.0756625
0.0170919
0.0712712
0.0174348
0.0664346
0.0176025
0.0611828
0.0175646
0.055572
0.0172948
0.0496863
0.0167754
0.0436376
0.0160005
0.0149795
0.0375612
0.100151
-0.000843784
0.0999288
0.000289282
0.0998004
0.00123649
0.0997483
0.00205501
0.0997583
0.00277361
0.0998166
0.00341684
0.0999095
0.00400641
0.100025
0.00455929
0.100151
0.00508925
0.100279
0.00560827
0.100399
0.00612687
0.100503
0.00665412
0.100583
0.0071979
0.10063
0.00776526
0.100636
0.00836262
0.100591
0.00899597
0.100484
0.00967083
0.100301
0.010392
0.100025
0.0111632
0.0996352
0.0119864
0.0991082
0.012861
0.098415
0.0137835
0.0975224
0.0147467
0.0963922
0.0157397
0.0949816
0.0167472
0.0932435
0.0177497
0.0911276
0.0187229
0.088582
0.0196378
0.0855569
0.0204601
0.082009
0.0211507
0.0779077
0.0216661
0.0732417
0.0219611
0.0680263
0.021991
0.0623095
0.0217174
0.0211128
0.0561764
0.0837671
-1.85621e-05
0.0833195
0.000736643
0.0831688
0.00138702
0.0832574
0.00196623
0.0835401
0.00249084
0.0839769
0.00297994
0.0845354
0.0034479
0.0851897
0.00390493
0.0859184
0.00436044
0.0867033
0.00482333
0.0875285
0.00530145
0.0883809
0.00580159
0.0892488
0.00632982
0.0901219
0.00689192
0.0909907
0.0074937
0.0918453
0.00814124
0.092675
0.008841
0.0934675
0.00959953
0.0942079
0.0104229
0.0948784
0.011316
0.0954578
0.0122816
0.0959217
0.0133197
0.0962415
0.0144269
0.0963847
0.0155966
0.0963138
0.0168182
0.0959858
0.0180778
0.0953514
0.0193575
0.0943548
0.0206346
0.0929346
0.0218805
0.0910258
0.0230598
0.0885636
0.0241286
0.0854894
0.0250355
0.0817583
0.0257224
0.0773477
0.0261283
0.0261947
0.072266
0.0527954
0.000629893
0.0527987
0.000733016
0.0532683
0.000917086
0.0540918
0.00114252
0.0551762
0.00140627
0.0564516
0.00170441
0.057871
0.00202837
0.0594022
0.00237364
0.0610212
0.00274131
0.06271
0.0031343
0.0644553
0.00355599
0.0662466
0.00400999
0.0680762
0.00449997
0.0699378
0.00503007
0.0718261
0.00560517
0.0737358
0.00623142
0.0756603
0.00691642
0.077591
0.00766893
0.0795158
0.0084981
0.0814195
0.00941241
0.0832827
0.0104185
0.085082
0.0115204
0.0867904
0.0127186
0.0883766
0.0140103
0.0898054
0.0153894
0.0910363
0.016847
0.0920226
0.0183712
0.0927106
0.0199467
0.0930387
0.0215526
0.0929383
0.0231605
0.0923344
0.0247328
0.09115
0.0262203
0.0893098
0.0275629
0.0867478
0.0286907
0.0295281
0.0834147
0.018699
-0.000452903
0.0203255
-0.000894226
0.0221729
-0.000930928
0.0241152
-0.00080034
0.0260874
-0.000566279
0.0280795
-0.000287942
0.0301014
6.25448e-06
0.0321607
0.000314051
0.0342623
0.000639498
0.0364104
0.000985851
0.0386098
0.00135622
0.0408654
0.001754
0.0431825
0.00218242
0.0455668
0.00264535
0.0480238
0.00314788
0.050558
0.00369694
0.0531723
0.00430208
0.0558661
0.00497518
0.058635
0.00572939
0.0614696
0.00657792
0.0643559
0.00753242
0.0672745
0.0086019
0.0702013
0.00979183
0.0731072
0.0111043
0.0759578
0.0125388
0.0787121
0.0140925
0.0813215
0.0157617
0.0837287
0.0175395
0.0858668
0.0194146
0.08766
0.0213675
0.0890251
0.023368
0.0898736
0.0253721
0.0901154
0.0273214
0.0896629
0.0291435
0.0307553
0.088436
0.0017215
-0.00343995
0.00400867
-0.00318264
0.00591235
-0.00283566
0.00760258
-0.00249132
0.00918726
-0.00215153
0.010734
-0.00183507
0.0122835
-0.00154351
0.013861
-0.0012638
0.0154851
-0.000984987
0.0171699
-0.000699391
0.0189277
-0.000402226
0.0207722
-9.12362e-05
0.0227178
0.000236061
0.024778
0.00058447
0.0269665
0.000958885
0.029297
0.00136609
0.0317818
0.00181712
0.0344303
0.00232667
0.0372482
0.00291174
0.0402363
0.00358992
0.0433913
0.00437762
0.0467048
0.00528835
0.0501645
0.00633194
0.0537533
0.00751527
0.0574479
0.00884378
0.0612166
0.0103235
0.065016
0.011962
0.068789
0.0137665
0.0724634
0.0157402
0.0759528
0.0178783
0.0791589
0.0201622
0.0819757
0.0225557
0.0842937
0.0250038
0.0860045
0.0274331
0.0297555
0.0870047
-0.000665786
-0.00277478
-0.000245167
-0.00360432
0.000393181
-0.003475
0.00109138
-0.00319029
0.0018347
-0.00289533
0.00262292
-0.00262356
0.00345722
-0.0023779
0.00434089
-0.00214752
0.0052775
-0.00192172
0.00627262
-0.00169482
0.00733367
-0.00146388
0.00846926
-0.00122766
0.00969336
-0.000989131
0.0110275
-0.000750697
0.0124953
-0.000509981
0.0141204
-0.0002596
0.0159256
1.14251e-05
0.0179304
0.000321918
0.0201474
0.000694873
0.0225868
0.00115078
0.0252572
0.00170735
0.0281668
0.00237861
0.0313239
0.00317438
0.0347361
0.00410237
0.038408
0.00517129
0.0423356
0.00639529
0.0465008
0.00779637
0.0508663
0.00940082
0.0553721
0.0112345
0.0599346
0.013316
0.06445
0.0156472
0.068799
0.0182072
0.0728534
0.0209499
0.0764816
0.0238053
0.0266838
0.0795537
-0.000636353
-0.00213877
-0.00108703
-0.00315459
-0.00125542
-0.00330739
-0.00126013
-0.00318612
-0.00115677
-0.00299896
-0.000969736
-0.00281057
-0.000712297
-0.0026351
-0.000391168
-0.00246832
-1.00724e-05
-0.00230258
0.000428412
-0.00213343
0.000925748
-0.00196174
0.00148914
-0.00179215
0.00212989
-0.00163126
0.00286312
-0.00148565
0.00370836
-0.00135674
0.0046862
-0.00123879
0.0058147
-0.00111785
0.00710852
-0.000972222
0.00858062
-0.000777136
0.0102453
-0.000513606
0.0121208
-0.000168146
0.0142286
0.000270481
0.0165943
0.000807874
0.0192509
0.00144461
0.0222372
0.00218369
0.0255877
0.00304356
0.0293224
0.00406086
0.03344
0.00528276
0.0379124
0.00676213
0.0426824
0.0085463
0.0476658
0.0106643
0.0527564
0.0131171
0.0578311
0.0158755
0.0627547
0.018882
0.0220549
0.0673838
-0.000557445
-0.00158176
-0.0011899
-0.00252275
-0.00169524
-0.00280256
-0.00207468
-0.00280701
-0.00235417
-0.00271955
-0.00255412
-0.00261047
-0.00268827
-0.00250065
-0.00276413
-0.00239214
-0.00278423
-0.00228232
-0.00274756
-0.00217024
-0.00265136
-0.00205854
-0.00249167
-0.00195292
-0.00226365
-0.00186083
-0.00196201
-0.00178912
-0.00157989
-0.00174083
-0.00110737
-0.00171319
-0.000529802
-0.00169702
0.000173601
-0.00167679
0.00102346
-0.00162767
0.00203128
-0.00152183
0.00320525
-0.00134251
0.00455963
-0.00108458
0.00612239
-0.000756181
0.00794132
-0.000376088
0.0100784
4.44918e-05
0.0125936
0.000526534
0.0155349
0.0011182
0.0189315
0.00188574
0.0227822
0.00291142
0.0270589
0.00426999
0.0317118
0.00601161
0.0366765
0.00815263
0.0418744
0.0106777
0.0472105
0.0135459
0.0166959
0.0525693
-0.000470117
-0.00111178
-0.00110901
-0.0018843
-0.00172386
-0.00218802
-0.00226947
-0.00226156
-0.00274596
-0.00224302
-0.00316246
-0.0021938
-0.00352707
-0.00213579
-0.00384458
-0.00207442
-0.0041165
-0.00201036
-0.00434199
-0.00194501
-0.00451899
-0.00188221
-0.00464499
-0.00182798
-0.00471788
-0.0017894
-0.00473623
-0.00177248
-0.00469898
-0.00177999
-0.00460427
-0.0018098
-0.00444848
-0.00185464
-0.00422466
-0.00190217
-0.00391768
-0.00193585
-0.00350142
-0.0019389
-0.00294353
-0.00190096