/*--------------------------------*- C++ -*----------------------------------*\
| =========                 |                                                 |
| \\      /  F ield         | OpenFOAM: The Open Source CFD Toolbox           |
|  \\    /   O peration     | Version:  2406                                  |
|   \\  /    A nd           | Website:  www.openfoam.com                      |
|    \\/     M anipulation  |                                                 |
\*---------------------------------------------------------------------------*/
FoamFile
{
    version     2.0;
    format      ascii;
    arch        "LSB;label=32;scalar=64";
    class       volScalarField;
    location    "21";
    object      p;
}
// * * * * * * * * * * * * * * * * * * * * * * * * * * * * * * * * * * * * * //

dimensions      [0 2 -2 0 0 0 0];

internalField   nonuniform List<scalar> 
1800
(
2.69816
2.63076
2.56063
2.4904
2.41729
2.3406
2.25931
2.17229
2.07877
1.93973
2.71322
2.63506
2.56023
2.48856
2.41487
2.33765
2.25625
2.16955
2.07408
1.95744
2.72195
2.6387
2.56083
2.48893
2.41587
2.33959
2.26013
2.17769
2.09221
2.00436
2.72852
2.6433
2.56394
2.49273
2.4214
2.34763
2.27219
2.19647
2.12202
2.0515
2.73487
2.64879
2.56894
2.49872
2.42939
2.35854
2.28738
2.21778
2.15146
2.09052
2.74014
2.65387
2.57435
2.50509
2.43741
2.36907
2.30139
2.23621
2.17496
2.11899
2.74308
2.65732
2.57884
2.51027
2.44355
2.37687
2.31146
2.2489
2.19027
2.13643
2.74246
2.65842
2.58163
2.51328
2.4467
2.38067
2.31626
2.25469
2.19682
2.14329
2.73555
2.65638
2.58221
2.51381
2.44665
2.38032
2.31572
2.25378
2.19525
2.14077
2.71971
2.65095
2.5806
2.51251
2.44465
2.37752
2.31206
2.24903
2.18913
2.13314
1.82831
1.8288
1.83319
1.84165
1.85264
1.86457
1.87608
1.88617
1.89411
1.8995
1.90219
1.90222
1.89976
1.89508
1.88851
1.88038
1.87102
1.86072
1.84975
1.83833
1.82666
1.81489
1.80313
1.79146
1.77996
1.76865
1.75756
1.7467
1.73606
1.72565
1.71544
1.70542
1.69558
1.68588
1.67631
1.828
1.82845
1.83248
1.84007
1.84993
1.86069
1.87117
1.88045
1.88787
1.893
1.89568
1.8959
1.89379
1.88958
1.88356
1.87601
1.86724
1.85752
1.8471
1.8362
1.82499
1.81362
1.8022
1.79083
1.77957
1.76845
1.75751
1.74677
1.73622
1.72586
1.71569
1.70568
1.69584
1.68613
1.67655
1.82358
1.82443
1.82883
1.83643
1.84601
1.85635
1.86639
1.8753
1.88245
1.88747
1.89017
1.89054
1.88869
1.88483
1.87921
1.87211
1.8638
1.85455
1.84458
1.83409
1.82327
1.81225
1.80115
1.79004
1.779
1.76808
1.75729
1.74666
1.73621
1.72592
1.71579
1.70582
1.69599
1.68629
1.67671
1.81372
1.81608
1.82209
1.831
1.8415
1.8524
1.86273
1.87174
1.87889
1.88386
1.88652
1.88687
1.88507
1.8813
1.87584
1.86894
1.86088
1.85189
1.84221
1.83202
1.82149
1.81074
1.7999
1.78903
1.7782
1.76745
1.75683
1.74633
1.73599
1.72579
1.71573
1.70581
1.69602
1.68635
1.67679
1.79799
1.8033
1.81248
1.82403
1.83651
1.84875
1.85989
1.8693
1.87657
1.88149
1.88402
1.88422
1.88228
1.87844
1.87295
1.86609
1.85812
1.84928
1.83978
1.82981
1.81951
1.809
1.79838
1.78774
1.77712
1.76657
1.75612
1.74577
1.73556
1.72547
1.71551
1.70567
1.69594
1.68631
1.67679
1.77556
1.78604
1.80049
1.81615
1.83152
1.84566
1.8579
1.8678
1.87517
1.87993
1.88218
1.88207
1.87984
1.87576
1.87012
1.86318
1.85522
1.84646
1.83709
1.82729
1.8172
1.80692
1.79655
1.78614
1.77575
1.76541
1.75515
1.74499
1.73493
1.72498
1.71514
1.7054
1.69575
1.68619
1.67672
1.74514
1.76409
1.78688
1.80831
1.82734
1.84366
1.85704
1.86733
1.87459
1.87898
1.88073
1.88012
1.87744
1.87299
1.86708
1.86
1.85198
1.84326
1.83401
1.82438
1.8145
1.80447
1.79435
1.7842
1.77407
1.76398
1.75395
1.74399
1.73412
1.72434
1.71464
1.70502
1.69548
1.68601
1.6766
1.69957
1.73534
1.77247
1.80176
1.82494
1.84344
1.8577
1.86803
1.87483
1.87853
1.87953
1.8782
1.8749
1.86997
1.86372
1.85642
1.84833
1.83963
1.83049
1.82105
1.81141
1.80164
1.79181
1.78195
1.77211
1.76229
1.75252
1.74281
1.73315
1.72356
1.71403
1.70455
1.69513
1.68577
1.67645
1.61124
1.69623
1.75947
1.79866
1.82587
1.84593
1.86038
1.87011
1.87593
1.87853
1.87847
1.8762
1.87214
1.86662
1.85997
1.85244
1.84426
1.8356
1.8266
1.81736
1.80798
1.79851
1.78899
1.77946
1.76993
1.76042
1.75093
1.74148
1.73206
1.72268
1.71333
1.70402
1.69474
1.68549
1.67626
1.51192
1.67476
1.76242
1.80628
1.83374
1.85288
1.86585
1.87387
1.87796
1.87895
1.8775
1.87409
1.86913
1.86296
1.85588
1.84811
1.83986
1.83125
1.82241
1.81342
1.80432
1.79518
1.786
1.77681
1.76761
1.75842
1.74924
1.74006
1.7309
1.72174
1.71259
1.70345
1.69431
1.68518
1.67606
1.72574
1.75808
1.80704
1.83423
1.85225
1.86556
1.87447
1.87932
1.88083
1.87971
1.87656
1.87183
1.86589
1.85904
1.85153
1.84355
1.83525
1.82674
1.81809
1.80936
1.80058
1.79177
1.78295
1.77411
1.76526
1.7564
1.74752
1.73863
1.72972
1.72079
1.71184
1.70287
1.69388
1.68487
1.67586
1.84514
1.83667
1.85465
1.86681
1.87515
1.88137
1.88497
1.88577
1.88413
1.88056
1.87552
1.86939
1.86246
1.85495
1.84706
1.83891
1.8306
1.82222
1.81379
1.80534
1.79689
1.78843
1.77997
1.77149
1.76298
1.75444
1.74586
1.73724
1.72858
1.71987
1.71111
1.70231
1.69346
1.68458
1.67566
1.93013
1.9045
1.90108
1.90025
1.89932
1.89816
1.89598
1.89233
1.8873
1.88116
1.87423
1.86673
1.85887
1.85077
1.84257
1.83431
1.82607
1.81785
1.80967
1.80153
1.79341
1.7853
1.77719
1.76904
1.76086
1.75263
1.74433
1.73597
1.72753
1.71903
1.71045
1.7018
1.69308
1.68431
1.67549
1.99292
1.95966
1.9426
1.93113
1.92183
1.91371
1.90593
1.89796
1.88966
1.88111
1.87244
1.86374
1.8551
1.84656
1.83815
1.82989
1.82176
1.81376
1.80586
1.79804
1.79025
1.78248
1.77469
1.76687
1.75899
1.75103
1.74299
1.73485
1.72662
1.7183
1.70987
1.70136
1.69276
1.68409
1.67534
2.03889
2.00179
1.97605
1.95636
1.94005
1.92599
1.91336
1.90164
1.89054
1.87998
1.86991
1.8603
1.85111
1.84232
1.83386
1.82569
1.81777
1.81004
1.80244
1.79493
1.78748
1.78003
1.77255
1.76501
1.7574
1.74969
1.74187
1.73394
1.72588
1.71771
1.70942
1.70102
1.69251
1.68392
1.67524
2.07021
2.0307
1.99939
1.97377
1.95214
1.9335
1.91716
1.90258
1.88941
1.87741
1.86641
1.85627
1.84684
1.83801
1.82968
1.82174
1.8141
1.80668
1.79942
1.79224
1.78511
1.77796
1.77077
1.7635
1.75612
1.74863
1.741
1.73323
1.72532
1.71727
1.70909
1.70078
1.69235
1.68382
1.67518
2.08836
2.04701
2.01209
1.9825
1.95721
1.93547
1.91667
1.90028
1.88588
1.87313
1.86175
1.8515
1.84216
1.83356
1.82553
1.81794
1.81068
1.80364
1.79675
1.78993
1.78312
1.77627
1.76935
1.76232
1.75516
1.74784
1.74038
1.73275
1.72496
1.71701
1.70891
1.70066
1.69229
1.68379
1.67519
2.09476
2.05184
2.01457
1.98251
1.95505
1.93159
1.91156
1.8944
1.87964
1.86685
1.85566
1.84575
1.83685
1.82875
1.82123
1.81416
1.80739
1.80081
1.79434
1.78791
1.78144
1.7749
1.76824
1.76144
1.75448
1.74734
1.74001
1.7325
1.7248
1.71692
1.70888
1.70068
1.69233
1.68386
1.67528
2.09102
2.04659
2.00773
1.97429
1.94584
1.92184
1.90168
1.88474
1.87046
1.85832
1.84789
1.83879
1.83072
1.8234
1.81663
1.81024
1.80409
1.79808
1.7921
1.7861
1.78001
1.7738
1.76741
1.76084
1.75407
1.74708
1.73988
1.73246
1.72484
1.71702
1.70901
1.70083
1.6925
1.68403
1.67544
2.08185
2.03601
1.99603
1.96187
1.93317
1.90933
1.88968
1.87351
1.86016
1.84904
1.83966
1.83158
1.82447
1.81805
1.8121
1.80645
1.80097
1.79554
1.79008
1.78452
1.77881
1.77292
1.76681
1.76046
1.75387
1.74703
1.73994
1.73261
1.72504
1.71726
1.70928
1.70111
1.69277
1.68429
1.67569
1.66685
1.65749
1.6482
1.63897
1.62979
1.62065
1.61154
1.60243
1.59334
1.58425
1.66707
1.65768
1.64837
1.63912
1.62992
1.62075
1.61161
1.60248
1.59337
1.58426
1.66723
1.65783
1.6485
1.63923
1.63001
1.62083
1.61167
1.60253
1.5934
1.58427
1.66731
1.65792
1.64859
1.63932
1.63009
1.6209
1.61173
1.60258
1.59344
1.5843
1.66734
1.65796
1.64865
1.63938
1.63016
1.62097
1.6118
1.60265
1.5935
1.58435
1.66731
1.65797
1.64868
1.63944
1.63022
1.62104
1.61188
1.60273
1.59358
1.58444
1.66725
1.65796
1.6487
1.63948
1.63029
1.62112
1.61197
1.60283
1.59369
1.58456
1.66717
1.65792
1.64871
1.63953
1.63036
1.62122
1.61208
1.60295
1.59383
1.5847
1.66706
1.65788
1.64872
1.63958
1.63044
1.62132
1.6122
1.60309
1.59398
1.58487
1.66694
1.65783
1.64873
1.63962
1.63053
1.62143
1.61234
1.60324
1.59415
1.58506
1.66683
1.65778
1.64873
1.63967
1.63061
1.62154
1.61247
1.6034
1.59432
1.58525
1.66671
1.65774
1.64874
1.63972
1.63069
1.62165
1.6126
1.60355
1.59449
1.58543
1.66661
1.6577
1.64875
1.63977
1.63077
1.62176
1.61273
1.60369
1.59464
1.5856
1.66653
1.65767
1.64877
1.63982
1.63085
1.62185
1.61284
1.60381
1.59478
1.58575
1.66648
1.65766
1.64879
1.63987
1.63092
1.62193
1.61293
1.60391
1.59489
1.58586
1.66647
1.65768
1.64883
1.63992
1.63098
1.622
1.61301
1.60399
1.59497
1.58595
1.6665
1.65773
1.64888
1.63999
1.63105
1.62207
1.61307
1.60406
1.59503
1.586
1.66659
1.65782
1.64898
1.64008
1.63113
1.62214
1.61314
1.60411
1.59507
1.58603
1.66675
1.65797
1.64911
1.64019
1.63123
1.62223
1.6132
1.60415
1.5951
1.58604
1.66697
1.65816
1.64928
1.64034
1.63135
1.62232
1.61327
1.6042
1.59513
1.58605
1.57516
1.56605
1.55693
1.54778
1.53861
1.52941
1.52017
1.51089
1.50155
1.49215
1.48268
1.47311
1.46343
1.45362
1.44365
1.43348
1.42306
1.41234
1.40125
1.38968
1.37753
1.36462
1.35075
1.33565
1.31897
1.30025
1.27891
1.25421
1.22525
1.19096
1.15016
1.10166
1.04443
0.97792
0.902338
1.57514
1.56601
1.55686
1.5477
1.5385
1.52927
1.52
1.51067
1.50129
1.49183
1.48228
1.47263
1.46285
1.45292
1.4428
1.43244
1.42181
1.41082
1.3994
1.38744
1.37481
1.36132
1.34676
1.33084
1.3132
1.29337
1.27079
1.24472
1.21432
1.17859
1.13646
1.08687
1.02897
0.962347
0.887322
1.57513
1.56598
1.55682
1.54763
1.53841
1.52916
1.51985
1.5105
1.50107
1.49157
1.48197
1.47225
1.46239
1.45236
1.44212
1.43162
1.42082
1.40962
1.39796
1.3857
1.37271
1.3588
1.34376
1.32727
1.30898
1.28842
1.26502
1.23807
1.20672
1.17
1.12683
1.07617
1.01716
0.949433
0.873435
1.57515
1.56599
1.55682
1.54762
1.53839
1.52912
1.5198
1.51043
1.50098
1.49146
1.48183
1.47208
1.46219
1.45212
1.44183
1.43128
1.42041
1.40914
1.39739
1.38504
1.37195
1.35793
1.34276
1.32615
1.30774
1.28705
1.26352
1.2364
1.2048
1.16765
1.12374
1.07182
1.01081
0.940224
0.860666
1.5752
1.56604
1.55686
1.54766
1.53843
1.52916
1.51984
1.51047
1.50103
1.49151
1.48189
1.47215
1.46227
1.45222
1.44196
1.43145
1.42062
1.40942
1.39775
1.3855
1.37255
1.35871
1.34377
1.32745
1.30939
1.28912
1.26604
1.23935
1.20807
1.17092
1.12639
1.0728
1.00861
0.932907
0.846578
1.57529
1.56613
1.55696
1.54776
1.53854
1.52928
1.51998
1.51063
1.50121
1.49173
1.48215
1.47247
1.46265
1.45268
1.44252
1.43213
1.42146
1.41045
1.39901
1.38706
1.37447
1.36109
1.3467
1.33105
1.31378
1.29443
1.27237
1.24673
1.21637
1.17974
1.13489
1.07947
1.01104
0.927935
0.830845
1.57542
1.56627
1.5571
1.54792
1.53872
1.52948
1.52021
1.5109
1.50154
1.49211
1.48261
1.47301
1.46331
1.45348
1.44348
1.4333
1.42288
1.41218
1.40113
1.38965
1.37763
1.36494
1.3514
1.33677
1.32072
1.30278
1.28232
1.25842
1.22977
1.19454
1.15017
1.09337
1.02035
0.927806
0.815715
1.57558
1.56644
1.5573
1.54814
1.53896
1.52976
1.52054
1.51128
1.50198
1.49263
1.48323
1.47376
1.46421
1.45457
1.4448
1.4349
1.42482
1.41453
1.40398
1.39311
1.38183
1.37004
1.3576
1.34428
1.32981
1.31376
1.29551
1.27413
1.24824
1.21573
1.17346
1.11686
1.04002
0.936637
0.804408
1.57576
1.56665
1.55752
1.54839
1.53925
1.53009
1.52092
1.51173
1.50252
1.49327
1.48399
1.47467
1.46531
1.45588
1.44639
1.43681
1.42713
1.41732
1.40735
1.39719
1.38678
1.37603
1.36485
1.35307
1.34047
1.32669
1.3112
1.29317
1.27131
1.2435
1.20629
1.15398
1.07792
0.96572
0.805356
1.57596
1.56687
1.55777
1.54867
1.53957
1.53046
1.52135
1.51223
1.50311
1.49398
1.48483
1.47568
1.46651
1.45733
1.44813
1.4389
1.42965
1.42036
1.41102
1.40161
1.39211
1.38247
1.37264
1.3625
1.35191
1.34063
1.32827
1.31425
1.29764
1.2769
1.24938
1.21045
1.15286
1.06333
0.899247
1.57617
1.5671
1.55803
1.54896
1.5399
1.53084
1.52179
1.51275
1.50372
1.4947
1.48569
1.47671
1.46774
1.4588
1.4499
1.44103
1.4322
1.42342
1.4147
1.40604
1.39744
1.38889
1.38038
1.37185
1.36324
1.35443
1.34522
1.33533
1.32439
1.3119
1.29728
1.28045
1.26494
1.26843
1.3377
1.57638
1.56732
1.55828
1.54924
1.54022
1.53121
1.52222
1.51325
1.5043
1.49539
1.48652
1.47769
1.46891
1.4602
1.45157
1.44303
1.4346
1.4263
1.41815
1.41017
1.40239
1.39483
1.3875
1.38042
1.37358
1.36695
1.36048
1.35412
1.34784
1.34172
1.33611
1.33247
1.3364
1.36351
1.4235
1.57656
1.56753
1.5585
1.5495
1.5405
1.53154
1.5226
1.51369
1.50482
1.496
1.48724
1.47855
1.46994
1.46143
1.45303
1.44478
1.43669
1.42879
1.42113
1.41373
1.40664
1.3999
1.39355
1.38765
1.38223
1.37732
1.37295
1.3692
1.36616
1.36408
1.36347
1.36573
1.3748
1.39827
1.43044
1.57672
1.5677
1.55869
1.5497
1.54074
1.5318
1.5229
1.51405
1.50524
1.4965
1.48783
1.47924
1.47076
1.46241
1.4542
1.44617
1.43834
1.43076
1.42346
1.4165
1.40993
1.4038
1.39819
1.39315
1.38875
1.38505
1.38212
1.38006
1.37901
1.37921
1.38109
1.38569
1.39551
1.41446
1.43792
1.57684
1.56783
1.55883
1.54986
1.54091
1.532
1.52313
1.5143
1.50554
1.49685
1.48824
1.47973
1.47134
1.46309
1.45501
1.44712
1.43947
1.43209
1.42504
1.41837
1.41213
1.4064
1.40124
1.39674
1.39296
1.38999
1.38791
1.3868
1.38681
1.38813
1.39107
1.39632
1.40542
1.42063
1.43871
1.57693
1.56792
1.55893
1.54996
1.54102
1.53212
1.52326
1.51445
1.50571
1.49704
1.48846
1.47999
1.47164
1.46345
1.45543
1.44762
1.44005
1.43277
1.42584
1.41929
1.41321
1.40765
1.4027
1.39843
1.39493
1.39228
1.39056
1.38988
1.39032
1.39206
1.39528
1.4004
1.40831
1.42016
1.43346
1.57698
1.56797
1.55897
1.55
1.54106
1.53215
1.52329
1.51449
1.50574
1.49708
1.4885
1.48003
1.47169
1.46349
1.45547
1.44766
1.44009
1.43282
1.42587
1.41932
1.41322
1.40764
1.40267
1.39838
1.39486
1.3922
1.3905
1.38986
1.39037
1.39216
1.39534
1.40011
1.40684
1.41593
1.42537
1.577
1.56797
1.55897
1.54998
1.54103
1.53211
1.52324
1.51441
1.50565
1.49696
1.48836
1.47986
1.47148
1.46324
1.45517
1.44729
1.43965
1.43227
1.42521
1.41852
1.41226
1.40649
1.4013
1.39676
1.39298
1.39005
1.3881
1.38723
1.3876
1.3893
1.39242
1.39699
1.40296
1.41008
1.41665
1.57699
1.56795
1.55893
1.54992
1.54095
1.532
1.5231
1.51425
1.50545
1.49672
1.48806
1.4795
1.47105
1.46272
1.45454
1.44654
1.43875
1.4312
1.42393
1.41699
1.41044
1.40433
1.39875
1.39377
1.3895
1.38606
1.3836
1.3823
1.38233
1.38389
1.38708
1.39187
1.3979
1.40427
1.40915
1.57698
1.56791
1.55887
1.54984
1.54084
1.53186
1.52293
1.51404
1.50519
1.49641
1.48769
1.47906
1.47052
1.46209
1.45379
1.44565
1.43768
1.42993
1.42242
1.4152
1.40831
1.40182
1.39578
1.39029
1.38546
1.38142
1.37836
1.37651
1.37614
1.37756
1.38097
1.38636
1.39322
1.40009
1.40469
0.818917
0.729873
0.637852
0.545242
0.453831
0.364741
0.278512
0.195143
0.114108
0.0360942
0.805156
0.718027
0.628383
0.538291
0.449221
0.362095
0.277393
0.195127
0.114226
0.0362152
0.790683
0.703862
0.615596
0.52763
0.440982
0.356224
0.273634
0.193151
0.113526
0.0362059
0.774376
0.685591
0.597584
0.511538
0.427682
0.346022
0.266459
0.188704
0.111416
0.0359011
0.752981
0.660086
0.572158
0.48884
0.408909
0.331575
0.256222
0.182264
0.108262
0.0354237
0.724684
0.625787
0.539127
0.460389
0.385998
0.314298
0.244184
0.174787
0.104655
0.0348984
0.688806
0.582781
0.500631
0.429219
0.361972
0.296801
0.232342
0.167618
0.101317
0.03446
0.642879
0.531247
0.460049
0.399293
0.340352
0.281929
0.222777
0.162089
0.0988999
0.0341772
0.57285
0.46636
0.419337
0.373142
0.323373
0.271517
0.216861
0.15909
0.0979139
0.0341458
0.449834
0.391324
0.387318
0.354584
0.31237
0.265981
0.214573
0.158436
0.0985951
0.0349507
)
;

boundaryField
{
    inlet
    {
        type            zeroGradient;
    }
    outlet
    {
        type            fixedValue;
        value           uniform 0;
    }
    upperWall
    {
        type            zeroGradient;
    }
    lowerWall
    {
        type            zeroGradient;
    }
    frontAndBack
    {
        type            empty;
    }
}


// ************************************************************************* //
