/*--------------------------------*- C++ -*----------------------------------*\
| =========                 |                                                 |
| \\      /  F ield         | OpenFOAM: The Open Source CFD Toolbox           |
|  \\    /   O peration     | Version:  2406                                  |
|   \\  /    A nd           | Website:  www.openfoam.com                      |
|    \\/     M anipulation  |                                                 |
\*---------------------------------------------------------------------------*/
FoamFile
{
    version     2.0;
    format      ascii;
    arch        "LSB;label=32;scalar=64";
    class       surfaceScalarField;
    location    "21";
    object      phi;
}
// * * * * * * * * * * * * * * * * * * * * * * * * * * * * * * * * * * * * * //

dimensions      [0 3 -1 0 0 0 0];

oriented        oriented;

internalField   nonuniform List<scalar> 
3480
(
0.0193259
-0.000325954
0.0196511
-0.000325129
0.0199356
-0.000284516
0.0202489
-0.000313222
0.0206576
-0.000408614
0.0212584
-0.000600819
0.0222343
-0.000975859
0.0239553
-0.0017211
0.0273848
-0.00342944
-0.00867682
0.0360616
0.0510046
-0.000330522
0.0512586
-0.000579121
0.0516507
-0.000676548
0.0521744
-0.000836831
0.0528845
-0.00111865
0.0538792
-0.00159549
0.0553189
-0.00241558
0.0574588
-0.00386105
0.0605582
-0.00652878
-0.0115921
0.0634736
0.0749819
-0.000312418
0.0751064
-0.000703625
0.0754008
-0.000970896
0.0758528
-0.00128877
0.0764845
-0.00175034
0.0773398
-0.00245075
0.0784667
-0.0035425
0.0798694
-0.00526371
0.0813117
-0.00797094
-0.0120761
0.0817958
0.0909698
-0.00028224
0.090985
-0.000718804
0.0911075
-0.00109339
0.0913393
-0.00152056
0.0916767
-0.00208767
0.0921121
-0.00288606
0.0926084
-0.00403883
0.0930492
-0.00570445
0.0931369
-0.00805852
-0.0112012
0.0922621
0.0989421
-0.000224343
0.0988498
-0.000626511
0.0987862
-0.00102977
0.0987557
-0.00149003
0.0987373
-0.00206921
0.0986922
-0.00284088
0.0985443
-0.00389091
0.0981507
-0.00531073
0.097265
-0.00717264
-0.00946391
0.095528
0.0989047
-0.000129087
0.0987125
-0.00043432
0.0984879
-0.000805044
0.098228
-0.00123007
0.0978993
-0.00174047
0.0974484
-0.00238981
0.0967895
-0.00323188
0.0957919
-0.00431303
0.0942744
-0.00565487
-0.00721583
0.0920265
0.0908663
4.63804e-06
0.0906065
-0.000174572
0.0902854
-0.000483851
0.0898829
-0.000827553
0.0893566
-0.00121406
0.0886493
-0.00168235
0.0876812
-0.00226368
0.0863471
-0.00297881
0.084522
-0.00382967
-0.00477957
0.082086
0.0748409
0.000163765
0.0745921
7.42254e-05
0.0742809
-0.000172598
0.0738601
-0.000406721
0.0732876
-0.000641486
0.0725136
-0.00090828
0.0714747
-0.00122465
0.0700952
-0.00159926
0.0682959
-0.00203025
-0.00249668
0.0660131
0.0508809
0.000282902
0.0507917
0.000163452
0.0506153
3.75043e-06
0.0503102
-0.000101544
0.0498565
-0.000187667
0.0492247
-0.000276409
0.0483771
-0.000377032
0.0472697
-0.000491746
0.0458591
-0.000619495
-0.00075415
0.0441166
0.0192829
0.0194464
0.0194501
0.0193486
0.0191609
0.0188845
0.0185075
0.0180158
0.0173963
0.0166421
-0.000134097
0.000134161
-0.000362744
0.000228781
-0.000546234
0.000183635
-0.000602643
5.65433e-05
-0.000503949
-9.85799e-05
-0.000256506
-0.000247349
0.000114234
-0.000370663
0.00057479
-0.000460496
0.00109069
-0.000515846
0.00163052
-0.00053979
0.002168
-0.000537449
0.00268269
-0.000514667
0.00315991
-0.000477189
0.00359012
-0.000430201
0.00396823
-0.000378085
0.0042926
-0.000324363
0.00456431
-0.0002717
0.00478633
-0.000222011
0.00496287
-0.000176548
0.00509891
-0.000136041
0.0051997
-0.000100797
0.0052705
-7.08197e-05
0.00531637
-4.58845e-05
0.00534197
-2.56281e-05
0.00535154
-9.58955e-06
0.00534879
2.72618e-06
0.00533693
1.18321e-05
0.00531869
1.8221e-05
0.0052963
2.2362e-05
0.00527161
2.46786e-05
0.00524603
2.55536e-05
0.0052207
2.5318e-05
0.00519643
2.42597e-05
0.0051738
2.26171e-05
2.05901e-05
0.0051532
-0.000257302
0.000391569
-0.000631911
0.000603859
-0.000859111
0.000411254
-0.000793103
-9.10069e-06
-0.000386907
-0.000504476
0.000339876
-0.000973897
0.00133012
-0.00136073
0.00251066
-0.00164091
0.00380658
-0.00181167
0.00514959
-0.00188273
0.00648225
-0.00187007
0.00775952
-0.0017919
0.00894852
-0.00166616
0.0100275
-0.0015091
0.010984
-0.00133458
0.0118135
-0.00115383
0.0125173
-0.000975553
0.0131014
-0.000806075
0.0135746
-0.000649723
0.0139477
-0.000509133
0.0142325
-0.000385604
0.014441
-0.000279399
0.0145851
-0.000190022
0.0146759
-0.000116452
0.0147236
-5.73265e-05
0.0147374
-1.1094e-05
0.0147253
2.38741e-05
0.0146943
4.91964e-05
0.0146502
6.6426e-05
0.0145978
7.70018e-05
0.0145411
8.22324e-05
0.0144831
8.32747e-05
0.0144262
8.11387e-05
0.0143721
7.66806e-05
7.0619e-05
0.014322
-0.000280648
0.00067246
-0.000607086
0.0009307
-0.000657817
0.000462399
-0.000282479
-0.00038409
0.000548181
-0.00133487
0.00178745
-0.00221298
0.00334937
-0.00292254
0.00513423
-0.00342571
0.00704441
-0.00372183
0.00899324
-0.00383156
0.010909
-0.00378584
0.012736
-0.00361888
0.0144337
-0.00336393
0.0159756
-0.00305096
0.0173465
-0.00270554
0.0185412
-0.00234847
0.0195617
-0.00199595
0.0204156
-0.00165995
0.0211147
-0.00134876
0.0216731
-0.00106758
0.0221067
-0.000819116
0.0224315
-0.000604135
0.0226634
-0.000421921
0.0228177
-0.000270723
0.0229084
-0.000148085
0.0229485
-5.11386e-05
0.0229492
2.31851e-05
0.0229203
7.79824e-05
0.0228705
0.000116259
0.0228066
0.000140836
0.0227345
0.000154299
0.0226588
0.000158962
0.022583
0.000156855
0.0225099
0.000149723
0.000139033
0.0224415
-0.000243587
0.000916115
-0.000378202
0.00106579
-7.10248e-05
0.000155602
0.000785941
-0.00124077
0.00216641
-0.00271513
0.00397704
-0.00402349
0.00609967
-0.00504511
0.00841524
-0.00574128
0.0108164
-0.00612302
0.0132129
-0.00622811
0.0155331
-0.00610607
0.0177231
-0.00580893
0.0197451
-0.005386
0.0215753
-0.00488111
0.0232012
-0.00433141
0.0246198
-0.00376706
0.0258355
-0.00321157
0.026858
-0.00268239
0.0277011
-0.00219172
0.0283809
-0.00174728
0.028915
-0.00135321
0.0293217
-0.00101076
0.0296189
-0.000719024
0.0298237
-0.000475501
0.0299523
-0.000276605
0.0300192
-0.000118072
0.0300377
4.70674e-06
0.0300192
9.64351e-05
0.0299737
0.000161717
0.0299096
0.000204916
0.0298338
0.000230062
0.0297519
0.000240793
0.0296684
0.00024032
0.0295867
0.000231424
0.00021646
0.0295092
-0.000157215
0.00107359
5.06183e-05
0.000858254
0.000916702
-0.000710155
0.00244313
-0.00276694
0.00450685
-0.00477868
0.00695142
-0.00646797
0.00962695
-0.00772061
0.0124049
-0.00851928
0.015182
-0.00890008
0.0178785
-0.0089247
0.0204359
-0.00866358
0.0228134
-0.00818644
0.0249846
-0.0075572
0.026935
-0.00683156
0.0286598
-0.0060562
0.0301616
-0.00526877
0.0314486
-0.0044985
0.0325333
-0.00376705
0.0334313
-0.00308956
0.0341597
-0.00247564
0.034737
-0.00193037
0.0351816
-0.00145528
0.0355117
-0.0010491
0.0357448
-0.000708562
0.0358972
-0.000428953
0.0359838
-0.000204661
0.0360181
-2.95798e-05
0.036012
0.000102557
0.0359757
0.000197922
0.0359182
0.000262407
0.0358468
0.000301489
0.0357674
0.000320139
0.0356848
0.000322782
0.035603
0.000313267
0.000294877
0.0355245
1.43034e-05
0.00105929
0.000787958
8.49834e-05
0.00247857
-0.00240048
0.00489004
-0.00517822
0.00776281
-0.00765134
0.0108756
-0.0095807
0.0140616
-0.0109066
0.0172023
-0.0116599
0.0202163
-0.0119141
0.02305
-0.0117585
0.02567
-0.0112837
0.0280575
-0.010574
0.0302045
-0.00970416
0.0321108
-0.0087379
0.0337825
-0.00772784
0.0352298
-0.006716
0.0364661
-0.00573474
0.037507
-0.00480792
0.0383696
-0.00395202
0.0390714
-0.00317737
0.0396304
-0.00248927
0.0400642
-0.00188898
0.0403898
-0.00137466
0.0406234
-0.00094215
0.0407801
-0.000585646
0.0408738
-0.000298293
0.0409168
-7.26368e-05
0.0409204
9.89853e-05
0.0408941
0.000224149
0.0408464
0.000310117
0.0407842
0.000363672
0.0407133
0.000391011
0.0406383
0.000397672
0.040563
0.0003885
0.000367652
0.0404902
0.0003883
0.000671173
0.00211941
-0.00164597
0.00500532
-0.00528629
0.0085241
-0.00869696
0.0122733
-0.0114006
0.0160046
-0.013312
0.0195753
-0.0144774
0.0229089
-0.0149936
0.0259689
-0.0149742
0.0287425
-0.0145321
0.0312305
-0.0137718
0.033442
-0.0127855
0.0353905
-0.0116528
0.0370926
-0.01044
0.0385661
-0.00920124
0.0398292
-0.00797913
0.0409007
-0.00680614
0.0417987
-0.00570584
0.042541
-0.00469426
0.0431448
-0.0037811
0.0436265
-0.00297091
0.0440017
-0.00226412
0.044285
-0.00165796
0.0444902
-0.0011473
0.0446299
-0.000725287
0.0447156
-0.000383973
0.0447577
-0.000114774
0.0447656
9.11116e-05
0.0447473
0.000242396
0.0447099
0.000347448
0.0446595
0.000414115
0.0446008
0.000449591
0.0445381
0.000460335
0.0444746
0.000452026
0.000429553
0.0444126
0.00123553
-0.000564373
0.00467405
-0.00508448
0.00922395
-0.00983619
0.0139699
-0.0134429
0.0184901
-0.0159209
0.0226192
-0.0174413
0.0263085
-0.0181668
0.0295624
-0.0182476
0.0324085
-0.0178203
0.0348827
-0.0170064
0.0370229
-0.0159121
0.0388659
-0.0146285
0.0404457
-0.0132327
0.0417936
-0.0117879
0.0429374
-0.010345
0.0439021
-0.00894376
0.0447097
-0.00761366
0.0453797
-0.00637579
0.0459295
-0.00524397
0.0463744
-0.00422599
0.0467283
-0.0033248
0.0470037
-0.00253944
0.0472118
-0.00186597
0.0473627
-0.00129818
0.0474657
-0.000828278
0.0475291
-0.000447426
0.0475606
-0.000146192
0.0475666
8.50511e-05
0.0475532
0.000255806
0.0475254
0.000375214
0.0474876
0.000451858
0.0474435
0.000493634
0.0473962
0.000507653
0.047348
0.00050019
0.000476668
0.0473008
0.00353201
-0.00409635
0.00997167
-0.0115241
0.0163974
-0.016262
0.0220551
-0.0191008
0.0268634
-0.0207293
0.0308961
-0.0214741
0.0342573
-0.0215281
0.0370483
-0.0210387
0.0393586
-0.0201308
0.0412656
-0.0189136
0.0428357
-0.0174823
0.0441254
-0.0159183
0.0451826
-0.0142899
0.0460477
-0.012653
0.0467544
-0.0110517
0.0473303
-0.00951966
0.0477983
-0.0080816
0.0481768
-0.00675429
0.048481
-0.00554806
0.0487229
-0.00446789
0.0489126
-0.00351449
0.0490584
-0.00268519
0.0491672
-0.00197473
0.049245
-0.00137589
0.0492968
-0.000880091
0.0493273
-0.000477869
0.0493403
-0.000159274
0.0493396
8.57721e-05
0.0493282
0.000267183
0.0493089
0.000394483
0.0492842
0.000476626
0.0492559
0.000521861
0.0492259
0.000537636
0.0491955
0.000530541
0.000506286
0.0491659
0.0123718
-0.0164682
0.0215615
-0.0207138
0.0283235
-0.0230242
0.0335099
-0.0242873
0.0375389
-0.0247585
0.0406791
-0.0246143
0.0431204
-0.0239696
0.0450048
-0.0229232
0.0464434
-0.0215695
0.0475266
-0.019997
0.0483291
-0.0182849
0.048913
-0.0165022
0.0493292
-0.0147062
0.0496195
-0.0129432
0.0498169
-0.0112491
0.0499475
-0.00965028
0.0500313
-0.00816529
0.0500828
-0.00680584
0.050113
-0.00557814
0.0501291
-0.00448397
0.0501363
-0.00352162
0.0501378
-0.00268663
0.0501356
-0.00197251
0.0501309
-0.0013712
0.0501245
-0.000873629
0.0501166
-0.000470024
0.0501077
-0.000150294
0.0500977
9.56899e-05
0.0500871
0.000277845
0.0500759
0.000405681
0.0500644
0.000488134
0.0500528
0.000533444
0.0500413
0.000549062
0.0500303
0.000541593
0.000516772
0.0500198
0.0388653
-0.0192717
0.0422611
-0.0241096
0.0452874
-0.0260505
0.0477824
-0.0267824
0.0497346
-0.0267108
0.0511716
-0.0260514
0.0521561
-0.0249543
0.0527641
-0.0235312
0.0530708
-0.0218764
0.0531459
-0.0200722
0.0530509
-0.01819
0.0528385
-0.0162898
0.0525523
-0.01442
0.0522271
-0.0126181
0.0518898
-0.0109118
0.0515602
-0.00932061
0.0512517
-0.00785681
0.050973
-0.00652709
0.0507286
-0.00533367
0.0505199
-0.00427527
0.0503463
-0.00334794
0.0502054
-0.00254572
0.0500941
-0.00186118
0.0500087
-0.00128578
0.0499454
-0.000810293
0.0499004
-0.000425052
0.0498703
-0.00012022
0.0498521
0.000113976
0.0498429
0.000287058
0.0498404
0.000408125
0.0498428
0.000485725
0.0498485
0.000527734
0.0498563
0.000541284
0.0498652
0.000532701
0.000507489
0.0498745
0.0630373
-0.0188352
0.0624051
-0.0234772
0.0620448
-0.0256902
0.0617489
-0.0264865
0.0613851
-0.026347
0.060882
-0.0255484
0.0602193
-0.0242917
0.0594124
-0.0227244
0.0584947
-0.0209588
0.0575066
-0.0190841
0.0564881
-0.0171715
0.055475
-0.0152768
0.0544974
-0.0134424
0.0535781
-0.0116988
0.0527336
-0.0100673
0.051974
-0.00856098
0.0513042
-0.00718703
0.0507249
-0.00594779
0.0502335
-0.00484214
0.0498246
-0.00386635
0.0494915
-0.0030148
0.0492263
-0.00228055
0.0490209
-0.0016557
0.0488668
-0.00113171
0.0487561
-0.000699615
0.0486814
-0.00035028
0.0486357
-7.45238e-05
0.048613
0.000136687
0.048608
0.000292102
0.048616
0.000400059
0.0486334
0.000468375
0.0486569
0.000504256
0.048684
0.000514221
0.0487126
0.000504057
0.000478802
0.0487413
0.0801227
-0.0171619
0.0776673
-0.0210217
0.0751811
-0.0232039
0.072796
-0.0241014
0.0705071
-0.024058
0.0682881
-0.0233293
0.0661213
-0.022125
0.064007
-0.0206101
0.0619589
-0.0189107
0.0599977
-0.0171229
0.0581452
-0.0153191
0.0564208
-0.0135525
0.0548394
-0.011861
0.0534106
-0.01027
0.0521387
-0.00879531
0.051023
-0.0074453
0.050059
-0.00622304
0.049239
-0.00512771
0.0485527
-0.00415586
0.0479886
-0.00330219
0.047534
-0.00256021
0.0471761
-0.00192266
0.0469022
-0.00138176
0.0466999
-0.000929463
0.0465579
-0.000557553
0.0464654
-0.000257795
0.0464129
-2.2044e-05
0.046392
0.000157657
0.0463951
0.00028897
0.046416
0.000379178
0.0464493
0.000435096
0.0464906
0.000462997
0.0465363
0.000468557
0.0465835
0.000456816
0.000432156
0.0466302
0.0898805
-0.01478
0.0865839
-0.017725
0.0829605
-0.0195803
0.0792858
-0.0204265
0.0756829
-0.0204551
0.0722111
-0.0198574
0.0689003
-0.0188141
0.0657703
-0.0174801
0.0628383
-0.0159787
0.0601191
-0.0144037
0.0576242
-0.0128242
0.0553608
-0.011289
0.0533309
-0.00983112
0.0515319
-0.00847101
0.0499567
-0.00722013
0.0485947
-0.00608329
0.0474325
-0.00506076
0.0464545
-0.00414977
0.0456443
-0.00334563
0.0449846
-0.00264246
0.0444581
-0.00203374
0.044048
-0.00151257
0.0437382
-0.0010719
0.0435133
-0.000704643
0.0433595
-0.000403722
0.0432639
-0.000162158
0.043215
2.68708e-05
0.0432026
0.000169987
0.0432181
0.000273536
0.0432537
0.000343533
0.0433033
0.000385594
0.0433614
0.000404887
0.0434239
0.00040608
0.0434874
0.00039332
0.000370208
0.0435494
0.0926799
-0.0119316
0.0889827
-0.0140276
0.0848275
-0.015425
0.080495
-0.0160939
0.0761676
-0.0161274
0.0719646
-0.0156543
0.0679624
-0.0148119
0.0642094
-0.013727
0.0607355
-0.0125047
0.0575579
-0.0112261
0.054684
-0.00995027
0.052113
-0.00871807
0.0498379
-0.00755592
0.0478462
-0.00647934
0.0461221
-0.00549595
0.0446468
-0.00460796
0.0434
-0.00381396
0.0423606
-0.00311036
0.0415072
-0.00249226
0.0408189
-0.00195412
0.0402752
-0.0014901
0.0398569
-0.00109429
0.0395458
-0.000760838
0.0393251
-0.00048399
0.0391795
-0.000258101
0.039095
-7.76934e-05
0.0390593
6.25685e-05
0.0390615
0.000167807
0.0390921
0.000242936
0.039143
0.00029258
0.0392076
0.000321071
0.0392801
0.000332368
0.0393561
0.000330069
0.0394321
0.000317343
0.000296962
0.0395054
0.0889247
-0.00882958
0.0851027
-0.0102054
0.080817
-0.0111391
0.0763067
-0.0115834
0.0717616
-0.0115822
0.0673251
-0.0112176
0.0630986
-0.0105852
0.0591488
-0.00977708
0.0555159
-0.00887172
0.05222
-0.00793014
0.0492663
-0.00699657
0.0466493
-0.00610097
0.0443554
-0.00526203
0.0423662
-0.00449006
0.0406597
-0.00378943
0.0392123
-0.00316055
0.0379997
-0.00260135
0.0369976
-0.0021083
0.0361825
-0.00167714
0.0355317
-0.00130333
0.0350238
-0.000982276
0.034639
-0.000709465
0.0343586
-0.000480539
0.0341659
-0.000291283
0.0340454
-0.000137643
0.0339834
-1.56923e-05
0.0339676
7.8333e-05
0.0339873
0.000148066
0.0340333
0.000196949
0.0340976
0.000228247
0.0341737
0.00024498
0.0342562
0.000249943
0.0343406
0.000245638
0.0344237
0.000234297
0.000217842
0.0345029
0.0789862
-0.00572964
0.0753098
-0.00652887
0.0712351
-0.00706427
0.0669545
-0.00730265
0.0626393
-0.00726688
0.0584285
-0.00700675
0.0544253
-0.00658196
0.0506992
-0.00605098
0.0472914
-0.00546389
0.0442207
-0.00485946
0.0414896
-0.00426546
0.0390889
-0.00370023
0.0370017
-0.00317477
0.0352063
-0.00269465
0.0336787
-0.00226174
0.0323937
-0.00187547
0.0313263
-0.00153386
0.0304521
-0.00123413
0.0297483
-0.000973211
0.0291929
-0.00074793
0.0287659
-0.000555217
0.0284486
-0.000392125
0.0282239
-0.000255859
0.0280764
-0.000143764
0.0279921
-5.33027e-05
0.0279584
1.79414e-05
0.0279645
7.23023e-05
0.0280006
0.000111996
0.0280584
0.000139148
0.0281309
0.000155742
0.0282123
0.000163641
0.0282977
0.00016454
0.0283834
0.000159979
0.0284663
0.00015131
0.000139712
0.0285445
0.0632336
-0.00295002
0.0600265
-0.0033217
0.0565225
-0.00356028
0.0528709
-0.00365104
0.0492108
-0.00360679
0.0456579
-0.00345385
0.0422989
-0.00322297
0.0391917
-0.00294379
0.0363691
-0.00264129
0.0338441
-0.00233448
0.0316152
-0.00203658
0.029671
-0.00175603
0.0279939
-0.00149758
0.0265626
-0.00126333
0.0253546
-0.00105363
0.024347
-0.000867727
0.0235175
-0.000704246
0.022845
-0.000561546
0.0223098
-0.000437896
0.0218936
-0.000331605
0.0215795
-0.000241073
0.0213523
-0.000164801
0.0211979
-0.000101397
0.0211037
-4.95487e-05
0.0210585
-8.02767e-06
0.0210521
2.43509e-05
0.0210757
4.87022e-05
0.0211216
6.61116e-05
0.0211832
7.75896e-05
0.0212549
8.4108e-05
0.0213319
8.65522e-05
0.0214107
8.57511e-05
0.0214883
8.24362e-05
0.0215623
7.72659e-05
7.0798e-05
0.0216313
0.0420482
-0.000881585
0.0397086
-0.000982012
0.0371895
-0.00104117
0.0345946
-0.00105611
0.0320199
-0.00103211
0.029544
-0.000977989
0.0272244
-0.000903366
0.0250976
-0.000817076
0.0231826
-0.000726274
0.0214843
-0.000636185
0.019998
-0.000550239
0.0187124
-0.000470487
0.0176128
-0.000397921
0.0166824
-0.000332862
0.015904
-0.000275148
0.0152608
-0.000224401
0.0147367
-0.000180073
0.0143169
-0.000141627
0.0139875
-0.000108487
0.0137362
-8.01652e-05
0.0135513
-5.61642e-05
0.0134226
-3.60822e-05
0.0133408
-1.95008e-05
0.0132974
-6.08179e-06
0.0132848
4.54282e-06
0.0132965
1.26739e-05
0.0133266
1.86485e-05
0.0133699
2.2741e-05
0.0134223
2.52593e-05
0.0134799
2.64476e-05
0.0135399
2.6578e-05
0.0135998
2.58557e-05
0.0136577
2.45071e-05
0.0137123
2.269e-05
2.05794e-05
0.0137626
0.0157606
0.0147786
0.0137374
0.0126813
0.0116492
0.0106712
0.00976781
0.00895074
0.00822446
0.00758828
0.00703804
0.00656756
0.00616964
0.00583679
0.00556165
0.00533725
0.00515719
0.00501557
0.00490709
0.00482693
0.00477077
0.00473469
0.00471519
0.00470911
0.00471365
0.00472632
0.00474497
0.00476771
0.00479297
0.00481942
0.004846
0.00487185
0.00489636
0.00491905
0.00493963
0.00513486
1.83355e-05
0.00511888
1.59795e-05
0.00510526
1.36127e-05
0.00509396
1.1304e-05
0.00508486
9.09366e-06
0.00507786
7.00831e-06
0.00507281
5.05221e-06
0.00506959
3.22258e-06
0.00506809
1.49869e-06
-1.42447e-07
0.00506824
0.0142768
6.35352e-05
0.0142369
5.5894e-05
0.0142024
4.80476e-05
0.0141735
4.02567e-05
0.0141499
3.26961e-05
0.0141314
2.54725e-05
0.0141178
1.86302e-05
0.0141089
1.21655e-05
0.0141044
6.03058e-06
1.43757e-07
0.0141041
0.022379
0.00012599
0.0223233
0.000111561
0.0222748
9.64911e-05
0.0222337
8.13368e-05
0.0221999
6.6483e-05
0.0221732
5.21707e-05
0.0221533
3.85158e-05
0.0221399
2.55308e-05
0.0221328
1.31387e-05
1.18875e-06
0.0221318
0.0294378
0.000197379
0.0293735
0.000175753
0.0293172
0.000152812
0.029269
0.000129479
0.029229
0.000106406
0.0291972
8.4013e-05
0.0291732
6.25171e-05
0.0291567
4.19664e-05
0.0291476
2.22643e-05
3.19034e-06
0.0291456
0.0354515
0.000270346
0.0353853
0.000241897
0.0353268
0.000211278
0.0352764
0.000179816
0.0352343
0.000148461
0.0352005
0.000117837
0.0351747
8.82843e-05
0.0351567
5.99039e-05
0.0351464
3.25917e-05
6.06777e-06
0.0351435
0.0404219
0.000338607
0.0403596
0.00030421
0.0403041
0.000266715
0.040256
0.000227845
0.0402156
0.000188847
0.0401829
0.000150553
0.0401577
0.000113436
0.0401399
7.76589e-05
0.0401294
4.31217e-05
9.4982e-06
0.040126
0.0443542
0.000397032
0.0443005
0.000357843
0.0442525
0.000314679
0.0442107
0.000269612
0.0441754
0.000224154
0.0441466
0.000179326
0.0441243
0.000135723
0.0441084
9.35712e-05
0.0440987
5.27838e-05
1.3001e-05
0.0440952
0.0472562
0.000441667
0.047215
0.000398966
0.0471781
0.00035159
0.0471458
0.000301874
0.0471184
0.000251534
0.047096
0.000201742
0.0470785
0.000153188
0.0470659
0.000106154
0.0470581
6.05661e-05
1.60438e-05
0.0470551
0.0491378
0.000469712
0.049112
0.000424821
0.0490887
0.000374827
0.0490683
0.000322224
0.049051
0.00026885
0.0490368
0.000215964
0.0490256
0.00016432
0.0490175
0.000114232
0.0490125
6.56383e-05
1.81474e-05
0.0490104
0.05001
0.00047947
0.0500011
0.000433726
0.0499931
0.000382788
0.0499861
0.000329181
0.0499802
0.000274772
0.0499753
0.000220841
0.0499715
0.000168159
0.0499687
0.00011705
0.0499668
6.74529e-05
1.89771e-05
0.049966
0.0498836
0.000470325
0.0498923
0.000425093
0.0499001
0.000374921
0.0499071
0.00032224
0.049913
0.000268849
0.0499178
0.000215981
0.0499216
0.000164376
0.0499243
0.000114341
0.049926
6.58115e-05
1.84014e-05
0.0499265
0.0487689
0.000442741
0.0487946
0.000399432
0.0488178
0.00035174
0.0488381
0.00030189
0.0488554
0.000251526
0.0488696
0.000201772
0.0488807
0.000153293
0.0488887
0.000106357
0.0488936
6.08888e-05
1.65163e-05
0.0488955
0.0466746
0.00039831
0.0467157
0.00035837
0.0467526
0.000314826
0.0467849
0.000269606
0.0468123
0.000224131
0.0468347
0.000179362
0.0468522
0.000135861
0.0468647
9.38408e-05
0.0468724
5.32128e-05
1.36265e-05
0.0468753
0.0436079
0.000339811
0.0436616
0.000304662
0.0437097
0.000266801
0.0437515
0.000227797
0.0437868
0.000188803
0.0438156
0.000150586
0.0438379
0.000113589
0.0438538
7.79585e-05
0.0438634
4.35983e-05
1.01894e-05
0.0438668
0.039574
0.00027126
0.0396365
0.000242185
0.0396921
0.000211274
0.0397402
0.000179727
0.0397806
0.000148398
0.0398133
0.000117865
0.0398385
8.84318e-05
0.0398563
6.01982e-05
0.0398668
3.30518e-05
6.73561e-06
0.0398703
0.0345763
0.000197914
0.0346426
0.000175851
0.0347012
0.00015273
0.0347516
0.000129362
0.0347937
0.000106337
0.0348275
8.40312e-05
0.0348533
6.2644e-05
0.0348713
4.22153e-05
0.0348817
2.26532e-05
3.74792e-06
0.0348847
0.0286163
0.000126173
0.0286806
0.000111507
0.028737
9.63584e-05
0.0287852
8.12102e-05
0.0288251
6.641e-05
0.028857
5.21685e-05
0.028881
3.85974e-05
0.0288975
2.56984e-05
0.0289068
1.34072e-05
1.57196e-06
0.0289089
0.0216939
6.35093e-05
0.0217497
5.57828e-05
0.0217981
4.79225e-05
0.0218391
4.0154e-05
0.0218729
3.26329e-05
0.0218996
2.54555e-05
0.0219196
1.86604e-05
0.021933
1.22456e-05
0.0219402
6.16336e-06
3.40084e-07
0.0219415
0.0138078
1.8282e-05
0.0138477
1.59215e-05
0.013882
1.35568e-05
0.0139109
1.12661e-05
0.0139345
9.06727e-06
0.0139529
7.00217e-06
0.0139665
5.05701e-06
0.0139755
3.24659e-06
0.0139802
1.53411e-06
-8.45535e-08
0.0139806
0.00495792
0.00497384
0.0049874
0.00499867
0.00500773
0.00501474
0.00501979
0.00502304
0.00502458
0.00502449
0.00506998
-1.73929e-06
0.00507331
-3.32984e-06
0.00507828
-4.96682e-06
0.00508499
-6.70203e-06
0.0050936
-8.60354e-06
0.00510434
-1.07403e-05
0.00511755
-1.32014e-05
0.00513363
-1.60812e-05
0.00515314
-1.95012e-05
0.00517673
-2.35965e-05
0.00520528
-2.85402e-05
0.00523981
-3.45328e-05
0.00528165
-4.18306e-05
0.00533239
-5.0739e-05
0.00539404
-6.16467e-05
0.00546907
-7.5026e-05
0.00556055
-9.1474e-05
0.00567228
-0.000111721
0.00580897
-0.000136682
0.00597645
-0.000167464
0.00618188
-0.000205425
0.00643406
-0.000252161
0.00674361
-0.000309527
0.00712317
-0.000379543
0.00758746
-0.000464266
0.00815292
-0.000565447
0.00883696
-0.000684015
0.00965616
-0.00081919
0.0106235
-0.000967296
0.0117437
-0.0011202
0.0130076
-0.00126387
0.0143852
-0.00137762
0.0158208
-0.00143556
0.0172326
-0.00141186
-0.0012905
0.0185231
0.014108
-5.60937e-06
0.014116
-1.13691e-05
0.0141284
-1.73042e-05
0.0141453
-2.36085e-05
0.0141672
-3.05078e-05
0.0141947
-3.82603e-05
0.0142287
-4.71676e-05
0.0142702
-5.75805e-05
0.0143206
-6.99156e-05
0.0143817
-8.46675e-05
0.0144556
-0.000102434
0.014545
-0.000123936
0.0146533
-0.000150057
0.0147844
-0.000181877
0.0149435
-0.000220727
0.0151367
-0.000268241
0.0153717
-0.000326435
0.0156578
-0.000397783
0.0160064
-0.000485308
0.0164317
-0.00059267
0.0169505
-0.000724241
0.0175836
-0.000885133
0.0183552
-0.00108113
0.0192942
-0.00131847
0.0204333
-0.0016033
0.0218086
-0.00194067
0.0234575
-0.00233291
0.0254154
-0.00277704
0.0277092
-0.00326112
0.0303488
-0.00375977
0.0333146
-0.00422963
0.0365438
-0.00460686
0.039919
-0.00481081
0.0432658
-0.00475866
-0.00439594
0.0463713
0.0221367
-1.05367e-05
0.0221477
-2.23122e-05
0.0221648
-3.44703e-05
0.0221886
-4.73983e-05
0.0222197
-6.15477e-05
0.0222589
-7.74385e-05
0.0223074
-9.56777e-05
0.0223668
-0.000116973
0.022439
-0.000142163
0.0225266
-0.000172243
0.0226326
-0.00020841
0.0227608
-0.000252109
0.0229159
-0.000305095
0.0231035
-0.00036951
0.0233308
-0.000447973
0.0236062
-0.000543688
0.0239404
-0.000660576
0.0243461
-0.000803415
0.0248388
-0.000977999
0.0254374
-0.00119129
0.0261648
-0.00145153
0.027048
-0.00176829
0.0281192
-0.00215234
0.029416
-0.00261517
0.0309808
-0.00316814
0.0328608
-0.00382064
0.0351052
-0.00457723
0.0377612
-0.00543305
0.0408674
-0.00636732
0.0444424
-0.00733483
0.0484694
-0.0082567
0.0528763
-0.00901383
0.0575155
-0.00944999
0.0621537
-0.00939686
-0.00873221
0.06649
0.0291506
-1.55824e-05
0.0291628
-3.44786e-05
0.0291823
-5.4014e-05
0.0292097
-7.47981e-05
0.0292457
-9.75396e-05
0.0292914
-0.000123062
0.029348
-0.000152323
0.0294175
-0.000186442
0.0295021
-0.000226742
0.0296047
-0.000274792
0.0297287
-0.000332473
0.0298787
-0.000402048
0.0300599
-0.000486256
0.0302788
-0.000588424
0.0305434
-0.000712602
0.0308635
-0.00086372
0.0312507
-0.00104778
0.0317194
-0.00127205
0.0322867
-0.00154531
0.0329735
-0.00187804
0.0338046
-0.00228263
0.0348098
-0.00277341
0.036024
-0.00336652
0.0374882
-0.00407932
0.0392492
-0.00492919
0.0413598
-0.00593119
0.0438766
-0.00709407
0.0468574
-0.00841385
0.0503542
-0.00986422
0.0544025
-0.0113831
0.059002
-0.0128563
0.06409
-0.0141019
0.0695065
-0.0148667
0.0749656
-0.014856
-0.0138306
0.080064
0.035148
-2.01004e-05
0.03516
-4.64836e-05
0.0351798
-7.37828e-05
0.0352079
-0.000102831
0.0352449
-0.0001346
0.0352921
-0.000170221
0.0353508
-0.000211011
0.0354229
-0.000258509
0.0355107
-0.000314528
0.0356171
-0.00038122
0.0357458
-0.00046115
0.0359012
-0.0005574
0.0360886
-0.000673685
0.0363147
-0.000814499
0.0365874
-0.000985291
0.0369164
-0.00119267
0.0373133
-0.00144463
0.0377921
-0.00175084
0.0383698
-0.00212293
0.0390665
-0.00257474
0.0399065
-0.00312264
0.0409188
-0.00378561
0.0421374
-0.00458514
0.0436029
-0.00554475
0.0453624
-0.00668865
0.0474704
-0.00803919
0.0499886
-0.00961227
0.0529842
-0.0114095
0.0565258
-0.0134059
0.0606728
-0.0155301
0.0654551
-0.0176387
0.0708366
-0.0194835
0.076659
-0.0206891
0.0825757
-0.0207728
-0.0192864
0.0880316
0.0401296
-2.37355e-05
0.0401404
-5.72812e-05
0.0401586
-9.2009e-05
0.0401848
-0.000128957
0.0402195
-0.000169341
0.0402639
-0.000214577
0.0403192
-0.000266314
0.0403872
-0.000326477
0.04047
-0.000397331
0.0405703
-0.000481556
0.0406916
-0.000582341
0.0408377
-0.000703503
0.0410136
-0.000849631
0.0412254
-0.00102625
0.0414802
-0.00124005
0.0417866
-0.00149908
0.0421552
-0.0018131
0.0425982
-0.00219383
0.0431306
-0.00265536
0.0437704
-0.00321446
0.0445388
-0.00389098
0.0454613
-0.00470807
0.0465685
-0.00569226
0.0478968
-0.00687309
0.0494903
-0.0082821
0.0514016
-0.00995048
0.0536938
-0.0119045
0.0564412
-0.014157
0.0597283
-0.0166929
0.0636427
-0.0194445
0.0682555
-0.0222515
0.0735766
-0.0248045
0.0794693
-0.0265818
0.0855223
-0.0268258
-0.0247104
0.0909463
0.0440978
-2.63731e-05
0.0441067
-6.61478e-05
0.044122
-0.000107333
0.0441442
-0.000151139
0.0441739
-0.000198985
0.0442118
-0.000252526
0.0442592
-0.000313686
0.0443175
-0.000384715
0.0443884
-0.000468247
0.0444743
-0.000567398
0.0445778
-0.000685863
0.0447024
-0.000828053
0.044852
-0.000999249
0.0450316
-0.0012058
0.0452469
-0.00145534
0.0455049
-0.00175708
0.0458139
-0.00212209
0.0461838
-0.00256368
0.0466263
-0.00309781
0.0471554
-0.00374352
0.0477878
-0.00452338
0.0485437
-0.00546389
0.0494473
-0.00659577
0.0505282
-0.00795398
0.0518232
-0.00957711
0.0533785
-0.0115057
0.0552523
-0.0137783
0.0575193
-0.0164239
0.0602728
-0.0194464
0.0636243
-0.0227961
0.0676893
-0.0263167
0.0725418
-0.0296572
0.0781018
-0.0321421
0.0839153
-0.0326397
-0.0296608
0.0888655
0.0470568
-2.80594e-05
0.0470632
-7.26304e-05
0.0470747
-0.000118782
0.0470914
-0.000167849
0.0471138
-0.000221404
0.0471426
-0.000281274
0.0471785
-0.000349586
0.0472226
-0.00042882
0.0472763
-0.000521879
0.0473411
-0.000632184
0.047419
-0.000763783
0.0475125
-0.000921493
0.0476243
-0.00111107
0.0477579
-0.00133939
0.0479173
-0.00161473
0.0481073
-0.00194701
0.0483334
-0.00234816
0.0486022
-0.00283247
0.0489215
-0.00341706
0.0493004
-0.00412237
0.0497497
-0.00497268
0.0502826
-0.00599669
0.0509148
-0.00722797
0.0516663
-0.00870539
0.0525622
-0.010473
0.0536357
-0.0125792
0.0549316
-0.0150741
0.0565111
-0.0180034
0.0584591
-0.0213945
0.0608903
-0.0252273
0.063948
-0.0293747
0.0677744
-0.033484
0.0723942
-0.0367625
0.0773888
-0.0376349
-0.0335025
0.08123
0.0490112
-2.89156e-05
0.0490151
-7.64831e-05
0.049022
-0.000125727
0.0490322
-0.000178057
0.049046
-0.00023513
0.0490636
-0.000298875
0.0490855
-0.000371532
0.0491124
-0.000455707
0.049145
-0.000554447
0.0491841
-0.000671332
0.049231
-0.000810588
0.0492867
-0.000977227
0.0493529
-0.00117722
0.0494312
-0.00141768
0.0495236
-0.00170715
0.0496325
-0.00205581
0.0497602
-0.00247591
0.0499099
-0.00298206
0.0500846
-0.00359175
0.0502881
-0.00432586
0.0505247
-0.0052092
0.0507992
-0.00627116
0.0511176
-0.00754631
0.0514872
-0.00907499
0.0519178
-0.0109036
0.0524228
-0.0130842
0.0530217
-0.015673
0.0537437
-0.0187254
0.0546343
-0.0222851
0.055765
-0.0263581
0.0572459
-0.0308557
0.0592314
-0.0354699
0.0618764
-0.039408
0.0650395
-0.0407986
-0.0352224
0.0667594
0.0499661
-2.90604e-05
0.0499673
-7.7603e-05
0.0499694
-0.000127838
0.0499725
-0.000181191
0.0499767
-0.000239338
0.0499821
-0.000304227
0.0499887
-0.000378117
0.0499966
-0.000463632
0.050006
-0.000563831
0.050017
-0.000682297
0.0500296
-0.000823252
0.0500441
-0.000991686
0.0500604
-0.00119352
0.0500786
-0.00143581
0.0500984
-0.00172696
0.0501196
-0.002077
0.0501417
-0.00249793
0.0501637
-0.00300403
0.0501843
-0.00361237
0.0502017
-0.00434324
0.0502133
-0.00522074
0.0502155
-0.00627331
0.0502035
-0.00753436
0.0501713
-0.00904267
0.0501103
-0.0108426
0.0500095
-0.0129834
0.0498536
-0.0155171
0.0496216
-0.0184934
0.0492837
-0.0219473
0.0487995
-0.025874
0.0481183
-0.0301748
0.0471889
-0.0345409
0.0459789
-0.0381984
0.0445601
-0.0393798