/*--------------------------------*- C++ -*----------------------------------*\
| =========                 |                                                 |
| \\      /  F ield         | OpenFOAM: The Open Source CFD Toolbox           |
|  \\    /   O peration     | Version:  2406                                  |
|   \\  /    A nd           | Website:  www.openfoam.com                      |
|    \\/     M anipulation  |                                                 |
\*---------------------------------------------------------------------------*/
FoamFile
{
    version     2.0;
    format      ascii;
    arch        "LSB;label=32;scalar=64";
    class       volVectorField;
    location    "21";
    object      U;
}
// * * * * * * * * * * * * * * * * * * * * * * * * * * * * * * * * * * * * * //

dimensions      [0 1 -1 0 0 0 0];

internalField   nonuniform List<vector> 
1800
(
(0.18679 -0.00116012 0)
(0.194601 -0.000874197 0)
(0.198166 -0.000786816 0)
(0.200816 -0.0008349 0)
(0.204225 -0.00107495 0)
(0.209022 -0.00167218 0)
(0.216253 -0.00297894 0)
(0.228503 -0.00608932 0)
(0.254252 -0.017332 0)
(0.296096 -0.0681177 0)
(0.502579 -0.00358859 0)
(0.510206 -0.00510662 0)
(0.514873 -0.0050843 0)
(0.518874 -0.00584355 0)
(0.524715 -0.00767077 0)
(0.532988 -0.011115 0)
(0.544727 -0.0175234 0)
(0.562041 -0.0296696 0)
(0.588552 -0.0539797 0)
(0.61975 -0.106891 0)
(0.742798 -0.00340319 0)
(0.749136 -0.00672125 0)
(0.752925 -0.0085934 0)
(0.75603 -0.0110055 0)
(0.761123 -0.0148176 0)
(0.76848 -0.0209297 0)
(0.778326 -0.0309363 0)
(0.791054 -0.047569 0)
(0.806295 -0.0755086 0)
(0.818317 -0.121848 0)
(0.90314 -0.00301067 0)
(0.908525 -0.00731462 0)
(0.911019 -0.0107148 0)
(0.912158 -0.0146126 0)
(0.914704 -0.019962 0)
(0.918649 -0.0277445 0)
(0.923504 -0.0393759 0)
(0.928575 -0.0568421 0)
(0.932172 -0.0826536 0)
(0.929786 -0.118867 0)
(0.98326 -0.00256497 0)
(0.987839 -0.00692694 0)
(0.988934 -0.0109992 0)
(0.987844 -0.0156217 0)
(0.987329 -0.021564 0)
(0.987187 -0.0296711 0)
(0.986536 -0.0409892 0)
(0.984264 -0.0567271 0)
(0.978569 -0.0779899 0)
(0.966335 -0.104956 0)
(0.983186 -0.00181967 0)
(0.9871 -0.00548705 0)
(0.986914 -0.00947062 0)
(0.983892 -0.0140295 0)
(0.980714 -0.0196367 0)
(0.977031 -0.0269229 0)
(0.971815 -0.0365704 0)
(0.963914 -0.0492206 0)
(0.951812 -0.0652509 0)
(0.933466 -0.0842725 0)
(0.902932 -0.000657795 0)
(0.906481 -0.00313207 0)
(0.905451 -0.00656001 0)
(0.901263 -0.0104747 0)
(0.896429 -0.0150511 0)
(0.890479 -0.0207317 0)
(0.882398 -0.0279206 0)
(0.871182 -0.036915 0)
(0.855688 -0.0477763 0)
(0.834633 -0.0600642 0)
(0.742511 0.000991308 0)
(0.746351 -0.000288283 0)
(0.745348 -0.00308763 0)
(0.741163 -0.00604378 0)
(0.736055 -0.0091864 0)
(0.729508 -0.0128586 0)
(0.72067 -0.0172983 0)
(0.70878 -0.0226296 0)
(0.693065 -0.0288242 0)
(0.672769 -0.0355801 0)
(0.502337 0.00254571 0)
(0.50771 0.00188594 0)
(0.507921 -0.000370069 0)
(0.505048 -0.00217285 0)
(0.501145 -0.00377701 0)
(0.495835 -0.00548444 0)
(0.488574 -0.00742714 0)
(0.478913 -0.00965818 0)
(0.466412 -0.0121628 0)
(0.450685 -0.0148128 0)
(0.186735 0.00104845 0)
(0.193577 0.000459671 0)
(0.194981 9.85887e-05 0)
(0.194217 -0.000160189 0)
(0.192705 -0.000376017 0)
(0.190422 -0.000574021 0)
(0.187196 -0.000792445 0)
(0.182887 -0.00103213 0)
(0.177356 -0.00128224 0)
(0.170491 -0.00152914 0)
(-0.000484403 0.000473271 0)
(-0.00254297 0.000751578 0)
(-0.0047305 0.00065402 0)
(-0.0060396 0.000362568 0)
(-0.00585558 1.8804e-05 0)
(-0.00409131 -0.000305415 0)
(-0.000937273 -0.000570587 0)
(0.00329167 -0.000760996 0)
(0.00824419 -0.000876689 0)
(0.0135846 -0.000926523 0)
(0.0190215 -0.000922986 0)
(0.0243205 -0.000879486 0)
(0.0293067 -0.000808498 0)
(0.0338602 -0.000720926 0)
(0.0379097 -0.000625499 0)
(0.0414232 -0.000528988 0)
(0.0443996 -0.000436123 0)
(0.0468607 -0.000350125 0)
(0.0488437 -0.000272786 0)
(0.0503955 -0.000205015 0)
(0.051568 -0.000146897 0)
(0.0524145 -9.81307e-05 0)
(0.052987 -5.80149e-05 0)
(0.0533343 -2.57669e-05 0)
(0.0535011 -4.48154e-07 0)
(0.0535273 1.88097e-05 0)
(0.0534474 3.2916e-05 0)
(0.0532912 4.26516e-05 0)
(0.0530833 4.87965e-05 0)
(0.052844 5.19847e-05 0)
(0.0525897 5.28416e-05 0)
(0.0523328 5.18501e-05 0)
(0.0520831 4.94926e-05 0)
(0.0518474 4.61155e-05 0)
(0.0516305 4.20767e-05 0)
(-0.000858512 0.00259293 0)
(-0.00466861 0.00421464 0)
(-0.00799442 0.00327176 0)
(-0.00901375 0.00082954 0)
(-0.00668071 -0.0021367 0)
(-0.000918594 -0.00498278 0)
(0.00782519 -0.00734642 0)
(0.0188551 -0.00907188 0)
(0.0314055 -0.0101375 0)
(0.0447468 -0.0106001 0)
(0.0582444 -0.0105564 0)
(0.0713848 -0.0101172 0)
(0.0837799 -0.00939231 0)
(0.0951594 -0.00848101 0)
(0.105356 -0.00746773 0)
(0.11429 -0.00642044 0)
(0.121948 -0.00539119 0)
(0.128371 -0.0044174 0)
(0.133633 -0.00352412 0)
(0.137838 -0.00272606 0)
(0.141099 -0.00202989 0)
(0.143537 -0.00143614 0)
(0.145273 -0.000940947 0)
(0.146422 -0.000537474 0)
(0.147091 -0.000217065 0)
(0.147377 2.98955e-05 0)
(0.147368 0.000213272 0)
(0.147137 0.000342758 0)
(0.146748 0.000427483 0)
(0.146255 0.000475849 0)
(0.145701 0.000495359 0)
(0.145121 0.000492625 0)
(0.144542 0.000473302 0)
(0.143983 0.000442192 0)
(0.14346 0.000403212 0)
(-0.000978277 0.00536804 0)
(-0.00494619 0.00798297 0)
(-0.00720577 0.00502257 0)
(-0.0057803 -0.000993824 0)
(0.00028238 -0.00798655 0)
(0.0108037 -0.0145731 0)
(0.0250415 -0.0199796 0)
(0.042016 -0.0238803 0)
(0.0607123 -0.0262424 0)
(0.0801957 -0.0272049 0)
(0.0996694 -0.0269925 0)
(0.118497 -0.0258598 0)
(0.136199 -0.0240576 0)
(0.152447 -0.0218127 0)
(0.167035 -0.0193192 0)
(0.179866 -0.016735 0)
(0.19093 -0.0141824 0)
(0.200278 -0.0117515 0)
(0.208011 -0.00950412 0)
(0.214263 -0.00747854 0)
(0.219184 -0.00569412 0)
(0.222937 -0.00415565 0)
(0.225682 -0.002857 0)
(0.227578 -0.00178442 0)
(0.22877 -0.000919131 0)
(0.229395 -0.000239513 0)
(0.229572 0.00027736 0)
(0.229409 0.000654394 0)
(0.228997 0.000913709 0)
(0.228413 0.00107588 0)
(0.22772 0.00115972 0)
(0.226971 0.00118191 0)
(0.226206 0.00115705 0)
(0.225456 0.0010976 0)
(0.224744 0.00101401 0)
(-0.00101936 0.00812462 0)
(-0.00402775 0.0106347 0)
(-0.00349725 0.00419045 0)
(0.00225858 -0.00673 0)
(0.0136083 -0.0187351 0)
(0.0298322 -0.0296809 0)
(0.0497928 -0.0384335 0)
(0.0722596 -0.0445679 0)
(0.0960805 -0.048107 0)
(0.120261 -0.0493261 0)
(0.143993 -0.0486185 0)
(0.166652 -0.0464125 0)
(0.187786 -0.0431212 0)
(0.207089 -0.0391152 0)
(0.224387 -0.0347106 0)
(0.239608 -0.0301647 0)
(0.252762 -0.0256782 0)
(0.263924 -0.0213998 0)
(0.273215 -0.0174331 0)
(0.280788 -0.0138438 0)
(0.286814 -0.0106665 0)
(0.291474 -0.00791151 0)
(0.294951 -0.00557092 0)
(0.29742 -0.00362351 0)
(0.299049 -0.00203911 0)
(0.299992 -0.00078207 0)
(0.300389 0.0001859 0)
(0.300363 0.000903699 0)
(0.300021 0.00140921 0)
(0.299454 0.00173817 0)
(0.298739 0.00192343 0)
(0.297938 0.0019945 0)
(0.297101 0.00197734 0)
(0.296268 0.00189434 0)
(0.295467 0.00176435 0)
(-0.00104014 0.0102811 0)
(-0.00202769 0.0106924 0)
(0.00318407 -0.00113674 0)
(0.0153477 -0.0181627 0)
(0.0336581 -0.0356325 0)
(0.056578 -0.0508286 0)
(0.0825172 -0.0624801 0)
(0.110064 -0.0702434 0)
(0.138056 -0.0743189 0)
(0.165587 -0.075188 0)
(0.191973 -0.0734469 0)
(0.216725 -0.0697069 0)
(0.239516 -0.0645402 0)
(0.260146 -0.0584514 0)
(0.278525 -0.0518666 0)
(0.294644 -0.0451311 0)
(0.308563 -0.0385138 0)
(0.320387 -0.0322147 0)
(0.330261 -0.0263736 0)
(0.338349 -0.0210794 0)
(0.344832 -0.01638 0)
(0.349897 -0.0122902 0)
(0.353727 -0.00879964 0)
(0.356501 -0.00587956 0)
(0.35839 -0.00348848 0)
(0.35955 -0.00157683 0)
(0.360124 -9.07645e-05 0)
(0.360237 0.00102481 0)
(0.360002 0.00182404 0)
(0.359513 0.00235843 0)
(0.358851 0.00267568 0)
(0.358084 0.00281896 0)
(0.357264 0.00282654 0)
(0.356434 0.00273162 0)
(0.355626 0.0025624 0)
(-0.000927248 0.0113185 0)
(0.00176675 0.00647924 0)
(0.0143162 -0.0131796 0)
(0.035451 -0.0373028 0)
(0.0624699 -0.0600408 0)
(0.0928605 -0.0785973 0)
(0.12469 -0.0919678 0)
(0.156559 -0.100153 0)
(0.187489 -0.103675 0)
(0.216827 -0.103286 0)
(0.244154 -0.0997975 0)
(0.26922 -0.0939916 0)
(0.2919 -0.0865731 0)
(0.312158 -0.0781506 0)
(0.330028 -0.0692309 0)
(0.345594 -0.0602209 0)
(0.358977 -0.0514361 0)
(0.370324 -0.0431096 0)
(0.379799 -0.0354041 0)
(0.387578 -0.0284226 0)
(0.393838 -0.0222192 0)
(0.39876 -0.0168093 0)
(0.402516 -0.0121782 0)
(0.405274 -0.00828903 0)
(0.40719 -0.00508917 0)
(0.408409 -0.00251597 0)
(0.409064 -0.000501156 0)
(0.409271 0.00102543 0)
(0.409136 0.00213309 0)
(0.408747 0.00288813 0)
(0.408181 0.00335234 0)
(0.407503 0.00358199 0)
(0.406763 0.00362725 0)
(0.406004 0.00353192 0)
(0.405257 0.00333342 0)
(-0.000328972 0.0105772 0)
(0.00950221 -0.00457258 0)
(0.0335177 -0.0349686 0)
(0.0667027 -0.0664238 0)
(0.103826 -0.0931043 0)
(0.141671 -0.113092 0)
(0.178421 -0.126205 0)
(0.213067 -0.13306 0)
(0.245088 -0.134604 0)
(0.274265 -0.13187 0)
(0.300556 -0.125857 0)
(0.324022 -0.117468 0)
(0.344784 -0.10749 0)
(0.362995 -0.09659 0)
(0.378828 -0.0853114 0)
(0.392467 -0.0740874 0)
(0.404096 -0.0632502 0)
(0.413899 -0.0530428 0)
(0.422058 -0.0436326 0)
(0.428748 -0.0351231 0)
(0.434137 -0.0275661 0)
(0.438385 -0.0209714 0)
(0.441643 -0.0153169 0)
(0.444053 -0.0105564 0)
(0.445748 -0.00662654 0)
(0.446847 -0.00345288 0)
(0.447462 -0.000954627 0)
(0.447691 0.000951276 0)
(0.44762 0.00234702 0)
(0.447326 0.00331151 0)
(0.446873 0.00391864 0)
(0.446316 0.00423601 0)
(0.445701 0.0043242 0)
(0.445062 0.00423636 0)
(0.44443 0.00401813 0)
(0.00170062 0.00557605 0)
(0.0264547 -0.0278438 0)
(0.068088 -0.0709974 0)
(0.116105 -0.107747 0)
(0.163153 -0.135062 0)
(0.206611 -0.153239 0)
(0.24572 -0.163387 0)
(0.280387 -0.166827 0)
(0.310809 -0.164879 0)
(0.337318 -0.158762 0)
(0.360297 -0.149564 0)
(0.380124 -0.138228 0)
(0.397158 -0.125553 0)
(0.411724 -0.112201 0)
(0.424119 -0.0987077 0)
(0.434605 -0.0854925 0)
(0.443416 -0.0728725 0)
(0.45076 -0.0610762 0)
(0.45682 -0.0502567 0)
(0.461758 -0.0405044 0)
(0.465721 -0.0318585 0)
(0.468839 -0.0243179 0)
(0.47123 -0.0178495 0)
(0.473001 -0.0123967 0)
(0.474249 -0.00788607 0)
(0.475062 -0.00423305 0)
(0.475519 -0.00134685 0)
(0.475691 0.000865531 0)
(0.475641 0.00249607 0)
(0.475423 0.00363322 0)
(0.475085 0.00436002 0)
(0.474667 0.00475272 0)
(0.474204 0.00487993 0)
(0.473721 0.00480208 0)
(0.47324 0.00457129 0)
(0.014177 -0.0200179 0)
(0.0674209 -0.0770747 0)
(0.132316 -0.127321 0)
(0.194016 -0.161879 0)
(0.246584 -0.183727 0)
(0.290554 -0.195752 0)
(0.327251 -0.200014 0)
(0.357786 -0.198145 0)
(0.383099 -0.191529 0)
(0.404016 -0.18136 0)
(0.421252 -0.168669 0)
(0.435423 -0.154335 0)
(0.44705 -0.139096 0)
(0.456572 -0.123556 0)
(0.464356 -0.108196 0)
(0.470709 -0.0933882 0)
(0.475879 -0.0794084 0)
(0.480072 -0.066449 0)
(0.483453 -0.0546333 0)
(0.486157 -0.044027 0)
(0.488294 -0.0346492 0)
(0.489954 -0.0264826 0)
(0.491211 -0.0194812 0)
(0.492131 -0.0135776 0)
(0.492767 -0.00868953 0)
(0.493168 -0.00472467 0)
(0.493376 -0.00158527 0)
(0.49343 0.00082815 0)
(0.493362 0.00261366 0)
(0.493202 0.00386557 0)
(0.492976 0.00467253 0)
(0.492707 0.00511615 0)
(0.492412 0.00527006 0)
(0.492107 0.00519932 0)
(0.491804 0.00496025 0)
(0.0944205 -0.0929793 0)
(0.176813 -0.163629 0)
(0.251302 -0.200745 0)
(0.311742 -0.221176 0)
(0.357645 -0.231253 0)
(0.392969 -0.233857 0)
(0.420467 -0.230577 0)
(0.441806 -0.222625 0)
(0.458194 -0.211075 0)
(0.47061 -0.196901 0)
(0.479875 -0.180969 0)
(0.486669 -0.164027 0)
(0.491557 -0.146704 0)
(0.494999 -0.12951 0)
(0.497367 -0.112846 0)
(0.498953 -0.0970167 0)
(0.499984 -0.0822372 0)
(0.500631 -0.0686516 0)
(0.501018 -0.0563432 0)
(0.501235 -0.0453463 0)
(0.501342 -0.0356558 0)
(0.50138 -0.0272359 0)
(0.501373 -0.0200273 0)
(0.501337 -0.0139531 0)
(0.50128 -0.0089242 0)
(0.501208 -0.00484348 0)
(0.501124 -0.0016098 0)
(0.501029 0.000878877 0)
(0.500926 0.00272273 0)
(0.500816 0.0040179 0)
(0.500702 0.00485483 0)
(0.500586 0.00531686 0)
(0.50047 0.00547931 0)
(0.500357 0.00540891 0)
(0.500249 0.00516357 0)
(0.391415 -0.196531 0)
(0.411237 -0.237722 0)
(0.437859 -0.255308 0)
(0.466282 -0.2628 0)
(0.488986 -0.263217 0)
(0.505759 -0.258137 0)
(0.517626 -0.248674 0)
(0.525397 -0.235762 0)
(0.529803 -0.220271 0)
(0.531558 -0.203013 0)
(0.53132 -0.184717 0)
(0.529665 -0.166014 0)
(0.527076 -0.147424 0)
(0.523945 -0.129364 0)
(0.520578 -0.112148 0)
(0.517204 -0.0960038 0)
(0.513988 -0.081085 0)
(0.511038 -0.0674823 0)
(0.508416 -0.0552369 0)
(0.506151 -0.0443502 0)
(0.504244 -0.0347931 0)
(0.502679 -0.0265124 0)
(0.501428 -0.0194374 0)
(0.500454 -0.0134844 0)
(0.49972 -0.00856066 0)
(0.499188 -0.00456802 0)
(0.498821 -0.00140585 0)
(0.498586 0.00102639 0)
(0.498455 0.00282684 0)
(0.498402 0.0040895 0)
(0.498406 0.00490268 0)
(0.49845 0.00534782 0)
(0.49852 0.00549859 0)
(0.498606 0.00542038 0)
(0.498698 0.00516999 0)
(0.639548 -0.195336 0)
(0.629473 -0.244108 0)
(0.621696 -0.265392 0)
(0.618823 -0.272494 0)
(0.616044 -0.270691 0)
(0.611776 -0.262684 0)
(0.605878 -0.250277 0)
(0.59845 -0.234776 0)
(0.589738 -0.217201 0)
(0.580114 -0.198397 0)
(0.569987 -0.179066 0)
(0.559748 -0.159777 0)
(0.549731 -0.140978 0)
(0.540199 -0.123006 0)
(0.531349 -0.106101 0)
(0.523312 -0.0904229 0)
(0.51616 -0.076067 0)
(0.509919 -0.0630759 0)
(0.504577 -0.0514529 0)
(0.500091 -0.0411711 0)
(0.4964 -0.032181 0)
(0.493429 -0.0244165 0)
(0.491097 -0.0177995 0)
(0.48932 -0.0122435 0)
(0.488016 -0.00765635 0)
(0.487107 -0.00394301 0)
(0.486521 -0.00100741 0)
(0.486193 0.00124541 0)
(0.486067 0.00290766 0)
(0.486093 0.00406735 0)
(0.486228 0.00480708 0)
(0.48644 0.005203 0)
(0.486698 0.005324 0)
(0.486981 0.00523127 0)
(0.487271 0.00497803 0)
(0.814172 -0.182569 0)
(0.790981 -0.225343 0)
(0.764214 -0.248092 0)
(0.739585 -0.256908 0)
(0.71638 -0.255957 0)
(0.69388 -0.248068 0)
(0.671923 -0.235408 0)
(0.65048 -0.219612 0)
(0.629624 -0.201909 0)
(0.609527 -0.183244 0)
(0.590407 -0.164342 0)
(0.57248 -0.145749 0)
(0.555922 -0.127868 0)
(0.540856 -0.110975 0)
(0.527349 -0.0952535 0)
(0.515419 -0.0808079 0)
(0.505038 -0.0676861 0)
(0.496141 -0.055893 0)
(0.488638 -0.0454029 0)
(0.482417 -0.0361685 0)
(0.477355 -0.028127 0)
(0.473325 -0.0212059 0)
(0.470198 -0.015325 0)
(0.467847 -0.0104003 0)
(0.466153 -0.00634473 0)
(0.465006 -0.0030705 0)
(0.464303 -0.00049009 0)
(0.463956 0.00148215 0)
(0.463884 0.00292901 0)
(0.464019 0.00392921 0)
(0.464302 0.00455654 0)
(0.464684 0.0048789 0)
(0.465127 0.0049578 0)
(0.465598 0.0048478 0)
(0.466072 0.00459645 0)
(0.914137 -0.161277 0)
(0.884378 -0.195079 0)
(0.848307 -0.215681 0)
(0.811199 -0.224817 0)
(0.774624 -0.224947 0)
(0.739137 -0.21832 0)
(0.705135 -0.206948 0)
(0.672872 -0.192489 0)
(0.642522 -0.176237 0)
(0.614234 -0.159171 0)
(0.588141 -0.142014 0)
(0.564339 -0.125287 0)
(0.542873 -0.109347 0)
(0.523742 -0.0944256 0)
(0.506895 -0.0806567 0)
(0.49224 -0.0681042 0)
(0.479656 -0.0567819 0)
(0.468996 -0.046669 0)
(0.460098 -0.0377221 0)
(0.452791 -0.0298829 0)
(0.446903 -0.0230845 0)
(0.442262 -0.0172542 0)
(0.438701 -0.0123166 0)
(0.436064 -0.00819493 0)
(0.434204 -0.00481181 0)
(0.432987 -0.00209042 0)
(0.432291 4.46726e-05 0)
(0.432009 0.00166691 0)
(0.432045 0.00284675 0)
(0.432317 0.00365115 0)
(0.432757 0.00414258 0)
(0.433307 0.00437865 0)
(0.43392 0.00441131 0)
(0.434557 0.00428683 0)
(0.43519 0.00404533 0)
(0.943689 -0.134547 0)
(0.910214 -0.159392 0)
(0.86995 -0.17572 0)
(0.826847 -0.183503 0)
(0.783169 -0.183974 0)
(0.740269 -0.178682 0)
(0.699074 -0.169223 0)
(0.660194 -0.157033 0)
(0.624 -0.143281 0)
(0.590714 -0.128867 0)
(0.56045 -0.114447 0)
(0.533236 -0.10048 0)
(0.50903 -0.0872678 0)
(0.487732 -0.0749913 0)
(0.469198 -0.0637451 0)
(0.453249 -0.0535622 0)
(0.439691 -0.0444348 0)
(0.428313 -0.0363282 0)
(0.418903 -0.0291925 0)
(0.411246 -0.0229683 0)
(0.405135 -0.0175923 0)
(0.400372 -0.0129992 0)
(0.396768 -0.00912342 0)
(0.39415 -0.00589987 0)
(0.392354 -0.00326456 0)
(0.391236 -0.00115466 0)
(0.390664 0.000490827 0)
(0.390522 0.00173096 0)
(0.390708 0.00262211 0)
(0.391134 0.00321774 0)
(0.391726 0.00356758 0)
(0.392424 0.0037175 0)
(0.393177 0.00370879 0)
(0.393945 0.00357822 0)
(0.394697 0.00335762 0)
(0.906831 -0.104213 0)
(0.871762 -0.121198 0)
(0.830538 -0.132713 0)
(0.785969 -0.138282 0)
(0.740262 -0.138485 0)
(0.695043 -0.134324 0)
(0.65151 -0.126949 0)
(0.610492 -0.117457 0)
(0.572504 -0.106776 0)
(0.537831 -0.0956285 0)
(0.506585 -0.0845391 0)
(0.478757 -0.0738672 0)
(0.454242 -0.0638402 0)
(0.432878 -0.0545874 0)
(0.414456 -0.0461672 0)
(0.398747 -0.0385911 0)
(0.385507 -0.0318391 0)
(0.374494 -0.0258742 0)
(0.365465 -0.0206484 0)
(0.35819 -0.0161103 0)
(0.352448 -0.0122062 0)
(0.348032 -0.00888382 0)
(0.34475 -0.00609108 0)
(0.342425 -0.00377824 0)
(0.340895 -0.00189632 0)
(0.340015 -0.000398605 0)
(0.339654 0.000760671 0)
(0.339698 0.00162486 0)
(0.340048 0.00223594 0)
(0.340618 0.00263289 0)
(0.341335 0.00285265 0)
(0.34214 0.00292852 0)
(0.342984 0.00289116 0)
(0.343829 0.00276716 0)
(0.344645 0.00258017 0)
(0.806968 -0.0724836 0)
(0.772776 -0.0829815 0)
(0.733532 -0.0900762 0)
(0.691273 -0.093357 0)
(0.647894 -0.0931153 0)
(0.604955 -0.0899788 0)
(0.563665 -0.0847052 0)
(0.52488 -0.0780382 0)
(0.489137 -0.0706165 0)
(0.45672 -0.0629374 0)
(0.427721 -0.0553598 0)
(0.402095 -0.0481234 0)
(0.379704 -0.0413748 0)
(0.360348 -0.0351909 0)
(0.343794 -0.029601 0)
(0.329793 -0.0246019 0)
(0.318092 -0.0201718 0)
(0.308442 -0.0162777 0)
(0.300608 -0.0128823 0)
(0.294363 -0.00994611 0)
(0.289499 -0.00743076 0)
(0.285822 -0.00529865 0)
(0.283152 -0.00351438 0)
(0.281328 -0.00204359 0)
(0.280202 -0.000853931 0)
(0.279641 8.61566e-05 0)
(0.279529 0.000806473 0)
(0.279762 0.00133605 0)
(0.28025 0.00170202 0)
(0.280918 0.00193043 0)
(0.2817 0.00204504 0)
(0.282544 0.00206811 0)
(0.283408 0.00201928 0)
(0.284258 0.00191635 0)
(0.285068 0.00177434 0)
(0.647415 -0.0421922 0)
(0.617245 -0.0476528 0)
(0.583332 -0.0512156 0)
(0.547182 -0.0526636 0)
(0.510298 -0.0521657 0)
(0.473977 -0.0500854 0)
(0.439236 -0.0468572 0)
(0.406792 -0.0429045 0)
(0.377086 -0.0385877 0)
(0.350335 -0.0341836 0)
(0.326582 -0.0298877 0)
(0.305752 -0.0258262 0)
(0.287694 -0.0220722 0)
(0.272205 -0.0186601 0)
(0.259065 -0.015598 0)
(0.248042 -0.0128774 0)
(0.238909 -0.0104805 0)
(0.23145 -0.00838467 0)
(0.225458 -0.00656593 0)
(0.220744 -0.00500016 0)
(0.217132 -0.00366461 0)
(0.214462 -0.00253755 0)
(0.212586 -0.00159895 0)
(0.211373 -0.000829629 0)
(0.210703 -0.00021174 0)
(0.210468 0.000271999 0)
(0.210575 0.000637873 0)
(0.21094 0.000901685 0)
(0.211492 0.00107822 0)
(0.212171 0.0011816 0)
(0.212925 0.00122479 0)
(0.213713 0.00121985 0)
(0.214501 0.00117749 0)
(0.215264 0.00110733 0)
(0.215982 0.00101751 0)
(0.431571 -0.0173242 0)
(0.40936 -0.0193119 0)
(0.384827 -0.0205027 0)
(0.359008 -0.0208375 0)
(0.332943 -0.0204112 0)
(0.307521 -0.0193891 0)
(0.283426 -0.0179551 0)
(0.261125 -0.0162804 0)
(0.240885 -0.0145055 0)
(0.222817 -0.0127343 0)
(0.206912 -0.0110366 0)
(0.193084 -0.00945504 0)
(0.181196 -0.00801131 0)
(0.171086 -0.00671339 0)
(0.162583 -0.00555945 0)
(0.155514 -0.00454286 0)
(0.149714 -0.0036536 0)
(0.145029 -0.00288137 0)
(0.141315 -0.00221519 0)
(0.138441 -0.00164535 0)
(0.136287 -0.0011622 0)
(0.134743 -0.000757556 0)
(0.133712 -0.000423219 0)
(0.133105 -0.000152207 0)
(0.132843 6.26858e-05 0)
(0.132854 0.000227695 0)
(0.133076 0.000349393 0)
(0.133455 0.000433473 0)
(0.133943 0.000485909 0)
(0.134501 0.000511765 0)
(0.135096 0.000516293 0)
(0.135701 0.000503756 0)
(0.136294 0.000478505 0)
(0.136859 0.000443837 0)
(0.137385 0.000403095 0)
(0.16228 -0.00174535 0)
(0.152891 -0.00189052 0)
(0.142682 -0.00194184 0)
(0.132101 -0.00190492 0)
(0.12158 -0.00179982 0)
(0.111469 -0.00164919 0)
(0.102022 -0.00147382 0)
(0.0933979 -0.0012908 0)
(0.0856737 -0.00111233 0)
(0.0788644 -0.000945892 0)
(0.072942 -0.000795293 0)
(0.0678522 -0.000661872 0)
(0.0635259 -0.000545415 0)
(0.0598884 -0.000444838 0)
(0.0568644 -0.0003586 0)
(0.0543819 -0.000285004 0)
(0.0523737 -0.000222383 0)
(0.0507782 -0.000169206 0)
(0.0495395 -0.000124147 0)
(0.0486071 -8.60744e-05 0)
(0.0479352 -5.40691e-05 0)
(0.0474828 -2.73609e-05 0)
(0.0472128 -5.33564e-06 0)
(0.047092 1.25388e-05 0)
(0.0470906 2.66999e-05 0)
(0.0471822 3.75586e-05 0)
(0.0473437 4.54707e-05 0)
(0.0475548 5.0794e-05 0)
(0.0477982 5.38509e-05 0)
(0.0480596 5.49765e-05 0)
(0.0483271 5.44747e-05 0)
(0.0485911 5.26574e-05 0)
(0.0488442 4.97989e-05 0)
(0.0490812 4.61718e-05 0)
(0.0492982 4.20032e-05 0)
(0.0514353 3.76048e-05 0)
(0.0512635 3.29526e-05 0)
(0.0511155 2.82488e-05 0)
(0.0509911 2.36591e-05 0)
(0.0508893 1.92313e-05 0)
(0.050809 1.50621e-05 0)
(0.050749 1.11355e-05 0)
(0.0507079 7.49571e-06 0)
(0.0506845 4.07855e-06 0)
(0.0506779 8.89513e-07 0)
(0.142982 0.000359561 0)
(0.142556 0.000313689 0)
(0.142184 0.000267488 0)
(0.141867 0.000222261 0)
(0.141604 0.000178907 0)
(0.141395 0.000137882 0)
(0.141235 9.93723e-05 0)
(0.141123 6.32415e-05 0)
(0.141056 2.91814e-05 0)
(0.141032 -3.35482e-06 0)
(0.224087 0.000914786 0)
(0.223494 0.00080676 0)
(0.222973 0.00069512 0)
(0.222525 0.000583741 0)
(0.222151 0.00047523 0)
(0.221849 0.000371225 0)
(0.221616 0.000272422 0)
(0.221451 0.000178845 0)
(0.221349 8.98324e-05 0)
(0.221309 4.25987e-06 0)
(0.294718 0.00160296 0)
(0.294038 0.00142264 0)
(0.293434 0.00123312 0)
(0.292911 0.00104164 0)
(0.29247 0.000853273 0)
(0.292112 0.00067121 0)
(0.291833 0.000497068 0)
(0.291631 0.000331078 0)
(0.291504 0.000172359 0)
(0.291449 1.90213e-05 0)
(0.354865 0.00234229 0)
(0.354166 0.00209025 0)
(0.353541 0.00182114 0)
(0.352996 0.00154616 0)
(0.352533 0.00127329 0)
(0.352154 0.00100768 0)
(0.351856 0.000752094 0)
(0.351638 0.00050724 0)
(0.351497 0.000272072 0)
(0.351432 4.40646e-05 0)
(0.404548 0.00306303 0)
(0.403891 0.00274622 0)
(0.403301 0.0024031 0)
(0.402782 0.002049 0)
(0.402339 0.00169494 0)
(0.401974 0.00134821 0)
(0.401685 0.00101288 0)
(0.40147 0.000690265 0)
(0.401329 0.000379311 0)
(0.401259 7.6951e-05 0)
(0.443824 0.00370785 0)
(0.44326 0.00333694 0)
(0.44275 0.00293037 0)
(0.442301 0.00250726 0)
(0.441915 0.00208154 0)
(0.441594 0.00166255 0)
(0.441339 0.00125568 0)
(0.441148 0.000862882 0)
(0.44102 0.000483219 0)
(0.440954 0.000113227 0)
(0.472778 0.00423154 0)
(0.472346 0.00381901 0)
(0.471955 0.00336261 0)
(0.471608 0.00288464 0)
(0.471309 0.00240143 0)
(0.47106 0.00192405 0)
(0.47086 0.00145904 0)
(0.47071 0.00100896 0)
(0.470609 0.000573023 0)
(0.470554 0.000147501 0)
(0.491514 0.00460051 0)
(0.491243 0.00415947 0)
(0.490996 0.00366872 0)
(0.490778 0.00315269 0)
(0.490589 0.00262939 0)
(0.490431 0.00211115 0)
(0.490304 0.0016053 0)
(0.490208 0.00111488 0)
(0.490143 0.000639219 0)
(0.490107 0.000174455 0)
(0.500147 0.00479241 0)
(0.500053 0.00433613 0)
(0.499969 0.00382745 0)
(0.499894 0.00329178 0)
(0.499829 0.00274789 0)
(0.499775 0.00220867 0)
(0.499732 0.00168187 0)
(0.499698 0.00117074 0)
(0.499675 0.000674692 0)
(0.499662 0.000189814 0)
(0.498791 0.00479572 0)
(0.498881 0.00433762 0)
(0.498964 0.00382799 0)
(0.499038 0.00329189 0)
(0.499103 0.0027479 0)
(0.499157 0.00220877 0)
(0.4992 0.00168216 0)
(0.499232 0.0011713 0)
(0.499254 0.000675587 0)
(0.499265 0.000191124 0)
(0.487555 0.00460958 0)
(0.487823 0.0041635 0)
(0.488068 0.0036701 0)
(0.488287 0.00315293 0)
(0.488475 0.00262938 0)
(0.488633 0.00211141 0)
(0.488759 0.00160613 0)
(0.488855 0.00111648 0)
(0.488919 0.000641775 0)
(0.488953 0.000178203 0)
(0.466531 0.00424412 0)
(0.466961 0.00382441 0)
(0.467352 0.00336429 0)
(0.467699 0.00288478 0)
(0.467998 0.0024013 0)
(0.468248 0.00192441 0)
(0.468447 0.00146028 0)
(0.468596 0.00101139 0)
(0.468697 0.000576884 0)
(0.46875 0.000153165 0)
(0.435797 0.00372103 0)
(0.436361 0.00334221 0)
(0.436871 0.00293169 0)
(0.437322 0.00250703 0)
(0.437708 0.00208121 0)
(0.438028 0.00166289 0)
(0.438284 0.00125717 0)
(0.438474 0.000865792 0)
(0.438601 0.000487877 0)
(0.438666 0.00012 0)
(0.39541 0.00307415 0)
(0.396069 0.00275013 0)
(0.396661 0.0024036 0)
(0.39718 0.00204832 0)
(0.397623 0.00169441 0)
(0.397988 0.00134851 0)
(0.398277 0.00101445 0)
(0.398492 0.000693312 0)
(0.398633 0.000384154 0)
(0.398703 8.39468e-05 0)
(0.345411 0.00234967 0)
(0.346113 0.00209227 0)
(0.346739 0.00182068 0)
(0.347284 0.00154517 0)
(0.347747 0.00127261 0)
(0.348126 0.00100799 0)
(0.348424 0.000753513 0)
(0.348642 0.000510111 0)
(0.348783 0.000276445 0)
(0.34885 5.0444e-05 0)
(0.285821 0.00160632 0)
(0.286503 0.00142265 0)
(0.287108 0.00123194 0)
(0.287631 0.00104032 0)
(0.288071 0.000852547 0)
(0.28843 0.000671263 0)
(0.288708 0.000498159 0)
(0.288911 0.000333187 0)
(0.289039 0.000175742 0)
(0.289096 2.37988e-05 0)
(0.216642 0.000915071 0)
(0.217235 0.000805586 0)
(0.217756 0.000693629 0)
(0.218204 0.000582438 0)
(0.218578 0.000474468 0)
(0.218879 0.000371043 0)
(0.219112 0.000272936 0)
(0.219278 0.00018001 0)
(0.219381 9.17904e-05 0)
(0.219423 7.07009e-06 0)
(0.137864 0.000358546 0)
(0.13829 0.000312533 0)
(0.138661 0.000266354 0)
(0.138977 0.00022146 0)
(0.139239 0.00017833 0)
(0.139449 0.000137699 0)
(0.139609 9.94064e-05 0)
(0.139721 6.36549e-05 0)
(0.139789 2.9822e-05 0)
(0.139814 -2.2668e-06 0)
(0.0494928 3.751e-05 0)
(0.049664 3.28592e-05 0)
(0.0498114 2.82034e-05 0)
(0.0499353 2.36456e-05 0)
(0.0500368 1.9275e-05 0)
(0.0501169 1.51354e-05 0)
(0.0501769 1.12605e-05 0)
(0.0502182 7.64496e-06 0)
(0.0502419 4.27874e-06 0)
(0.050249 1.11899e-06 0)
(0.0506874 -2.17181e-06 0)
(0.0507127 -5.12931e-06 0)
(0.0507541 -8.11184e-06 0)
(0.0508121 -1.11687e-05 0)
(0.0508882 -1.44576e-05 0)
(0.0509843 -1.8057e-05 0)
(0.0511032 -2.21607e-05 0)
(0.0512485 -2.68891e-05 0)
(0.0514251 -3.24906e-05 0)
(0.0516388 -3.91533e-05 0)
(0.0518974 -4.72138e-05 0)
(0.05221 -5.69726e-05 0)
(0.0525885 -6.89131e-05 0)
(0.0530473 -8.35241e-05 0)
(0.0536041 -0.000101533 0)
(0.0542812 -0.000123744 0)
(0.0551059 -0.000151289 0)
(0.0561123 -0.000185489 0)
(0.0573426 -0.000228133 0)
(0.0588489 -0.000281358 0)
(0.0606957 -0.000347944 0)
(0.0629623 -0.000431183 0)
(0.0657454 -0.000535117 0)
(0.0691611 -0.000664237 0)
(0.0733467 -0.000823423 0)
(0.0784592 -0.00101703 0)
(0.0846707 -0.00124796 0)
(0.0921558 -0.00151531 0)
(0.10107 -0.00181167 0)
(0.111513 -0.00211893 0)
(0.123475 -0.00240475 0)
(0.136772 -0.00262069 0)
(0.150983 -0.00270634 0)
(0.165409 -0.0026031 0)
(0.179123 -0.00227957 0)
(0.14105 -3.50246e-05 0)
(0.14111 -6.66809e-05 0)
(0.141211 -9.92656e-05 0)
(0.141357 -0.000133914 0)
(0.14155 -0.000171872 0)
(0.141795 -0.000214624 0)
(0.1421 -0.000263834 0)
(0.142475 -0.0003215 0)
(0.142931 -0.000389931 0)
(0.143483 -0.00047194 0)
(0.144153 -0.000570864 0)
(0.144962 -0.000690816 0)
(0.145941 -0.000836781 0)
(0.147128 -0.00101495 0)
(0.148565 -0.00123291 0)
(0.150311 -0.00150012 0)
(0.152432 -0.00182826 0)
(0.155012 -0.00223179 0)
(0.158156 -0.00272849 0)
(0.161989 -0.00334008 0)
(0.166665 -0.00409268 0)
(0.172372 -0.00501714 0)
(0.179333 -0.00614865 0)
(0.187814 -0.00752541 0)
(0.198123 -0.00918539 0)
(0.210609 -0.0111602 0)
(0.225644 -0.0134644 0)
(0.243603 -0.0160794 0)
(0.264815 -0.0189306 0)
(0.289487 -0.0218593 0)
(0.317602 -0.0245958 0)
(0.348778 -0.026748 0)
(0.382136 -0.0278288 0)
(0.416202 -0.027355 0)
(0.448971 -0.0250323 0)
(0.221328 -7.95148e-05 0)
(0.221407 -0.000163484 0)
(0.221547 -0.000250093 0)
(0.221751 -0.000342126 0)
(0.222023 -0.000442868 0)
(0.222372 -0.000556043 0)
(0.222807 -0.000686047 0)
(0.223342 -0.000837953 0)
(0.223995 -0.00101783 0)
(0.224788 -0.00123282 0)
(0.225747 -0.00149161 0)
(0.226908 -0.00180463 0)
(0.228312 -0.00218466 0)
(0.23001 -0.00264725 0)
(0.232066 -0.00321157 0)
(0.234556 -0.00390107 0)
(0.237577 -0.00474466 0)
(0.241242 -0.00577758 0)
(0.245692 -0.00704288 0)
(0.2511 -0.00859237 0)
(0.25767 -0.0104877 0)
(0.265652 -0.0128007 0)
(0.275341 -0.0156122 0)
(0.287085 -0.0190087 0)
(0.301286 -0.023075 0)
(0.318395 -0.0278802 0)
(0.338899 -0.033455 0)
(0.363295 -0.0397558 0)
(0.392032 -0.0466152 0)
(0.425426 -0.0536795 0)
(0.463528 -0.0603445 0)
(0.505942 -0.0657186 0)
(0.551613 -0.0686683 0)
(0.59864 -0.0680173 0)
(0.644269 -0.0629753 0)
(0.291464 -0.00013164 0)
(0.291549 -0.000283127 0)
(0.291707 -0.000439638 0)
(0.29194 -0.000606139 0)
(0.292255 -0.000788367 0)
(0.292661 -0.000993003 0)
(0.293168 -0.00122778 0)
(0.293794 -0.00150179 0)
(0.294558 -0.00182573 0)
(0.295486 -0.00221234 0)
(0.29661 -0.00267688 0)
(0.297968 -0.00323781 0)
(0.299609 -0.00391745 0)
(0.301592 -0.00474304 0)
(0.303989 -0.00574777 0)
(0.306887 -0.00697221 0)
(0.310392 -0.00846581 0)
(0.314633 -0.0102888 0)
(0.319767 -0.0125138 0)
(0.325983 -0.0152281 0)
(0.333507 -0.0185346 0)
(0.342611 -0.0225527 0)
(0.353617 -0.0274161 0)
(0.366903 -0.0332683 0)
(0.38291 -0.0402507 0)
(0.402137 -0.0484817 0)
(0.425136 -0.0580217 0)
(0.45249 -0.0688173 0)
(0.484767 -0.0806206 0)
(0.522438 -0.0928823 0)
(0.565732 -0.10463 0)
(0.614406 -0.114372 0)
(0.667431 -0.120116 0)
(0.722625 -0.119663 0)
(0.776463 -0.111358 0)
(0.35144 -0.000180614 0)
(0.351522 -0.000406958 0)
(0.35168 -0.000641081 0)
(0.351917 -0.000890208 0)
(0.352241 -0.00116277 0)
(0.352659 -0.00146857 0)
(0.353184 -0.00181899 0)
(0.353833 -0.00222737 0)
(0.354626 -0.00270944 0)
(0.355589 -0.00328385 0)
(0.356755 -0.00397292 0)
(0.358164 -0.00480348 0)
(0.359863 -0.00580795 0)
(0.361913 -0.00702564 0)
(0.364386 -0.00850429 0)
(0.367369 -0.0103019 0)
(0.370967 -0.012489 0)
(0.375308 -0.0151508 0)
(0.380546 -0.0183898 0)
(0.386864 -0.0223287 0)
(0.394484 -0.027112 0)
(0.40367 -0.0329068 0)
(0.414736 -0.0399019 0)
(0.428052 -0.0483015 0)
(0.444056 -0.0583117 0)
(0.463255 -0.0701159 0)
(0.486233 -0.0838296 0)
(0.51364 -0.0994284 0)
(0.54617 -0.116636 0)
(0.584495 -0.134763 0)
(0.629121 -0.152498 0)
(0.680123 -0.167692 0)
(0.736679 -0.177265 0)
(0.796404 -0.177501 0)
(0.854778 -0.16524 0)
(0.40126 -0.000221636 0)
(0.401332 -0.000522866 0)
(0.401476 -0.000834648 0)
(0.401697 -0.0011664 0)
(0.401999 -0.00152915 0)
(0.402392 -0.00193571 0)
(0.402887 -0.00240102 0)
(0.403498 -0.00294251 0)
(0.404246 -0.00358074 0)
(0.405155 -0.00434004 0)
(0.406254 -0.00524941 0)
(0.40758 -0.00634363 0)
(0.409177 -0.00766457 0)
(0.4111 -0.00926279 0)
(0.413413 -0.0111995 0)
(0.416196 -0.0135487 0)
(0.419543 -0.0163999 0)
(0.423568 -0.0198612 0)
(0.428406 -0.0240623 0)