/*--------------------------------*- C++ -*----------------------------------*\
| =========                 |                                                 |
| \\      /  F ield         | OpenFOAM: The Open Source CFD Toolbox           |
|  \\    /   O peration     | Version:  2406                                  |
|   \\  /    A nd           | Website:  www.openfoam.com                      |
|    \\/     M anipulation  |                                                 |
\*---------------------------------------------------------------------------*/
FoamFile
{
    version     2.0;
    format      ascii;
    arch        "LSB;label=32;scalar=64";
    class       surfaceScalarField;
    location    "25";
    object      phi;
}
// * * * * * * * * * * * * * * * * * * * * * * * * * * * * * * * * * * * * * //

dimensions      [0 3 -1 0 0 0 0];

oriented        oriented;

internalField   nonuniform List<scalar> 
3270
(
0.0193533
-0.000353323
0.0197423
-0.000389035
0.0200949
-0.000352606
0.020487
-0.00039219
0.0209853
-0.000498305
0.0216738
-0.000688649
0.0227061
-0.00103231
0.0243831
-0.00167708
0.0274742
-0.00309116
-0.00737779
0.0348518
0.0509963
-0.000349639
0.051282
-0.000674796
0.0517483
-0.000819046
0.052368
-0.00101203
0.0531852
-0.00131565
0.0542782
-0.00178185
0.0557698
-0.0025241
0.0578479
-0.0037553
0.0606705
-0.00591386
-0.00990308
0.0631956
0.0749824
-0.000332029
0.0751146
-0.00080707
0.0754445
-0.00114907
0.0759535
-0.00152119
0.0766505
-0.00201284
0.0775637
-0.00269524
0.0787207
-0.00368119
0.080108
-0.00514277
0.081522
-0.00732798
-0.0105445
0.0821634
0.0909766
-0.000308689
0.0909958
-0.000826273
0.0911291
-0.00128251
0.091381
-0.00177333
0.0917428
-0.00237477
0.0922027
-0.00315529
0.0927252
-0.00420371
0.0932127
-0.00563041
0.0934364
-0.0075517
-0.0100409
0.0929327
0.0989514
-0.000260081
0.0988638
-0.000738766
0.0987989
-0.00121782
0.098766
-0.00174056
0.0987456
-0.0023544
0.0987045
-0.00311434
0.0985823
-0.00408152
0.0982683
-0.00531649
0.0975792
-0.0068626
-0.00870894
0.0962473
0.0989134
-0.000173532
0.0987203
-0.000545737
0.0984815
-0.000979073
0.0981998
-0.00145903
0.0978469
-0.00200161
0.0973804
-0.00264791
0.0967351
-0.00343622
0.0958127
-0.00439408
0.0944797
-0.00552948
-0.00680946
0.0925802
0.0908686
-4.21771e-05
0.0905902
-0.000267334
0.0902339
-0.000622928
0.0897861
-0.00101132
0.0892099
-0.00142548
0.0884606
-0.00189866
0.0874778
-0.00245348
0.0861832
-0.00309941
0.0844855
-0.00383177
-0.00462113
0.0822972
0.0748263
0.00013154
0.0745336
2.53882e-05
0.0741664
-0.000255902
0.0736786
-0.000523601
0.0730315
-0.000778475
0.0721864
-0.0010536
0.0710953
-0.00136238
0.069703
-0.00170712
0.0679541
-0.00208288
-0.00247266
0.0658056
0.0508449
0.000286624
0.0507073
0.000162994
0.0504765
-2.51215e-05
0.0500989
-0.000146175
0.0495611
-0.000240759
0.0488426
-0.000335137
0.0479163
-0.000436059
0.0467527
-0.000543561
0.0453256
-0.000655749
-0.000767635
0.0436205
0.0192866
0.0194496
0.0194245
0.0192783
0.0190375
0.0187024
0.0182663
0.0177228
0.017067
0.0162994
-0.000146709
0.0001468
-0.00047551
0.000329016
-0.000837012
0.000361707
-0.00112061
0.000283782
-0.00126952
0.000149089
-0.00126417
-5.18437e-06
-0.00110792
-0.000156074
-0.00081717
-0.000290568
-0.000414852
-0.000402123
7.37056e-05
-0.000488352
0.000623511
-0.000549591
0.0012116
-0.000587868
0.00181816
-0.00060634
0.00242715
-0.00060877
0.00302654
-0.000599185
0.00360834
-0.000581597
0.00416837
-0.000559851
0.00470603
-0.000537497
0.00522392
-0.000517763
0.00572757
-0.000503546
0.0062251
-0.000497452
0.00672697
-0.000501834
0.00724581
-0.000518842
0.0077962
-0.000550413
0.00839436
-0.000598223
0.00905776
-0.000663484
0.00980426
-0.000746605
0.0106507
-0.000846572
0.0116106
-0.000960078
0.0126908
-0.00108029
0.0138862
-0.00119559
0.0151746
-0.00128848
0.0165105
-0.00133602
0.0178231
-0.00131282
-0.00119892
0.0190219
-0.000359008
0.000506015
-0.00102122
0.000991816
-0.00168346
0.00102447
-0.00214433
0.00074515
-0.00229816
0.000303387
-0.00211073
-0.000192147
-0.00159391
-0.000672431
-0.00078637
-0.00109762
0.00026005
-0.00144804
0.00148929
-0.00171706
0.0028468
-0.00190657
0.00428322
-0.00202375
0.00575633
-0.00207892
0.00723216
-0.00208409
0.00868531
-0.00205184
0.0100989
-0.0019947
0.011464
-0.00192459
0.0127795
-0.00185258
0.0140508
-0.00178878
0.0152897
-0.00174232
0.0165139
-0.00172149
0.0177459
-0.00173378
0.0190131
-0.00178602
0.0203469
-0.00188435
0.0217826
-0.002034
0.0233576
-0.00223876
0.0251107
-0.00249996
0.0270786
-0.00281475
0.0292918
-0.00317358
0.0317679
-0.00355674
0.0345024
-0.00393043
0.0374568
-0.00424325
0.0405466
-0.00442618
0.0436333
-0.00439988
-0.00409682
0.0465309
-0.000463776
0.000970037
-0.00123352
0.00176209
-0.00190777
0.00169924
-0.00225681
0.00109467
-0.00217552
0.000222542
-0.00164334
-0.000723894
-0.000691762
-0.00162358
0.000619466
-0.00240842
0.00221836
-0.00304649
0.0040311
-0.00352937
0.00598832
-0.00386335
0.00802862
-0.00406361
0.0101005
-0.00415034
0.012163
-0.00414623
0.0141862
-0.00407465
0.0161504
-0.00395858
0.0180459
-0.00381979
0.0198721
-0.00367847
0.0216367
-0.00355311
0.023355
-0.00346049
0.0250495
-0.00341584
0.0267488
-0.00343309
0.0284878
-0.00352494
0.0303063
-0.00370293
0.0322492
-0.00397701
0.034365
-0.00435476
0.0367045
-0.00483965
0.0393177
-0.00542824
0.0422496
-0.00610575
0.0455325
-0.0068399
0.0491747
-0.00757285
0.0531444
-0.00821329
0.0573499
-0.00863192
0.0616207
-0.00867096
-0.00818285
0.0657065
-0.000484952
0.00145515
-0.00117715
0.00245482
-0.001622
0.00214455
-0.00160777
0.00108084
-0.00107185
-0.000312976
-3.50277e-05
-0.00176035
0.00143863
-0.00309688
0.00326635
-0.0042358
0.00536168
-0.00514147
0.0076427
-0.00581006
0.0100364
-0.00625675
0.0124809
-0.00650774
0.0149258
-0.00659498
0.0173328
-0.00655291
0.0196747
-0.00641623
0.0219348
-0.00621848
0.0241065
-0.00599124
0.0261919
-0.00576365
0.0282014
-0.00556238
0.0301527
-0.00541166
0.0320706
-0.00533368
0.0339864
-0.00534875
0.0359372
-0.00547574
0.0379662
-0.005732
0.0401222
-0.00613312
0.0424593
-0.00669192
0.0450358
-0.00741631
0.047913
-0.00830567
0.0511517
-0.00934461
0.0548051
-0.0104936
0.0589072
-0.0116752
0.0634508
-0.0127571
0.0683551
-0.0135364
0.0734249
-0.013741
-0.0130883
0.0783302
-0.00044238
0.00189776
-0.000872201
0.00288495
-0.000833683
0.00210635
-0.000197643
0.000445135
0.00101079
-0.00152113
0.00270534
-0.00345462
0.00478123
-0.00517252
0.00713523
-0.00658952
0.00967419
-0.00768018
0.0123183
-0.00845392
0.0150017
-0.00893992
0.017672
-0.00917774
0.0202891
-0.00921189
0.0228247
-0.00908824
0.0252605
-0.00885186
0.0275879
-0.00854563
0.0298063
-0.00820945
0.0319228
-0.00787997
0.0339512
-0.00759059
0.0359114
-0.00737178
0.0378293
-0.00725146
0.0397362
-0.00725559
0.0416691
-0.00740859
0.0436708
-0.00773364
0.0457902
-0.00825259
0.0480834
-0.00898511
0.0506137
-0.00994676
0.0534528
-0.0111448
0.0566791
-0.012571
0.060374
-0.0141886
0.0646096
-0.0159109
0.0694214
-0.0175689
0.0747556
-0.0188708
0.080386
-0.0193713
-0.018547
0.0858447
-0.000316423
0.00221419
-0.000241123
0.00280984
0.000594626
0.00127077
0.00214137
-0.00110146
0.00423564
-0.00361523
0.00671245
-0.00593128
0.0094321
-0.007892
0.0122834
-0.00944071
0.0151811
-0.0105776
0.0180607
-0.0113334
0.0208752
-0.0117542
0.0235911
-0.0118934
0.0261862
-0.0118068
0.0286479
-0.0115498
0.0309716
-0.0111754
0.0331596
-0.0107334
0.0352199
-0.0102696
0.0371657
-0.00982567
0.0390148
-0.00943952
0.0407889
-0.00914578
0.0425139
-0.00897637
0.0442198
-0.00896134
0.0459409
-0.00912958
0.0477168
-0.00950955
0.0495938
-0.0101296
0.0516264
-0.0110176
0.0538799
-0.0122002
0.0564337
-0.0136987
0.0593842
-0.0155216
0.062845
-0.0176493
0.066938
-0.0200038
0.0717622
-0.022393
0.0773146
-0.0244229
0.083334
-0.0253907
-0.0243259
0.0891131
-1.1473e-05
0.00222572
0.000969496
0.0018288
0.0030302
-0.000789963
0.00579918
-0.00387044
0.00894509
-0.00676111
0.0122457
-0.00923184
0.015558
-0.0112043
0.0187921
-0.0126747
0.0218926
-0.0136781
0.0248275
-0.0142682
0.0275793
-0.014506
0.0301414
-0.0144554
0.0325146
-0.0141799
0.0347055
-0.0137406
0.0367252
-0.013195
0.0385882
-0.0125963
0.0403116
-0.0119929
0.0419147
-0.0114286
0.0434186
-0.0109433
0.0448461
-0.0105731
0.0462217
-0.0103519
0.0475723
-0.0103118
0.0489274
-0.0104846
0.0503209
-0.010903
0.0517926
-0.0116011
0.0533911
-0.0126161
0.0551785
-0.0139875
0.057236
-0.015756
0.0596718
-0.0179573
0.0626286
-0.0206059
0.066282
-0.0236572
0.0708124
-0.0269233
0.076299
-0.0299098
0.082461
-0.0315527
-0.0300934
0.0882285
0.000714913
0.00151072
0.00337277
-0.000829243
0.00722359
-0.00464095
0.0114529
-0.00809993
0.0156497
-0.010958
0.0196304
-0.0132126
0.0233169
-0.0148908
0.026683
-0.0160408
0.0297287
-0.0167238
0.0324669
-0.0170064
0.0349172
-0.0169562
0.0371025
-0.0166406
0.0390475
-0.0161249
0.0407778
-0.0154708
0.0423191
-0.0147362
0.0436967
-0.0139738
0.0449353
-0.0132314
0.0460587
-0.0125519
0.0470896
-0.0119741
0.04805
-0.0115335
0.0489614
-0.0112633
0.0498454
-0.0111957
0.0507245
-0.0113636
0.0516235
-0.0118018
0.0525716
-0.0125491
0.0536059
-0.0136503
0.0547766
-0.015158
0.0561545
-0.0171339
0.0578437
-0.0196463
0.059996
-0.0227582
0.0628249
-0.026486
0.0665916
-0.0306902
0.0714909
-0.0348091
0.0772565
-0.0373185
-0.0351344
0.0822973
0.00279156
-0.00128095
0.00853438
-0.00657241
0.0145593
-0.0106661
0.0200655
-0.0136064
0.0249066
-0.0157992
0.0291011
-0.0174072
0.0327088
-0.0184986
0.0357958
-0.0191279
0.0384246
-0.0193527
0.0406524
-0.0192341
0.0425309
-0.0188348
0.0441077
-0.0182174
0.0454262
-0.0174434
0.0465262
-0.0165708
0.0474436
-0.0156536
0.0482109
-0.014741
0.0488566
-0.0138771
0.049406
-0.0131012
0.0498808
-0.0124488
0.0502997
-0.0119524
0.0506789
-0.0116424
0.0510326
-0.0115493
0.0513735
-0.0117045
0.0517147
-0.0121428
0.0520704
-0.0129048
0.0524594
-0.0140392
0.0529087
-0.0156071
0.0534602
-0.0176852
0.0541819
-0.0203679
0.0551854
-0.0237615
0.0566505
-0.0279511
0.0588484
-0.0328881
0.0620995
-0.0380604
0.0663748
-0.0415941
-0.0380651
0.0693056
0.0113348
-0.012616
0.0202421
-0.0154802
0.0270817
-0.017506
0.0325381
-0.0190631
0.036939
-0.0202003
0.040495
-0.0209634
0.0433587
-0.0213624
0.045645
-0.0214143
0.0474454
-0.0211531
0.0488363
-0.020625
0.049884
-0.0198825
0.050647
-0.0189805
0.0511771
-0.0179736
0.0515201
-0.0169137
0.0517153
-0.0158489
0.0517966
-0.0148224
0.0517921
-0.0138725
0.0517242
-0.0130334
0.0516106
-0.0123352
0.0514641
-0.0118058
0.0512933
-0.0114715
0.0511029
-0.0113588
0.0508945
-0.011496
0.0506668
-0.0119151
0.0504164
-0.0126543
0.0501384
-0.013761
0.0498266
-0.0152952
0.0494745
-0.0173329
0.0490748
-0.0199681
0.0486198
-0.0233064
0.0481009
-0.0274322
0.0475141
-0.0323014
0.046882
-0.0374283
0.0463571
-0.0410691
-0.0373451
0.0456372
0.0378079
-0.0155724
0.0416767
-0.0193494
0.0452527
-0.0210822
0.0483288
-0.0221394
0.0508605
-0.0227322
0.0528423
-0.0229453
0.0543129
-0.0228331
0.0553309
-0.0224324
0.0559593
-0.0217816
0.0562599
-0.0209257
0.0562915
-0.0199141
0.0561084
-0.0187973
0.0557593
-0.0176245
0.0552869
-0.0164414
0.0547272
-0.0152893
0.0541097
-0.0142049
0.053457
-0.0132198
0.0527854
-0.0123618
0.0521053
-0.0116551
0.0514213
-0.0111218
0.0507327
-0.010783
0.0500342
-0.0106603
0.0493152
-0.0107769
0.0485601
-0.01116
0.0477478
-0.011842
0.0468494
-0.0128626
0.0458248
-0.0142705
0.0446153
-0.0161233
0.043128
-0.0184807
0.041205
-0.0213833
0.038562
-0.0247891
0.0346729
-0.0284123
0.0285607
-0.0313159
0.0182763
-0.0307845
-0.0190687
0.0631702
-0.0155473
0.0632074
-0.0193867
0.0635645
-0.0214396
0.0639621
-0.0225371
0.0642375
-0.0230077
0.064294
-0.0230019
0.0640907
-0.0226299
0.0636294
-0.0219711
0.0629361
-0.0210883
0.0620485
-0.0200381
0.0610088
-0.0188744
0.059859
-0.0176476
0.0586378
-0.0164033
0.0573788
-0.0151824
0.0561092
-0.0140198
0.0548497
-0.0129454
0.0536139
-0.0119841
0.0524092
-0.0111572
0.0512367
-0.0104826
0.0500915
-0.0099767
0.0489635
-0.00965501
0.0478368
-0.0095336
0.04669
-0.00963024
0.0454955
-0.00996554
0.0442176
-0.010564
0.0428094
-0.0114544
0.0412081
-0.0126691
0.0393237
-0.0142388
0.0370219
-0.0161789
0.0340941
-0.0184554
0.0302138
-0.0209087
0.0248931
-0.0230914
0.017518
-0.0239407
0.00791126
-0.0211773
-0.0111574
0.0811508
-0.0145349
0.079522
-0.017758
0.0778678
-0.0197855
0.0762441
-0.0209135
0.0746126
-0.0213762
0.072929
-0.0213183
0.0711623
-0.0208632
0.0693049
-0.0201136
0.0673687
-0.0191522
0.0653781
-0.0180474
0.0633621
-0.0168585
0.0613507
-0.0156362
0.0593708
-0.0144234
0.0574443
-0.0132559
0.0555873
-0.0121628
0.0538093
-0.0111674
0.0521134
-0.0102883
0.0504966
-0.00954045
0.0489502
-0.00893625
0.04746
-0.00848659
0.0460068
-0.00820187
0.0445661
-0.00809297
0.0431079
-0.00817209
0.0415957
-0.00845338
0.0399848
-0.00895315
0.0382194
-0.00968909
0.0362274
-0.0106772
0.0339125
-0.0119239
0.0311423
-0.0134087
0.0277356
-0.0150486
0.0234577
-0.0166308
0.0180621
-0.0176956
0.0114848
-0.0173631
0.00449804
-0.0141904
-0.00665936
0.091277
-0.0128792
0.0888579
-0.015339
0.086115
-0.0170426
0.0832351
-0.0180336
0.0802935
-0.0184346
0.0773282
-0.0183529
0.0743601
-0.0178951
0.0714079
-0.0171614
0.0684935
-0.0162377
0.0656414
-0.0151953
0.062876
-0.014093
0.0602184
-0.0129786
0.0576853
-0.0118903
0.0552875
-0.0108581
0.0530294
-0.00990481
0.0509095
-0.00904757
0.0489204
-0.0082992
0.0470492
-0.00766932
0.0452783
-0.00716546
0.0435857
-0.00679403
0.0419449
-0.00656113
0.0403251
-0.00647329
0.0386909
-0.00653797
0.0370012
-0.00676377
0.035208
-0.00716008
0.0332543
-0.00773543
0.0310705
-0.00849341
0.0285705
-0.00942393
0.0256479
-0.0104862
0.0221776
-0.0115783
0.0180363
-0.0124895
0.0131748
-0.0128341
0.00780564
-0.0119939
0.0027858
-0.0091705
-0.00387356
0.0940608
-0.0106927
0.0911661
-0.0124442
0.0878322
-0.0137087
0.0842494
-0.0144507
0.080541
-0.0147261
0.0767964
-0.0146082
0.0730813
-0.0141798
0.0694447
-0.0135247
0.0659253
-0.0127183
0.062554
-0.011824
0.059354
-0.0108929
0.0563406
-0.0099652
0.0535221
-0.00907173
0.0508991
-0.00823522
0.0484663
-0.00747201
0.0462123
-0.00679356
0.0441207
-0.00620769
0.0421711
-0.00571975
0.0403391
-0.00533355
0.0385972
-0.00505217
0.0369145
-0.00487856
0.0352571
-0.00481602
0.0335876
-0.00486849
0.0318642
-0.00504052
0.0300406
-0.00533654
0.0280641
-0.00575906
0.0258751
-0.00630443
0.0234058
-0.00695477
0.0205833
-0.00766368
0.0173389
-0.0083339
0.0136371
-0.00878775
0.0095425
-0.00873957
0.00534819
-0.00779955
0.00176326
-0.00558564
-0.0021103
0.0900102
-0.00812256
0.0868371
-0.00927104
0.083229
-0.0101005
0.0793473
-0.0105689
0.0753244
-0.010703
0.0712693
-0.010553
0.0672693
-0.0101797
0.0633908
-0.00964607
0.0596824
-0.00900975
0.0561776
-0.00831911
0.0528973
-0.00761244
0.0498511
-0.00691896
0.0470395
-0.00626008
0.0444551
-0.00565088
0.0420847
-0.00510155
0.0399097
-0.0046186
0.037908
-0.004206
0.0360542
-0.00386605
0.0343207
-0.0036001
0.0326775
-0.00340909
0.0310929
-0.00329399
0.0295329
-0.00325607
0.0279613
-0.00329704
0.0263396
-0.00341889
0.0246263
-0.00362325
0.0227767
-0.00390962
0.0207441
-0.00427189
0.0184811
-0.00469181
0.0159456
-0.0051283
0.0131143
-0.00550261
0.0100089
-0.00568241
0.00674504
-0.00547574
0.00360493
-0.00465956
0.00111207
-0.00309285
-0.000998238
0.0795735
-0.00539884
0.0763631
-0.0060606
0.0727849
-0.00652227
0.0689734
-0.00675735
0.0650525
-0.00678205
0.0611302
-0.00663061
0.0572944
-0.00634387
0.0536118
-0.00596347
0.0501291
-0.005527
0.0468754
-0.00506532
0.0438651
-0.00460221
0.0411013
-0.00415514
0.0385776
-0.00373641
0.0362809
-0.00335417
0.0341928
-0.00301353
0.0322916
-0.00271737
0.0305526
-0.00246711
0.0289498
-0.00226325
0.0274555
-0.00210583
0.0260411
-0.00199474
0.024677
-0.00192998
0.0233327
-0.00191178
0.0219763
-0.0019407
0.0205748
-0.00201747
0.019094
-0.00214248
0.0174989
-0.00231459
0.0157556
-0.00252861
0.0138345
-0.00277075
0.0117178
-0.00301164
0.00941231
-0.00319719
0.00697086
-0.003241
0.00452186
-0.00302682
0.00230131
-0.00243909
0.000662113
-0.00145375
-0.000336138
0.0632487
-0.00284198
0.060331
-0.00314291
0.0571465
-0.00333783
0.0538056
-0.00341643
0.0504134
-0.00338988
0.0470612
-0.00327838
0.0438219
-0.00310455
0.0407486
-0.00289024
0.037876
-0.00265442
0.0352227
-0.00241212
0.0327949
-0.00217439
0.0305887
-0.00194903
0.0285934
-0.00174118
0.0267932
-0.00155401
0.0251689
-0.00138927
0.0236992
-0.00124773
0.0223615
-0.00112951
0.0211327
-0.00103443
0.0199889
-0.000962115
0.0189063
-0.000912203
0.0178608
-0.000884426
0.0168276
-0.000878692
0.015782
-0.000895103
0.0146984
-0.000933906
0.0135512
-0.000995225
0.012315
-0.00107843
0.0109671
-0.00118075
0.00949117
-0.00129484
0.00788438
-0.00140487
0.00616892
-0.00148175
0.00440748
-0.0014796
0.00271945
-0.00133883
0.00128674
-0.00100649
0.000327311
-0.000494419
-8.83772e-06
0.0416477
-0.000869211
0.0394515
-0.00094667
0.0371035
-0.000989897
0.0346846
-0.000997499
0.0322693
-0.00097467
0.0299197
-0.000928812
0.0276825
-0.000867371
0.0255893
-0.000797006
0.023658
-0.000723159
0.0218957
-0.000649848
0.0203011
-0.000579842
0.0188669
-0.000514922
0.0175818
-0.000456162
0.0164319
-0.000404123
0.0154016
-0.000359019
0.0144747
-0.000320833
0.0136345
-0.000289419
0.0128646
-0.000264566
0.0121486
-0.000246055
0.01147
-0.000233685
0.0108129
-0.000227308
0.010161
-0.000226843
0.00949821
-0.000232297
0.00880805
-0.000243751
0.00807411
-0.000261304
0.00728056
-0.000284895
0.00641368
-0.000313889
0.0054651
-0.000346271
0.00443756
-0.000377343
0.00335387
-0.000398063
0.00226798
-0.000393728
0.00127391
-0.000344801
0.000501152
-0.000233813
7.43662e-05
-6.7705e-05
6.55202e-05
0.0154302
0.0144835
0.0134936
0.0124961
0.0115214
0.0105926
0.00972523
0.00892822
0.00820505
0.0075552
0.00697535
0.00646043
0.00600426
0.00560013
0.00524111
0.00492027
0.00463085
0.00436628
0.00412022
0.00388653
0.00365922
0.00343238
0.00320008
0.00295633
0.00269502
0.00241012
0.00209623
0.00174996
0.00137262
0.000974553
0.000580823
0.000236016
2.19313e-06
-6.55202e-05
0.0200125
-0.000990808
0.0207255
-0.000713049
0.0211322
-0.00040682
0.02124
-0.000107904
0.0210772
0.000162823
0.0206802
0.000396954
0.020086
0.000594154
0.0193272
0.000758821
0.0184309
0.000896281
0.00100886
0.017422
0.0490355
-0.00349564
0.0509846
-0.00266238
0.0522951
-0.00171751
0.052956
-0.000768926
0.0530028
0.000115847
0.0524952
0.000904589
0.0514987
0.00159053
0.0500742
0.00218329
0.0482737
0.00269686
0.00313719
0.0461453
0.0693137
-0.007103
0.0722114
-0.0055603
0.0742901
-0.00379631
0.0755373
-0.00201621
0.0759965
-0.000343358
0.075737
0.00116404
0.0748317
0.00249582
0.0733416
0.00367337
0.071312
0.00472646
0.00566835
0.0687809
0.0826486
-0.0114215
0.0860871
-0.00899895
0.0885635
-0.00627274
0.0901227
-0.00357545
0.0908581
-0.00107885
0.0908705
0.00115162
0.0902403
0.00312597
0.0890126
0.00490116
0.0871959
0.00654315
0.00808539
0.0847789
0.0904628
-0.0160395
0.0938966
-0.0124327
0.0961987
-0.0085749
0.097572
-0.00494885
0.0982245
-0.00173142
0.0983194
0.00105669
0.0979488
0.00349647
0.0971258
0.00572415
0.0957908
0.00787816
0.0100407
0.0938354
0.0934708
-0.0203971
0.0961137
-0.0150756
0.0974712
-0.00993235
0.0980464
-0.0055241
0.09821
-0.00189518
0.0981831
0.00108353
0.0980432
0.00363624
0.0977408
0.0060265
0.0971105
0.00850838
0.0112693
0.0958819
0.0913661
-0.0235346
0.0920577
-0.0157673
0.0915912
-0.00946587
0.0908686
-0.0048016
0.0903475
-0.00137414
0.0902005
0.00123043
0.0904153
0.00342136
0.0908484
0.00559329
0.0912071
0.00814967
0.0115067
0.0909697
0.0824605
-0.0236979
0.0797614
-0.0130683
0.0769503
-0.00665479
0.0750031
-0.0028545
0.0740939
-0.000465008
0.0741324
0.00119189
0.074955
0.00259874
0.0763746
0.00417363
0.0780565
0.0064677
0.0104432
0.0791199
0.0632347
-0.0176271
0.0565258
-0.00635946
0.0523201
-0.00244914
0.0502426
-0.000777062
0.0496819
9.56392e-05
0.0502192
0.00065454
0.0516443
0.00117363
0.0539316
0.00188625
0.0571074
0.00329182
0.00745961
0.0600909
0.0280101
0.0216506
0.0192015
0.0184244
0.01852
0.0191746
0.0203482
0.0222344
0.0255263
0.0329858
0.0163281
0.00109386
0.0151835
0.00114463
0.0140264
0.00115706
0.0128924
0.00113406
0.0118091
0.00108328
0.0107958
0.0010133
0.00986395
0.000931817
0.00901865
0.00084529
0.00825994
0.000758694
0.00758438
0.000675543
0.0069863
0.000598063
0.00645871
0.000527568
0.00599398
0.000464699
0.00558428
0.000409679
0.00522183
0.000362428
0.00489909
0.000322721
0.00460883
0.000290234
0.00434417
0.000264643
0.00409854
0.000245621
0.00386561
0.000232911
0.0036393
0.000226303
0.00341361
0.000225688
0.00318257
0.000231034
0.00294015
0.00024241
0.00268025
0.000259894
0.00239683
0.00028342
0.00208448
0.000312334
0.00173985
0.000344613
0.00136428
0.000375557
0.00096812
0.000396141
0.000576425
0.000391673
0.000233608
0.000342803
1.42433e-06
0.000232137
-6.54201e-05
6.68128e-05
-6.54296e-05
0.0437454
0.00349378
0.0411485
0.00374145
0.0384437
0.00386184
0.035719
0.00385872
0.0330499
0.00375239
0.0304949
0.00356836
0.028095
0.00333171
0.0258753
0.00306493
0.0238475
0.0027865
0.0220126
0.00251034
0.0203644
0.00224625
0.0188912
0.00200067
0.0175784
0.00177753
0.0164091
0.00157894
0.0153657
0.00140576
0.0144303
0.00125804
0.0135851
0.00113535
0.0128127
0.00103706
0.0120958
0.000962459
0.0114177
0.000910936
0.010762
0.000882025
0.0101122
0.000875486
0.00945189
0.000891311
0.00876462
0.000929663
0.00803389
0.000990603
0.00724384
0.00107344
0.00638074
0.00117538
0.00543628
0.00128903
0.00441324
0.00139854
0.00333445
0.00147488
0.00225377
0.00147232
0.00126493
0.00133156
0.000496874
0.00100015
7.32996e-05
0.000490231
7.85355e-06
0.0658002
0.00647446
0.0624595
0.00708217
0.0588792
0.00744223
0.0551842
0.00755379
0.0514862
0.00745042
0.0478772
0.00717738
0.0444274
0.00678162
0.041185
0.00630739
0.0381789
0.00579263
0.035422
0.00526721
0.032915
0.00475326
0.0306494
0.00426633
0.0286101
0.00381678
0.026778
0.00341103
0.0251311
0.00305264
0.0236459
0.00274322
0.022298
0.00248314
0.021063
0.00227207
0.019916
0.0021094
0.0188324
0.0019945
0.0177874
0.00192698
0.016756
0.00190676
0.0157131
0.00193417
0.014633
0.00200975
0.0134898
0.00213376
0.0122582
0.00230495
0.0109156
0.00251801
0.00944542
0.0027591
0.00784508
0.00299881
0.0061368
0.00318312
0.00438318
0.00322586
0.00270331
0.0030114
0.00127823
0.00242501
0.000324707
0.00144366
0.000332538
0.0817715
0.00948189
0.0782585
0.0105953
0.0743811
0.0113196
0.0702881
0.0116469
0.0661119
0.0116267
0.0619648
0.0113246
0.057936
0.0108105
0.0540914
0.0101521
0.0504752
0.00940887
0.0471136
0.00862891
0.0440177
0.00784922
0.0411869
0.00709709
0.0386118
0.00639185
0.0362764
0.00574648
0.0341597
0.00516927
0.0322379
0.00466505
0.0304846
0.00423637
0.0288722
0.00388438
0.0273721
0.00360947
0.0259547
0.00341183
0.0245898
0.00329181
0.0232463
0.00325022
0.021892
0.00328838
0.0204936
0.00340801
0.0190168
0.00361048
0.0174266
0.00389511
0.0156889
0.00425562
0.0137743
0.00467363
0.0116651
0.00510798
0.00936819
0.00547994
0.00693647
0.00565758
0.00449802
0.00544971
0.00228815
0.00463486
0.000657787
0.00307382
0.00099032
0.0911827
0.0121347
0.0879116
0.0138664
0.084194
0.0150374
0.0801947
0.0156463
0.0760507
0.0157708
0.0718759
0.0154995
0.0677616
0.0149248
0.0637776
0.0141362
0.0599748
0.0132118
0.0563879
0.0122159
0.0530379
0.0111992
0.0499341
0.010201
0.0470758
0.00925015
0.0444545
0.00836776
0.0420554
0.00756835
0.0398588
0.00686164
0.0378411
0.00625395
0.0359761
0.00574932
0.0342351
0.00535046
0.0325873
0.00505951
0.0310003
0.00487868
0.0294398
0.00481064
0.0278693
0.00485886
0.0262497
0.00502746
0.0245396
0.00532057
0.0226942
0.00574039
0.0206667
0.00628304
0.0184098
0.00693041
0.0158818
0.00763594
0.0130594
0.00830235
0.00996462
0.00875228
0.00671313
0.00870122
0.00358631
0.0077615
0.00110549
0.00555465
0.0020958
0.0938285
0.0141881
0.0910717
0.0166233
0.0878568
0.0182523
0.0843622
0.019141
0.0807089
0.0194242
0.0769893
0.0192191
0.0732749
0.0186393
0.0696216
0.0177896
0.0660745
0.0167589
0.0626699
0.0156205
0.059435
0.0144341
0.0563882
0.0132478
0.0535393
0.0120991
0.05089
0.011017
0.0484351
0.0100232
0.0461632
0.00913352
0.0440576
0.00835949
0.0420973
0.00770953
0.0402576
0.0071901
0.0385104
0.00680667
0.0368244
0.00656454
0.0351654
0.00646957
0.0334955
0.00652865
0.031773
0.0067499
0.0299512
0.00714231
0.0279774
0.00771404
0.025792
0.00846835
0.0233276
0.00939482
0.0205112
0.0104523
0.0172747
0.0115388
0.0135832
0.0124438
0.00950167
0.0127827
0.00532297
0.0119402
0.00175371
0.00912395
0.00384955
0.0896578
0.0154998
0.0875987
0.0186824
0.0851842
0.0206668
0.08258
0.0217452
0.0798558
0.0221483
0.0770523
0.0220226
0.0741979
0.0214937
0.0713204
0.0206671
0.0684508
0.0196285
0.0656218
0.0184495
0.0628645
0.0171914
0.0602055
0.0159067
0.0576655
0.0146391
0.0552581
0.0134244
0.0529896
0.0122916
0.0508597
0.0112634
0.0488615
0.0103576
0.0469827
0.00958826
0.0452057
0.00896704
0.0435083
0.00850399
0.041864
0.00820878
0.0402419
0.00809166
0.0386062
0.00816424
0.0369159
0.00844018
0.0351228
0.00893536
0.0331698
0.00966702
0.0309874
0.0106507
0.0284897
0.0118925
0.0255707
0.0133713
0.0221058
0.0150038
0.0179728
0.0165769
0.0131236
0.017632
0.00777167
0.0172925
0.00277177
0.0141242
0.00662139
0.0786165
0.0160032
0.0774936
0.0198052
0.0762888
0.0218715
0.0750444
0.0229896
0.0737211
0.0234715
0.0722803
0.0234634
0.0706994
0.0230746
0.06898
0.0223864
0.0671435
0.021465
0.0652221
0.0203709
0.0632523
0.0191612
0.06127
0.0178889
0.059307
0.016602
0.0573892
0.0153422
0.0555354
0.0141453
0.0537573
0.0130414
0.0520595
0.0120554
0.0504398
0.0112079
0.0488902
0.0105166
0.047397
0.0099972
0.0459409
0.00966478
0.0444977
0.00953485
0.0430373
0.00962465
0.0415231
0.00995435
0.0399105
0.010548
0.0381435
0.011434
0.0361501
0.0126441
0.0338342
0.0142085
0.0310637
0.0161419
0.0276582
0.0184096
0.0233843
0.020851
0.0179978
0.0230189
0.0114376
0.023853
0.00447637
0.0210861
0.0110978
0.0605945
0.0154993
0.061108
0.0192915
0.0618709
0.0211085
0.0626134
0.022247
0.0631781
0.0229067
0.0634739
0.0231674
0.0634656
0.0230828
0.0631601
0.0226919
0.0625884
0.0220366
0.0617936
0.0211656
0.0608229
0.0201318
0.059723
0.0189888
0.0585369
0.0177881
0.0573016
0.0165774
0.0560475
0.0153994
0.0547974
0.0142915
0.0535669
0.0132858
0.0523647
0.0124101
0.0511926
0.0116886
0.0500467
0.0111431
0.0489171
0.0107944
0.0477883
0.0106637
0.0466391
0.0107739
0.0454416
0.0111518
0.0441602
0.0118294
0.0427483
0.0128461
0.0411425
0.01425
0.0392531
0.0160981
0.036946
0.0184492
0.0340131
0.0213427
0.0301295
0.0247349
0.0248105
0.0283381
0.0174486
0.0312154
0.00787408
0.0306607
0.0189719
0.0361624
0.0123226
0.0402013
0.0152523
0.0439551
0.0173545
0.0472116
0.0189904
0.0499184
0.0201998
0.0520646
0.0210211
0.0536844
0.0214628
0.0548334
0.0215429
0.0555729
0.0212969
0.0559653
0.0207732
0.0560705
0.0200265
0.0559449
0.0191143
0.0556397
0.0180933
0.0551998
0.0170172
0.0546637
0.0159355
0.0540627
0.0148925
0.053421
0.0139274
0.0527564
0.0130747
0.0520802
0.0123648
0.0513979
0.0118254
0.0507094
0.0114829
0.0500096
0.0113636
0.0492881
0.0114955
0.0485296
0.0119105
0.0477126
0.0126465
0.0468083
0.0137505
0.0457764
0.0152821
0.0445578
0.0173169
0.0430595
0.0199479
0.0411232
0.0232792
0.0384654
0.0273929
0.0345625
0.0322412
0.0284444
0.0373334
0.0181816
0.0409236
0.0371535
0.0109462
0.00137626
0.0196342
0.00656412
0.026386
0.0106027
0.0318335
0.0135427
0.0362745
0.0157586
0.0398988
0.0173966
0.0428441
0.0185174
0.0452151
0.0191718
0.0470966
0.0194154
0.0485608
0.0193088
0.0496723
0.018915
0.0504888
0.0182978
0.0510625
0.0175196
0.0514398
0.0166398
0.0516616
0.0157137
0.0517627
0.0147914
0.0517725
0.0139177
0.0517146
0.0131326
0.0516074
0.0124719
0.0514646
0.0119683
0.0512952
0.0116524
0.0511044
0.0115545
0.050894
0.0117061
0.0506627
0.0121419
0.0504071
0.0129022
0.0501219
0.0140359
0.0498006
0.0156036
0.049436
0.0176818
0.0490198
0.0203643
0.0485426
0.0237566
0.0479938
0.0279419
0.0473661
0.0328689
0.0466778
0.0380216
0.0460749
0.0415264
0.0379791
0.0452493
0.0027548
-0.00137857
0.00836672
0.000952066
0.0142751
0.00469419
0.01971
0.00810771
0.0245228
0.0109458
0.0287221
0.0131972
0.0323574
0.0148821
0.0354857
0.0160435
0.0381623
0.0167388
0.040439
0.0170321
0.0423643
0.0169898
0.0439833
0.0166788
0.0453385
0.0161644
0.0464691
0.0155092
0.0474115
0.0147714
0.0481983
0.0140046
0.0488589
0.0132571
0.0494192
0.0125724
0.0499016
0.0119897
0.0503253
0.0115447
0.050707
0.0112708
0.051061
0.0112005
0.0514005
0.0113667
0.0517384
0.0118042
0.052089
0.0125518
0.0524706
0.0136545
0.0529096
0.0151649
0.0534469
0.0171447
0.054149
0.0196624
0.0551249
0.0227809
0.0565504
0.0265165
0.0586898
0.0307294
0.061853
0.0348582
0.0659978
0.0373815
0.0352275
0.0687495
0.000731303
-0.00210992
0.0033581
-0.00167472
0.00714869
0.000903602
0.0113214
0.00393504
0.0154789
0.00678828
0.0194404
0.00923571
0.0231255
0.011197
0.0265041
0.0126649
0.0295716
0.0136713
0.0323369
0.0142667
0.0348164
0.0145104
0.0370304
0.0144648
0.0390021
0.0141928
0.0407561
0.0137553
0.0423175
0.0132101
0.0437117
0.0126105
0.0449635
0.0120054
0.0460969
0.0114391
0.0471351
0.0109516
0.0481004
0.0105794
0.0490147
0.0103567
0.0498996
0.0103157
0.0507779
0.0104885
0.0516744
0.0109078
0.0526181
0.0116082
0.0536459
0.0126268
0.0548072
0.0140037
0.056172
0.0157801
0.0578425
0.0179921
0.0599681
0.0206554
0.0627579
0.0237267
0.0664671
0.0270202
0.0712805
0.0300448
0.0769197
0.0317423
0.0303657
0.0817815
1.37405e-05
-0.0021236
0.00100563
-0.0026665
0.0030519
-0.00114256
0.00579467
0.00119239
0.00891454
0.00366852
0.0121957
0.00595466
0.0154976
0.00789518
0.0187301
0.00943253
0.0218367
0.0105649
0.024783
0.0113206
0.0275497
0.0117438
0.0301282
0.0118864
0.032518
0.0118031
0.0347245
0.0115489
0.0367583
0.0111765
0.0386333
0.0107356
0.0403667
0.0102722
0.0419776
0.00982826
0.0434875
0.00944187
0.0449191
0.00914792
0.0462974
0.00897858
0.0476491
0.00896413
0.049004
0.00913369
0.050396
0.00951597
0.0518647
0.0101396
0.0534586
0.011033
0.0552392
0.0122232
0.057287
0.0137323
0.059709
0.0155702
0.0626458
0.0177187
0.0662702
0.0201023
0.070758
0.0225325
0.0761824
0.0246204
0.0822541
0.0256707
0.0247246
0.0878954
-0.000291704
-0.00183185
-0.000189643
-0.00276834
0.000658054
-0.00199004
0.00220354
-0.000352871
0.00428933
0.00158293
0.00675576
0.00348843
0.0094666
0.00518453
0.0123125
0.00658679
0.0152087
0.0076689
0.0180905
0.00843893
0.02091
0.00892446
0.0236328
0.00916375
0.0262359