/*--------------------------------*- C++ -*----------------------------------*\
| =========                 |                                                 |
| \\      /  F ield         | OpenFOAM: The Open Source CFD Toolbox           |
|  \\    /   O peration     | Version:  2406                                  |
|   \\  /    A nd           | Website:  www.openfoam.com                      |
|    \\/     M anipulation  |                                                 |
\*---------------------------------------------------------------------------*/
FoamFile
{
    version     2.0;
    format      ascii;
    arch        "LSB;label=32;scalar=64";
    class       volScalarField;
    location    "23";
    object      p;
}
// * * * * * * * * * * * * * * * * * * * * * * * * * * * * * * * * * * * * * //

dimensions      [0 2 -2 0 0 0 0];

internalField   nonuniform List<scalar> 
1800
(
2.11497
2.06299
2.00824
1.95324
1.89561
1.83468
1.76958
1.6991
1.62204
1.51051
2.12733
2.06653
2.00785
1.95186
1.89391
1.83273
1.76786
1.69834
1.62164
1.52983
2.13491
2.06981
2.00864
1.95265
1.89542
1.8353
1.77249
1.70729
1.64001
1.57217
2.14114
2.07436
2.01197
1.9567
1.90114
1.84339
1.78432
1.72524
1.66762
1.61402
2.14742
2.07994
2.01717
1.96285
1.90914
1.85406
1.79886
1.7452
1.69456
1.6488
2.15286
2.08523
2.0228
1.96938
1.91721
1.8644
1.8123
1.76251
1.71621
1.6745
2.15621
2.08903
2.02754
1.97478
1.92351
1.87223
1.82217
1.77467
1.7306
1.6906
2.15633
2.09065
2.03062
1.97807
1.92696
1.87633
1.82721
1.78063
1.73723
1.6975
2.15101
2.08943
2.03158
1.9789
1.92732
1.87653
1.82734
1.78054
1.73668
1.69624
2.13824
2.08515
2.0305
1.97793
1.92577
1.87438
1.82458
1.77697
1.7321
1.69054
1.46543
1.46525
1.46817
1.47468
1.48369
1.49403
1.50461
1.51456
1.52319
1.53004
1.53485
1.53752
1.53809
1.53669
1.53352
1.52881
1.52281
1.51577
1.50793
1.49949
1.49062
1.4815
1.47223
1.46292
1.45365
1.44448
1.43544
1.42655
1.41785
1.40932
1.40097
1.39279
1.38478
1.37692
1.36919
1.46574
1.46552
1.46822
1.47412
1.4823
1.4917
1.50141
1.51062
1.5187
1.5252
1.52985
1.53253
1.53324
1.53209
1.52925
1.52493
1.51935
1.51274
1.50533
1.4973
1.48882
1.48004
1.47109
1.46207
1.45304
1.44407
1.4352
1.42645
1.41785
1.40941
1.40112
1.39299
1.385
1.37715
1.36942
1.46279
1.46279
1.46574
1.47166
1.47963
1.4887
1.49802
1.50687
1.51468
1.521
1.52557
1.52827
1.52908
1.52812
1.52552
1.52148
1.51623
1.50996
1.50288
1.49519
1.48703
1.47856
1.46989
1.46111
1.4523
1.44353
1.43482
1.42621
1.41772
1.40937
1.40115
1.39307
1.38511
1.37729
1.36958
1.45521
1.45624
1.46035
1.46728
1.47599
1.48554
1.49513
1.50411
1.51193
1.51822
1.52274
1.52539
1.52619
1.52524
1.5227
1.51876
1.51364
1.50755
1.50067
1.49318
1.48525
1.477
1.46854
1.45997
1.45136
1.44276
1.43421
1.42575
1.41738
1.40913
1.401
1.39298
1.38509
1.3773
1.36962
1.44253
1.44571
1.45224
1.46124
1.47156
1.48225
1.49259
1.50199
1.50999
1.5163
1.52074
1.52327
1.52394
1.52288
1.52026
1.5163
1.5112
1.50517
1.4984
1.49105
1.48329
1.47522
1.46696
1.45858
1.45016
1.44174
1.43336
1.42505
1.41682
1.40869
1.40067
1.39275
1.38493
1.37721
1.36958
1.42398
1.43112
1.44177
1.45408
1.46682
1.47917
1.49054
1.50048
1.50866
1.51493
1.51919
1.52147
1.52189
1.5206
1.5178
1.51372
1.50857
1.50254
1.49584
1.4886
1.48099
1.4731
1.46503
1.45686
1.44864
1.44042
1.43224
1.4241
1.41604
1.40806
1.40017
1.39236
1.38464
1.37701
1.36945
1.39842
1.41227
1.4296
1.44663
1.46248
1.47681
1.4893
1.49971
1.50794
1.51399
1.5179
1.51977
1.51979
1.51815
1.51508
1.51081
1.50555
1.49951
1.49284
1.48572
1.47826
1.47056
1.46271
1.45476
1.44678
1.43879
1.43083
1.42291
1.41505
1.40725
1.39951
1.39185
1.38425
1.37672
1.36925
1.36007
1.38752
1.41644
1.43992
1.45937
1.47575
1.48921
1.49986
1.50786
1.51343
1.51675
1.51803
1.5175
1.51541
1.51198
1.50747
1.50208
1.496
1.48939
1.48239
1.4751
1.46762
1.46001
1.45233
1.44461
1.43689
1.42918
1.4215
1.41386
1.40626
1.39871
1.39122
1.38376
1.37636
1.369
1.28655
1.35341
1.40375
1.43551
1.45864
1.47674
1.49071
1.50111
1.50847
1.51321
1.51568
1.51617
1.51495
1.5123
1.50847
1.50369
1.49816
1.49205
1.48551
1.47865
1.47157
1.46434
1.457
1.44961
1.44219
1.43476
1.42733
1.41992
1.41252
1.40516
1.39781
1.3905
1.38321
1.37594
1.3687
1.1988
1.32985
1.40222
1.43893
1.46314
1.48118
1.49444
1.50374
1.50984
1.51333
1.51465
1.51414
1.51212
1.50885
1.50458
1.49953
1.49387
1.48776
1.48132
1.47464
1.4678
1.46084
1.4538
1.44673
1.43962
1.4325
1.42537
1.41824
1.41111
1.40398
1.39685
1.38973
1.38261
1.3755
1.36839
1.35308
1.38815
1.43332
1.45859
1.4763
1.49039
1.50083
1.50783
1.51195
1.51373
1.51362
1.51196
1.50904
1.50512
1.50041
1.49511
1.48936
1.48329
1.47698
1.47051
1.46392
1.45726
1.45055
1.4438
1.43702
1.43021
1.42339
1.41654
1.40968
1.40279
1.39588
1.38896
1.38201
1.37505
1.36807
1.44707
1.44799
1.46888
1.48319
1.49382
1.50262
1.50905
1.51291
1.5145
1.51424
1.51251
1.5096
1.50576
1.5012
1.4961
1.49059
1.48479
1.4788
1.47266
1.46642
1.46012
1.45377
1.44738
1.44096
1.4345
1.42801
1.42148
1.41491
1.4083
1.40165
1.39496
1.38822
1.38144
1.37462
1.36776
1.51772
1.50287
1.50583
1.50992
1.51334
1.51627
1.51804
1.51828
1.51704
1.5146
1.51119
1.50705
1.50234
1.49721
1.49177
1.48613
1.48034
1.47447
1.46853
1.46255
1.45654
1.45051
1.44444
1.43833
1.43218
1.42599
1.41974
1.41343
1.40706
1.40062
1.39412
1.38755
1.38092
1.37423
1.36749
1.57121
1.54918
1.54037
1.53565
1.5322
1.52937
1.52646
1.52304
1.51901
1.51445
1.50948
1.50423
1.49878
1.4932
1.48754
1.48185
1.47614
1.47044
1.46473
1.45903
1.45331
1.44758
1.44182
1.43601
1.43015
1.42422
1.41822
1.41214
1.40598
1.39973
1.3934
1.38698
1.38048
1.37391
1.36726
1.61115
1.58546
1.56904
1.55729
1.54791
1.54001
1.53295
1.52628
1.51979
1.51342
1.50718
1.50107
1.49508
1.48922
1.48348
1.47784
1.47228
1.46679
1.46135
1.45593
1.4505
1.44506
1.43958
1.43404
1.42844
1.42275
1.41696
1.41108
1.4051
1.39901
1.39282
1.38653
1.38014
1.37366
1.3671
1.6389
1.61091
1.58955
1.57262
1.55863
1.54677
1.53646
1.52727
1.51891
1.51123
1.50412
1.49747
1.49121
1.48528
1.4796
1.47412
1.46879
1.46356
1.4584
1.45327
1.44813
1.44297
1.43775
1.43245
1.42707
1.42158
1.41599
1.41027
1.40444
1.39848
1.39241
1.38621
1.37991
1.3735
1.367
1.65543
1.62572
1.60115
1.58072
1.56353
1.54894
1.53644
1.5256
1.5161
1.50769
1.50016
1.49335
1.48711
1.48131
1.47585
1.47065
1.46562
1.4607
1.45585
1.45102
1.44617
1.44126
1.43628
1.43121
1.42602
1.42072
1.41528
1.4097
1.40399
1.39814
1.39215
1.38603
1.37979
1.37344
1.36697
1.66188
1.63079
1.60416
1.58157
1.56246
1.54632
1.53267
1.52107
1.51116
1.50261
1.49515
1.48855
1.48261
1.47717
1.4721
1.46729
1.46265
1.4581
1.4536
1.44908
1.44452
1.43988
1.43514
1.43027
1.42527
1.42012
1.41482
1.40937
1.40375
1.39798
1.39206
1.386
1.3798
1.37348
1.36704
1.65966
1.62735
1.5994
1.57563
1.55563
1.53895
1.52509
1.51356
1.50393
1.49582
1.48889
1.48287
1.47752
1.47267
1.46817
1.46389
1.45974
1.45564
1.45153
1.44737
1.44313
1.43876
1.43426
1.4296
1.42478
1.41978
1.41461
1.40925
1.40372
1.39802
1.39215
1.38612
1.37995
1.37364
1.3672
1.65284
1.61948
1.59068
1.56633
1.5461
1.52949
1.51595
1.50494
1.49596
1.48857
1.48239
1.47712
1.47249
1.46831
1.46442
1.4607
1.45705
1.4534
1.44969
1.44589
1.44195
1.43785
1.43358
1.42912
1.42447
1.41961
1.41455
1.40929
1.40383
1.39818
1.39235
1.38635
1.38019
1.37388
1.36745
1.36159
1.35409
1.34668
1.33935
1.33209
1.32488
1.3177
1.31056
1.30343
1.29632
1.36181
1.3543
1.34688
1.33953
1.33224
1.32501
1.31781
1.31064
1.30349
1.29635
1.36197
1.35446
1.34703
1.33967
1.33237
1.32511
1.3179
1.31071
1.30355
1.29639
1.36204
1.35454
1.34712
1.33976
1.33246
1.3252
1.31798
1.31079
1.30361
1.29645
1.36203
1.35457
1.34717
1.33983
1.33254
1.32529
1.31807
1.31087
1.3037
1.29653
1.36196
1.35454
1.34718
1.33987
1.3326
1.32537
1.31816
1.31098
1.30381
1.29664
1.36184
1.35448
1.34717
1.3399
1.33267
1.32546
1.31827
1.31111
1.30395
1.2968
1.36168
1.3544
1.34715
1.33993
1.33273
1.32556
1.3184
1.31126
1.30412
1.29699
1.36149
1.35429
1.34711
1.33995
1.33281
1.32567
1.31855
1.31143
1.30431
1.2972
1.36128
1.35418
1.34707
1.33998
1.33288
1.32579
1.3187
1.31161
1.30452
1.29744
1.36107
1.35406
1.34703
1.34
1.33296
1.32591
1.31886
1.3118
1.30474
1.29768
1.36087
1.35395
1.347
1.34003
1.33304
1.32603
1.31901
1.31198
1.30495
1.29791
1.36069
1.35385
1.34697
1.34006
1.33311
1.32614
1.31915
1.31215
1.30514
1.29812
1.36055
1.35378
1.34696
1.34009
1.33318
1.32624
1.31928
1.3123
1.30531
1.29831
1.36045
1.35374
1.34696
1.34013
1.33325
1.32634
1.31939
1.31243
1.30545
1.29846
1.3604
1.35373
1.34698
1.34018
1.33332
1.32642
1.31949
1.31253
1.30555
1.29857
1.36041
1.35376
1.34704
1.34024
1.3334
1.3265
1.31957
1.31261
1.30564
1.29865
1.36049
1.35386
1.34714
1.34034
1.33349
1.32659
1.31966
1.31269
1.3057
1.29871
1.36066
1.35402
1.34729
1.34048
1.33362
1.3267
1.31975
1.31276
1.30576
1.29874
1.36089
1.35423
1.34748
1.34066
1.33377
1.32683
1.31985
1.31284
1.30582
1.29878
1.28921
1.28209
1.27496
1.26782
1.26064
1.25343
1.24618
1.23889
1.23153
1.2241
1.21659
1.20899
1.20126
1.1934
1.18536
1.17712
1.16864
1.15985
1.1507
1.14109
1.13091
1.12004
1.10828
1.09541
1.08115
1.06512
1.04686
1.02579
1.00119
0.972256
0.938065
0.897698
0.850364
0.795619
0.733612
1.28922
1.28208
1.27492
1.26775
1.26055
1.25331
1.24603
1.23869
1.23129
1.22381
1.21625
1.20857
1.20076
1.19279
1.18464
1.17626
1.1676
1.15861
1.1492
1.13929
1.12876
1.11745
1.10519
1.09172
1.07676
1.05992
1.04075
1.01867
0.993001
0.962973
0.927739
0.886467
0.838482
0.783455
0.721644
1.28923
1.28207
1.2749
1.26771
1.26048
1.25322
1.24591
1.23855
1.23111
1.2236
1.21598
1.20825
1.20038
1.19234
1.1841
1.17561
1.16682
1.15768
1.1481
1.13798
1.12719
1.11559
1.10299
1.08913
1.07371
1.05637
1.03662
1.0139
0.987529
0.95672
0.920615
0.878362
0.829272
0.773034
0.710034
1.28928
1.28211
1.27492
1.26772
1.26048
1.25321
1.24589
1.23851
1.23106
1.22353
1.2159
1.20815
1.20026
1.1922
1.18393
1.17542
1.1666
1.15743
1.14781
1.13765
1.12683
1.11519
1.10255
1.08867
1.07323
1.05586
1.03608
1.01329
0.98674
0.95556
0.918743
0.875241
0.824146
0.765039
0.698464
1.28936
1.28219
1.275
1.26779
1.26056
1.25328
1.24597
1.2386
1.23116
1.22364
1.21602
1.20829
1.20043
1.1924
1.18417
1.17571
1.16697
1.15787
1.14836
1.13834
1.12769
1.11626
1.10388
1.0903
1.07523
1.05828
1.03893
1.01653
0.990232
0.958972
0.921455
0.876231
0.821947
0.757789
0.684573
1.28948
1.28231
1.27513
1.26793
1.26071
1.25345
1.24615
1.2388
1.2314
1.22391
1.21635
1.20868
1.20088
1.19294
1.18482
1.17649
1.16791
1.15902
1.14975
1.14002
1.12973
1.11875
1.10689
1.09395
1.07961
1.06348
1.04502
1.02351
0.997952
0.967014
0.928981
0.881776
0.823193
0.75167
0.667923
1.28965
1.28249
1.27533
1.26814
1.26094
1.25371
1.24644
1.23913
1.23178
1.22436
1.21687
1.20929
1.20161
1.19381
1.18586
1.17774
1.16941
1.16082
1.15192
1.14264
1.13288
1.12255
1.11147
1.09944
1.08619
1.07131
1.05424
1.0342
1.01004
0.980129
0.942208
0.893287
0.829867
0.748796
0.65025
1.28985
1.28271
1.27557
1.26841
1.26124
1.25404
1.24682
1.23957
1.23228
1.22495
1.21756
1.21011
1.20258
1.19496
1.18724
1.17938
1.17137
1.16317
1.15475
1.14603
1.13696
1.12745
1.11735
1.1065
1.09465
1.08141
1.06626
1.04836
1.02649
0.998753
0.962276
0.912823
0.844765
0.751978
0.633176
1.29009
1.28298
1.27586
1.26873
1.26159
1.25444
1.24728
1.2401
1.23289
1.22565
1.21839
1.21108
1.20374
1.19633
1.18887
1.18132
1.17369
1.16594
1.15805
1.14999
1.14171
1.13313
1.12417
1.11468
1.10446
1.09321
1.08044
1.06542
1.04696
1.02311
0.990655
0.944132
0.874834
0.770133
0.620974
1.29035
1.28326
1.27617
1.26908
1.26198
1.25488
1.24778
1.24067
1.23355
1.22643
1.2193
1.21215
1.205
1.19783
1.19064
1.18343
1.1762
1.16893
1.16162
1.15424
1.14678
1.1392
1.13143
1.1234
1.11495
1.10587
1.09582
1.08425
1.07027
1.05244
1.02817
0.992833
0.938398
0.849816
0.689793
1.29061
1.28355
1.27649
1.26943
1.26238
1.25533
1.24829
1.24126
1.23423
1.22722
1.22022
1.21324
1.20628
1.19935
1.19244
1.18556
1.17873
1.17193
1.16519
1.15849
1.15184
1.14523
1.13864
1.13202
1.12531
1.11838
1.11106
1.10304
1.09393
1.08314
1.06989
1.05346
1.03529
1.02773
1.06898
1.29087
1.28383
1.2768
1.26978
1.26277
1.25577
1.24878
1.24182
1.23489
1.22798
1.22111
1.21428
1.20751
1.20079
1.19414
1.18758
1.18111
1.17476
1.16853
1.16246
1.15655
1.15082
1.14528
1.13993
1.13476
1.12973
1.12478
1.11981
1.11471
1.1094
1.10395
1.09909
1.09861
1.115
1.15722
1.2911
1.28409
1.27708
1.27009
1.26311
1.25616
1.24923
1.24233
1.23547
1.22866
1.2219
1.21521
1.20859
1.20206
1.19564
1.18935
1.1832
1.17722
1.17144
1.16589
1.1606
1.1556
1.15094
1.14662
1.14269
1.13916
1.13602
1.13329
1.13099
1.12919
1.12817
1.12878
1.13392
1.15014
1.17364
1.29131
1.28431
1.27732
1.27035
1.2634
1.25648
1.24959
1.24275
1.23595
1.22921
1.22254
1.21596
1.20947
1.20309
1.19685
1.19077
1.18487
1.17919
1.17375
1.1686
1.16378
1.15934
1.15532
1.15176
1.14872
1.14623
1.14433
1.14305
1.14245
1.14265
1.14389
1.14684
1.15347
1.16739
1.18524
1.29147
1.28448
1.27751
1.27055
1.26362
1.25673
1.24987
1.24306
1.2363
1.22962
1.22301
1.2165
1.2101
1.20384
1.19772
1.19178
1.18606
1.18057
1.17537
1.17049
1.16598
1.16189
1.15828
1.1552
1.15271
1.15084
1.14965
1.14918
1.14948
1.15064
1.15287
1.15662
1.16318
1.17473
1.18883
1.29159
1.28461
1.27764
1.27069
1.26377
1.25688
1.25004
1.24325
1.23652
1.22986
1.22329
1.21682
1.21048
1.20427
1.19822
1.19236
1.18672
1.18134
1.17626
1.17151
1.16716
1.16324
1.15982
1.15696
1.15471
1.15312
1.15223
1.1521
1.15276
1.15428
1.1568
1.16062
1.1665
1.17567
1.18621
1.29166
1.28468
1.27771
1.27076
1.26384
1.25695
1.25011
1.24332
1.2366
1.22995
1.22338
1.21692
1.21059
1.20439
1.19836
1.19251
1.18689
1.18153
1.17646
1.17173
1.16738
1.16347
1.16006
1.1572
1.15495
1.15336
1.15248
1.15237
1.15307
1.15464
1.15716
1.16078
1.16588
1.17298
1.18054
1.29171
1.28471
1.27773
1.27077
1.26384
1.25694
1.25009
1.24328
1.23654
1.22988
1.2233
1.21681
1.21045
1.20422
1.19816
1.19227
1.1866
1.18117
1.17603
1.1712
1.16675
1.16271
1.15915
1.15611
1.15366
1.15186
1.15078
1.15049
1.15105
1.15253
1.155
1.1585
1.16307
1.16865
1.17393
1.29173
1.28471
1.27771
1.27073
1.26378
1.25686
1.24997
1.24314
1.23637
1.22967
1.22305
1.21652
1.2101
1.2038
1.19765
1.19168
1.18589
1.18034
1.17504
1.17004
1.16537
1.16109
1.15724
1.15388
1.15107
1.14889
1.14742
1.14677
1.14705
1.14839
1.15089
1.15454
1.15916
1.16414
1.16806
1.29174
1.2847
1.27767
1.27067
1.26369
1.25673
1.24982
1.24296
1.23615
1.2294
1.22272
1.21613
1.20964
1.20327
1.19702
1.19093
1.18502
1.17931
1.17383
1.16862
1.16371
1.15915
1.15498
1.15125
1.14803
1.14541
1.14349
1.14242
1.14238
1.14357
1.14618
1.15025
1.15547
1.16082
1.16448
0.665297
0.592436
0.517175
0.441489
0.366878
0.294305
0.224258
0.156777
0.0914525
0.0287832
0.654065
0.582507
0.509008
0.435299
0.36261
0.291717
0.223024
0.15656
0.0915157
0.0288669
0.641556
0.569893
0.497315
0.425298
0.354673
0.285895
0.21916
0.1544
0.0906646
0.0287812
0.626396
0.552588
0.479983
0.409571
0.341455
0.27557
0.21175
0.149688
0.0883271
0.0283652
0.605402
0.527493
0.454809
0.386897
0.322481
0.260766
0.201098
0.142851
0.0848459
0.0277246
0.576693
0.493014
0.421609
0.358165
0.299144
0.24298
0.188547
0.134914
0.0808559
0.0270075
0.539394
0.449295
0.382713
0.326635
0.274699
0.22504
0.176283
0.127363
0.0771813
0.0264081
0.4908
0.397159
0.342233
0.296818
0.253054
0.210051
0.166546
0.121632
0.0745584
0.0260347
0.416446
0.333249
0.303038
0.271652
0.236617
0.199885
0.160677
0.118585
0.0734742
0.0259545
0.295123
0.262856
0.273016
0.254223
0.226307
0.194634
0.158413
0.117862
0.0739102
0.0265256
)
;

boundaryField
{
    inlet
    {
        type            zeroGradient;
    }
    outlet
    {
        type            fixedValue;
        value           uniform 0;
    }
    upperWall
    {
        type            zeroGradient;
    }
    lowerWall
    {
        type            zeroGradient;
    }
    frontAndBack
    {
        type            empty;
    }
}


// ************************************************************************* //
