/*--------------------------------*- C++ -*----------------------------------*\
| =========                 |                                                 |
| \\      /  F ield         | OpenFOAM: The Open Source CFD Toolbox           |
|  \\    /   O peration     | Version:  2406                                  |
|   \\  /    A nd           | Website:  www.openfoam.com                      |
|    \\/     M anipulation  |                                                 |
\*---------------------------------------------------------------------------*/
FoamFile
{
    version     2.0;
    format      ascii;
    arch        "LSB;label=32;scalar=64";
    class       surfaceScalarField;
    location    "23";
    object      phi;
}
// * * * * * * * * * * * * * * * * * * * * * * * * * * * * * * * * * * * * * //

dimensions      [0 3 -1 0 0 0 0];

oriented        oriented;

internalField   nonuniform List<scalar> 
3480
(
0.0193374
-0.000337423
0.0196886
-0.000351206
0.0200011
-0.000312454
0.0203479
-0.00034676
0.0207948
-0.000446915
0.021433
-0.00063818
0.0224326
-0.000999594
0.024134
-0.00170141
0.0274185
-0.00328456
-0.00812462
0.0355431
0.0510032
-0.000340574
0.0512742
-0.000622278
0.0517009
-0.00073913
0.0522683
-0.000914059
0.0530269
-0.00120544
0.0540658
-0.00167709
0.0555283
-0.00246219
0.0576393
-0.00381247
0.0606119
-0.00625722
-0.0108563
0.0633437
0.0749831
-0.000323668
0.0751145
-0.000753709
0.0754289
-0.00105352
0.0759101
-0.0013952
0.0765742
-0.00186952
0.0774577
-0.00256066
0.0785991
-0.00360354
0.0799933
-0.00520672
0.0814158
-0.00767974
-0.0113923
0.0819518
0.0909729
-0.000296537
0.0909913
-0.000772181
0.0911216
-0.00118383
0.0913657
-0.00163924
0.0917169
-0.00222076
0.0921656
-0.00300931
0.0926746
-0.00411255
0.093135
-0.00566708
0.0932777
-0.0078224
-0.0106692
0.0925548
0.0989457
-0.000242243
0.098855
-0.000681499
0.0987912
-0.00112002
0.0987603
-0.00160833
0.0987417
-0.00220208
0.0986989
-0.00296652
0.0985625
-0.00397607
0.0982033
-0.00530786
0.0974023
-0.00702125
-0.00910585
0.0958391
0.0989076
-0.000149861
0.0987132
-0.000487048
0.0984806
-0.000887383
0.0982094
-0.00133713
0.0978685
-0.00186108
0.0974093
-0.0025073
0.0967554
-0.00332208
0.0957905
-0.00434284
0.0943545
-0.00558509
-0.00701196
0.0922608
0.090866
-1.58742e-05
0.0905958
-0.000216869
0.090257
-0.000548544
0.0898321
-0.000912138
0.0892813
-0.00131019
0.0885533
-0.00177927
0.0875775
-0.00234613
0.0862608
-0.00302609
0.0844941
-0.00381822
-0.00468952
0.0821717
0.0748336
0.000150504
0.0745646
5.21781e-05
0.0742274
-0.000211275
0.073775
-0.000459681
0.0731674
-0.000702615
0.0723604
-0.000972216
0.0712979
-0.00128351
0.069914
-0.00164217
0.068141
-0.00204507
-0.00247326
0.0659248
0.0508661
0.000284393
0.0507563
0.000162028
0.050555
-9.98407e-06
0.0502166
-0.00012122
0.0497248
-0.000210734
0.0490543
-0.000301736
0.0481728
-0.000401866
0.0470431
-0.000512432
0.0456302
-0.000632079
-0.000755301
0.0439123
0.0192844
0.0194464
0.0194364
0.0193152
0.0191045
0.0188028
0.0184009
0.0178885
0.0172564
0.0165011
-0.000139145
0.00013919
-0.000409894
0.000270846
-0.000667638
0.000257859
-0.000817403
0.000149886
-0.000818517
1.23371e-06
-0.000666538
-0.000151858
-0.000378492
-0.000287924
1.78982e-05
-0.000396266
0.0004913
-0.000473276
0.0010111
-0.000519676
0.00154992
-0.000538693
0.00208485
-0.000534823
0.00259794
-0.000512981
0.00307603
-0.000477983
0.00351031
-0.0004342
0.00389578
-0.000385399
0.0042305
-0.000334659
0.00451492
-0.000284385
0.00475129
-0.00023635
0.00494308
-0.000191783
0.00509451
-0.000151443
0.0052102
-0.000115729
0.00529491
-8.47441e-05
0.00535324
-5.83919e-05
0.0053896
-3.64192e-05
0.00540801
-1.84868e-05
0.00541213
-4.19346e-06
0.00540518
6.87762e-06
0.00538995
1.51507e-05
0.00536885
2.10303e-05
0.00534389
2.49e-05
0.00531672
2.71073e-05
0.0052887
2.79684e-05
0.0052609
2.77602e-05
2.67267e-05
0.00523413
-0.000299928
0.000439193
-0.000795673
0.000766932
-0.00120465
0.000667178
-0.00135614
0.000301706
-0.00117772
-0.000176852
-0.00066685
-0.0006624
0.000136516
-0.00109097
0.00117092
-0.00143036
0.00236778
-0.00166983
0.00366052
-0.00181213
0.00498972
-0.00186762
0.0063056
-0.00185045
0.00756883
-0.00177597
0.00875024
-0.00165918
0.00982993
-0.00151372
0.0107961
-0.00135138
0.0116434
-0.00118193
0.0123722
-0.00101307
0.0129865
-0.000850613
0.0134934
-0.000698692
0.0139019
-0.000559995
0.0142222
-0.000436039
0.0144647
-0.000327415
0.0146402
-0.00023401
0.0147588
-0.000155202
0.0148302
-9.00207e-05
0.0148631
-3.72787e-05
0.0148655
4.32553e-06
0.0148444
3.61314e-05
0.0148058
5.94593e-05
0.014755
7.55717e-05
0.0146963
8.56424e-05
0.0146334
9.07463e-05
0.0145692
9.18452e-05
8.97919e-05
0.0145061
-0.000358053
0.000797415
-0.000872012
0.00128119
-0.00118466
0.000980167
-0.00111038
0.000227764
-0.000587426
-0.000699496
0.000364793
-0.00161433
0.00168079
-0.0024067
0.00327424
-0.00302356
0.00505452
-0.00344988
0.00693647
-0.00369387
0.00884562
-0.00377657
0.0107204
-0.00372505
0.0125126
-0.00356797
0.0141865
-0.00333295
0.0157179
-0.00304502
0.0170924
-0.0027258
0.0183038
-0.00239321
0.0193523
-0.00206152
0.0202434
-0.00174158
0.0209859
-0.00144124
0.0215917
-0.00116571
0.0220737
-0.000918092
0.022446
-0.000699734
0.0227226
-0.000510663
0.0229172
-0.000349914
0.0230429
-0.000215824
0.0231118
-0.000106273
0.0231349
-1.88747e-05
0.023122
4.88719e-05
0.0230819
9.94717e-05
0.023022
0.000135352
0.0229487
0.000158801
0.0228674
0.000171932
0.0227825
0.000176663
0.000174703
0.0226975
-0.000346898
0.00114436
-0.000719403
0.00165406
-0.000730397
0.000991482
-0.000226407
-0.000275933
0.000803998
-0.00172964
0.0022963
-0.0031064
0.00415214
-0.00426233
0.00626424
-0.00513549
0.00853034
-0.00571583
0.0108601
-0.00602345
0.0131777
-0.00609411
0.0154228
-0.00597004
0.0175492
-0.0056943
0.0195239
-0.00530754
0.0213251
-0.00484614
0.0229407
-0.00434132
0.0243665
-0.00381891
0.0256046
-0.0032995
0.0266619
-0.0027988
0.0275489
-0.00232824
0.0282788
-0.00189554
0.0288661
-0.00150534
0.0293262
-0.0011598
0.0296746
-0.000859106
0.0299266
-0.000601988
0.0300969
-0.00038611
0.030199
-0.000208417
0.0302454
-6.54111e-05
0.0302476
4.6622e-05
0.0302155
0.000131448
0.030158
0.000192752
0.0300827
0.000234045
0.0299959
0.000258603
0.0299031
0.000269421
0.000269193
0.0298085
-0.00028102
0.00142558
-0.00034774
0.00172098
0.000165583
0.000478423
0.00131656
-0.00142667
0.00302265
-0.00343551
0.00515436
-0.00523793
0.00757759
-0.00668541
0.0101711
-0.00772889
0.0128327
-0.00837728
0.0154798
-0.00867045
0.0180481
-0.00866239
0.0204895
-0.00841137
0.0227695
-0.00797422
0.0248652
-0.00740314
0.0267633
-0.00674412
0.0284583
-0.00603623
0.029951
-0.00531155
0.0312471
-0.00459556
0.0323561
-0.00390769
0.0332899
-0.00326204
0.0340626
-0.00266815
0.0346891
-0.00213178
0.0351849
-0.00165558
0.0355656
-0.00123978
0.0358463
-0.000882733
0.0360416
-0.000581457
0.0361652
-0.000332015
0.0362296
-0.000129873
0.0362463
2.98238e-05
0.0362257
0.000152029
0.0361767
0.00024163
0.0361074
0.000303321
0.0360244
0.000341517
0.0359334
0.000360285
0.000363312
0.0358392
-0.000130592
0.00155614
0.000340617
0.00125002
0.00166526
-0.000846024
0.00371035
-0.0034716
0.00625459
-0.00597963
0.00909715
-0.00808037
0.0120794
-0.00966755
0.0150831
-0.0107325
0.018023
-0.0113172
0.0208395
-0.0114869
0.0234918
-0.0113146
0.0259535
-0.0108731
0.0282093
-0.0102299
0.030252
-0.00944584
0.0320811
-0.00857315
0.0337007
-0.0076558
0.0351188
-0.00672954
0.0363458
-0.00582249
0.0373941
-0.00495596
0.0382774
-0.00414528
0.0390101
-0.00340073
0.0396067
-0.00272836
0.0400819
-0.0021308
0.0404501
-0.00160798
0.0407252
-0.00115778
0.0409202
-0.000776516
0.0410476
-0.000459443
0.0411188
-0.000201116
0.0411443
4.30233e-06
0.0411335
0.000162788
0.0410948
0.000280263
0.0410355
0.000362449
0.0409622
0.00041476
0.0408802
0.000442219
0.00044941
0.040794
0.000213894
0.00134236
0.00162033
-0.000156371
0.00415353
-0.0033792
0.00735356
-0.0066716
0.0108443
-0.00947034
0.014385
-0.011621
0.0178304
-0.013113
0.0210968
-0.0139989
0.0241392
-0.0143595
0.0269359
-0.0142836
0.0294801
-0.0138588
0.0317739
-0.0131669
0.0338252
-0.0122812
0.0356454
-0.0112661
0.0372483
-0.010176
0.0386486
-0.00905608
0.0398618
-0.00794269
0.0409033
-0.00686397
0.0417884
-0.00584098
0.0425317
-0.0048886
0.0431476
-0.00401654
0.0436495
-0.00323022
0.0440503
-0.0025316
0.0443623
-0.00191994
0.0445969
-0.00139238
0.0447649
-0.000944547
0.0448764
-0.000570943
0.0449406
-0.000265366
0.044966
-2.11989e-05
0.0449604
0.000168325
0.0449307
0.000309924
0.044883
0.000410109
0.0448226
0.000475069
0.0447542
0.000510582
0.000521945
0.0446816
0.00101047
0.000331837
0.0041162
-0.00326217
0.00836962
-0.00763269
0.0128933
-0.0111954
0.0172669
-0.0138441
0.0213156
-0.0156698
0.0249773
-0.0167747
0.0282437
-0.0172654
0.0311312
-0.017247
0.033667
-0.0168193
0.0358819
-0.0160738
0.0378076
-0.0150926
0.0394747
-0.0139483
0.040912
-0.0127033
0.042146
-0.01141
0.0432007
-0.0101108
0.0440978
-0.00883973
0.0448563
-0.00762241
0.045493
-0.00647768
0.0460228
-0.00541838
0.0464588
-0.00445246
0.0468124
-0.00358382
0.047094
-0.00281317
0.0473128
-0.00213871
0.0474771
-0.00155672
0.0475946
-0.00106206
0.0476723
-0.000648595
0.0477164
-0.000309545
0.0477329
-3.77472e-05
0.0477271
0.000174089
0.0477038
0.000333189
0.0476673
0.00044657
0.0476214
0.000520921
0.0475694
0.000562512
0.000577118
0.0475142
0.00321945
-0.00288764
0.00936837
-0.00941124
0.0156227
-0.0138872
0.0212063
-0.0167791
0.0260096
-0.0186475
0.0300832
-0.0197436
0.0335137
-0.0202053
0.0363885
-0.0201403
0.0387873
-0.019646
0.0407806
-0.0188127
0.04243
-0.0177233
0.0437897
-0.0164523
0.0449067
-0.0150654
0.0458218
-0.0136184
0.0465698
-0.012158
0.0471802
-0.0107213
0.0476776
-0.00933715
0.0480823
-0.00802708
0.0484107
-0.00680606
0.0486761
-0.00568376
0.0488891
-0.00466545
0.0490582
-0.00375293
0.0491903
-0.00294522
0.0492908
-0.00223927
0.0493645
-0.00163039
0.0494152
-0.00111277
0.0494464
-0.00067977
0.0494611
-0.000324228
0.049462
-3.87009e-05
0.0494517
0.000184332
0.0494326
0.000352302
0.0494067
0.000472422
0.049376
0.000551582
0.0493422
0.000596255
0.00061243
0.0493069
0.01194
-0.0148277
0.0210118
-0.0184832
0.0277983
-0.0206739
0.0330807
-0.0220617
0.0372405
-0.0228075
0.0405235
-0.0230267
0.0431055
-0.0227874
0.0451188
-0.0221537
0.0466684
-0.0211956
0.0478406
-0.019985
0.0487085
-0.0185913
0.0493345
-0.0170783
0.0497712
-0.0155022
0.0500631
-0.0139104
0.050247
-0.0123418
0.0503524
-0.0108268
0.0504031
-0.00938786
0.0504172
-0.00804119
0.0504084
-0.00679719
0.0503863
-0.00566173
0.0503579
-0.00463705
0.0503276
-0.00372257
0.0502979
-0.00291555
0.0502703
-0.00221165
0.0502453
-0.00160535
0.0502228
-0.00109026
0.0502025
-0.000659468
0.050184
-0.000305689
0.0501667
-2.14765e-05
0.0501504
0.000200625
0.0501348
0.000367945
0.0501196
0.000487587
0.0501049
0.00056634
0.0500905
0.000610596
0.000626279
0.0500766
0.0384067
-0.0176914
0.0419965
-0.0220732
0.0452428
-0.0239203
0.047964
-0.0247831
0.0501352
-0.0249788
0.0517719
-0.0246635
0.0529289
-0.0239446
0.0536773
-0.0229022
0.0540895
-0.0216079
0.0542341
-0.0201297
0.0541737
-0.0185309
0.0539633
-0.0168681
0.0536506
-0.0151895
0.053275
-0.0135349
0.0528684
-0.0119353
0.0524558
-0.0104142
0.0520556
-0.00898769
0.0516809
-0.00766648
0.05134
-0.00645634
0.0510377
-0.00535942
0.0507757
-0.00437503
0.0505535
-0.00350039
0.0503691
-0.00273118
0.0502195
-0.00206202
0.050101
-0.00148677
0.0500095
-0.000998784
0.0499412
-0.000591122
0.0498922
-0.000256663
0.049859
1.17536e-05
0.0498384
0.000221224
0.0498276
0.000378688
0.0498244
0.000490855
0.0498266
0.000564135
0.0498326
0.000604567
0.000617762
0.0498412
0.0630638
-0.0174114
0.0627008
-0.0217103
0.0626291
-0.0238487
0.0626085
-0.0247625
0.0624935
-0.0248639
0.0622037
-0.0243737
0.0617124
-0.0234533
0.0610317
-0.0222216
0.0601945
-0.0207708
0.0592425
-0.0191778
0.0582187
-0.0175072
0.0571635
-0.015813
0.0561122
-0.0141382
0.0550936
-0.0125164
0.0541304
-0.0109721
0.0532384
-0.00952227
0.0524283
-0.00817758
0.0517055
-0.00694373
0.0510717
-0.00582253
0.0505252
-0.00481297
0.0500622
-0.00391196
0.0496768
-0.00311503
0.0493624
-0.00241678
0.0491116
-0.00181118
0.0489167
-0.00129187
0.0487703
-0.000852298
0.048665
-0.000485803
0.0485941
-0.000185733
0.0485513
5.45091e-05
0.0485312
0.000241391
0.0485287
0.000381207
0.0485396
0.000480025
0.0485601
0.000543637
0.0485872
0.000577503
0.000586697
0.0486183
0.0805407
-0.0160002
0.0784158
-0.0195853
0.0762629
-0.0216958
0.0741816
-0.0226812
0.0721532
-0.0228354
0.0701449
-0.0223654
0.0681355
-0.0214439
0.0661242
-0.0202103
0.0641264
-0.0187731
0.0621664
-0.0172178
0.0602711
-0.015612
0.0584659
-0.0140078
0.0567723
-0.0124447
0.0552066
-0.0109507
0.0537795
-0.00954504
0.0524966
-0.00823943
0.051359
-0.00703996
0.0503637
-0.0059485
0.049505
-0.00496385
0.0487748
-0.00408275
0.0481634
-0.00330056
0.0476602
-0.00261186
0.0472542
-0.00201075
0.0469342
-0.00149113
0.0466892
-0.00104686
0.0465087
-0.000671837
0.046383
-0.000360028
0.0463028
-0.000105519
0.0462599
9.747e-05
0.0462467
0.000254561
0.0462568
0.000371194
0.0462842
0.000452604
0.0463241
0.000503777
0.0463723
0.000529417
0.000533898
0.0464251
0.0904722
-0.0139175
0.0875342
-0.0166472
0.0842687
-0.0184301
0.0809157
-0.0193281
0.0775805
-0.0195002
0.0743155
-0.0191003
0.0711489
-0.0182773
0.0681024
-0.0171637
0.065197
-0.0158676
0.0624534
-0.0144742
0.05989
-0.0130486
0.0575212
-0.011639
0.0553564
-0.0102798
0.0533999
-0.00899425
0.0516513
-0.00779644
0.0501058
-0.00669395
0.0487552
-0.00568945
0.0475889
-0.00478216
0.046594
-0.00396903
0.0457569
-0.00324561
0.045063
-0.00260664
0.0444976
-0.00204652
0.0440464
-0.00155953
0.0436953
-0.00114004
0.0434311
-0.000782568
0.0432411
-0.000481797
0.0431137
-0.000232612
0.0430382
-3.00607e-05
0.0430051
0.000130632
0.0430056
0.000254085
0.0430321
0.000344745
0.0430779
0.000406882
0.0431371
0.000444558
0.043205
0.000461605
0.000461589
0.0432774
0.0932728
-0.0113511
0.0899139
-0.0132881
0.0861027
-0.0146188
0.0820834
-0.0153088
0.0780164
-0.015433
0.0740112
-0.0150949
0.0701421
-0.0144081
0.0664599
-0.0134814
0.0630001
-0.0124077
0.0597869
-0.011261
0.0568355
-0.0100971
0.0541529
-0.00895636
0.0517394
-0.00786635
0.0495897
-0.00684447
0.0476937
-0.00590048
0.0460383
-0.00503856
0.0446079
-0.00425901
0.0433853
-0.00355961
0.0423529
-0.00293655
0.0414924
-0.0023852
0.0407863
-0.00190052
0.0402173
-0.00147747
0.0397688
-0.00111107
0.0394254
-0.000796618
0.0391724
-0.000529611
0.0389965
-0.000305817
0.0388851
-0.000121201
0.038827
2.80688e-05
0.038812
0.000145675
0.0388309
0.000235144
0.0388758
0.000299872
0.0389397
0.000343103
0.0390163
0.000367933
0.0391007
0.000377271
0.000373837
0.0391885
0.089393
-0.00848307
0.0858546
-0.00974959
0.0818645
-0.0106284
0.0776296
-0.0110737
0.0733174
-0.0111206
0.0690593
-0.0108366
0.064953
-0.0103016
0.0610668
-0.00959512
0.057446
-0.00878681
0.0541175
-0.00793236
0.0510939
-0.00707339
0.0483769
-0.00623927
0.0459598
-0.00544929
0.0438304
-0.00471495
0.0419719
-0.00404199
0.0403654
-0.00343207
0.0389906
-0.00288419
0.0378267
-0.00239567
0.036853
-0.00196289
0.0360497
-0.00158183
0.0353975
-0.00124837
0.0348786
-0.000958494
0.0344759
-0.00070842
0.0341739
-0.000494607
0.0339581
-0.000313773
0.0338152
-0.000162859
0.033733
-3.90099e-05
0.0337006
6.04776e-05
0.0337081
0.000138166
0.0337468
0.000196519
0.0338088
0.000237886
0.0338874
0.000264526
0.0339768
0.000278576
0.0340721
0.000282068
0.000276878
0.0341691
0.0792443
-0.00555548
0.0757812
-0.0062864
0.071935
-0.00678204
0.0678735
-0.00701201
0.0637488
-0.00699581
0.059688
-0.00677579
0.0557895
-0.006403
0.0521227
-0.00592835
0.0487323
-0.00539637
0.0456423
-0.00484233
0.0428611
-0.00429212
0.0403853
-0.0037635
0.0382037
-0.00326764
0.0362995
-0.00281072
0.0346528
-0.00239531
0.0332423
-0.00202154
0.0320462
-0.00168799
0.0310429
-0.00139233
0.0302119
-0.0011318
0.0295336
-0.000903497
0.0289899
-0.000704586
0.0285639
-0.000532374
0.0282399
-0.000384394
0.0280038
-0.000258374
0.0278423
-0.000152253
0.0277437
-6.41344e-05
0.027697
7.73555e-06
0.0276926
6.49971e-05
0.0277216
0.000109213
0.0277763
0.000141864
0.0278499
0.000164379
0.0279364
0.000178112
0.0280306
0.000184371
0.0281284
0.00018437
0.000179263
0.028226
0.0632542
-0.00288485
0.0601887
-0.00322081
0.0568427
-0.003436
0.0533485
-0.00351775
0.0498307
-0.00347801
0.046395
-0.00334009
0.0431229
-0.00313087
0.0400709
-0.00287635
0.0372732
-0.00259874
0.034746
-0.00231517
0.0324918
-0.00203786
0.030503
-0.0017748
0.0287662
-0.00153075
0.0272635
-0.00130804
0.0259755
-0.00110728
0.024882
-0.000928026
0.0239633
-0.000769136
0.0232002
-0.000629147
0.0225749
-0.000506447
0.022071
-0.000399448
0.0216732
-0.000306633
0.0213676
-0.000226617
0.0211415
-0.000158145
0.0209834
-0.000100094
0.0208827
-5.14537e-05
0.02083
-1.13087e-05
0.0208167
2.11765e-05
0.020835
4.67897e-05
0.0208781
6.62645e-05
0.0209397
8.03139e-05
0.0210146
8.96057e-05
0.021098
9.47971e-05
0.0211859
9.64983e-05
0.021275
9.53034e-05
9.17511e-05
0.0213625
0.0418973
-0.000869867
0.0396353
-0.000958771
0.037209
-0.00100965
0.0347116
-0.00102034
0.0322296
-0.000996047
0.0298344
-0.000944874
0.0275789
-0.000875352
0.0254978
-0.000795282
0.02361
-0.000710985
0.021922
-0.000627119
0.0204309
-0.000546782
0.0191279
-0.000471877
0.0180006
-0.00040338
0.0170342
-0.000341655
0.0162136
-0.000286616
0.0155235
-0.000237944
0.0149496
-0.00019515
0.0144783
-0.000157721
0.014097
-0.000125112
0.0137945
-9.68358e-05
0.0135604
-7.24233e-05
0.0133854
-5.14854e-05
0.0132611
-3.36507e-05
0.0131797
-1.86242e-05
0.0131345
-6.11439e-06
0.0131192
4.10856e-06
0.0131281
1.22864e-05
0.0131564
1.86131e-05
0.0131994
2.3304e-05
0.0132533
2.65344e-05
0.0133145
2.85044e-05
0.0133799
2.93768e-05
0.0134471
2.93373e-05
0.0135139
2.85336e-05
2.71311e-05
0.0135786
0.0156313
0.0146725
0.0136629
0.0126425
0.0116465
0.0107016
0.00982625
0.00903096
0.00831997
0.00769285
0.00714607
0.00667419
0.00627081
0.00592916
0.00564255
0.00540461
0.00520947
0.00505176
0.00492666
0.00482983
0.00475742
0.00470595
0.00467231
0.0046537
0.00464759
0.00465171
0.00466401
0.00468263
0.00470594
0.00473248
0.00476099
0.00479037
0.00481971
0.00484825
0.00487538
0.00520903
2.50755e-05
0.00518602
2.29831e-05
0.00516542
2.05942e-05
0.00514738
1.80268e-05
0.00513201
1.53718e-05
0.00511931
1.26985e-05
0.00510927
1.00528e-05
0.00510181
7.46468e-06
0.00509688
4.94408e-06
2.48913e-06
0.0050944
0.0144457
8.5324e-05
0.0143896
7.90748e-05
0.0143386
7.15717e-05
0.0142933
6.32491e-05
0.0142543
5.44492e-05
0.0142215
4.54356e-05
0.0141952
3.63944e-05
0.0141752
2.74469e-05
0.0141615
1.86511e-05
1.00121e-05
0.0141541
0.0226152
0.00016755
0.0225378
0.000156497
0.0224666
0.000142633
0.022403
0.00012686
0.0223475
0.0001099
0.0223006
9.23117e-05
0.0222625
7.45017e-05
0.0222332
5.67389e-05
0.0222127
3.91671e-05
2.18168e-05
0.0222009
0.0297157
0.000260301
0.0296273
0.000244812
0.0295454
0.000224486
0.0294714
0.000200788
0.0294064
0.000174903
0.0293509
0.000147757
0.0293053
0.000120034
0.0292699
9.21985e-05
0.0292445
6.45123e-05
3.70547e-05
0.0292293
0.0357456
0.000353881
0.0356554
0.00033486
0.0355712
0.000308711
0.0354944
0.000277494
0.0354264
0.000242894
0.0353678
0.000206235
0.0353193
0.00016851
0.0352811
0.000130405
0.0352533
9.23237e-05
5.44141e-05
0.0352359
0.0407074
0.000440437
0.0406233
0.000418912
0.040544
0.000387955
0.0404713
0.000350194
0.0404063
0.000307791
0.0403501
0.000262462
0.040303
0.000215505
0.0402656
0.000167831
0.0402379
0.000119994
7.22231e-05
0.0402201
0.044608
0.000513931
0.0445361
0.000490765
0.0444679
0.000456112
0.044405
0.000413084
0.0443485
0.000364253
0.0442993
0.000311675
0.0442578
0.000256918
0.0442246
0.000201096
0.0441996
0.000144904
8.86481e-05
0.0441832
0.0474581
0.000569969
0.0474031
0.000545715
0.0473508
0.000508411
0.0473023
0.000461517
0.0472586
0.000407906
0.0472204
0.00034989
0.0471881
0.000289243
0.0471619
0.000227236
0.0471421
0.000164674
0.000101931
0.0471288
0.0492713
0.000605545
0.0492365
0.00058046
0.0492035
0.00054143
0.0491729
0.000492098
0.0491453
0.000435506
0.049121
0.000374107
0.0491005
0.000309795
0.0490838
0.000243937
0.049071
0.000177405
0.000110616
0.0490623
0.0500634
0.000618791
0.0500509
0.00059297
0.0500392
0.000553069
0.0500286
0.000502741
0.050019
0.000445045
0.0500107
0.000382455
0.0500036
0.000316888
0.0499978
0.00024973
0.0499933
0.000181871
0.00011374
0.0499902
0.0498511
0.000608843
0.0498617
0.000582416
0.0498722
0.000542535
0.0498823
0.000492692
0.0498915
0.000435816
0.0498997
0.000374283
0.0499066
0.000309934
0.0499122
0.0002441
0.0499165
0.000177636
0.000110951
0.0499193
0.0486513
0.000575866
0.0486845
0.000549191
0.0487167
0.00051036
0.0487469
0.000462554
0.0487742
0.000408444
0.0487983
0.000350196
0.0488188
0.000289489
0.0488353
0.000227534
0.0488479
0.000165102
0.000102554
0.0488563
0.0464798
0.000521229
0.046534
0.000495022
0.0465859
0.000458467
0.0466341
0.000414316
0.0466777
0.000364882
0.0467159
0.000312035
0.0467482
0.000257223
0.0467742
0.000201483
0.0467939
0.00014547
8.94768e-05
0.0468069
0.0433508
0.000447781
0.0434228
0.00042313
0.043491
0.00039024
0.043554
0.000351358
0.0436105
0.00030837
0.0436598
0.000262797
0.0437012
0.000215813
0.0437345
0.000168249
0.0437593
0.000120622
7.31452e-05
0.0437756
0.0392762
0.000360117
0.039361
0.000338361
0.0394408
0.000310549
0.0395137
0.000278395
0.0395788
0.000243324
0.0396351
0.000206494
0.0396822
0.000168778
0.0397197
0.000130802
0.0397474
9.29307e-05
5.53121e-05
0.0397652
0.0342645
0.000264746
0.0343557
0.000247224
0.0344406
0.000225697
0.0345176
0.000201341
0.0345858
0.000175153
0.0346444
0.000147917
0.034693
0.000120238
0.0347313
9.25264e-05
0.0347592
6.50269e-05
3.7814e-05
0.0347767
0.0283207
0.00017009
0.0284102
0.000157804
0.0284926
0.000143232
0.0285669
0.000127096
0.0286321
0.000109986
0.0286876
9.23753e-05
0.0287332
7.46196e-05
0.0287688
5.6957e-05
0.0287943
3.95231e-05
2.2346e-05
0.0288097
0.0214463
8.63509e-05
0.0215246
7.95485e-05
0.0215961
7.17471e-05
0.0216599
6.32822e-05
0.0217154
5.4438e-05
0.0217623
4.54339e-05
0.0218005
3.64344e-05
0.0218299
2.75476e-05
0.0218506
1.88278e-05
1.02839e-05
0.0218626
0.0136397
2.5255e-05
0.0136962
2.30434e-05
0.0137473
2.05919e-05
0.0137926
1.80058e-05
0.0138317
1.53475e-05
0.0138644
1.2688e-05
0.0138908
1.00564e-05
0.0139108
7.49141e-06
0.0139247
4.99183e-06
2.56803e-06
0.0139324
0.00490064
0.00492368
0.00494428
0.00496228
0.00497763
0.00499032
0.00500037
0.00500786
0.00501285
0.00501542
0.00509434
8.07339e-08
0.00509666
-2.30887e-06
0.0051014
-4.72349e-06
0.00510863
-7.21367e-06
0.00511849
-9.84647e-06
0.0051312
-1.26962e-05
0.00514707
-1.58563e-05
0.00516652
-1.94305e-05
0.00519007
-2.35474e-05
0.00521844
-2.83524e-05
0.00525247
-3.40259e-05
0.00529326
-4.07769e-05
0.00534213
-4.88653e-05
0.00540074
-5.85993e-05
0.0054711
-7.03633e-05
0.00555573
-8.46201e-05
0.00565768
-0.000101946
0.00578073
-0.000123041
0.00592951
-0.00014877
0.0061097
-0.000180176
0.00632823
-0.000218523
0.00659354
-0.000265295
0.00691577
-0.000322209
0.00730693
-0.00039114
0.00778096
-0.000474008
0.00835348
-0.000572484
0.00904104
-0.000687539
0.00985972
-0.000818649
0.0108225
-0.000962708
0.011935
-0.00111255
0.0131905
-0.00125543
0.0145626
-0.00137204
0.0159999
-0.00143733
0.0174249
-0.00142499
-0.00131664
0.0187416
0.0141527
1.48322e-06
0.0141574
-7.02661e-06
0.0141684
-1.56534e-05
0.0141858
-2.45738e-05
0.01421
-3.40082e-05
0.0142416
-4.42208e-05
0.0142813
-5.55261e-05
0.0143302
-6.82943e-05
0.0143896
-8.2963e-05
0.0144613
-0.000100049
0.0145475
-0.000120167
0.0146508
-0.000144053
0.0147745
-0.00017259
0.0149228
-0.000206846
0.0151006
-0.000248117
0.0153139
-0.000297977
0.0155704
-0.000358344
0.0158789
-0.000431549
0.0162506
-0.000520414
0.0166987
-0.000628331
0.0172396
-0.000759331
0.0178924
-0.000918108
0.0186803
-0.00110998
0.0196299
-0.00134068
0.0207719
-0.00161596
0.0221401
-0.00194069
0.0237701
-0.00231749
0.025696
-0.00274444
0.0279452
-0.00321182
0.0305305
-0.00369782
0.0334391
-0.00416396
0.0366188
-0.00455165
0.0399655
-0.00478395
0.0433178
-0.00477725
-0.00446941
0.0464706
0.0221978
4.61495e-06
0.0222034
-1.26061e-05
0.0222179
-3.01044e-05
0.0222416
-4.82239e-05
0.022275
-6.73967e-05
0.022319
-8.81451e-05
0.0223745
-0.000111093
0.0224433
-0.000136975
0.022527
-0.000166661
0.0226281
-0.000201175
0.0227497
-0.000241737
0.0228955
-0.000289795
0.02307
-0.000347089
0.0232789
-0.000415708
0.023529
-0.000498172
0.0238285
-0.000597529
0.0241877
-0.000717468
0.0246186
-0.000862437
0.025136
-0.00103779
0.0257576
-0.00124991
0.0265047
-0.00150633
0.0274024
-0.00181578
0.0284805
-0.00218806
0.0297736
-0.00263377
0.0313212
-0.0031635
0.033167
-0.00378641
0.0353573
-0.00450778
0.037938
-0.00532512
0.0409485
-0.0062223
0.0444124
-0.00716171
0.0483233
-0.00807486
0.0526259
-0.00885424
0.0571944
-0.00935243
0.0618179
-0.00940066
-0.00886124
0.0662098
0.0292242
9.73761e-06
0.0292293
-1.76811e-05
0.0292448
-4.55885e-05
0.0292711
-7.4512e-05
0.0293088
-0.000105119
0.0293589
-0.000138222
0.0294226
-0.000174792
0.0295017
-0.000215979
0.0295982
-0.000263137
0.0297149
-0.000317866
0.0298552
-0.000382057
0.0300234
-0.00045796
0.0302246
-0.000548257
0.0304651
-0.000656163
0.0307525
-0.000785537
0.031096
-0.000941021
0.0315068
-0.0011282
0.0319981
-0.00135379
0.0325862
-0.00162582
0.0332902
-0.00195385
0.0341329
-0.00234908
0.0351417
-0.00282453
0.0363486
-0.00339486
0.0377908
-0.00407602
0.0395117
-0.00488431
0.0415598
-0.00583454
0.0439888
-0.00693676
0.0468546
-0.00819093
0.0502108
-0.00957849
0.0540991
-0.0110501
0.0585333
-0.0125091
0.0634732
-0.0137941
0.0687887
-0.0146679
0.0742242
-0.0148362
-0.014032
0.0793951
0.0352291
1.65891e-05
0.0352329
-2.1456e-05
0.0352475
-6.02288e-05
0.0352735
-0.000100433
0.0353114
-0.000142969
0.0353621
-0.000188938
0.035427
-0.000239659
0.0355077
-0.000296693
0.0356065
-0.000361881
0.0357261
-0.000437393
0.0358698
-0.000525789
0.036042
-0.000630103
0.0362477
-0.000753942
0.0364932
-0.000901612
0.0367859
-0.00107826
0.037135
-0.00129005
0.0375512
-0.00154438
0.0380475
-0.0018501
0.0386395
-0.00221777
0.0393456
-0.00265992
0.0401879
-0.00319132
0.0411925
-0.00382909
0.0423904
-0.00459279
0.0438185
-0.00550402
0.0455198
-0.00658561
0.047545
-0.00785972
0.0499525
-0.00934425
0.0528081
-0.0110466
0.0561824
-0.0129528
0.0601429
-0.0150106
0.0647368
-0.017103
0.0699561
-0.0190134
0.0756803
-0.0203922
0.0815999
-0.0207557
-0.0196076
0.0871756
0.0402123
2.44443e-05
0.0402145
-2.36917e-05
0.0402271
-7.27945e-05
0.0402504
-0.000123723
0.040285
-0.000177585
0.0403318
-0.000235742
0.040392
-0.000299827
0.0404671
-0.000371776
0.0405592
-0.000453869
0.0406706
-0.000548786
0.0408045
-0.000659687
0.0409647
-0.000790303
0.0411559
-0.000945054
0.0413835
-0.0011292
0.0416543
-0.001349
0.0419762
-0.00161194
0.0423588
-0.00192695
0.0428134
-0.00230471
0.0433536
-0.00275794
0.0439955
-0.00330175
0.0447582
-0.00395396
0.0456646
-0.00473547
0.0467422
-0.00567037
0.0480242
-0.00678596
0.0495508
-0.00811218
0.0513712
-0.00968013
0.0535459
-0.0115189
0.0561484
-0.0136491
0.0592665
-0.0160709
0.0629978
-0.0187419
0.0674341
-0.0215392
0.0726193
-0.0241986
0.0784626
-0.0262354
0.0845931
-0.0268863
-0.0252386
0.0902242
0.0441754
3.22794e-05
0.0441763
-2.45808e-05
0.0441861
-8.26192e-05
0.0442052
-0.000142819
0.0442341
-0.000206454
0.0442735
-0.000275099
0.0443243
-0.000350646
0.0443879
-0.000435334
0.0444659
-0.000531799
0.0445602
-0.000643137
0.0446736
-0.000772984
0.0448089
-0.000925626
0.04497
-0.00110612
0.0451613
-0.00132047
0.0453881
-0.00157578
0.0456567
-0.00188055
0.0459747
-0.00224488
0.0463508
-0.0026808
0.0467956
-0.00320266
0.0473214
-0.00382755
0.0479432
-0.00457569
0.0486787
-0.00547098
0.0495498
-0.0065414
0.0505833
-0.00781941
0.0518131
-0.00934193
0.0532827
-0.0111498
0.0550492
-0.0132853
0.0571877
-0.0157876
0.0597966
-0.0186798
0.0629999
-0.0219452
0.0669372
-0.0254765
0.0717216
-0.0289831
0.0773244
-0.0318386
0.0833313
-0.0328935
-0.0305076
0.0886
0.0471221
3.89821e-05
0.0471221
-2.45661e-05
0.047129
-8.94523e-05
0.0471429
-0.000156745
0.0471643
-0.000227839
0.0471937
-0.000304458
0.0472317
-0.000388677
0.0472794
-0.000482953
0.0473378
-0.00059017
0.0474084
-0.00071371
0.0474929
-0.000857538
0.0475936
-0.00102631
0.047713
-0.0012255
0.0478542
-0.0014616
0.0480207
-0.00174225
0.0482167
-0.00207657
0.0484473
-0.00247537
0.048718
-0.00295151
0.0490357
-0.00352033
0.0494083
-0.00420011
0.0498452
-0.00501256
0.0503579
-0.00598358
0.0509603
-0.00714383
0.0516706
-0.00852962
0.0525122
-0.0101835
0.0535173
-0.0121548
0.0547306
-0.0144987
0.0562164
-0.0172734
0.0580668
-0.0205302
0.0604112
-0.0242898
0.0634204
-0.0284859
0.0672785
-0.0328418
0.0720614
-0.0366221
0.0773746
-0.0382073
-0.0347436
0.08161
0.0490577
4.35639e-05
0.0490573
-2.41506e-05
0.0490612
-9.32922e-05
0.0490694
-0.000164976
0.0490822
-0.000240661
0.0491
-0.000322155
0.0491229
-0.000411631
0.0491516
-0.000511659
0.0491867
-0.000625254
0.049229
-0.000755941
0.0492793
-0.000907841
0.0493388
-0.00108578
0.0494087
-0.00129542
0.0494906
-0.00154342
0.049586
-0.00183766
0.0496969
-0.00218744
0.0498254
-0.0026038
0.0499737
-0.00309984
0.0501446
-0.00369117
0.0503409
-0.00439637
0.050566
-0.00523763
0.0508239
-0.00624145
0.0511197
-0.00743952
0.0514599
-0.00886981
0.051854
-0.0105776
0.052316
-0.0126168
0.0528675
-0.0150502
0.0535425
-0.0179484
0.0543956
-0.0213833
0.055514
-0.0254083
0.0570336
-0.0300057
0.0591486
-0.0349571
0.0620625
-0.0395366
0.0656432
-0.0417885
-0.0368144
0.0677138
0.0499884
4.53386e-05
0.049988
-2.37304e-05
0.0499889
-9.42349e-05
0.0499912
-0.000167297
0.049995
-0.000244384
0.0500001
-0.000327316
0.0500068
-0.000418276
0.050015
-0.000519844
0.0500248
-0.000635038
0.0500362
-0.000767377
0.0500493
-0.000920966
0.0500642
-0.00110059
0.0500806
-0.00131186
0.0500985
-0.00156133
0.0501176
-0.00185673
0.0501374
-0.00220718
0.0501571
-0.00262344
0.0501755
-0.00311827
0.0501912
-0.0037068
0.0502019
-0.00440705
0.0502048
-0.0052405
0.0501962
-0.00623282
0.0501714
-0.00741472
0.0501246
-0.00882299
0.0500486
-0.0105016
0.0499343
-0.0125025
0.0497705
-0.0148863
0.049542
-0.0177199
0.0492284
-0.0210697
0.0488012
-0.0249811
0.0482232
-0.0294279
0.0474555
-0.0341899
0.0464784
-0.0385598
0.0453794
-0.0406897