/*--------------------------------*- C++ -*----------------------------------*\
| =========                 |                                                 |
| \\      /  F ield         | OpenFOAM: The Open Source CFD Toolbox           |
|  \\    /   O peration     | Version:  2406                                  |
|   \\  /    A nd           | Website:  www.openfoam.com                      |
|    \\/     M anipulation  |                                                 |
\*---------------------------------------------------------------------------*/
FoamFile
{
    version     2.0;
    format      ascii;
    arch        "LSB;label=32;scalar=64";
    class       volScalarField;
    location    "41";
    object      p;
}
// * * * * * * * * * * * * * * * * * * * * * * * * * * * * * * * * * * * * * //

dimensions      [0 2 -2 0 0 0 0];

internalField   nonuniform List<scalar> 
1800
(
0.212657
0.208324
0.202351
0.195551
0.187854
0.179129
0.169286
0.158104
0.145309
0.129867
0.216533
0.209898
0.20268
0.195697
0.188072
0.179444
0.169842
0.159242
0.147604
0.135367
0.220263
0.212006
0.203831
0.196921
0.189716
0.181597
0.172778
0.163595
0.154499
0.146454
0.224435
0.21555
0.206846
0.20004
0.193349
0.185963
0.178195
0.170567
0.163568
0.157829
0.228966
0.219874
0.210996
0.204386
0.198229
0.191613
0.184866
0.178548
0.17305
0.168706
0.233169
0.224077
0.215355
0.209071
0.203401
0.197447
0.191536
0.186183
0.181668
0.178141
0.236267
0.227389
0.21911
0.213204
0.207886
0.202399
0.197073
0.192333
0.188369
0.185238
0.237629
0.229387
0.22179
0.216153
0.210962
0.205714
0.200717
0.196284
0.192537
0.189513
0.236734
0.230041
0.223357
0.217729
0.212388
0.207143
0.202226
0.19784
0.194077
0.190984
0.233609
0.229104
0.223531
0.217995
0.212554
0.207267
0.202312
0.197847
0.193973
0.190761
0.14578
0.145487
0.145313
0.145402
0.145753
0.146357
0.147225
0.148378
0.149848
0.151669
0.153879
0.156519
0.159627
0.163236
0.167374
0.172052
0.177262
0.182974
0.18912
0.195597
0.202253
0.208893
0.215271
0.221095
0.22604
0.229749
0.231841
0.231919
0.2296
0.224534
0.216432
0.205099
0.190489
0.172748
0.152268
0.146108
0.14581
0.145672
0.145799
0.146161
0.146752
0.147593
0.14871
0.150134
0.1519
0.154044
0.156605
0.159618
0.163117
0.167129
0.171668
0.176731
0.182288
0.188278
0.194599
0.201106
0.207603
0.213846
0.219551
0.224391
0.227995
0.229974
0.229935
0.227491
0.222285
0.214013
0.202468
0.18759
0.169521
0.148672
0.146236
0.1459
0.145768
0.145913
0.146268
0.146829
0.147623
0.14868
0.150033
0.151716
0.153764
0.156214
0.159104
0.162469
0.166338
0.170732
0.17565
0.181065
0.186918
0.193109
0.199492
0.205875
0.21201
0.217596
0.222299
0.225751
0.227558
0.227314
0.224618
0.219087
0.210387
0.19827
0.182631
0.163591
0.141597
0.14584
0.145481
0.145351
0.145503
0.145844
0.146373
0.147121
0.14812
0.149404
0.151005
0.152961
0.155309
0.158088
0.161339
0.165096
0.16938
0.174193
0.179512
0.185278
0.191384
0.197676
0.203951
0.209962
0.215402
0.219925
0.223153
0.22468
0.224083
0.220933
0.214803
0.20529
0.192058
0.174912
0.153918
0.129616
0.144729
0.144433
0.144379
0.144586
0.144954
0.14549
0.146229
0.147206
0.148454
0.150008
0.151907
0.154191
0.156904
0.160089
0.163786
0.16801
0.172761
0.178016
0.183713
0.189745
0.19595
0.202117
0.207981
0.213229
0.217508
0.220426
0.221569
0.22049
0.216718
0.209753
0.199076
0.184175
0.164652
0.140373
0.112019
0.142763
0.142705
0.142903
0.143293
0.143789
0.144412
0.145211
0.146226
0.147495
0.149058
0.150953
0.153224
0.15592
0.159088
0.162767
0.166982
0.171731
0.176984
0.18267
0.18867
0.194813
0.200877
0.206591
0.211638
0.215659
0.218263
0.219021
0.217464
0.213062
0.205213
0.193225
0.176323
0.153728
0.124779
0.0899312
0.139793
0.140315
0.141099
0.141902
0.142672
0.143481
0.144406
0.145506
0.146833
0.148435
0.150363
0.152672
0.155417
0.158649
0.162403
0.1667
0.171532
0.17686
0.182601
0.188624
0.19475
0.200751
0.206354
0.211247
0.215079
0.21747
0.217992
0.216153
0.211357
0.202859
0.189699
0.170717
0.144594
0.109989
0.0666956
0.135176
0.137257
0.13931
0.140799
0.141954
0.143006
0.144084
0.145281
0.146686
0.14837
0.150397
0.152824
0.155711
0.159106
0.163044
0.167534
0.172556
0.178055
0.183934
0.19005
0.196219
0.202212
0.207769
0.212595
0.216371
0.218747
0.219326
0.217626
0.213007
0.204553
0.190887
0.170023
0.13914
0.0956795
0.0379492
0.125898
0.133151
0.138
0.140331
0.141845
0.143156
0.14439
0.145694
0.147228
0.149085
0.151321
0.15399
0.157149
0.160843
0.165095
0.1699
0.175218
0.180974
0.187053
0.193307
0.199549
0.205565
0.211119
0.215956
0.21981
0.222395
0.223392
0.222395
0.218829
0.21177
0.199574
0.179256
0.144762
0.0871773
-0.0112108
0.110586
0.128254
0.137329
0.140311
0.142088
0.143809
0.145381
0.146943
0.148747
0.150929
0.153536
0.156607
0.160187
0.164312
0.168989
0.17419
0.179851
0.185879
0.192146
0.198503
0.204775
0.210773
0.216299
0.221155
0.225146
0.228077
0.229741
0.229886
0.228149
0.223928
0.216074
0.202246
0.176476
0.123385
-0.0168747
0.118955
0.13008
0.138688
0.141596
0.143383
0.145451
0.147496
0.149519
0.151784
0.154454
0.157575
0.161167
0.165258
0.169866
0.174976
0.180541
0.186476
0.192674
0.199007
0.205331
0.211494
0.217343
0.222729
0.227514
0.231578
0.234818
0.237143
0.238462
0.238658
0.237551
0.234824
0.229929
0.221567
0.206272
0.173149
0.129248
0.134772
0.141323
0.144586
0.146702
0.149047
0.151554
0.154135
0.156952
0.160153
0.16379
0.167877
0.172419
0.177413
0.182823
0.188582
0.194597
0.200757
0.206939
0.21302
0.218876
0.224393
0.22947
0.234025
0.238
0.241361
0.244101
0.246232
0.247783
0.248793
0.249297
0.24931
0.248613
0.246701
0.241552
0.142213
0.143725
0.147526
0.150458
0.152726
0.15519
0.157977
0.16098
0.164234
0.167836
0.171835
0.176239
0.181037
0.186199
0.191671
0.197375
0.203216
0.20909
0.21489
0.220516
0.225876
0.230893
0.235507
0.239677
0.243388
0.246645
0.249478
0.251941
0.254107
0.25607
0.257933
0.259779
0.261567
0.263314
0.263572
0.154455
0.154322
0.156291
0.158571
0.160756
0.163209
0.166062
0.169235
0.172692
0.176474
0.180611
0.185101
0.18991
0.194991
0.200276
0.205685
0.21113
0.216519
0.221768
0.226802
0.231561
0.235995
0.240075
0.243787
0.247133
0.250136
0.252832
0.255274
0.257528
0.259675
0.261794
0.26394
0.266092
0.268331
0.269775
0.165969
0.1652
0.166008
0.16755
0.169433
0.171711
0.17443
0.177528
0.180951
0.184694
0.188756
0.193115
0.197723
0.20252
0.207435
0.212391
0.217315
0.222132
0.226783
0.231214
0.235386
0.239275
0.242864
0.246154
0.249153
0.25188
0.254364
0.256643
0.258761
0.260772
0.26273
0.264667
0.266579
0.268534
0.27001
0.175768
0.174691
0.174789
0.175712
0.1772
0.179181
0.181633
0.184499
0.187719
0.191261
0.195096
0.199181
0.203462
0.207873
0.212348
0.216822
0.221233
0.225529
0.229663
0.2336
0.237317
0.240797
0.244032
0.247024
0.249779
0.252308
0.254627
0.256759
0.258729
0.26057
0.262317
0.263992
0.265592
0.26713
0.268284
0.183
0.181719
0.181369
0.181811
0.182894
0.184529
0.186659
0.189226
0.19217
0.195441
0.19899
0.202766
0.206707
0.210755
0.214848
0.218932
0.222957
0.226882
0.230672
0.234299
0.237744
0.240995
0.244043
0.246886
0.249525
0.251965
0.254214
0.25628
0.258177
0.259926
0.261544
0.263042
0.264396
0.265556
0.266325
0.187251
0.18579
0.185133
0.185219
0.185962
0.187287
0.189129
0.191427
0.19412
0.197151
0.200462
0.203994
0.20769
0.211492
0.215346
0.219205
0.223024
0.226766
0.2304
0.233899
0.237245
0.240422
0.243421
0.246236
0.248864
0.251305
0.253562
0.255639
0.257545
0.259287
0.260873
0.262292
0.263493
0.264376
0.264825
0.188606
0.186978
0.186104
0.185954
0.18647
0.187588
0.189245
0.191379
0.193927
0.196828
0.200019
0.203442
0.207039
0.210753
0.214535
0.218336
0.222114
0.225832
0.229457
0.232963
0.236327
0.239534
0.242571
0.245431
0.248108
0.250602
0.252915
0.25505
0.257014
0.25881
0.260436
0.261865
0.263019
0.26376
0.264021
0.188261
0.186503
0.185494
0.185212
0.185612
0.186637
0.188222
0.190302
0.192811
0.195683
0.198857
0.20227
0.205867
0.209592
0.213393
0.217223
0.221038
0.224801
0.228477
0.232039
0.235463
0.238732
0.241831
0.244753
0.247492
0.250047
0.252421
0.254619
0.25665
0.258518
0.260218
0.261712
0.262907
0.263636
0.26384
0.129699
0.105914
0.0819065
0.0586124
0.0367487
0.0167673
-0.00106673
-0.0166168
-0.0298775
-0.0409474
0.125748
0.101727
0.0777174
0.0546808
0.0332722
0.0138985
-0.00323857
-0.0180973
-0.0307303
-0.0412626
0.117482
0.0925032
0.0680989
0.0453002
0.0245711
0.00608969
-0.010031
-0.0238
-0.0353604
-0.0449074
0.103085
0.0762067
0.0510782
0.0287008
0.00905012
-0.00802181
-0.02255
-0.0346621
-0.0446089
-0.0526617
0.0811303
0.0512064
0.0255599
0.00448747
-0.0132145
-0.0280902
-0.0402411
-0.0499652
-0.0576992
-0.0637658
0.0508935
0.0157445
-0.00962428
-0.0276359
-0.0419122
-0.0533533
-0.0620398
-0.0685529
-0.0735374
-0.0772684
0.0134657
-0.0302852
-0.053893
-0.066631
-0.0756646
-0.0818874
-0.0856442
-0.0881031
-0.0900427
-0.0914533
-0.0384879
-0.0880213
-0.102833
-0.106637
-0.108295
-0.107563
-0.105518
-0.10397
-0.103536
-0.103593
-0.13724
-0.163551
-0.148312
-0.136548
-0.128743
-0.121338
-0.115226
-0.111577
-0.110557
-0.111516
-0.262671
-0.225574
-0.174414
-0.152126
-0.137827
-0.125802
-0.117319
-0.11271
-0.111455
-0.113495
-0.0499905
-0.0572048
-0.0628048
-0.0670076
-0.0700214
-0.0720344
-0.0732097
-0.0736857
-0.073579
-0.0729868
-0.0719898
-0.0706552
-0.069039
-0.0671888
-0.0651455
-0.0629443
-0.0606162
-0.0581884
-0.0556855
-0.053129
-0.0505385
-0.0479315
-0.0453234
-0.0427281
-0.0401577
-0.0376228
-0.0351323
-0.0326939
-0.0303136
-0.0279962
-0.0257454
-0.0235638
-0.0214528
-0.0194131
-0.0174448
-0.0498644
-0.0567285
-0.0620617
-0.0660744
-0.0689649
-0.0709075
-0.0720505
-0.0725206
-0.0724254
-0.0718557
-0.0708874
-0.0695843
-0.0680006
-0.0661829
-0.0641716
-0.0620019
-0.0597048
-0.0573078
-0.0548356
-0.0523099
-0.0497505
-0.0471749
-0.0445988
-0.042036
-0.0394987
-0.0369972
-0.0345404
-0.0321357
-0.0297888
-0.0275045
-0.0252861
-0.0231358
-0.021055
-0.0190442
-0.0171031
-0.0526335
-0.058732
-0.0634114
-0.0668914
-0.0693703
-0.0710046
-0.0719186
-0.0722199
-0.0720028
-0.0713466
-0.0703168
-0.0689696
-0.0673538
-0.0655122
-0.0634829
-0.0612995
-0.0589924
-0.0565886
-0.0541125
-0.0515859
-0.0490284
-0.0464576
-0.0438894
-0.0413377
-0.0388146
-0.0363306
-0.0338941
-0.0315123
-0.0291906
-0.0269332
-0.0247429
-0.0226217
-0.0205704
-0.0185891
-0.0166771
-0.0590319
-0.0639
-0.0674906
-0.0700649
-0.0718331
-0.0729204
-0.0734112
-0.0733859
-0.0729193
-0.0720715
-0.0708904
-0.0694187
-0.067696
-0.0657592
-0.0636423
-0.0613767
-0.0589916
-0.0565136
-0.053967
-0.0513737
-0.0487538
-0.0461254
-0.043505
-0.0409074
-0.0383455
-0.0358302
-0.0333702
-0.0309725
-0.0286423
-0.0263831
-0.0241973
-0.0220859
-0.0200492
-0.0180864
-0.0161962
-0.0683303
-0.0715192
-0.0736126
-0.0749742
-0.0758235
-0.0762122
-0.0761615
-0.0757225
-0.0749471
-0.073867
-0.0725037
-0.0708804
-0.0690237
-0.0669616
-0.0647223
-0.0623345
-0.0598259
-0.057223
-0.0545502
-0.0518301
-0.0490838
-0.046331
-0.0435901
-0.0408782
-0.0382102
-0.0355991
-0.0330551
-0.0305862
-0.0281979
-0.0258938
-0.0236757
-0.021544
-0.019498
-0.0175359
-0.0156555
-0.079692
-0.0807793
-0.0809856
-0.0809159
-0.0807564
-0.0803933
-0.0797586
-0.0788818
-0.0777915
-0.0764844
-0.0749501
-0.0731887
-0.07121
-0.0690296
-0.0666684
-0.0641508
-0.0615032
-0.0587516
-0.0559205
-0.0530331
-0.0501116
-0.0471779
-0.0442536
-0.0413594
-0.0385143
-0.0357353
-0.0330363
-0.0304279
-0.0279179
-0.0255111
-0.0232099
-0.0210147
-0.0189241
-0.0169356
-0.0150454
-0.0916764
-0.0903294
-0.08836
-0.0868285
-0.0857498
-0.0847202
-0.0835765
-0.0823337
-0.0809892
-0.0795031
-0.0778405
-0.0759834
-0.0739241
-0.0716636
-0.0692128
-0.0665912
-0.0638229
-0.0609328
-0.0579448
-0.0548818
-0.0517667
-0.0486234
-0.0454769
-0.0423526
-0.0392751
-0.036267
-0.0333478
-0.0305335
-0.0278361
-0.025264
-0.0228218
-0.0205116
-0.0183326
-0.016282
-0.0143556
-0.102104
-0.0981078
-0.0940277
-0.0914242
-0.0897526
-0.0882851
-0.0868468
-0.0854308
-0.0839737
-0.0824046
-0.0806856
-0.0787948
-0.076713
-0.0744276
-0.07194
-0.069264
-0.0664203
-0.0634315
-0.0603195
-0.0571057
-0.0538129
-0.0504663
-0.0470937
-0.0437248
-0.0403901
-0.0371189
-0.0339376
-0.0308692
-0.0279324
-0.0251411
-0.0225052
-0.0200301
-0.0177178
-0.0155669
-0.0135736
-0.109769
-0.102626
-0.0968126
-0.0939251
-0.092134
-0.0905192
-0.0890537
-0.087692
-0.0862858
-0.0847472
-0.0830552
-0.0811971
-0.0791502
-0.0768949
-0.0744262
-0.0717526
-0.0688906
-0.0658584
-0.0626744
-0.0593577
-0.0559297
-0.0524157
-0.0488452
-0.0452515
-0.0416696
-0.0381352
-0.0346818
-0.0313402
-0.0281369
-0.0250936
-0.0222269
-0.0195486
-0.0170655
-0.0147799
-0.01269
-0.113912
-0.104017
-0.097412
-0.0948554
-0.0932276
-0.0916809
-0.090346
-0.0891298
-0.0878365
-0.0863831
-0.0847642
-0.082974
-0.0809914
-0.0787967
-0.0763826
-0.0737536
-0.0709199
-0.0678944
-0.0646905
-0.0613237
-0.0578131
-0.054183
-0.0504633
-0.0466886
-0.0428972
-0.0391293
-0.0354246
-0.031821
-0.028353
-0.0250508
-0.0219394
-0.0190383
-0.0163612
-0.0139163
-0.0117061
-0.116068
-0.104112
-0.0976736
-0.0952435
-0.0936994
-0.0923262
-0.091147
-0.0900285
-0.0888077
-0.0874238
-0.0858709
-0.0841407
-0.0822153
-0.0800789
-0.0777247
-0.0751528
-0.0723679
-0.0693762
-0.0661861
-0.0628087
-0.0592604
-0.0555634
-0.051746
-0.0478427
-0.0438926
-0.0399385
-0.036024
-0.0321929
-0.0284865
-0.0249429
-0.0215959
-0.0184733
-0.015597
-0.0129822
-0.0106378
-0.105283
-0.100364
-0.0968948
-0.0950555
-0.093761
-0.0926302
-0.0915822
-0.0905131
-0.0893293
-0.08799
-0.086481
-0.0847902
-0.0829035
-0.0808099
-0.0785029
-0.0759801
-0.073241
-0.0702869
-0.067122
-0.0637538
-0.0601956
-0.0564669
-0.0525936
-0.0486083
-0.0445493
-0.0404595
-0.0363849
-0.0323726
-0.0284692
-0.0247195
-0.0211644
-0.0178401
-0.0147764
-0.0119963
-0.00951576
-0.0984611
-0.097049
-0.0955707
-0.0944156
-0.0934532
-0.0925479
-0.0916167
-0.0905973
-0.0894457
-0.0881383
-0.0866598
-0.0849971
-0.0831385
-0.0810761
-0.0788031
-0.0763156
-0.0736104
-0.0706863
-0.0675446
-0.0641907
-0.0606353
-0.0568954
-0.0529943
-0.0489617
-0.0448343
-0.0406538
-0.0364666
-0.0323215
-0.0282685
-0.0243567
-0.020633
-0.0171399
-0.0139145
-0.0109868
-0.00837985
-0.094864
-0.0945503
-0.093992
-0.0933574
-0.0927064
-0.0920048
-0.0912031
-0.0902676
-0.089176
-0.0879126
-0.0864669
-0.0848309
-0.0829976
-0.0809598
-0.0787115
-0.0762477
-0.0735647
-0.0706606
-0.0675356
-0.0641939
-0.0606447
-0.0569032
-0.0529903
-0.0489334
-0.044767
-0.0405315
-0.0362725
-0.0320392
-0.0278829
-0.0238554
-0.0200074
-0.0163859
-0.0130334
-0.0099857
-0.00727211
-0.0925358
-0.0926379
-0.0925082
-0.0921818
-0.0917436
-0.0911927
-0.0905018
-0.0896491
-0.0886197
-0.0874036
-0.0859938
-0.0843843
-0.0825706
-0.0805494
-0.0783168
-0.0758672
-0.0731971
-0.070305
-0.0671908
-0.0638582
-0.0603145
-0.0565747
-0.0526579
-0.0485905
-0.0444048
-0.0401404
-0.0358415
-0.0315572
-0.0273383
-0.0232383
-0.0193093
-0.0156016
-0.0121602
-0.00902585
-0.00623167
-0.0910224
-0.0912944
-0.0913521
-0.0911688
-0.0908373
-0.090367
-0.0897391
-0.0889372
-0.0879489
-0.0867656
-0.0853816
-0.0837923
-0.0819937
-0.0799829
-0.0777559
-0.0753094
-0.0726405
-0.0697481
-0.0666324
-0.0632962
-0.059749
-0.0560073
-0.05209
-0.0480206
-0.0438303
-0.0395559
-0.0352415
-0.0309348
-0.0266867
-0.0225502
-0.0185786
-0.0148225
-0.0113292
-0.00814122
-0.00529539
-0.0901919
-0.0905039
-0.0906212
-0.0904901
-0.0901958
-0.0897514
-0.0891423
-0.0883546
-0.087377
-0.0862009
-0.0848203
-0.0832307
-0.0814281
-0.0794093
-0.0771714
-0.0747125
-0.0720303
-0.0691248
-0.0659979
-0.0626537
-0.0591021
-0.0553559
-0.0514339
-0.0473601
-0.0431639
-0.0388823
-0.0345626
-0.0302517
-0.0259981
-0.0218521
-0.0178671
-0.014093
-0.0105784
-0.00736571
-0.00449442
-0.0899188
-0.0902054
-0.0903264
-0.0902121
-0.0899238
-0.0894749
-0.0888556
-0.0880545
-0.0870624
-0.0858707
-0.0844733
-0.0828647
-0.0810414
-0.0789996
-0.0767368
-0.0742509
-0.0715411
-0.068608
-0.065454
-0.0620849
-0.0585102
-0.0547441
-0.0508061
-0.0467215
-0.0425201
-0.0382391
-0.0339195
-0.0296071
-0.0253492
-0.0211992
-0.0172109
-0.0134354
-0.00991672
-0.00669923
-0.00381998
-0.0900462
-0.0902985
-0.0904232
-0.0903299
-0.0900461
-0.0895842
-0.0889426
-0.088115
-0.0870939
-0.0858728
-0.0844452
-0.0828055
-0.080949
-0.0788722
-0.076572
-0.0740465
-0.0712951
-0.0683191
-0.0651219
-0.0617103
-0.0580946
-0.05429
-0.0503165
-0.0461995
-0.0419702
-0.0376648
-0.0333249
-0.028996
-0.0247271
-0.0205693
-0.0165738
-0.0127888
-0.00926192
-0.00603743
-0.00315357
-0.0903161
-0.0905621
-0.0907151
-0.0906527
-0.0903782
-0.0899064
-0.0892438
-0.0883904
-0.0873422
-0.0860934
-0.0846378
-0.0829695
-0.0810833
-0.0789749
-0.0766407
-0.0740786
-0.0712878
-0.0682698
-0.0650285
-0.0615712
-0.0579093
-0.0540583
-0.0500389
-0.0458772
-0.0416049
-0.0372591
-0.032882
-0.0285194
-0.0242206
-0.0200361
-0.016017
-0.0122125
-0.00866994
-0.00543197
-0.00253597
-0.015547
-0.0137187
-0.0119581
-0.0102634
-0.00863229
-0.00706143
-0.00554618
-0.00408835
-0.00268741
-0.00113464
-0.0152309
-0.0134262
-0.0116871
-0.0100114
-0.0083965
-0.00683886
-0.00533741
-0.00389857
-0.00252954
-0.00107885
-0.0148333
-0.013056
-0.0113431
-0.00969232
-0.00810105
-0.00656738
-0.00509171
-0.00368824
-0.00238255
-0.0011073
-0.0143768
-0.012626
-0.0109414
-0.00932079
-0.00776235
-0.00626558
-0.00483384
-0.00348654
-0.00225248
-0.00119339
-0.0138538
-0.0121278
-0.0104744
-0.00889121
-0.00737678
-0.00593259
-0.00456185
-0.00328986
-0.00212209
-0.00132184
-0.0132496
-0.0115435
-0.00992289
-0.00838447
-0.00692626
-0.00554967
-0.00425587
-0.00307593
-0.00196778
-0.0014713
-0.0125478
-0.0108525
-0.00926354
-0.00777568
-0.0063848
-0.00509072
-0.00388905
-0.00281684
-0.00176788
-0.00160176
-0.0117318
-0.010034
-0.00847184
-0.00703757
-0.00572352
-0.00452637
-0.00343233
-0.0024855
-0.00151037
-0.00165857
-0.0107907
-0.00907416
-0.00753054
-0.00614932
-0.00491895
-0.00383088
-0.00286378
-0.00205993
-0.00119477
-0.00158571
-0.00972821
-0.00797617
-0.00643995
-0.00510717
-0.00396269
-0.002994
-0.00217046
-0.00152939
-0.00082961
-0.00134236
-0.00856609
-0.00676379
-0.00522253
-0.0039298
-0.00286887
-0.0020223
-0.00135822
-0.000894032
-0.000422392
-0.000918707
-0.00734324
-0.00548036
-0.00392229
-0.00265839
-0.00167231
-0.000945168
-0.000444702
-0.000165935
2.42312e-05
-0.000341542
-0.0061088
-0.00418125
-0.0025972
-0.00134996
-0.000425868
0.000194151
0.00053604
0.000632086
0.000515778
0.00032985
-0.00491385
-0.00292464
-0.00131008
-6.84947e-05
0.000809285
0.0013395
0.00154116
0.00146722
0.00105449
0.00101759
-0.0038048
-0.00176336
-0.000119372
0.00112438
0.00197066
0.00243212
0.00251899
0.00229556
0.00163304
0.00164054
-0.00282151
-0.00074263
0.000925521
0.00217431
0.00300176
0.00341406
0.003415
0.00306713
0.00222272
0.00212684
-0.00199504
0.000105327
0.0017892
0.00304216
0.0038596
0.00423867
0.00418046
0.00373288
0.00277959
0.00242253
-0.001313
0.000796478
0.00248573
0.00374151
0.0045515
0.0049113
0.00481385
0.00429182
0.00328358
0.00251321
-0.000641834
0.00147078
0.00316317
0.00441912
0.00522688
0.00557617
0.00545826
0.00488918
0.00385477
0.00251793
-1.32704e-05
0.0021091
0.00380945
0.00507183
0.00588421
0.00623519
0.00611041
0.00550897
0.00445977
0.00262391
)
;

boundaryField
{
    inlet
    {
        type            zeroGradient;
    }
    outlet
    {
        type            fixedValue;
        value           uniform 0;
    }
    upperWall
    {
        type            zeroGradient;
    }
    lowerWall
    {
        type            zeroGradient;
    }
    frontAndBack
    {
        type            empty;
    }
}


// ************************************************************************* //
