/*--------------------------------*- C++ -*----------------------------------*\
| =========                 |                                                 |
| \\      /  F ield         | OpenFOAM: The Open Source CFD Toolbox           |
|  \\    /   O peration     | Version:  2406                                  |
|   \\  /    A nd           | Website:  www.openfoam.com                      |
|    \\/     M anipulation  |                                                 |
\*---------------------------------------------------------------------------*/
FoamFile
{
    version     2.0;
    format      ascii;
    arch        "LSB;label=32;scalar=64";
    class       surfaceScalarField;
    location    "47";
    object      phi;
}
// * * * * * * * * * * * * * * * * * * * * * * * * * * * * * * * * * * * * * //

dimensions      [0 3 -1 0 0 0 0];

oriented        oriented;

internalField   nonuniform List<scalar> 
3470
(
0.0194255
-0.00042548
0.0200192
-0.000593749
0.0206071
-0.000587927
0.0212031
-0.000596007
0.0218482
-0.000645042
0.0225821
-0.000733853
0.0234605
-0.000878517
0.0245783
-0.00111777
0.0261093
-0.00153099
-0.00288357
0.0289928
0.0508742
-0.000299692
0.0509752
-0.000694766
0.051302
-0.000914725
0.0518053
-0.00109933
0.0524723
-0.00131204
0.0533129
-0.00157445
0.0543519
-0.00191754
0.0556327
-0.00239857
0.0571999
-0.00309824
-0.00421962
0.0585359
0.0749556
-0.000255326
0.0749538
-0.000692946
0.0750782
-0.00103917
0.0753391
-0.0013602
0.0757374
-0.00171036
0.0762786
-0.00211566
0.0769642
-0.00260322
0.0777789
-0.00321327
0.0786684
-0.00398774
-0.00497689
0.0794256
0.0909794
-0.000234753
0.0909484
-0.000661965
0.090966
-0.00105675
0.0910544
-0.00144865
0.0912155
-0.00187143
0.0914468
-0.00234699
0.0917392
-0.00289563
0.0920671
-0.00354116
0.0923825
-0.00430318
-0.00518998
0.0925955
0.0989702
-0.000204915
0.098896
-0.0005878
0.0988147
-0.000975549
0.0987476
-0.00138148
0.0986943
-0.00181813
0.0986465
-0.00229919
0.09859
-0.00283924
0.0985001
-0.00345125
0.0983388
-0.00414192
-0.0049063
0.0980551
0.0989484
-0.000153299
0.0988129
-0.000452372
0.0986291
-0.000791757
0.0984142
-0.00116661
0.0981641
-0.00156797
0.0978668
-0.00200193
0.0975065
-0.00247892
0.0970599
-0.00300471
0.0964967
-0.00357872
-0.00419252
0.0957829
0.0909148
-6.81367e-05
0.0907041
-0.000241634
0.09042
-0.000507742
0.0900736
-0.000820184
0.0896543
-0.00114867
0.0891486
-0.00149627
0.0885401
-0.00187041
0.087807
-0.00227161
0.0869239
-0.00269569
-0.0031346
0.085866
0.0748521
7.97734e-05
0.074566
4.44363e-05
0.0742124
-0.000154156
0.0737844
-0.000392231
0.0732642
-0.000628439
0.0726365
-0.000868588
0.0718832
-0.00111715
0.070983
-0.00137146
0.0699147
-0.00162743
-0.00188032
0.0686604
0.0507505
0.000329313
0.0505008
0.000294073
0.0502387
0.000107876
0.0499027
-5.61612e-05
0.0494614
-0.000187206
0.0488965
-0.000303631
0.0481913
-0.000412039
0.0473321
-0.000512285
0.0463089
-0.000604288
-0.00068813
0.0451167
0.0193293
0.0196234
0.0197312
0.0196751
0.0194879
0.0191842
0.0187722
0.0182599
0.0176556
0.0169675
-6.37694e-05
6.37684e-05
-0.00027667
0.0002129
-0.000581165
0.000304487
-0.000923905
0.000342726
-0.00128022
0.000356297
-0.00164257
0.000362321
-0.00201068
0.000368085
-0.0023865
0.000375787
-0.00277198
0.000385447
-0.00316816
0.000396133
-0.0035746
0.000406396
-0.00398886
0.000414223
-0.00440577
0.000416861
-0.00481661
0.000410789
-0.00520834
0.000391679
-0.00556295
0.000354566
-0.00585711
0.000294121
-0.0060622
0.00020505
-0.00614494
8.26964e-05
-0.00606857
-7.64117e-05
-0.0057956
-0.000273003
-0.00528992
-0.000505719
-0.00451878
-0.000771161
-0.00345551
-0.00106329
-0.00208146
-0.00137406
-0.000387006
-0.00169446
0.00162772
-0.00201472
0.003948
-0.00232028
0.00654507
-0.00259705
0.00937565
-0.00283056
0.0123796
-0.00300395
0.0154778
-0.00309816
0.0185707
-0.00309295
0.0215394
-0.00296865
-0.00271187
0.0242512
-0.000259474
0.000323246
-0.000819684
0.000773094
-0.00154145
0.00102623
-0.00232899
0.00113022
-0.00313321
0.00116047
-0.00393458
0.00116362
-0.0047274
0.00116084
-0.00551055
0.00115886
-0.00628279
0.0011576
-0.00704045
0.00115371
-0.00777606
0.0011419
-0.0084771
0.00111516
-0.00912508
0.00106474
-0.00969475
0.000980348
-0.0101538
0.000850628
-0.0104633
0.000663979
-0.0105788
0.000409487
-0.010452
7.82214e-05
-0.0100343
-0.000335123
-0.00928035
-0.000830445
-0.00814935
-0.00140408
-0.00660726
-0.00204787
-0.00462971
-0.00274876
-0.00220268
-0.00349037
0.000678351
-0.00425512
0.00400508
-0.00502121
0.00775453
-0.00576418
0.0118948
-0.00646054
0.0163825
-0.00708479
0.0211612
-0.00760924
0.0261595
-0.00800225
0.0312882
-0.00822681
0.0364369
-0.00824167
0.0414714
-0.00800324
-0.00747753
0.046237
-0.000439861
0.000763099
-0.00128408
0.0016173
-0.00229914
0.00204126
-0.00335974
0.00219077
-0.00440555
0.00220623
-0.00541053
0.00216855
-0.00636384
0.0021141
-0.00725935
0.00205431
-0.00809022
0.00198839
-0.00884613
0.00190955
-0.00951182
0.00180752
-0.0100662
0.00166942
-0.0104818
0.00148028
-0.0107253
0.00122378
-0.0107583
0.000883534
-0.0105391
0.00044469
-0.0100252
-0.000104503
-0.00917717
-0.000769906
-0.00796043
-0.00155195
-0.00634551
-0.00244544
-0.00431089
-0.00343876
-0.00184329
-0.00451554
0.00106266
-0.00565476
0.00440286
-0.00683062
0.00816163
-0.00801393
0.012316
-0.00917558
0.0168371
-0.0102853
0.0216893
-0.0113128
0.026831
-0.0122264
0.0322128
-0.0129911
0.0377756
-0.0135651
0.0434458
-0.013897
0.04913
-0.0139259
0.0547061
-0.0135795
-0.0127957
0.0600243
-0.000573463
0.00133657
-0.00159754
0.00264136
-0.00275231
0.003196
-0.00389054
0.00332897
-0.00494993
0.00326557
-0.00590488
0.00312346
-0.00674382
0.00295299
-0.00745857
0.00276901
-0.00803934
0.00256911
-0.00847251
0.00234266
-0.0087398
0.00207474
-0.00881816
0.00174771
-0.00868027
0.00134233
-0.00829575
0.000839175
-0.00763282
0.000220521
-0.00666138
-0.000526842
-0.00535629
-0.00140968
-0.00369572
-0.00243056
-0.00166248
-0.00358527
0.000754209
-0.00486219
0.00355852
-0.00624314
0.00674582
-0.0077029
0.0103032
-0.00921221
0.0142113
-0.0107388
0.0184459
-0.0122485
0.0229781
-0.0137078
0.0277767
-0.015084
0.0328093
-0.0163455
0.0380431
-0.0174602
0.0434444
-0.0183924
0.0489759
-0.0190967
0.0545903
-0.0195114
0.0602198
-0.0195555
0.0657542
-0.019114
-0.0180841
0.0710425
-0.000658736
0.00199529
-0.00173293
0.00371554
-0.00283807
0.0043011
-0.0038281
0.00431895
-0.0046551
0.00409254
-0.00530428
0.00377261
-0.0057703
0.00341896
-0.00604838
0.00304703
-0.00613079
0.00265147
-0.00600579
0.00221761
-0.00565784
0.00172673
-0.00506848
0.00115829
-0.00421726
0.000491047
-0.00308377
-0.0002944
-0.00165001
-0.00121333
9.85345e-05
-0.00227548
0.00217394
-0.00348516
0.00458276
-0.00483946
0.00732509
-0.00632766
0.0103943
-0.00793151
0.0137769
-0.00962576
0.017453
-0.0113791
0.021397
-0.0131562
0.0255784
-0.0149203
0.0299645
-0.0166347
0.0345218
-0.0182652
0.0392194
-0.0197816
0.0440312
-0.0211573
0.0489387
-0.0223678
0.0539322
-0.0233859
0.0590088
-0.0241733
0.0641671
-0.0246697
0.0693871
-0.0247755
0.0745852
-0.024312
-0.0231207
0.0796219
-0.000702655
0.00269796
-0.00167321
0.0046861
-0.00249504
0.00512291
-0.00307404
0.00489791
-0.00340648
0.00442494
-0.00350157
0.00386766
-0.00336642
0.00328376
-0.00300351
0.00268407
-0.00241027
0.00205818
-0.00157954
0.00138682
-0.000501001
0.000648145
0.000837014
-0.000179781
0.00244646
-0.00111847
0.00433739
-0.00218539
0.00651618
-0.00339219
0.00898505
-0.0047444
0.0117405
-0.00624063
0.0147727
-0.00787178
0.0180655
-0.00962055
0.0215958
-0.0114618
0.0253336
-0.0133637
0.0292441
-0.0152896
0.0332881
-0.0172003
0.0374247
-0.019057
0.0416142
-0.0208241
0.0458208
-0.0224719
0.0500172
-0.023978
0.0541883
-0.0253285
0.0583359
-0.0265154
0.0624827
-0.0275327
0.0666734
-0.028364
0.0709767
-0.028973
0.0754575
-0.0292562
0.0801368
-0.0289912
-0.0279863
0.0850024
-0.000697879
0.00339585
-0.00134346
0.00533167
-0.00155902
0.00533845
-0.00140125
0.0047401
-0.00095087
0.00397452
-0.000248227
0.00316498
0.00068846
0.00234703
0.00185148
0.00152101
0.00324048
0.000669144
0.00486017
-0.000232895
0.00671848
-0.0012102
0.00882333
-0.00228466
0.0111781
-0.00347327
0.0137813
-0.00478865
0.0166264
-0.00623735
0.0197009
-0.00781895
0.0229855
-0.00952527
0.0264537
-0.01134
0.030072
-0.0132389
0.0338009
-0.0151907
0.0375957
-0.0171585
0.0414086
-0.0191025
0.0451909
-0.0209826
0.0488958
-0.0227619
0.0524815
-0.0244098
0.055915
-0.0259054
0.0591767
-0.0272398
0.0622666
-0.0284185
0.0652116
-0.0294604
0.0680746
-0.0303957
0.0709628
-0.0312522
0.0740375
-0.0320475
0.0774879
-0.0327067
0.0815908
-0.0330942
-0.0331843
0.0867888
-0.000564617
0.00396047
-0.00039961
0.00516669
0.000515134
0.00442367
0.00182794
0.00342725
0.00336972
0.0024327
0.0050943
0.00144036
0.00699031
0.000450986
0.00905797
-0.000546673
0.0113052
-0.00157808
0.0137409
-0.00266865
0.0163691
-0.00383842
0.019188
-0.00510362
0.0221909
-0.00647613
0.0253646
-0.00796243
0.0286896
-0.0095623
0.0321387
-0.0112681
0.035678
-0.0130646
0.0392667
-0.0149288
0.0428585
-0.0168307
0.0464027
-0.018735
0.0498469
-0.0206027
0.0531382
-0.0223939
0.0562264
-0.0240709
0.0590661
-0.0256017
0.0616202
-0.0269639
0.0638626
-0.0281478
0.0657835
-0.0291608
0.0673963
-0.0300313
0.0687486
-0.0308128
0.0699409
-0.0315881
0.0711577
-0.0324691
0.0726992
-0.0335892
0.075006
-0.0350136
0.0787436
-0.036832
-0.0391623
0.0847214
0.000300196
0.00366028
0.00251901
0.00294782
0.00530533
0.00163731
0.00815307
0.000579452
0.0109869
-0.000401132
0.0138272
-0.00140005
0.0167053
-0.00242713
0.0196462
-0.00348754
0.0226661
-0.00459804
0.0257741
-0.0057767
0.0289724
-0.00703672
0.0322554
-0.00838657
0.0356094
-0.0098302
0.0390131
-0.0113662
0.0424375
-0.0129867
0.0458465
-0.0146772
0.0491978
-0.0164159
0.0524442
-0.0181752
0.0555352
-0.0199217
0.0584189
-0.0216187
0.061044
-0.0232278
0.063362
-0.0247119
0.0653292
-0.026038
0.0669086
-0.0271813
0.0680726
-0.0281279
0.0688043
-0.0288796
0.0691015
-0.029458
0.068981
-0.0299108
0.0684892
-0.030321
0.0677237
-0.0308226
0.0668875
-0.031633
0.0663947
-0.0330965
0.0671545
-0.0357735
0.0706143
-0.040292
-0.0450409
0.0764928
0.00649102
-0.00283079
0.0118887
-0.00244991
0.0163874
-0.00286146
0.0204363
-0.00346944
0.0241908
-0.00415569
0.027743
-0.00495233
0.031168
-0.00585215
0.0345189
-0.00683844
0.0378268
-0.007906
0.0411061
-0.009056
0.0443585
-0.0102892
0.0475757
-0.0116037
0.0507398
-0.0129943
0.0538248
-0.0144512
0.0567977
-0.0159597
0.0596197
-0.0174991
0.0622475
-0.0190437
0.0646352
-0.0205629
0.0667359
-0.0220225
0.0685039
-0.0233868
0.0698962
-0.0246201
0.0708746
-0.0256903
0.0714074
-0.0265709
0.0714706
-0.0272445
0.0710489
-0.0277063
0.0701365
-0.0279672
0.0687364
-0.028058
0.0668607
-0.0280352
0.06453
-0.0279903
0.0617756
-0.0280683
0.0586541
-0.0285117
0.0553064
-0.0297489
0.0522633
-0.0327304
0.0512521
-0.0392809
-0.0495765
0.0557877
0.0310512
-0.00488918
0.0342627
-0.00566152
0.0375033
-0.00610211
0.0406831
-0.00664921
0.0438091
-0.00728179
0.0468551
-0.00799836
0.049814
-0.00881105
0.0526919
-0.00971631
0.055491
-0.0107052
0.0582059
-0.0117709
0.0608238
-0.0129071
0.0633257
-0.0141057
0.0656864
-0.015355
0.067875
-0.0166398
0.069856
-0.0179407
0.0715906
-0.0192338
0.0730381
-0.0204913
0.0741576
-0.0216824
0.0749097
-0.0227746
0.0752581
-0.0237352
0.075172
-0.0245341
0.074627
-0.0251453
0.0736066
-0.0255505
0.0721031
-0.025741
0.0701173
-0.0257205
0.067657
-0.025507
0.0647344
-0.0251354
0.0613596
-0.0246604
0.0575299
-0.0241608
0.0532091
-0.0237476
0.0482797
-0.0235823
0.0424342
-0.0239034
0.0348327
-0.025129
0.0231964
-0.0276448
-0.0263801
0.0592966
-0.00564984
0.0603962
-0.00676113
0.0618356
-0.00754162
0.0634583
-0.00827186
0.0652004
-0.00902398
0.0670031
-0.00980109
0.0688109
-0.0106188
0.0705836
-0.011489
0.0722905
-0.0124122
0.073903
-0.0133834
0.0753913
-0.0143955
0.0767243
-0.0154387
0.0778688
-0.0164995
0.0787896
-0.0175607
0.0794501
-0.0186012
0.0798133
-0.019597
0.0798432
-0.0205211
0.079506
-0.0213453
0.0787726
-0.0220412
0.0776194
-0.0225821
0.0760305
-0.0229452
0.0739988
-0.0231136
0.0715267
-0.0230784
0.0686262
-0.0228406
0.0653175
-0.0224119
0.0616265
-0.021816
0.057579
-0.021088
0.0531931
-0.0202746
0.048465
-0.0194327
0.0433461
-0.0186288
0.0377028
-0.0179391
0.0312454
-0.0174461
0.0233551
-0.0172387
0.01276
-0.0170498
-0.0136201
0.0799087
-0.00613295
0.0803535
-0.00720593
0.0809021
-0.00809019
0.0815228
-0.00889259
0.0821827
-0.00968394
0.0828567
-0.0104751
0.0835109
-0.011273
0.084109
-0.0120872
0.0846175
-0.0129207
0.085004
-0.0137699
0.0852357
-0.0146272
0.0852793
-0.0154823
0.085101
-0.0163213
0.0846675
-0.0171272
0.0839463
-0.01788
0.0829071
-0.0185577
0.0815229
-0.019137
0.0797724
-0.0195948
0.0776406
-0.0199095
0.0751214
-0.0200629
0.0722181
-0.0200418
0.0689443
-0.0198398
0.0653241
-0.0194583
0.0613908
-0.0189073
0.0571844
-0.0182055
0.0527477
-0.0173793
0.0481205
-0.0164609
0.0433311
-0.0154853
0.0383845
-0.0144861
0.0332452
-0.0134897
0.0278138
-0.0125077
0.0218992
-0.0115316
0.0151895
-0.0105291
0.00738092
-0.00924129
-0.00623923
0.0926283
-0.00616571
0.0925408
-0.00711844
0.0924227
-0.00797215
0.0922819
-0.00875182
0.0920975
-0.00949953
0.0918514
-0.010229
0.0915221
-0.0109437
0.0910829
-0.011648
0.0905058
-0.0123436
0.0897631
-0.0130272
0.0888271
-0.0136912
0.0876701
-0.0143253
0.0862653
-0.0149166
0.0845879
-0.0154498
0.0826159
-0.0159081
0.0803319
-0.0162737
0.0777244
-0.0165295
0.0747894
-0.0166597
0.0715315
-0.0166516
0.0679654
-0.0164968
0.0641158
-0.0161923
0.0600175
-0.0157416
0.0557139
-0.0151547
0.0512546
-0.0144481
0.0466925
-0.0136434
0.0420789
-0.0127658
0.0374586
-0.0118406
0.0328625
-0.0108892
0.0282995
-0.00992322
0.0237462
-0.00893645
0.019138
-0.00789951
0.0143708
-0.00676454
0.00933365
-0.00549202
0.00411199
-0.00401972
-0.00212725
0.0976066
-0.0057172
0.0970063
-0.00651812
0.096295
-0.00726088
0.0954849
-0.00794176
0.0945648
-0.00857936
0.0935201
-0.00918439
0.0923355
-0.00975911
0.0909921
-0.0103047
0.0894696
-0.0108211
0.0877475
-0.0113051
0.0858067
-0.0117504
0.0836295
-0.0121481
0.0812008
-0.0124879
0.0785094
-0.0127584
0.0755491
-0.0129477
0.0723198
-0.0130445
0.0688293
-0.013039
0.0650935
-0.0129239
0.0611373
-0.0126954
0.0569945
-0.012354
0.052707
-0.0119048
0.0483231
-0.0113577
0.0438955
-0.0107271
0.0394782
-0.0100307
0.0351228
-0.00928811
0.0308755
-0.00851855
0.0267726
-0.00773778
0.0228367
-0.00695338
0.0190716
-0.00615825
0.0154589
-0.00532382
0.0119591
-0.00439973
0.00852849
-0.00333407
0.00516538
-0.00212903
0.00205646
-0.000910909
-7.0807e-05
0.0948919
-0.00482627
0.0938215
-0.00544766
0.0925869
-0.00602629
0.0911968
-0.0065517
0.089647
-0.00702963
0.087929
-0.00746638
0.0860336
-0.00786379
0.083951
-0.00822204
0.0816706
-0.00854072
0.0791832
-0.00881776
0.0764818
-0.00904899
0.0735625
-0.00922885
0.0704256
-0.00935107
0.0670765
-0.00940928
0.0635263
-0.00939763
0.0597932
-0.00931143
0.055902
-0.00914786
0.0518847
-0.00890659
0.0477794
-0.00859015
0.0436295
-0.00820416
0.0394818
-0.00775721
0.0353845
-0.00726049
0.0313844
-0.00672707
0.0275246
-0.0061709
0.0238419
-0.00560553
0.0203656
-0.00504226
0.0171151
-0.00448739
0.0140994
-0.00393777
0.0113158
-0.00337469
0.00875112
-0.00275926
0.00638962
-0.00203831
0.00423077
-0.00117532
0.0023201
-0.000218478
0.000803423
0.000605657
0.000732602
0.0846144
-0.0035747
0.0831634
-0.00399668
0.0815189
-0.00438179
0.0796881
-0.00472092
0.0776734
-0.00501502
0.0754751
-0.00526806
0.0730936
-0.00548234
0.0705305
-0.00565892
0.0677881
-0.00579841
0.064871
-0.00590066
0.0617864
-0.00596439
0.0585451
-0.00598761
0.0551622
-0.00596814
0.051657
-0.00590415
0.0480538
-0.00579446
0.0443814
-0.00563902
0.0406726
-0.00543913
0.0369637
-0.00519769
0.0332927
-0.00491923
0.0296983
-0.00460976
0.0262175
-0.00427651
0.0228845
-0.0039275
0.0197283
-0.00357099
0.0167723
-0.00321498
0.0140331
-0.00286641
0.0115208
-0.00252998
0.00923935
-0.00220604
0.0071882
-0.0018867
0.00536422
-0.0015508
0.00376647
-0.0011616
0.00240404
-0.00067596
0.00130521
-7.65939e-05
0.000518006
0.000568614
9.23781e-05
0.00103119
0.000824968
0.0672086
-0.00212291
0.0655573
-0.00234533
0.0637136
-0.0025381
0.0616892
-0.00269656
0.059496
-0.00282186
0.0571455
-0.00291761
0.0546499
-0.00298685
0.0520226
-0.00303166
0.0492778
-0.00305359
0.0464308
-0.00305374
0.043499
-0.0030326
0.0405016
-0.00299026
0.0374602
-0.00292679
0.0343985
-0.0028425
0.0313421
-0.00273811
0.028318
-0.00261491
0.0253536
-0.00247479
0.0224761
-0.00232025
0.0197111
-0.00215433
0.0170818
-0.00198049
0.0146076
-0.00180237
0.0123037
-0.00162367
0.0101805
-0.00144788
0.00824363
-0.00127822
0.00649438
-0.00111724
0.00493052
-0.000966218
0.0035481
-0.000823721
0.00234437
-0.000683071
0.00132217
-0.00052869
0.000495673
-0.000335191
-0.000104949
-7.54244e-05
-0.000438447
0.000256813
-0.00047712
0.00060718
-0.000257444
0.000811419
0.000567513
0.0437564
-0.000762596
0.0422362
-0.00082513
0.0405713
-0.00087327
0.0387812
-0.000906468
0.0368857
-0.000926435
0.0349038
-0.000935728
0.0328533
-0.000936368
0.0307512
-0.000929636
0.028614
-0.000916417
0.0264576
-0.000897339
0.0242978
-0.000872792
0.0221505
-0.000843016
0.0200319
-0.000808264
0.0179582
-0.000768883
0.0159454
-0.000725355
0.0140087
-0.00067828
0.0121623
-0.000628394
0.0104185
-0.000576523
0.00878769
-0.000523577
0.00727762
-0.000470481
0.00589333
-0.000418153
0.00463703
-0.000367444
0.00350819
-0.00031911
0.00250388
-0.000273989
0.0016192
-0.000232649
0.000848065
-0.000195166
0.000185151
-0.000160891
-0.000370967
-0.000127032
-0.000812397
-8.73339e-05
-0.00111596
-3.16906e-05
-0.00124238
5.09212e-05
-0.00114889
0.000163252
-0.000824053
0.000282263
-0.000350474
0.000337773
0.00021703
0.0162049
0.0153797
0.0145065
0.0136
0.0126735
0.0117378
0.0108014
0.00987178
0.00895536
0.00805801
0.00718521
0.00634219
0.00553391
0.00476502
0.00403966
0.00336137
0.00273297
0.00215643
0.00163285
0.00116236
0.000744195
0.000376741
5.7619e-05
-0.000216381
-0.000449041
-0.000644218
-0.000805119
-0.000932161
-0.0010195
-0.0010512
-0.00100029
-0.000837047
-0.000554795
-0.00021703
0.0265731
-0.00232195
0.0283926
-0.00181962
0.0296444
-0.00125179
0.0303212
-0.000676859
0.0304612
-0.000139947
0.0301342
0.000326954
0.0294322
0.000701991
0.0284518
0.000980403
0.0272818
0.00116995
0.0012837
0.0259981
0.0505677
-0.00665272
0.0543112
-0.00556318
0.0573653
-0.00430591
0.0596915
-0.00300305
0.0613014
-0.00174989
0.0622307
-0.00060229
0.062526
0.000406647
0.0622525
0.00125378
0.0614914
0.00193104
0.00244643
0.0603287
0.0649072
-0.0115357
0.0691893
-0.00984525
0.0727817
-0.00789832
0.0756766
-0.00589801
0.0779047
-0.00397797
0.0795114
-0.00220907
0.0805514
-0.000633383
0.0810773
0.000727817
0.0811369
0.00187143
0.00280461
0.0807787
0.0758691
-0.0163622
0.0800282
-0.0140044
0.083454
-0.0113242
0.0861909
-0.00863497
0.0883056
-0.00609271
0.0898648
-0.00376834
0.0909416
-0.00171028
0.0916084
6.09714e-05
0.0919242
0.00155553
0.00279644
0.0919324
0.084181
-0.0209214
0.087969
-0.0177924
0.0909541
-0.0143093
0.0932312
-0.0109122
0.0948881
-0.00774969
0.0960184
-0.00489876
0.0967292
-0.00242119
0.0971183
-0.000328235
0.0972606
0.00141316
0.00285215
0.0972049
0.089388
-0.025307
0.0927338
-0.0211382
0.0950617
-0.0166374
0.0965338
-0.0123843
0.0973077
-0.0085237
0.0975835
-0.00517471
0.0975568
-0.00239465
0.0973668
-0.000138303
0.0970915
0.00168825
0.00318066
0.096763
0.0912115
-0.0297297
0.0936012
-0.023528
0.0943233
-0.0173596
0.0938919
-0.011953
0.0928103
-0.00744214
0.0915431
-0.00390763
0.0903834
-0.00123508
0.0894462
0.000798759
0.0887408
0.00239348
0.00370307
0.0882183
0.0878209
-0.0328293
0.0865486
-0.0222557
0.0831193
-0.0139304
0.0790961
-0.00792984
0.0754456
-0.00379173
0.0726353
-0.00109739
0.0707377
0.000662337
0.0696557
0.00188055
0.0692285
0.00282047
0.00374324
0.0691881
0.0716754
-0.0280119
0.0619181
-0.0124985
0.0529569
-0.00496931
0.0464957
-0.00146869
0.0425459
0.000157949
0.0405686
0.000879833
0.0400069
0.0012239
0.0404415
0.00144566
0.0415646
0.0016971
0.00248384
0.0428237
0.0277758
0.0152772
0.0103079
0.00883915
0.00899707
0.00987687
0.0111007
0.0125463
0.0142433
0.016727
0.0246617
0.00133642
0.0233193
0.00134243
0.0220045
0.00131481
0.0207392
0.00126531
0.0195353
0.00120391
0.0183973
0.00113814
0.0173245
0.00107286
0.0163137
0.00101086
0.0153602
0.00095357
0.0144588
0.000901543
0.0136043
0.000854696
0.0127918
0.00081259
0.0120173
0.000774616
0.0112774
0.000740146
0.010569
0.000708567
0.00988989
0.000679319
0.00923824
0.000651894
0.00861267
0.00062585
0.00801217
0.000600802
0.00743608
0.000576424
0.00688399
0.000552446
0.00635571
0.00052866
0.0058512
0.000504917
0.00537049
0.000481124
0.00491367
0.000457241
0.00448083
0.000433272
0.00407199
0.000409262
0.00368712
0.000385285
0.00332608
0.000361445
0.0029886
0.000337862
0.00267428
0.000314669
0.00238259
0.000292011
0.00211286
0.000270028
0.00186427
0.000248862
0.000228641
0.00163586
0.0588486
0.00281645
0.0571305
0.00306056
0.0552456
0.00319983
0.0532542
0.0032567
0.0512049
0.00325329
0.0491345
0.00320868
0.0470698
0.00313768
0.0450296
0.00305124
0.043026
0.00295737
0.0410661
0.00286161
0.0391536
0.00276743
0.0372897
0.00267676
0.0354741
0.00259049
0.0337058
0.00250878
0.0319833
0.00243135
0.0303054
0.00235763
0.0286709
0.00228687
0.027079
0.00221826
0.0255294
0.002151
0.0240222
0.0020843
0.0225579
0.00201745
0.0211374
0.00194986
0.0197621
0.00188107
0.0184333
0.00181073
0.0171527
0.00173867
0.015922
0.00166485
0.0147428
0.00158936
0.0136165
0.0015124
0.0125445
0.00143433
0.0115276
0.00135554
0.0105665
0.00127656
0.00966122
0.00119792
0.00881164
0.00112023
0.00801697
0.00104409
0.000970115
0.007276
0.0800521
0.003543
0.079008
0.00410477
0.0776966
0.00451123
0.076165
0.00478838
0.0744544
0.00496389
0.0726008
0.0050623
0.0706354
0.00510323
0.0685843
0.0051024
0.0664694
0.0050724
0.0643083
0.00502287
0.0621151
0.00496078
0.059901
0.00489095
0.0576752
0.00481657
0.0554446
0.00473962
0.053215
0.00466114
0.0509915
0.0045815
0.0487781
0.00450054
0.046579
0.0044178
0.0443979
0.00433256
0.0422387
0.004244
0.0401054
0.00415127
0.0380023
0.00405355
0.0359339
0.00395015
0.0339048
0.00384049
0.0319199
0.00372425
0.0299842
0.00360127
0.0281026
0.00347168
0.0262799
0.00333583
0.0245206
0.00319431
0.0228288
0.00304796
0.0212082
0.00289781
0.0196616
0.00274505
0.0181913
0.00259104
0.0167986
0.00243721
0.00228506
0.0154841
0.0916677
0.00380767
0.0911623
0.00461025
0.0904453
0.00522825
0.0895398
0.00569393
0.0884626
0.00604105
0.087228
0.00629694
0.0858491
0.00648211
0.0843385
0.00661303
0.0827078
0.00670318
0.0809678
0.00676294
0.0791288
0.00679993
0.0772002
0.00681964
0.075191
0.00682597
0.0731092
0.00682154
0.0709627
0.0068079
0.0687586
0.00678582
0.0665039
0.00675546
0.0642056
0.00671649
0.0618702
0.00666826
0.0595048
0.00660986
0.0571162
0.00654025
0.0547119
0.00645837
0.0522994
0.00636318
0.0498866
0.00625379
0.047482
0.00612949
0.045094
0.00598987
0.0427314
0.00583482
0.0404032
0.00566461
0.0381182
0.0054799
0.035885
0.00528175
0.0337116
0.00507165
0.0316057
0.00485144
0.0295738
0.00462331
0.0276217
0.0043897
0.00415329
0.0257538
0.0969853
0.00402724
0.096634
0.00496148
0.0961773
0.00568496
0.0956268
0.00624435
0.0949837
0.00668419
0.0942456
0.00703501
0.0934098
0.00731782
0.0924735
0.00754935
0.091434
0.00774275
0.0902895
0.00790746
0.0890394
0.00805009
0.0876838
0.00817529
0.0862236
0.00828628
0.0846603
0.00838501
0.0829959
0.00847245
0.081233
0.0085488
0.079375
0.00861366
0.0774256
0.00866616
0.0753891
0.00870506
0.0732704
0.00872884
0.0710752
0.00873578
0.0688099
0.00872409
0.0664815
0.00869195
0.0640981
0.00863765
0.0616684
0.00855966
0.0592021
0.00845669
0.0567095
0.00832788
0.0542018
0.00817278
0.0516907
0.00799153
0.049188
0.00778484
0.0467061
0.00755406
0.0442567
0.00730122
0.0418514
0.00702894
0.0395009
0.00674044
0.0064394
0.037215
0.0963979
0.00439225
0.0960255
0.00533381
0.0956679
0.00604252
0.0953212
0.00659091
0.0949704
0.00703501
0.0946006
0.0074047
0.0941984
0.00771995
0.0937506
0.0079972
0.0932451
0.00824822
0.0926719
0.0084806
0.0920227
0.00869936
0.09129
0.008908
0.0904676
0.00910868
0.0895503
0.00930241
0.0885335
0.00948932
0.0874136
0.0096688
0.0861877
0.00983965
0.0848538
0.0100002
0.0834107
0.0101484
0.0818579
0.0102818
0.0801962
0.0103978
0.078427
0.0104935
0.0765532
0.010566
0.0745787
0.0106125
0.0725088
0.01063
0.07035
0.0106159
0.0681104
0.0105679
0.0657994
0.0104842
0.0634278
0.0103635
0.0610076
0.0102054
0.0585519
0.0100102
0.0560743
0.00977911
0.053589
0.00951444
0.0511104
0.0092193
0.00889772
0.0486522
0.0878329
0.00477749
0.0875989
0.00556769
0.0875164
0.00612488
0.0875442
0.006563
0.08764
0.00693904
0.0877726
0.00727203
0.0879158
0.00757665
0.0880476
0.00786533
0.0881506
0.00814516
0.0882112
0.00841994
0.0882182
0.00869232
0.088162
0.00896418
0.0880341
0.00923652
0.0878271
0.00950947
0.0875338
0.00978254
0.087148
0.0100546
0.0866636
0.0103241
0.086075
0.0105888
0.0853771
0.0108463
0.0845653
0.0110937
0.0836356
0.0113276
0.0825847
0.0115445
0.0814103
0.0117407
0.0801109
0.011912
0.0786865
0.0120546
0.0771385
0.0121641
0.0754697
0.0122369
0.0736848
0.0122693
0.0717902
0.0122583
0.0697943
0.0122016
0.0677071
0.0120976
0.0655404
0.011946
0.0633074
0.0117476
0.0610223
0.0115045
0.0112199
0.0587003
0.0693789
0.00458645
0.0698556
0.00509079
0.0705718
0.00540843
0.0714336
0.00570099
0.0723762
0.00599625
0.0733549
0.00629317
0.0743345
0.00659685
0.0752901
0.00690964
0.076205
0.00723008
0.077068
0.00755683
0.0778705
0.00788972
0.0786058
0.00822885
0.0792681
0.00857411
0.0798524
0.00892512
0.0803537
0.00928117
0.080767
0.00964119
0.0810874
0.0100036
0.0813096
0.0103666
0.0814283
0.0107276
0.0814379
0.011084
0.081333
0.0114326
0.0811079
0.0117696
0.0807573
0.0120913
0.0802765
0.012393
0.079661
0.0126701
0.0789076
0.0129176
0.0780142
0.0131305
0.0769798
0.0133038
0.0758056
0.0134328
0.0744942
0.0135131
0.0730505
0.0135414
0.0714814
0.0135152
0.069796
0.0134331
0.0680052
0.0132954
0.0131036
0.0661215
0.0440547
0.00335511
0.0457239
0.00342119
0.0476429
0.00348914
0.0496554
0.00368819
0.0516847
0.00396665
0.0536808
0.00429679
0.0556141
0.00466335
0.0574716
0.00505197
0.0592484
0.00545304
0.0609428
0.00586225
0.0625544
0.00627804
0.0640831
0.00669996
0.065529
0.00712802
0.0668917
0.00756231
0.06817
0.00800272
0.0693623
0.00844879
0.0704662
0.00889962
0.0714787
0.00935393
0.0723961
0.00981005
0.0732141
0.0102659
0.0739276
0.0107189
0.0745312
0.011166
0.0750188
0.0116035
0.0753843
0.0120275
0.0756212
0.0124331
0.0757236
0.0128152
0.0756857
0.0131684
0.0755026
0.0134869
0.0751705
0.0137649
0.074687
0.0139967
0.0740514
0.0141771
0.0732649
0.0143018
0.0723308
0.0143673
0.0712547
0.0143715
0.0143141
0.0700443
0.0192272
0.000854574
0.0223496
0.000298282
0.0254335
0.000404798
0.0283799
0.000741279
0.0311819
0.00116426
0.0338368
0.00164155
0.0363576
0.0021422
0.0387627
0.00264652
0.0410669
0.00314865
0.0432804
0.00364846
0.0454113
0.00414696
0.0474654
0.00464561
0.049447
0.00514627
0.0513584
0.00565066
0.053201
0.00615998
0.0549747
0.00667483
0.0566789
0.00719528
0.0583116
0.00772101
0.0598701
0.00825124
0.061351
0.00878477
0.0627498
0.00931989
0.0640612
0.00985436
0.0652791
0.0103853
0.066397
0.0109094
0.0674075
0.0114223
0.0683031
0.0119194
0.069076
0.0123954
0.0697186
0.0128442
0.0702236
0.0132598
0.0705845
0.0136356
0.0707961
0.0139655
0.0708542
0.0142436
0.0707567
0.0144647
0.0705033
0.0146249
0.0147215
0.0700958
0.0037724
-0.00291807
0.00730671
-0.00323661
0.0103985
-0.00268759
0.0132282
-0.00208892
0.0158661
-0.0014741
0.0183586
-0.000851395
0.0207454
-0.000245066
0.0230553
0.000336254
0.0253061
0.000897475
0.0275094
0.00144486
0.0296732
0.00198292
0.0318029
0.00251566
0.0339019
0.00304704
0.035972
0.00358037
0.0380137
0.00411809
0.0400265
0.00466178
0.0420091
0.00521245
0.0439592
0.0057706
0.0458739
0.0063363
0.0477493
0.00690915
0.0495806
0.00748826
0.0513624
0.00807223
0.0530884
0.00865905
0.0547514
0.00924603
0.0563436
0.00982982
0.0578564
0.0104063
0.0592808
0.0109706
0.0606075
0.0115173
0.0618268
0.0120402
0.0629295
0.0125327
0.0639066
0.0129882
0.0647503
0.0133998
0.0654534
0.0137615
0.0660106
0.0140676
0.014314
0.066418
0.000162649
-0.00308094
0.00142414
-0.00449868
0.00308217
-0.0043462
0.00481594
-0.00382323
0.00655286
-0.00321154
0.00828571
-0.00258473
0.0100184
-0.00197822
0.0117571
-0.00140287
0.013509
-0.000854788
0.01528
-0.000326463
0.0170736
0.000189003
0.0188911
0.000697894
0.0207325
0.00120539
0.0225973
0.00171529
0.0244845
0.00223058
0.0263926
0.00275346
0.0283193
0.00328555
0.0302616
0.00382798
0.0322162
0.00438144
0.0341788
0.00494619
0.0361446
0.00552205
0.0381081
0.00610835
0.0400629
0.00670388
0.0420017
0.00730677
0.0439166
0.00791446
0.0457989
0.0085236
0.047639
0.0091301
0.0494268
0.00972906
0.0511518
0.0103148
0.052803
0.0108812
0.0543696
0.0114213
0.0558408
0.0119284
0.0572065
0.0123957
0.0584571
0.0128168
0.0131865
0.0595845
-0.000433868
-0.00264731
-0.00050507
-0.00442798
-0.00013453
-0.00471724
0.000488313
-0.00444657
0.00125862
-0.00398232
0.0021364
-0.00346295
0.00310279
-0.00294504
0.00414696
-0.00244743
0.00526304
-0.00197124
0.0064479
-0.00151166
0.00769966
-0.00106306
0.0090175
-0.000620248
0.0104012
-0.000178642
0.0118502
0.000266073
0.013363
0.000717449
0.0149381
0.00117805
0.0165735
0.00164986
0.0182666
0.00213447
0.0200146
0.00263307
0.021814
0.00314644
0.0236607
0.00367495
0.0255499
0.00421867
0.0274762
0.00477709
0.0294333
0.00534915
0.0314141
0.0059331
0.0334107
0.00652642
0.0354145
0.00712581
0.0374158
0.00772718
0.0394046
0.0083256
0.0413699
0.00891539
0.0433004
0.00949031
0.0451847
0.0100438
0.0470109
0.0105692
0.0487675
0.0110599
0.0115102
0.0504436
-0.000548465
-0.002099
-0.00117015
-0.00380673
-0.00156499
-0.00432281
-0.00173769
-0.00427428
-0.00173098
-0.00398942
-0.00157455
-0.00361975
-0.00128844
-0.00323149
-0.000886947
-0.00284926
-0.00037992
-0.00247858
0.000225882
-0.00211776
0.000925717
-0.00176319
0.00171637
-0.00141121
0.00259569
-0.00105829
0.00356264
-0.00070124
0.00461713
-0.000337423
0.00575909
3.56695e-05
0.00698803
0.00042049
0.00830291
0.000819127
0.00970206
0.00123344
0.0111835
0.00166443
0.012745
0.00211294
0.0143834
0.00257965
0.0160951
0.00306478
0.0178756
0.00356802
0.0197196
0.00408841
0.0216212
0.00462418
0.0235735
0.00517289