/*--------------------------------*- C++ -*----------------------------------*\
| =========                 |                                                 |
| \\      /  F ield         | OpenFOAM: The Open Source CFD Toolbox           |
|  \\    /   O peration     | Version:  2406                                  |
|   \\  /    A nd           | Website:  www.openfoam.com                      |
|    \\/     M anipulation  |                                                 |
\*---------------------------------------------------------------------------*/
FoamFile
{
    version     2.0;
    format      ascii;
    arch        "LSB;label=32;scalar=64";
    class       volScalarField;
    location    "45";
    object      p;
}
// * * * * * * * * * * * * * * * * * * * * * * * * * * * * * * * * * * * * * //

dimensions      [0 2 -2 0 0 0 0];

internalField   nonuniform List<scalar> 
1964
(
1.95912
1.95811
1.95599
1.95323
1.95009
1.9467
1.9431
1.93939
1.93558
1.93172
1.92781
1.92385
1.91987
1.91585
1.91182
1.90776
1.90369
1.89959
1.89548
1.89134
1.88718
1.88298
1.87875
1.87448
1.87015
1.86574
1.86124
1.85661
1.85182
1.84681
1.8415
1.83579
1.82955
1.82258
1.8146
1.80526
1.79399
1.78004
1.76227
1.73907
1.70805
1.66587
1.60786
1.52795
1.41905
1.27415
1.0896
1.96187
1.95909
1.9561
1.95319
1.95004
1.94662
1.94302
1.93931
1.93552
1.93167
1.92775
1.9238
1.91983
1.91583
1.91181
1.90776
1.90368
1.89958
1.89546
1.89132
1.88716
1.88298
1.87876
1.87449
1.87017
1.86578
1.86129
1.85667
1.8519
1.84691
1.84164
1.836
1.82984
1.82299
1.81518
1.80606
1.79512
1.78159
1.76436
1.7418
1.71148
1.66983
1.61179
1.53046
1.41748
1.26382
1.06524
1.96372
1.95966
1.95593
1.95297
1.9499
1.9465
1.94288
1.93919
1.93544
1.93161
1.92771
1.92374
1.91976
1.91578
1.91178
1.90776
1.9037
1.89961
1.89549
1.89135
1.88721
1.88304
1.87886
1.87465
1.8704
1.86609
1.86171
1.85724
1.85265
1.84791
1.84298
1.83777
1.8322
1.82614
1.81938
1.81162
1.80244
1.79114
1.77663
1.75723
1.73021
1.69146
1.63478
1.55133
1.4298
1.25504
1.01935
1.96501
1.96039
1.9561
1.95295
1.94984
1.9464
1.94275
1.93905
1.93533
1.93155
1.92765
1.92367
1.91967
1.9157
1.91174
1.90777
1.90376
1.8997
1.8956
1.89147
1.88735
1.88324
1.87913
1.87504
1.87094
1.86684
1.86272
1.8586
1.85445
1.8503
1.84613
1.84195
1.83774
1.83346
1.82904
1.82434
1.81908
1.81271
1.80425
1.79194
1.77266
1.7412
1.68922
1.60456
1.47119
1.26613
0.980433
1.96604
1.96116
1.95646
1.95305
1.94985
1.94634
1.94263
1.93891
1.93522
1.93148
1.9276
1.9236
1.91957
1.91559
1.91167
1.90777
1.90383
1.89983
1.89577
1.89169
1.8876
1.88356
1.87957
1.87565
1.87179
1.868
1.8643
1.86071
1.85727
1.85403
1.85107
1.84849
1.84638
1.84488
1.84411
1.84416
1.84505
1.84656
1.84803
1.84787
1.84277
1.82635
1.78647
1.70396
1.54556
1.27656
0.881132
1.96684
1.96183
1.95683
1.95322
1.94991
1.94632
1.94255
1.93881
1.93514
1.93144
1.92757
1.92354
1.91947
1.91548
1.9116
1.90777
1.90393
1.9
1.89601
1.89197
1.88795
1.88399
1.88015
1.87643
1.87287
1.86948
1.86631
1.8634
1.86085
1.85878
1.85737
1.85681
1.85738
1.85942
1.86333
1.86954
1.8785
1.8906
1.90584
1.9235
1.94107
1.95268
1.94397
1.88847
1.71371
1.33862
0.51856
1.96746
1.96237
1.95718
1.95342
1.95002
1.94636
1.94251
1.93873
1.93508
1.93141
1.92756
1.92351
1.9194
1.9154
1.91154
1.90778
1.90402
1.90018
1.89626
1.89229
1.88834
1.88448
1.88078
1.87729
1.87404
1.87108
1.86847
1.86631
1.86473
1.86394
1.86419
1.86585
1.86935
1.87527
1.88432
1.89738
1.91546
1.93972
1.97129
2.011
2.05865
2.11182
2.16154
2.18865
2.12007
1.83487
0.492613
1.96792
1.96278
1.95747
1.95361
1.95013
1.9464
1.94248
1.93866
1.93502
1.93139
1.92756
1.9235
1.91937
1.91534
1.9115
1.90779
1.90409
1.90034
1.89649
1.89259
1.88871
1.88495
1.88139
1.8781
1.87514
1.87257
1.87049
1.86901
1.86834
1.86874
1.87056
1.87428
1.88053
1.89011
1.90404
1.92363
1.9505
1.98666
2.0345
2.09672
2.176
2.27456
2.39204
2.52468
2.64907
2.73812
2.49036
1.96821
1.96305
1.95767
1.95375
1.95023
1.94644
1.94247
1.93862
1.93499
1.93139
1.92757
1.9235
1.91935
1.91531
1.91147
1.90779
1.90415
1.90045
1.89666
1.89281
1.889
1.88532
1.88187
1.87874
1.87599
1.87373
1.87204
1.8711
1.87113
1.87244
1.87547
1.8808
1.88918
1.90161
1.91935
1.94406
1.97788
2.02354
2.08445
2.16487
2.26981
2.40484
2.57469
2.78134
3.0137
3.24433
3.35212
1.96836
1.96319
1.95777
1.95382
1.95028
1.94646
1.94247
1.93861
1.93498
1.93139
1.92758
1.9235
1.91934
1.91529
1.91146
1.90779
1.90417
1.90051
1.89675
1.89294
1.88916
1.88553
1.88214
1.87909
1.87646
1.87436
1.87289
1.87223
1.87264
1.87445
1.87814
1.88435
1.8939
1.90787
1.9277
1.95523
1.99288
2.04375
2.11188
2.20232
2.32127
2.47585
2.67282
2.91589
3.196
3.48117
3.65967
1.96836
1.96319
1.95777
1.95382
1.95028
1.94646
1.94247
1.93861
1.93498
1.93138
1.92757
1.9235
1.91934
1.9153
1.91146
1.90779
1.90417
1.9005
1.89674
1.89293
1.88916
1.88553
1.88214
1.87909
1.87647
1.87436
1.87289
1.87223
1.87264
1.87445
1.87814
1.88435
1.89389
1.90787
1.9277
1.95523
1.99288
2.04376
2.11188
2.20232
2.32127
2.47585
2.67281
2.91592
3.19599
3.48114
3.65967
1.96821
1.96305
1.95767
1.95374
1.95023
1.94644
1.94247
1.93863
1.93499
1.93138
1.92756
1.9235
1.91935
1.91532
1.91148
1.90779
1.90414
1.90044
1.89665
1.89281
1.889
1.88533
1.88188
1.87875
1.87601
1.87373
1.87205
1.8711
1.87112
1.87243
1.87547
1.8808
1.88918
1.90161
1.91935
1.94407
1.97789
2.02354
2.08446
2.16487
2.26981
2.40484
2.5747
2.78134
3.01369
3.24439
3.35212
1.96792
1.96278
1.95747
1.95361
1.95013
1.9464
1.94249
1.93867
1.93503
1.93138
1.92755
1.92349
1.91938
1.91536
1.91151
1.90779
1.90409
1.90032
1.89647
1.89257
1.88871
1.88496
1.88141
1.87812
1.87516
1.87258
1.87049
1.86901
1.86834
1.86873
1.87055
1.87428
1.88053
1.89011
1.90405
1.92363
1.95051
1.98668
2.03452
2.09672
2.176
2.27456
2.39205
2.52468
2.6491
2.73813
2.49038
1.96746
1.96237
1.95718
1.95342
1.95001
1.94635
1.94252
1.93874
1.93508
1.9314
1.92754
1.9235
1.91942
1.91542
1.91156
1.90779
1.90401
1.90016
1.89624
1.89228
1.88834
1.88449
1.8808
1.87731
1.87406
1.87109
1.86848
1.86631
1.86473
1.86393
1.86419
1.86584
1.86935
1.87528
1.88433
1.89739
1.91547
1.93973
1.9713
2.01101
2.05865
2.11182
2.16153
2.1887
2.1201
1.8348
0.492709
1.96684
1.96183
1.95683
1.95322
1.9499
1.94632
1.94256
1.93882
1.93514
1.93143
1.92755
1.92354
1.91949
1.91551
1.91162
1.90778
1.90392
1.89999
1.89599
1.89196
1.88795
1.884
1.88016
1.87645
1.87288
1.86949
1.86631
1.8634
1.86085
1.85878
1.85736
1.85681
1.85739
1.85943
1.86334
1.86955
1.87852
1.89061
1.90585
1.92351
1.94106
1.95266
1.94398
1.88846
1.71376
1.33876
0.518487
1.96603
1.96116
1.95646
1.95305
1.94984
1.94633
1.94264
1.93892
1.93522
1.93147
1.92759
1.9236
1.91958
1.91561
1.91168
1.90777
1.90382
1.89982
1.89576
1.89168
1.88761
1.88357
1.87958
1.87566
1.8718
1.86801
1.8643
1.86071
1.85727
1.85403
1.85108
1.84849
1.84639
1.84489
1.84412
1.84418
1.84507
1.84658
1.84805
1.84789
1.84277
1.82636
1.78649
1.70403
1.54563
1.27657
0.881199
1.96501
1.96039
1.9561
1.95295
1.94984
1.9464
1.94275
1.93905
1.93533
1.93154
1.92764
1.92367
1.91968
1.91571
1.91174
1.90776
1.90375
1.89969
1.89559
1.89148
1.88736
1.88325
1.87914
1.87505
1.87095
1.86684
1.86272
1.85859
1.85445
1.8503
1.84613
1.84196
1.83775
1.83347
1.82906
1.82436
1.81909
1.81272
1.80427
1.79195
1.77266
1.74122
1.68924
1.60459
1.47123
1.26615
0.980309
1.96372
1.95965
1.95593
1.95297
1.9499
1.94649
1.94289
1.93919
1.93543
1.93161
1.9277
1.92375
1.91977
1.91578
1.91178
1.90775
1.9037
1.89961
1.89549
1.89136
1.88721
1.88305
1.87887
1.87466
1.8704
1.86609
1.86171
1.85724
1.85266
1.84792
1.84298
1.83778
1.83221
1.82615
1.81938
1.81163
1.80245
1.79115
1.77665
1.75724
1.73023
1.69147
1.63479
1.55134
1.4298
1.255
1.01935
1.96187
1.95909
1.9561
1.95318
1.95004
1.94662
1.94301
1.93931
1.93552
1.93167
1.92776
1.92381
1.91983
1.91583
1.9118
1.90775
1.90368
1.89958
1.89546
1.89133
1.88717
1.88298
1.87876
1.8745
1.87017
1.86578
1.86129
1.85668
1.8519
1.84692
1.84165
1.836
1.82985
1.82299
1.81519
1.80607
1.79513
1.7816
1.76438
1.74182
1.7115
1.66984
1.6118
1.53047
1.41749
1.26384
1.06526
1.95911
1.95811
1.95599
1.95322
1.95009
1.94669
1.9431
1.93939
1.93558
1.93172
1.92781
1.92385
1.91987
1.91585
1.91182
1.90776
1.90369
1.8996
1.89548
1.89134
1.88718
1.88299
1.87876
1.87448
1.87015
1.86575
1.86124
1.85662
1.85183
1.84681
1.8415
1.8358
1.82955
1.82258
1.81461
1.80527
1.79401
1.78005
1.76229
1.73908
1.70807
1.66588
1.60788
1.52796
1.41907
1.27418
1.08963
0.868219
0.623819
0.381575
0.164082
-0.0203737
-0.174912
0.824574
0.562316
0.312974
0.0970361
-0.0844788
-0.23417
0.718203
0.400674
0.135971
-0.0666695
-0.227831
-0.357357
0.559988
0.126686
-0.164363
-0.343022
-0.469903
-0.559176
0.210611
-0.379278
-0.663813
-0.784336
-0.842507
-0.854471
-0.847756
-1.31779
-1.33211
-1.27145
-1.18063
-1.06893
-2.26889
-1.95381
-1.5551
-1.40743
-1.27641
-1.12279
-2.26872
-1.95371
-1.555
-1.40732
-1.2763
-1.12268
-0.847566
-1.31762
-1.332
-1.27133
-1.1805
-1.06878
0.210528
-0.379341
-0.663912
-0.784417
-0.842308
-0.854204
0.559907
0.126697
-0.164193
-0.342732
-0.469635
-0.559046
0.718228
0.400869
0.136317
-0.0663779
-0.227821
-0.357625
0.824645
0.562425
0.313058
0.097011
-0.0846864
-0.234388
0.868247
0.623845
0.381594
0.164093
-0.020357
-0.174869
-0.303848
-0.408772
-0.49147
-0.554522
-0.600298
-0.630704
-0.64748
-0.652366
-0.647084
-0.633327
-0.612749
-0.58694
-0.557387
-0.525425
-0.492196
-0.458632
-0.42544
-0.393121
-0.361997
-0.332253
-0.303974
-0.277184
-0.251872
-0.228012
-0.205572
-0.184518
-0.164819
-0.146444
-0.129367
-0.113555
-0.09897
-0.0855766
-0.0733431
-0.0622354
-0.0522134
-0.0432337
-0.0352513
-0.0282197
-0.0220909
-0.0168161
-0.012346
-0.00863152
-0.00562488
-0.00327889
-0.00154599
-0.000388814
0.000345915
-0.353698
-0.446849
-0.518422
-0.572217
-0.610481
-0.634852
-0.646948
-0.648333
-0.64049
-0.624905
-0.603108
-0.576622
-0.546876
-0.515137
-0.482471
-0.449714
-0.417476
-0.386165
-0.356027
-0.327194
-0.299723
-0.273631
-0.248913
-0.225554
-0.203537
-0.182841
-0.163449
-0.14534
-0.128495
-0.112886
-0.0984744
-0.0852263
-0.0731161
-0.0621112
-0.0521735
-0.0432625
-0.0353366
-0.0283506
-0.0222583
-0.0170112
-0.0125617
-0.00886113
-0.00586307
-0.00352473
-0.00178406
-0.000680928
0.000297267
-0.457274
-0.532145
-0.588708
-0.63054
-0.658393
-0.673239
-0.676793
-0.670731
-0.656451
-0.635301
-0.608696
-0.578084
-0.544847
-0.510237
-0.475315
-0.440914
-0.407617
-0.375778
-0.345562
-0.317009
-0.29008
-0.264702
-0.240792
-0.218277
-0.197094
-0.177193
-0.158539
-0.1411
-0.124851
-0.109766
-0.0958264
-0.083011
-0.0712939
-0.0606347
-0.0509906
-0.042328
-0.0346125
-0.0278044
-0.0218603
-0.0167362
-0.0123874
-0.00876768
-0.00583337
-0.00353686
-0.00183502
-0.000716346
5.58215e-05
-0.615718
-0.654289
-0.686246
-0.711673
-0.727442
-0.732872
-0.728686
-0.715564
-0.694243
-0.665857
-0.631867
-0.593841
-0.553318
-0.511764
-0.470504
-0.430636
-0.392943
-0.357878
-0.325594
-0.296022
-0.268958
-0.244135
-0.221279
-0.200146
-0.180532
-0.162279
-0.145269
-0.129417
-0.114662
-0.10096
-0.0882764
-0.0765826
-0.0658484
-0.056055
-0.0471852
-0.0392103
-0.032099
-0.0258125
-0.0203098
-0.0155541
-0.0115091
-0.00813361
-0.00539285
-0.00321811
-0.00164253
-0.00035106
-0.000631217
-0.836167
-0.821049
-0.820951
-0.823364
-0.820363
-0.811555
-0.796897
-0.775108
-0.745426
-0.70837
-0.665298
-0.617831
-0.567647
-0.516449
-0.465906
-0.417513
-0.372423
-0.331365
-0.294639
-0.26219
-0.23371
-0.208746
-0.186788
-0.167345
-0.149973
-0.134304
-0.120045
-0.106975
-0.0949321
-0.083803
-0.0735089
-0.0639965
-0.0552297
-0.0471871
-0.0398518
-0.033205
-0.0272269
-0.0219031
-0.0172207
-0.0131593
-0.00969469
-0.00679436
-0.00443602
-0.0025259
-0.00119611
0.000289415
-0.00148222
-0.964201
-0.909105
-0.898517
-0.895559
-0.886779
-0.872976
-0.854309
-0.828568
-0.794098
-0.750972
-0.700452
-0.644303
-0.584494
-0.523134
-0.462373
-0.404207
-0.350254
-0.301618
-0.25886
-0.222053
-0.190889
-0.164802
-0.143088
-0.125011
-0.109866
-0.097031
-0.0859843
-0.0763104
-0.0676928
-0.0598994
-0.052768
-0.0461907
-0.0401007
-0.0344602
-0.0292507
-0.0244649
-0.0201026
-0.0161683
-0.0126677
-0.00960153
-0.00696819
-0.00475403
-0.00295801
-0.00148203
-0.000521349
0.00087432
-0.00181862
-0.982551
-0.924666
-0.912208
-0.90877
-0.902342
-0.891758
-0.87567
-0.851658
-0.817926
-0.774119
-0.721105
-0.66058
-0.594758
-0.526198
-0.45759
-0.391471
-0.329947
-0.274528
-0.226086
-0.184905
-0.150767
-0.12309
-0.101064
-0.0837807
-0.070331
-0.0598719
-0.0516697
-0.045118
-0.0397379
-0.0351682
-0.0311483
-0.0275009
-0.0241135
-0.0209226
-0.0179002
-0.0150425
-0.012361
-0.00987701
-0.00761545
-0.00560083
-0.00385509
-0.00239007
-0.00122338
-0.000298582
0.000229637
0.00106478
-0.00120599
-0.927668
-0.910196
-0.905765
-0.905647
-0.902732
-0.894814
-0.880367
-0.85753
-0.824745
-0.781354
-0.727834
-0.665655
-0.597026
-0.524699
-0.451669
-0.380817
-0.314581
-0.254755
-0.20245
-0.158147
-0.121748
-0.0927143
-0.0702111
-0.05325
-0.0407999
-0.0318778
-0.0256045
-0.0212367
-0.018174
-0.0159535
-0.0142341
-0.0127786
-0.0114329
-0.0101086
-0.00876536
-0.00739772
-0.00602326
-0.00467391
-0.00338918
-0.00221067
-0.00117892
-0.000328727
0.000307224
0.000717178
0.000868287
0.000837659
0.000174962
-0.893994
-0.893701
-0.896511
-0.898375
-0.896702
-0.889517
-0.875287
-0.85255
-0.819913
-0.776563
-0.722904
-0.660387
-0.59109
-0.517749
-0.443407
-0.371025
-0.303167
-0.241755
-0.188023
-0.142539
-0.105273
-0.075728
-0.0530921
-0.0363599
-0.024461
-0.0163541
-0.0110975
-0.00788286
-0.00605081
-0.00508577
-0.00460461
-0.00433671
-0.00410508
-0.00380582
-0.00339099
-0.00285266
-0.00221057
-0.00150179
-0.000773182
-7.57125e-05
0.000539952
0.0010234
0.00133566
0.00140048
0.00131769
0.000504336
0.00164517
-0.875556
-0.878948
-0.884214
-0.887468
-0.886634
-0.879938
-0.866016
-0.843572
-0.811366
-0.768595
-0.715443
-0.653233
-0.584137
-0.510947
-0.436747
-0.364535
-0.296753
-0.235195
-0.181299
-0.13574
-0.098464
-0.0689799
-0.0464828
-0.0299703
-0.0183629
-0.0106087
-0.00575013
-0.00296413
-0.00157537
-0.00105536
-0.00100889
-0.00115678
-0.00131513
-0.00137608
-0.00128925
-0.00104631
-0.000667616
-0.000192021
0.000331228
0.000848003
0.00130425
0.00164311
0.0018249
0.00173813
0.00156146
0.000333902
0.0025324
-0.87553
-0.878913
-0.884182
-0.887412
-0.886584
-0.879926
-0.866038
-0.8436
-0.811389
-0.768612
-0.715454
-0.653238
-0.584136
-0.510946
-0.436748
-0.364538
-0.296758
-0.235202
-0.181308
-0.135753
-0.098479
-0.0689951
-0.0464971
-0.0299823
-0.0183724
-0.0106156
-0.00575503
-0.00296755
-0.00157809
-0.00105788
-0.00101162
-0.00115979
-0.00131834
-0.00137923
-0.00129206
-0.00104854
-0.000669105
-0.000192745
0.000331203
0.000848527
0.00130509
0.00164431
0.00182558
0.00173942
0.00156172
0.000334879
0.0025298
-0.893926
-0.893583
-0.89642
-0.898317
-0.896674
-0.889558
-0.875377
-0.852627
-0.819963
-0.776601
-0.722947
-0.660432
-0.591126
-0.517769
-0.443421
-0.371042
-0.303187
-0.24178
-0.188055
-0.14258
-0.105319
-0.0757773
-0.0531392
-0.0364022
-0.0244962
-0.0163824
-0.0111194
-0.00790025
-0.00606513
-0.00509878
-0.00461706
-0.00434916
-0.0041172
-0.0038172
-0.00340086
-0.00286055
-0.00221604
-0.00150488
-0.000774084
-7.49837e-05
0.000541845
0.00102571
0.00133828
0.00140246
0.00131915
0.000506718
0.00163877
-0.927582
-0.910092
-0.905672
-0.905561
-0.90265
-0.894786
-0.880404
-0.857592
-0.824799
-0.781404
-0.72789
-0.665712
-0.597078
-0.524745
-0.451718
-0.380866
-0.314629
-0.254803
-0.202505
-0.15821
-0.121821
-0.0927918
-0.0702876
-0.0533199
-0.0408607
-0.0319278
-0.025645
-0.0212691
-0.0182008
-0.0159763
-0.0142546
-0.0127971
-0.0114498
-0.0101232
-0.00877739
-0.0074064
-0.00602856
-0.00467564
-0.00338806
-0.00220722
-0.00117421
-0.000323292
0.000312464
0.000722128
0.000871807
0.000841792
0.000169287
-0.982459
-0.924583
-0.912075
-0.908623
-0.902252
-0.891739
-0.875691
-0.851677
-0.817932
-0.774134
-0.72115
-0.66065
-0.59484
-0.526279
-0.457665
-0.391535
-0.330001
-0.274576
-0.226137
-0.184962
-0.150834
-0.123161
-0.101135
-0.0838466
-0.0703887
-0.0599193
-0.0517076
-0.0451474
-0.0397613
-0.0351869
-0.0311639
-0.0275135
-0.0241234
-0.0209293
-0.0179039
-0.0150427
-0.0123581
-0.00987091
-0.00760707
-0.00559074
-0.00384451
-0.00237931
-0.00121388
-0.000289587
0.000236168
0.00107047
-0.00120853
-0.964136
-0.909034
-0.8984
-0.895506
-0.886815
-0.873012
-0.854289
-0.828508
-0.794041
-0.750954
-0.700483
-0.64437
-0.584574
-0.523212
-0.462441
-0.404264
-0.350299
-0.301657
-0.258895
-0.222091
-0.190929
-0.164844
-0.143127
-0.125046
-0.109893
-0.0970505
-0.0859948
-0.0763152
-0.0676914
-0.0598952
-0.0527603
-0.0461817
-0.0400886
-0.0344463
-0.0292338
-0.0244467
-0.0200821
-0.0161473
-0.0126455
-0.00958036
-0.00694754
-0.00473592
-0.00294101
-0.00146859
-0.000510096
0.000883462
-0.0018198
-0.835968
-0.820974
-0.820952
-0.823414
-0.820405
-0.811537
-0.796825
-0.775034
-0.745383
-0.708366
-0.665325
-0.617878
-0.567703
-0.516505
-0.465959
-0.417559
-0.372461
-0.331395
-0.294662
-0.262208
-0.233724
-0.208755
-0.186793
-0.167344
-0.149965
-0.13429
-0.120024
-0.106949
-0.0949021
-0.0837699
-0.0734738
-0.0639599
-0.0551922
-0.0471486
-0.0398128
-0.0331663
-0.0271894
-0.0218672
-0.0171869
-0.013128
-0.0096667
-0.00676954
-0.00441523
-0.00250803
-0.0011825
0.000301732
-0.00148562
-0.61577
-0.654384
-0.686262
-0.711613
-0.727363
-0.732815
-0.728667
-0.715574
-0.694263
-0.665872
-0.631877
-0.593851
-0.553337
-0.51179
-0.470538
-0.430668
-0.392973
-0.357899
-0.325608
-0.296027
-0.268958
-0.244126
-0.221266
-0.200124
-0.180505
-0.162243
-0.14523
-0.129371
-0.114614
-0.100907
-0.0882232
-0.0765271
-0.0657943
-0.056
-0.0471324
-0.0391578
-0.0320502
-0.0257662
-0.0202691
-0.0155171
-0.0114781
-0.00810651
-0.00537113
-0.00320014
-0.00162873
-0.000338082
-0.0006379
-0.457521
-0.532166
-0.588526
-0.630315
-0.658263
-0.673234
-0.67686
-0.670804
-0.656494
-0.635309
-0.608686
-0.578078
-0.544854
-0.51026
-0.475346
-0.440948
-0.407646
-0.375801
-0.345577
-0.317017
-0.290078
-0.264693
-0.240775
-0.218253
-0.197061
-0.177155
-0.158493
-0.14105
-0.124795
-0.109708
-0.0957647
-0.0829488
-0.0712307
-0.060574
-0.0509317
-0.0422736
-0.0345615
-0.0277588
-0.0218191
-0.0167009
-0.0123567
-0.00874259
-0.00581275
-0.00352044
-0.00182297
-0.000704996
4.87084e-05
-0.353733
-0.446666
-0.518156
-0.572024
-0.610423
-0.634894
-0.647018
-0.648382
-0.640505
-0.6249
-0.603103
-0.576628
-0.546895
-0.515167
-0.482505
-0.449747
-0.417505
-0.386188
-0.356044
-0.327205
-0.299727
-0.273628
-0.248902
-0.225535
-0.20351
-0.182807
-0.163407
-0.145292
-0.128442
-0.11283
-0.0984155
-0.0851668
-0.0730568
-0.0620539
-0.0521187
-0.0432117
-0.0352897
-0.0283087
-0.022221
-0.0169793
-0.0125345
-0.00883909
-0.00584574
-0.00351153
-0.00177488
-0.000673868
0.000292229
-0.303776
-0.408691
-0.491405
-0.554481
-0.600274
-0.630689
-0.647472
-0.652364
-0.647088
-0.633337
-0.612764
-0.586961
-0.557413
-0.525453
-0.492226
-0.458661
-0.425466
-0.393143
-0.362015
-0.332264
-0.303978
-0.27718
-0.25186
-0.227992
-0.205543
-0.184482
-0.164776
-0.146395
-0.129313
-0.113498
-0.0989114
-0.0855176
-0.0732849
-0.0621791
-0.05216
-0.043184
-0.0352059
-0.0281789
-0.0220551
-0.0167853
-0.0123203
-0.00861078
-0.00560887
-0.00326739
-0.00153863
-0.000384675
0.000344434
)
;

boundaryField
{
    inlet
    {
        type            zeroGradient;
    }
    outlet
    {
        type            fixedValue;
        value           uniform 0;
    }
    upperWall
    {
        type            zeroGradient;
    }
    lowerWall
    {
        type            zeroGradient;
    }
    frontAndBack
    {
        type            empty;
    }
}


// ************************************************************************* //
