/*--------------------------------*- C++ -*----------------------------------*\
| =========                 |                                                 |
| \\      /  F ield         | OpenFOAM: The Open Source CFD Toolbox           |
|  \\    /   O peration     | Version:  2406                                  |
|   \\  /    A nd           | Website:  www.openfoam.com                      |
|    \\/     M anipulation  |                                                 |
\*---------------------------------------------------------------------------*/
FoamFile
{
    version     2.0;
    format      ascii;
    arch        "LSB;label=32;scalar=64";
    class       volScalarField;
    location    "44";
    object      p;
}
// * * * * * * * * * * * * * * * * * * * * * * * * * * * * * * * * * * * * * //

dimensions      [0 2 -2 0 0 0 0];

internalField   nonuniform List<scalar> 
1964
(
0.489955
0.490372
0.490296
0.489828
0.489185
0.488435
0.487606
0.486719
0.485793
0.48484
0.483864
0.482871
0.481864
0.480845
0.479816
0.478778
0.477733
0.47668
0.475619
0.474551
0.473474
0.472388
0.471292
0.470182
0.469057
0.467912
0.466741
0.465538
0.464292
0.462988
0.461609
0.460127
0.458509
0.456704
0.454645
0.452236
0.44934
0.445762
0.44122
0.435304
0.427425
0.416741
0.402098
0.38199
0.354672
0.318426
0.272395
0.49113
0.490781
0.490354
0.489821
0.489161
0.488399
0.487566
0.486684
0.485766
0.484816
0.483842
0.48285
0.481846
0.480832
0.479808
0.478773
0.477727
0.476673
0.475611
0.474542
0.473467
0.472383
0.471289
0.470183
0.46906
0.467918
0.46675
0.465551
0.464308
0.463012
0.461641
0.460174
0.458575
0.456799
0.454778
0.452423
0.449601
0.44612
0.441703
0.435936
0.42821
0.417637
0.402959
0.382467
0.354101
0.315649
0.266113
0.491932
0.491037
0.490311
0.489748
0.489106
0.488345
0.48751
0.486634
0.485728
0.484788
0.483817
0.482824
0.48182
0.480811
0.479794
0.478767
0.477727
0.476675
0.475614
0.474546
0.473474
0.472396
0.471312
0.470219
0.469115
0.467994
0.466855
0.46569
0.464495
0.463259
0.461971
0.460614
0.459163
0.457582
0.455822
0.453806
0.451424
0.4485
0.444761
0.439781
0.432884
0.423042
0.408712
0.387707
0.357227
0.313536
0.254763
0.492491
0.491355
0.490399
0.489751
0.489086
0.488304
0.487452
0.486574
0.485679
0.484754
0.483787
0.482791
0.481783
0.480777
0.479771
0.47876
0.477734
0.476691
0.475636
0.474572
0.473505
0.472439
0.471374
0.47031
0.469244
0.468175
0.467101
0.466021
0.464936
0.463846
0.462749
0.461645
0.460529
0.459392
0.458213
0.456955
0.455544
0.453846
0.451612
0.448397
0.443427
0.435405
0.422253
0.400956
0.367521
0.316295
0.245011
0.492934
0.491689
0.490561
0.489806
0.489092
0.488279
0.487403
0.486516
0.48563
0.484717
0.483756
0.482754
0.481738
0.480732
0.479739
0.478747
0.477742
0.476717
0.475673
0.474618
0.473561
0.472512
0.471475
0.470453
0.469446
0.468456
0.467485
0.46654
0.465628
0.464765
0.463967
0.463258
0.462664
0.462214
0.461938
0.46186
0.461977
0.462237
0.46247
0.462281
0.46084
0.456561
0.446423
0.425638
0.385973
0.318822
0.22019
0.493285
0.491979
0.490732
0.489887
0.489124
0.488278
0.487374
0.486473
0.485591
0.484689
0.483732
0.482723
0.481697
0.480688
0.479704
0.478732
0.477752
0.476749
0.475723
0.474682
0.473641
0.472613
0.47161
0.470638
0.469704
0.468812
0.467972
0.467197
0.466508
0.465934
0.465518
0.465312
0.465382
0.46581
0.466693
0.468142
0.470267
0.473157
0.476817
0.481063
0.485266
0.487961
0.485573
0.471444
0.42763
0.333531
0.12848
0.493555
0.492214
0.49089
0.48998
0.489174
0.488293
0.487359
0.486442
0.48556
0.484666
0.483714
0.4827
0.481664
0.48065
0.479673
0.478719
0.477762
0.476783
0.475778
0.474755
0.473732
0.472728
0.471761
0.470843
0.469986
0.4692
0.4685
0.467909
0.467461
0.467204
0.467203
0.467545
0.468341
0.469731
0.471893
0.475042
0.479434
0.485351
0.493077
0.502817
0.514521
0.52758
0.539765
0.546217
0.528863
0.456416
0.11963
0.493752
0.49239
0.491018
0.490065
0.489225
0.488313
0.487352
0.486419
0.485536
0.484651
0.483703
0.482686
0.481642
0.480623
0.479649
0.478708
0.477771
0.476814
0.475828
0.474823
0.473819
0.472839
0.471906
0.471038
0.470251
0.469562
0.468992
0.468572
0.468349
0.468387
0.468775
0.469631
0.471108
0.473407
0.47678
0.481554
0.488132
0.497015
0.508797
0.524149
0.54375
0.568147
0.597275
0.630166
0.661143
0.682802
0.622339
0.493881
0.492508
0.491107
0.490127
0.489266
0.488332
0.48735
0.486405
0.485522
0.484642
0.483698
0.482679
0.481629
0.480605
0.479633
0.4787
0.477776
0.476835
0.475866
0.474876
0.473887
0.472927
0.472021
0.471191
0.470458
0.469842
0.469371
0.469083
0.469034
0.4693
0.469989
0.471243
0.47325
0.476256
0.480577
0.486627
0.494936
0.506182
0.521224
0.541121
0.567127
0.600638
0.64285
0.694259
0.752194
0.809574
0.83724
0.493946
0.492568
0.491152
0.490159
0.489289
0.488343
0.48735
0.486399
0.485515
0.484638
0.483696
0.482675
0.481623
0.480597
0.479624
0.478695
0.477779
0.476846
0.475885
0.474904
0.473925
0.472975
0.472084
0.471275
0.470571
0.469996
0.469579
0.469362
0.469406
0.469796
0.470649
0.472121
0.474417
0.477809
0.48265
0.4894
0.498661
0.511211
0.528052
0.55045
0.579955
0.61835
0.66734
0.727851
0.797702
0.868779
0.913936
0.493946
0.492568
0.491152
0.490159
0.489289
0.488343
0.48735
0.4864
0.485515
0.484637
0.483695
0.482675
0.481623
0.480598
0.479625
0.478696
0.477779
0.476845
0.475884
0.474903
0.473924
0.472976
0.472085
0.471276
0.470573
0.469997
0.469579
0.469362
0.469406
0.469796
0.470649
0.47212
0.474417
0.477809
0.48265
0.4894
0.498662
0.511212
0.528053
0.550451
0.579956
0.618352
0.667337
0.727862
0.7977
0.86877
0.913935
0.493881
0.492508
0.491107
0.490127
0.489266
0.488332
0.48735
0.486406
0.485522
0.48464
0.483696
0.482678
0.481631
0.480608
0.479636
0.478701
0.477776
0.476832
0.475862
0.474873
0.473886
0.472927
0.472023
0.471194
0.470461
0.469845
0.469373
0.469084
0.469033
0.469299
0.469988
0.471242
0.47325
0.476255
0.480577
0.486628
0.494937
0.506184
0.521225
0.541121
0.567127
0.600636
0.642851
0.694258
0.752192
0.809589
0.837239
0.493752
0.49239
0.491019
0.490065
0.489225
0.488313
0.487353
0.486421
0.485536
0.484648
0.4837
0.482684
0.481644
0.480628
0.479654
0.47871
0.477769
0.476809
0.475823
0.474819
0.473817
0.47284
0.471909
0.471042
0.470256
0.469565
0.468993
0.468572
0.468348
0.468385
0.468773
0.469629
0.471107
0.473407
0.476781
0.481555
0.488135
0.497018
0.508799
0.524151
0.543749
0.568146
0.597275
0.630165
0.661149
0.682802
0.622343
0.493555
0.492214
0.490891
0.48998
0.489173
0.488292
0.487361
0.486445
0.48556
0.484663
0.483709
0.482698
0.481667
0.480656
0.479678
0.478721
0.47776
0.476779
0.475772
0.474751
0.47373
0.47273
0.471765
0.470848
0.46999
0.469203
0.468501
0.467909
0.467459
0.467202
0.467201
0.467544
0.46834
0.469732
0.471895
0.475045
0.479437
0.485355
0.49308
0.502819
0.514521
0.527578
0.539762
0.546227
0.52887
0.456394
0.119655
0.493285
0.491979
0.490733
0.489888
0.489123
0.488277
0.487376
0.486476
0.48559
0.484685
0.483727
0.482722
0.481701
0.480694
0.479709
0.478734
0.47775
0.476745
0.475718
0.474679
0.473641
0.472615
0.471613
0.470642
0.469708
0.468815
0.467973
0.467196
0.466506
0.465933
0.465517
0.465311
0.465382
0.465811
0.466695
0.468145
0.47027
0.47316
0.47682
0.481064
0.485265
0.487955
0.485575
0.471439
0.427642
0.333567
0.128458
0.492934
0.491689
0.490562
0.489807
0.489091
0.488279
0.487405
0.486519
0.48563
0.484714
0.483753
0.482754
0.481742
0.480737
0.479742
0.478747
0.477739
0.476713
0.47567
0.474617
0.473562
0.472515
0.471478
0.470456
0.469448
0.468457
0.467485
0.466539
0.465627
0.464764
0.463967
0.463259
0.462665
0.462216
0.461941
0.461862
0.46198
0.462241
0.462473
0.462284
0.46084
0.456563
0.446425
0.425657
0.385989
0.318823
0.220207
0.492491
0.491355
0.4904
0.489751
0.489084
0.488303
0.487453
0.486575
0.485679
0.484751
0.483786
0.482791
0.481786
0.480779
0.479772
0.478758
0.477731
0.476689
0.475634
0.474572
0.473506
0.472441
0.471376
0.470311
0.469245
0.468175
0.467101
0.466021
0.464936
0.463846
0.46275
0.461646
0.460531
0.459394
0.458216
0.456958
0.455547
0.453849
0.451615
0.448401
0.443429
0.435408
0.422259
0.400964
0.367532
0.316302
0.244979
0.491932
0.491037
0.490312
0.489749
0.489106
0.488345
0.487511
0.486635
0.485727
0.484787
0.483817
0.482825
0.481822
0.480812
0.479794
0.478766
0.477726
0.476675
0.475614
0.474547
0.473475
0.472397
0.471313
0.47022
0.469115
0.467994
0.466854
0.46569
0.464495
0.46326
0.461972
0.460615
0.459164
0.457584
0.455823
0.453809
0.451426
0.448502
0.444764
0.439784
0.432887
0.423042
0.408714
0.38771
0.357226
0.313525
0.25476
0.49113
0.490781
0.490354
0.489821
0.48916
0.488398
0.487566
0.486684
0.485765
0.484816
0.483842
0.482851
0.481847
0.480832
0.479807
0.478772
0.477727
0.476673
0.475611
0.474543
0.473468
0.472384
0.47129
0.470183
0.469061
0.467919
0.466751
0.465551
0.464309
0.463013
0.461643
0.460175
0.458577
0.4568
0.45478
0.452425
0.449603
0.446123
0.441706
0.435939
0.428213
0.417639
0.40296
0.382469
0.354103
0.315653
0.266114
0.489955
0.490372
0.490296
0.489828
0.489185
0.488435
0.487606
0.486719
0.485793
0.48484
0.483864
0.482871
0.481864
0.480845
0.479816
0.478779
0.477733
0.47668
0.47562
0.474551
0.473475
0.472389
0.471292
0.470183
0.469057
0.467913
0.466742
0.465539
0.464293
0.462989
0.46161
0.460128
0.45851
0.456706
0.454647
0.452238
0.449342
0.445765
0.441223
0.435307
0.427427
0.416743
0.4021
0.381992
0.354676
0.318432
0.272401
0.217329
0.156743
0.0969397
0.0434989
-0.00158835
-0.0391466
0.206268
0.14133
0.0799086
0.0269919
-0.0172691
-0.0535691
0.179846
0.101236
0.0361497
-0.013329
-0.052468
-0.0837589
0.140309
0.0330551
-0.0383705
-0.0817149
-0.112185
-0.133445
0.0537852
-0.091384
-0.160703
-0.189731
-0.203365
-0.205611
-0.210895
-0.324749
-0.325684
-0.309932
-0.287259
-0.259501
-0.574152
-0.491617
-0.385381
-0.345585
-0.311975
-0.272952
-0.574111
-0.491599
-0.385358
-0.345557
-0.311947
-0.272923
-0.210852
-0.324707
-0.325658
-0.3099
-0.287226
-0.25946
0.053762
-0.0914024
-0.160722
-0.18975
-0.203326
-0.20556
0.140289
0.0330629
-0.0383202
-0.0816461
-0.112141
-0.133433
0.179849
0.101285
0.0362318
-0.0132668
-0.0524823
-0.0838323
0.206283
0.141351
0.0799253
0.0269819
-0.0173201
-0.0536162
0.217335
0.156748
0.0969441
0.0435018
-0.00158367
-0.0391349
-0.0702659
-0.0953471
-0.114856
-0.129468
-0.139807
-0.146379
-0.149649
-0.150074
-0.148105
-0.144176
-0.138705
-0.132082
-0.124666
-0.116769
-0.108653
-0.100524
-0.0925381
-0.0848009
-0.077381
-0.0703176
-0.0636295
-0.057323
-0.0513973
-0.0458477
-0.0406675
-0.0358495
-0.0313859
-0.0272691
-0.0234904
-0.0200394
-0.0169046
-0.0140751
-0.0115403
-0.00928891
-0.00730819
-0.0055848
-0.00410516
-0.00285554
-0.00182213
-0.000991167
-0.000349118
0.000117298
0.000420686
0.000573373
0.000587105
0.000472411
0.000258812
-0.0823252
-0.104466
-0.121203
-0.133517
-0.142
-0.147092
-0.149223
-0.148808
-0.146239
-0.141899
-0.136171
-0.129426
-0.122004
-0.114198
-0.106247
-0.0983336
-0.090589
-0.0830995
-0.0759178
-0.0690727
-0.0625783
-0.0564398
-0.0506581
-0.0452311
-0.0401556
-0.0354274
-0.0310416
-0.0269919
-0.0232719
-0.0198716
-0.0167798
-0.0139863
-0.011482
-0.00925586
-0.0072958
-0.00558909
-0.00412295
-0.002884
-0.00185891
-0.00103408
-0.000396333
6.74384e-05
0.000369464
0.000521118
0.000537264
0.000412675
0.000240466
-0.107669
-0.125298
-0.138328
-0.147683
-0.153587
-0.15631
-0.1563
-0.154003
-0.149799
-0.144044
-0.137103
-0.129334
-0.121066
-0.112587
-0.104129
-0.095867
-0.0879204
-0.0803564
-0.0732046
-0.0664689
-0.0601392
-0.0541997
-0.0486333
-0.0434249
-0.0385618
-0.0340338
-0.0298321
-0.0259492
-0.0223768
-0.0191072
-0.0161335
-0.0134474
-0.0110397
-0.00889792
-0.00700941
-0.00536309
-0.00394774
-0.00275152
-0.00176194
-0.000966304
-0.00035216
9.29513e-05
0.00038051
0.000523155
0.000530271
0.000412966
0.000172191
-0.146704
-0.15548
-0.162509
-0.167833
-0.170703
-0.170968
-0.168855
-0.164597
-0.158438
-0.150709
-0.141804
-0.132124
-0.122047
-0.11191
-0.102001
-0.0925429
-0.0836836
-0.0754961
-0.0679922
-0.0611406
-0.0548863
-0.0491657
-0.0439174
-0.0390879
-0.0346342
-0.0305229
-0.0267289
-0.0232335
-0.0200222
-0.0170838
-0.0144088
-0.0119879
-0.00981158
-0.0078725
-0.00616333
-0.00467444
-0.00339556
-0.0023163
-0.00142555
-0.00071189
-0.000164783
0.000226956
0.000472698
0.000589818
0.000569832
0.000494814
3.08047e-06
-0.200445
-0.19599
-0.195171
-0.194957
-0.193308
-0.190062
-0.185249
-0.178653
-0.170191
-0.160082
-0.148731
-0.136585
-0.124071
-0.111595
-0.0995238
-0.0881634
-0.0777283
-0.0683338
-0.0600032
-0.0526891
-0.0462971
-0.0407108
-0.0358093
-0.0314807
-0.0276282
-0.024173
-0.0210535
-0.0182236
-0.0156494
-0.0133068
-0.0111785
-0.00925168
-0.00751702
-0.00596771
-0.00459777
-0.00340095
-0.0023709
-0.0015013
-0.000786251
-0.000219766
0.000205199
0.00049759
0.000663923
0.000726749
0.000656475
0.000626259
-0.000190631
-0.233212
-0.218691
-0.21503
-0.213328
-0.2101
-0.205431
-0.199392
-0.19153
-0.181556
-0.169617
-0.156141
-0.141644
-0.126648
-0.111665
-0.0971817
-0.0836112
-0.0712592
-0.060306
-0.0508115
-0.0427344
-0.0359606
-0.0303318
-0.0256728
-0.0218103
-0.0185866
-0.0158663
-0.0135393
-0.0115198
-0.0097432
-0.00816285
-0.00674623
-0.00547152
-0.00432492
-0.00329816
-0.00238667
-0.0015878
-0.000900093
-0.000322621
0.000145232
0.000504664
0.000757583
0.000908546
0.00095938
0.000932849
0.000787781
0.000736078
-0.000252008
-0.237666
-0.222602
-0.218789
-0.217167
-0.214575
-0.210654
-0.205125
-0.197477
-0.187396
-0.174966
-0.160567
-0.144735
-0.128083
-0.111252
-0.0948637
-0.0794562
-0.0654359
-0.0530608
-0.0424439
-0.0335709
-0.0263283
-0.020538
-0.0159884
-0.01246
-0.00974424
-0.00765583
-0.0060385
-0.00476653
-0.00374285
-0.00289564
-0.00217414
-0.00154441
-0.000985356
-0.000485461
-3.98523e-05
0.00035192
0.000687605
0.000963413
0.00117496
0.00131808
0.00138927
0.00138721
0.0013097
0.00116932
0.000937057
0.0007575
-8.68017e-05
-0.223962
-0.218793
-0.217068
-0.216356
-0.214709
-0.211534
-0.206447
-0.199054
-0.189103
-0.176633
-0.16195
-0.145552
-0.128078
-0.110242
-0.0927516
-0.0762285
-0.0611508
-0.0478346
-0.0364405
-0.0269852
-0.0193684
-0.0134097
-0.00888174
-0.00553957
-0.00314338
-0.00147473
-0.000345142
0.000400171
0.000883129
0.00119551
0.00140332
0.00155128
0.00166741
0.00176698
0.00185602
0.00193415
0.00199687
0.00203723
0.00204718
0.0020185
0.00194344
0.00181548
0.00162913
0.00138129
0.00107233
0.00069716
0.000255783
-0.214928
-0.214521
-0.214737
-0.21452
-0.21317
-0.210176
-0.205155
-0.197797
-0.187878
-0.175414
-0.160697
-0.144187
-0.126508
-0.108388
-0.0905549
-0.0736595
-0.0582113
-0.044554
-0.0328713
-0.0231951
-0.0154375
-0.00942362
-0.00492518
-0.001689
0.000536337
0.00198367
0.00285586
0.0033219
0.00351604
0.00354065
0.00346991
0.00335475
0.00322721
0.00310499
0.00299502
0.00289679
0.00280479
0.00271058
0.00260418
0.00247515
0.0023134
0.00210891
0.00185477
0.00153336
0.00117565
0.000624012
0.000613519
-0.209905
-0.210632
-0.211571
-0.211742
-0.210632
-0.207796
-0.2029
-0.195663
-0.185887
-0.173561
-0.158938
-0.142493
-0.124865
-0.106788
-0.0889993
-0.0721309
-0.0566579
-0.0429616
-0.0312583
-0.0215758
-0.0138264
-0.00783875
-0.00338479
-0.000210823
0.00193729
0.00329517
0.00406946
0.00443246
0.00452191
0.00444296
0.00427228
0.0040625
0.00384701
0.00364417
0.00346129
0.00329779
0.00314788
0.00300263
0.00285144
0.00268309
0.0024867
0.00225075
0.00196811
0.00161325
0.00123508
0.000589282
0.000828932
-0.209899
-0.210625
-0.211567
-0.211733
-0.210624
-0.207796
-0.202906
-0.195669
-0.185892
-0.173566
-0.158942
-0.142495
-0.124866
-0.106789
-0.0889999
-0.0721312
-0.0566582
-0.0429623
-0.0312597
-0.0215777
-0.0138286
-0.00784093
-0.00338676
-0.000212325
0.00193628
0.00329467
0.00406932
0.00443256
0.00452207
0.00444304
0.00427218
0.0040622
0.00384653
0.00364358
0.00346066
0.0032972
0.00314741
0.0030023
0.00285125
0.00268304
0.00248674
0.0022509
0.00196817
0.00161349
0.00123511
0.000589558
0.000828279
-0.214913
-0.214496
-0.214722
-0.214516
-0.213174
-0.210196
-0.205181
-0.197816
-0.187892
-0.175428
-0.160712
-0.1442
-0.126517
-0.108393
-0.0905582
-0.0736625
-0.0582138
-0.0445572
-0.0328759
-0.0232012
-0.0154444
-0.00943095
-0.004932
-0.00169488
0.000531847
0.0019805
0.00285391
0.00332072
0.00351526
0.00353985
0.00346889
0.00335336
0.00322553
0.00310312
0.00299317
0.00289512
0.00280346
0.00270966
0.00260369
0.00247502
0.00231356
0.00210922
0.00185521
0.00153373
0.00117599
0.000624709
0.000611933
-0.223942
-0.218772
-0.217054
-0.216348
-0.214703
-0.211541
-0.206465
-0.199073
-0.189119
-0.176649
-0.161967
-0.145568
-0.128092
-0.110255
-0.0927642
-0.0762391
-0.0611591
-0.0478418
-0.0364484
-0.0269946
-0.0193793
-0.0134214
-0.00889328
-0.00554995
-0.0031521
-0.00148141
-0.00035004
0.000396778
0.000880628
0.00119352
0.0014014
0.00154935
0.00166538
0.00176503
0.00185422
0.00193274
0.00199589
0.00203683
0.00204727
0.00201905
0.00194427
0.00181653
0.00163019
0.00138237
0.00107316
0.000698275
0.000254352
-0.237643
-0.222583
-0.218763
-0.217144
-0.214567
-0.210662
-0.205138
-0.197485
-0.1874
-0.174972
-0.160579
-0.144754
-0.128104
-0.111273
-0.0948827
-0.0794711
-0.0654466
-0.0530686
-0.0424511
-0.0335788
-0.0263376
-0.0205481
-0.0159986
-0.0124693
-0.00975208
-0.00766175
-0.00604266
-0.0047691
-0.00374436
-0.00289644
-0.00217463
-0.00154467
-0.000985493
-0.000485316
-3.94149e-05
0.000352778
0.000688823
0.000965043
0.00117688
0.00132025
0.00139148
0.00138948
0.0013117
0.00117126
0.000938478
0.000758798
-8.74794e-05
-0.233193
-0.218672
-0.215004
-0.213323
-0.21012
-0.205454
-0.199401
-0.191525
-0.181546
-0.169612
-0.156145
-0.141656
-0.126664
-0.111683
-0.0971984
-0.0836255
-0.0712695
-0.0603134
-0.0508165
-0.0427389
-0.0359645
-0.0303359
-0.0256762
-0.021813
-0.0185877
-0.0158662
-0.0135376
-0.0115171
-0.0097394
-0.00815871
-0.00674158
-0.00546696
-0.00432009
-0.00329342
-0.00238161
-0.00158281
-0.000894897
-0.000317653
0.000150217
0.000509245
0.000761972
0.000912299
0.000962904
0.000935545
0.000790045
0.000737825
-0.000252278
-0.200395
-0.195956
-0.195155
-0.194963
-0.193326
-0.190076
-0.185252
-0.17865
-0.170187
-0.160079
-0.148732
-0.13659
-0.12408
-0.111606
-0.0995368
-0.0881754
-0.0777379
-0.0683401
-0.0600066
-0.05269
-0.0462964
-0.0407085
-0.0358058
-0.0314758
-0.0276221
-0.0241656
-0.0210451
-0.0182142
-0.0156395
-0.0132965
-0.011168
-0.00924118
-0.00750666
-0.00595751
-0.00458788
-0.00339143
-0.00236193
-0.001493
-0.000778721
-0.000213
0.000211093
0.000502701
0.000668086
0.000730243
0.000659049
0.000628445
-0.000191267
-0.146714
-0.155479
-0.162487
-0.167807
-0.170691
-0.170973
-0.16887
-0.164613
-0.158449
-0.150712
-0.141801
-0.132122
-0.122049
-0.111916
-0.10201
-0.0925519
-0.0836916
-0.0755008
-0.0679944
-0.0611395
-0.0548833
-0.0491601
-0.0439104
-0.0390788
-0.0346241
-0.0305111
-0.0267164
-0.0232197
-0.0200082
-0.017069
-0.0143943
-0.0119731
-0.00979758
-0.00785865
-0.00615046
-0.00466203
-0.00338436
-0.0023058
-0.0014165
-0.000703816
-0.00015822
0.000232592
0.000477051
0.000593315
0.000572452
0.000497136
1.81198e-06
-0.107719
-0.12528
-0.138265
-0.147624
-0.153565
-0.156324
-0.15633
-0.15403
-0.149813
-0.144045
-0.137098
-0.12933
-0.121067
-0.112593
-0.104137
-0.0958767
-0.087928
-0.0803618
-0.0732065
-0.0664683
-0.0601358
-0.0541943
-0.0486254
-0.0434154
-0.0385503
-0.0340211
-0.0298178
-0.0259341
-0.0223608
-0.0190911
-0.0161169
-0.0134312
-0.0110235
-0.00888277
-0.00699505
-0.00535009
-0.00393579
-0.00274107
-0.00175266
-0.000958562
-0.00034556
9.81989e-05
0.000384718
0.000526406
0.0005326
0.000415074
0.000170814
-0.0823219
-0.10441
-0.121134
-0.133473
-0.141995
-0.147112
-0.149248
-0.148825
-0.146244
-0.141898
-0.136169
-0.129428
-0.12201
-0.114207
-0.106257
-0.0983429
-0.0905963
-0.0831046
-0.0759204
-0.069073
-0.0625762
-0.0564357
-0.0506517
-0.0452228
-0.0401454
-0.0354155
-0.0310281
-0.0269774
-0.0232563
-0.0198556
-0.0167636
-0.0139704
-0.0114665
-0.00924127
-0.00728215
-0.00557671
-0.00411176
-0.00287422
-0.00185039
-0.00102695
-0.000390373
7.21507e-05
0.000373082
0.000523809
0.000539108
0.00041404
0.00023949
-0.0702465
-0.0953263
-0.114841
-0.12946
-0.139803
-0.146378
-0.149649
-0.150076
-0.148108
-0.144181
-0.138711
-0.13209
-0.124674
-0.116778
-0.108661
-0.100532
-0.0925442
-0.0848053
-0.0773834
-0.0703178
-0.0636274
-0.0573187
-0.0513907
-0.0458389
-0.0406568
-0.035837
-0.031372
-0.0272541
-0.0234746
-0.0200232
-0.0168885
-0.0140593
-0.0115251
-0.00927454
-0.00729487
-0.00557268
-0.00409433
-0.00284602
-0.00181394
-0.000984282
-0.000343479
0.000121735
0.00042403
0.000575707
0.000588548
0.000473196
0.000258487
)
;

boundaryField
{
    inlet
    {
        type            zeroGradient;
    }
    outlet
    {
        type            fixedValue;
        value           uniform 0;
    }
    upperWall
    {
        type            zeroGradient;
    }
    lowerWall
    {
        type            zeroGradient;
    }
    frontAndBack
    {
        type            empty;
    }
}


// ************************************************************************* //
