/*--------------------------------*- C++ -*----------------------------------*\
| =========                 |                                                 |
| \\      /  F ield         | OpenFOAM: The Open Source CFD Toolbox           |
|  \\    /   O peration     | Version:  2406                                  |
|   \\  /    A nd           | Website:  www.openfoam.com                      |
|    \\/     M anipulation  |                                                 |
\*---------------------------------------------------------------------------*/
FoamFile
{
    version     2.0;
    format      ascii;
    arch        "LSB;label=32;scalar=64";
    class       surfaceScalarField;
    location    "143";
    object      phi;
}
// * * * * * * * * * * * * * * * * * * * * * * * * * * * * * * * * * * * * * //

dimensions      [0 3 -1 0 0 0 0];

oriented        oriented;

internalField   nonuniform List<scalar> 
3680
(
0.190838
-0.000838306
0.192235
-0.00139684
0.193893
-0.00165897
0.195752
-0.00185931
0.197809
-0.00205704
0.200067
-0.00225822
0.202539
-0.00247239
0.205313
-0.00277431
0.208314
-0.00300155
-0.00461353
0.212927
0.509754
-0.000592403
0.509767
-0.00141019
0.510098
-0.00199026
0.510721
-0.00248254
0.511631
-0.00296694
0.512838
-0.00346565
0.514366
-0.0040008
0.51622
-0.00462833
0.518623
-0.00540468
-0.00657552
0.520584
0.749915
-0.000507188
0.749879
-0.0013748
0.749996
-0.00210689
0.750286
-0.00277301
0.750756
-0.00343688
0.751415
-0.00412473
0.752269
-0.00485504
0.7533
-0.00565979
0.754457
-0.00656193
-0.00759436
0.755476
0.909953
-0.00046001
0.909869
-0.00129081
0.909826
-0.00206493
0.909865
-0.00281168
0.909994
-0.00356624
0.910216
-0.00434704
0.910527
-0.00516577
0.910903
-0.00603613
0.911306
-0.00696503
-0.00794977
0.911661
0.989939
-0.000398746
0.989781
-0.00113305
0.989583
-0.00186753
0.989385
-0.00261394
0.989199
-0.00337976
0.989023
-0.00417133
0.988852
-0.00499513
0.988671
-0.00585563
0.988457
-0.00675047
-0.00766664
0.988173
0.989904
-0.000303244
0.989648
-0.000876604
0.989288
-0.00150798
0.988862
-0.00218835
0.98838
-0.00289716
0.987838
-0.00363012
0.987234
-0.00439064
0.986556
-0.00517769
0.985788
-0.00598318
-0.00679245
0.984914
0.909849
-0.000152567
0.909472
-0.000499212
0.908947
-0.000983324
0.908305
-0.00154705
0.907549
-0.00214101
0.906675
-0.00275646
0.90568
-0.0033956
0.904555
-0.00405317
0.90329
-0.00471795
-0.00537662
0.901874
0.749738
0.000109518
0.749222
1.62793e-05
0.748547
-0.000308306
0.747718
-0.000718556
0.746726
-0.00114911
0.745566
-0.00159701
0.744235
-0.00206397
0.742722
-0.00254098
0.74102
-0.00301606
-0.00347886
0.739122
0.509505
0.000603996
0.508868
0.00065334
0.508123
0.000436391
0.507228
0.000176729
0.506156
-7.80218e-05
0.504897
-0.00033784
0.503438
-0.000605125
0.501767
-0.000870616
0.499876
-0.00112517
-0.00136344
0.49776
0.190604
0.191257
0.191693
0.19187
0.191792
0.191454
0.190848
0.189978
0.188852
0.187489
-1.01553e-05
9.75098e-06
-0.000220262
0.000208966
-0.000575379
0.000353971
-0.000993238
0.000416661
-0.00143393
0.000439409
-0.00188347
0.000448118
-0.00233715
0.000452097
-0.00279248
0.000453596
-0.00324755
0.000453203
-0.00370122
0.000451745
-0.00415367
0.000450502
-0.00460645
0.000450966
-0.0050624
0.00045431
-0.00552494
0.000461192
-0.00599735
0.000471428
-0.00648204
0.000484114
-0.0069799
0.000497732
-0.0074901
0.000510414
-0.00800995
0.000520411
-0.0085355
0.000526228
-0.00906193
0.000527198
-0.00958461
0.000523333
-0.0100998
0.000515657
-0.0106053
0.000505737
-0.0111008
0.000495449
-0.0115875
0.000486354
-0.0120674
0.000479154
-0.0125417
0.000473397
-0.0130103
0.000467279
-0.0134702
0.000458284
-0.013916
0.000443829
-0.0143408
0.000422454
-0.0147383
0.000394648
-0.0151051
0.000363569
0.000335003
-0.0154438
-0.000343895
0.00035249
-0.00116925
0.00103148
-0.00226932
0.00145118
-0.00348492
0.00162929
-0.00473937
0.00169066
-0.00600224
0.00170751
-0.00726139
0.00170745
-0.00851092
0.00169902
-0.00974778
0.00168579
-0.0109716
0.00167117
-0.0121845
0.00165924
-0.0133911
0.00165371
-0.0145974
0.00165729
-0.0158096
0.00167068
-0.0170326
0.00169256
-0.018269
0.00171963
-0.0195188
0.00174731
-0.0207786
0.00177072
-0.0220427
0.00178549
-0.0233042
0.00178903
-0.0245564
0.00178051
-0.0257938
0.00176169
-0.0270134
0.00173574
-0.0282148
0.00170726
-0.0294001
0.00168029
-0.0305726
0.00165783
-0.0317354
0.00164028
-0.0328898
0.00162547
-0.0340341
0.00160874
-0.0351639
0.00158444
-0.0362724
0.0015481
-0.0373535
0.00149854
-0.0384049
0.00144041
-0.0394323
0.00138462
0.00134911
-0.0404531
-0.000845022
0.00119649
-0.00247745
0.00266128
-0.00442599
0.00339719
-0.00646554
0.00366625
-0.00850932
0.00373173
-0.010526
0.00372119
-0.0125035
0.00368172
-0.0144374
0.00362945
-0.0163278
0.00357254
-0.0181787
0.00351839
-0.0199974
0.00347421
-0.0217929
0.00344593
-0.0235752
0.00343661
-0.0253526
0.00344576
-0.027131
0.00346917
-0.0289122
0.00349966
-0.0306939
0.00352853
-0.0324705
0.00354722
-0.0342338
0.00354928
-0.0359759
0.00353141
-0.0376893
0.00349451
-0.0393703
0.0034429
-0.0410181
0.00338382
-0.0426363
0.00332517
-0.0442305
0.00327406
-0.045808
0.00323445
-0.047375
0.00320631
-0.048936
0.00318508
-0.0504918
0.0031629
-0.0520404
0.00313105
-0.053578
0.00308321
-0.0551015
0.00301929
-0.0566126
0.00294791
-0.0581203
0.00288864
0.0028702
-0.059646
-0.00147653
0.00267195
-0.00402217
0.00520455
-0.00683974
0.00621247
-0.00964688
0.00647115
-0.0123672
0.00644972
-0.014984
0.00633555
-0.0174964
0.00619138
-0.0199088
0.00603897
-0.0222294
0.00589017
-0.0244696
0.0057554
-0.0266424
0.00564407
-0.0287623
0.00556298
-0.0308426
0.00551437
-0.0328942
0.00549526
-0.0349242
0.00549751
-0.036935
0.00550934
-0.0389247
0.00551745
-0.0408875
0.00550959
-0.0428158
0.00547731
-0.0447019
0.00541732
-0.0465402
0.00533261
-0.0483286
0.00523101
-0.0500693
0.00512412
-0.0517685
0.00502379
-0.0534353
0.00494023
-0.0550802
0.00487866
-0.056713
0.00483838
-0.0583406
0.00481202
-0.0599661
0.00478763
-0.0615878
0.0047519
-0.0632002
0.00469463
-0.0647963
0.0046138
-0.0663695
0.00451916
-0.0679188
0.00443517
0.00439943
-0.0694513
-0.0022341
0.00490513
-0.0057048
0.00867307
-0.00927132
0.00977707
-0.0126398
0.00983784
-0.0157765
0.0095846
-0.0186981
0.00925532
-0.0214267
0.00891812
-0.0239839
0.008594
-0.0263901
0.00829407
-0.0286654
0.00802826
-0.0308297
0.00780593
-0.0329023
0.00763306
-0.0349008
0.00751038
-0.0368396
0.00743168
-0.038729
0.00738464
-0.0405744
0.0073526
-0.0423761
0.00731717
-0.0441302
0.00726199
-0.0458301
0.00717558
-0.0474684
0.00705455
-0.04904
0.006903
-0.0505423
0.00673274
-0.0519779
0.00655906
-0.0533529
0.00639876
-0.054678
0.0062652
-0.0559652
0.00616626
-0.0572271
0.00610079
-0.0584733
0.00605885
-0.0597081
0.00602322
-0.0609294
0.00597364
-0.0621271
0.00589292
-0.0632858
0.00577215
-0.0643846
0.00561757
-0.0654038
0.00545228
0.0053195
-0.0663261
-0.00312331
0.00802752
-0.00739886
0.0129468
-0.0113773
0.0137539
-0.0148728
0.0133319
-0.0179548
0.0126653
-0.0206978
0.011997
-0.0231584
0.0113772
-0.0253807
0.0108146
-0.0273995
0.0103109
-0.0292431
0.00986965
-0.0309362
0.00949643
-0.0325014
0.00919536
-0.0339591
0.00896506
-0.0353274
0.00879668
-0.03662
0.00867401
-0.0378464
0.00857566
-0.0390102
0.00847808
-0.0401103
0.00835922
-0.0411409
0.00820408
-0.0420954
0.00800727
-0.0429672
0.00777378
-0.0437521
0.00751707
-0.0444491
0.00725632
-0.0450616
0.00701186
-0.0455968
0.00680163
-0.0460659
0.00663686
-0.0464816
0.00651833
-0.0468556
0.00643488
-0.0471955
0.00636506
-0.0475018
0.00628205
-0.047767
0.00615959
-0.0479729
0.00597963
-0.048093
0.00573772
-0.0480909
0.00544979
0.00515308
-0.0479275
-0.00415095
0.0121776
-0.00886527
0.0176593
-0.0125165
0.0174036
-0.0153224
0.0161367
-0.0175616
0.0149034
-0.0193823
0.0138167
-0.0208742
0.012868
-0.0221035
0.0120424
-0.0231168
0.0113222
-0.0239453
0.0106956
-0.024612
0.01016
-0.0251362
0.00971581
-0.025535
0.00935984
-0.0258241
0.00908146
-0.0260165
0.00886209
-0.0261225
0.00867763
-0.0261483
0.00850047
-0.0260948
0.00830284
-0.0259598
0.00806703
-0.0257414
0.00778743
-0.0254374
0.00746909
-0.0250461
0.00712561
-0.0245661
0.00677662
-0.023996
0.00644239
-0.0233346
0.00614135
-0.0225827
0.00588625
-0.0217416
0.00567892
-0.0208132
0.0055084
-0.0197989
0.00535287
-0.018699
0.0051844
-0.0175123
0.00497523
-0.0162354
0.00470448
-0.01486
0.00436326
-0.01337
0.00395898
0.00351819
-0.0117381
-0.00528701
0.0174638
-0.00923772
0.0216083
-0.0108638
0.0190284
-0.0114266
0.0166984
-0.0115068
0.0149829
-0.0112589
0.0135681
-0.0107562
0.0123644
-0.0100714
0.0113563
-0.00925376
0.0105024
-0.00832704
0.00976595
-0.00730106
0.0091302
-0.00617782
0.008588
-0.00495397
0.0081309
-0.00362275
0.00774502
-0.00217687
0.00741114
-0.000609798
0.00710616
0.00107826
0.00680881
0.00287383
0.00650479
0.00475517
0.00618395
0.00670189
0.00583979
0.00869854
0.00547188
0.010738
0.00508599
0.0128229
0.00469159
0.0149672
0.00429823
0.0171915
0.00391714
0.01952
0.00355813
0.0219779
0.00322171
0.0245872
0.00290006
0.0273624
0.00257909
0.0303078
0.0022405
0.0334195
0.00186519
0.0366883
0.00143696
0.0401058
0.000946516
0.0436694
0.00039485
-0.000205622
0.0473916
-0.00518271
0.0226457
-0.00334099
0.0197649
0.00109329
0.0145927
0.00544344
0.0123473
0.00950848
0.0109171
0.0134593
0.00961667
0.0173193
0.0085036
0.0210819
0.00759245
0.0247602
0.00682226
0.0283794
0.00614448
0.0319674
0.00553937
0.0355532
0.00499906
0.0391645
0.00451651
0.0428238
0.00408272
0.046546
0.00368643
0.0503357
0.00331452
0.0541892
0.0029539
0.0580999
0.00259322
0.0620602
0.00222327
0.0660625
0.00183719
0.070103
0.00143132
0.0741833
0.00100556
0.0783122
0.000562516
0.0825022
0.000107957
0.0867729
-0.000353845
0.0911544
-0.000823623
0.0956798
-0.00130379
0.100379
-0.00179933
0.105278
-0.00231889
0.110393
-0.00287415
0.115737
-0.00347814
0.121317
-0.00414311
0.127142
-0.0048785
0.133226
-0.00568945
-0.00657626
0.139596
0.0239891
-0.0013443
0.0415641
0.0021887
0.0542401
0.00191579
0.0650325
0.00155431
0.0746013
0.00134777
0.0831991
0.00101838
0.0910982
0.000603878
0.0985038
0.000186043
0.105545
-0.000219949
0.112308
-0.000620002
0.118859
-0.00101308
0.125252
-0.00139488
0.13153
-0.00176335
0.137731
-0.00211977
0.143885
-0.0024681
0.150013
-0.00281434
0.156132
-0.00316562
0.162255
-0.00352917
0.16839
-0.00391182
0.174546
-0.00431935
0.180734
-0.00475597
0.186963
-0.00522405
0.19325
-0.00572437
0.199615
-0.00625706
0.206083
-0.00682204
0.212679
-0.00742023
0.219429
-0.00805472
0.226361
-0.00873103
0.233499
-0.00945704
0.240868
-0.0102426
0.248488
-0.0110985
0.25638
-0.0120354
0.264564
-0.0130624
0.273061
-0.0141863
-0.0154115
0.281895
0.218071
-0.00648793
0.226707
-0.00644798
0.235105
-0.00648267
0.243362
-0.00670329
0.251576
-0.00686584
0.259609
-0.0070155
0.26742
-0.00720703
0.275036
-0.00742982
0.282481
-0.00766631
0.289773
-0.00791223
0.296926
-0.00816719
0.30396
-0.00842964
0.310895
-0.0086987
0.31775
-0.0089756
0.324545
-0.00926372
0.331299
-0.009568
0.338027
-0.00989426
0.344747
-0.0102487
0.351472
-0.0106371
0.358218
-0.0110649
0.364998
-0.0115362
0.371828
-0.0120543
0.378725
-0.0126211
0.385706
-0.0132385
0.392792
-0.0139082
0.400005
-0.0146329
0.407367
-0.0154166
0.4149
-0.016265
0.422629
-0.0171857
0.430574
-0.0181874
0.438755
-0.0192796
0.447191
-0.0204718
0.455901
-0.0217724
0.464903
-0.0231886
-0.0247262
0.474217
0.521931
-0.00783509
0.524041
-0.00855796
0.526513
-0.00895446
0.52918
-0.00937084
0.532104
-0.00978931
0.535259
-0.0101713
0.53859
-0.0105382
0.542065
-0.0109045
0.545666
-0.0112682
0.549381
-0.011627
0.553196
-0.0119827
0.557104
-0.0123382
0.561101
-0.0126963
0.565186
-0.0130605
0.569358
-0.0134361
0.573619
-0.013829
0.577971
-0.0142461
0.582416
-0.0146942
0.586959
-0.0151798
0.591603
-0.015709
0.596354
-0.0162867
0.601217
-0.0169174
0.6062
-0.0176045
0.611312
-0.018351
0.616565
-0.0191604
0.621968
-0.0200363
0.627535
-0.0209836
0.633278
-0.0220083
0.639209
-0.0231174
0.645341
-0.0243191
0.651683
-0.0256218
0.658245
-0.0270338
0.665036
-0.028563
0.672063
-0.0302162
-0.0319993
0.679335
0.75632
-0.00867954
0.757332
-0.00957031
0.75859
-0.0102128
0.759996
-0.0107765
0.761526
-0.0113197
0.763179
-0.0118241
0.764933
-0.0122919
0.766767
-0.012739
0.768672
-0.0131737
0.770643
-0.0135982
0.772676
-0.0140155
0.774767
-0.0144301
0.776917
-0.0148464
0.779126
-0.0152697
0.781395
-0.0157056
0.783727
-0.0161608
0.786123
-0.0166421
0.788585
-0.0171565
0.791116
-0.0177108
0.793718
-0.0183111
0.796395
-0.0189629
0.799148
-0.0196709
0.801983
-0.0204395
0.804905
-0.0212724
0.807918
-0.0221735
0.811028
-0.0231473
0.814243
-0.0241985
0.817568
-0.0253328
0.821007
-0.0265569
0.824565
-0.0278775
0.828245
-0.029302
0.832049
-0.0308374
0.835976
-0.0324904
0.840026
-0.0342669
-0.0361722
0.844199
0.911928
-0.00894672
0.912202
-0.00984451
0.912575
-0.0105859
0.913027
-0.0112285
0.913532
-0.0118246
0.914088
-0.0123799
0.914691
-0.0128947
0.915331
-0.0133794
0.916001
-0.013844
0.916697
-0.0142941
0.917415
-0.0147339
0.918153
-0.0151686
0.91891
-0.0156037
0.919685
-0.0160451
0.920479
-0.0164992
0.92129
-0.0169724
0.92212
-0.0174718
0.922967
-0.0180041
0.923832
-0.0185758
0.924714
-0.0191931
0.925613
-0.0198615
0.926528
-0.0205858
0.927459
-0.0213704
0.928406
-0.0222194
0.929369
-0.0231369
0.930349
-0.0241271
0.931345
-0.0251946
0.932356
-0.0263443
0.933381
-0.0275818
0.934416
-0.0289128
0.935458
-0.0303432
0.936498
-0.0318783
0.937531
-0.0335234
0.938547
-0.035283
-0.0371609
0.939535
0.987799
-0.00857274
0.98737
-0.00941522
0.986941
-0.010157
0.986523
-0.0108111
0.986107
-0.011408
0.985687
-0.0119607
0.985265
-0.0124724
0.984835
-0.0129499
0.984393
-0.0134019
0.983934
-0.0138357
0.983457
-0.0142568
0.982959
-0.0146707
0.982439
-0.0150835
0.981895
-0.0155013
0.981326
-0.0159303
0.98073
-0.016377
0.980106
-0.0168478
0.979451
-0.017349
0.978762
-0.0178866
0.978035
-0.0184662
0.977266
-0.019093
0.976452
-0.0197714
0.975587
-0.0205056
0.974667
-0.0212993
0.973686
-0.0221563
0.972639
-0.0230801
0.971519
-0.0240747
0.970319
-0.025144
0.969029
-0.0262921
0.967639
-0.0275233
0.966138
-0.0288417
0.96451
-0.030251
0.962741
-0.0317544
0.960813
-0.0333547
-0.0350537
0.958705
0.983924
-0.00758334
0.982835
-0.00832645
0.981677
-0.00899824
0.980463
-0.00959774
0.979195
-0.0101399
0.977871
-0.0106366
0.976492
-0.0110935
0.975058
-0.0115161
0.973567
-0.0119118
0.972019
-0.0122877
0.970412
-0.0126497
0.968744
-0.0130035
0.967015
-0.0133546
0.965223
-0.0137088
0.963364
-0.0140719
0.961437
-0.0144495
0.959436
-0.0148472
0.957357
-0.0152705
0.955195
-0.0157245
0.952943
-0.016214
0.950593
-0.0167432
0.948138
-0.0173158
0.945567
-0.0179353
0.942873
-0.0186046
0.940043
-0.0193267
0.937067
-0.0201042
0.933932
-0.0209398
0.930624
-0.021836
0.927127
-0.0227956
0.923425
-0.023821
0.919497
-0.0249143
0.915323
-0.0260772
0.91088
-0.0273109
0.906141
-0.0286158
-0.0299917
0.901079
0.900304
-0.00601361
0.898589
-0.00661105
0.896744
-0.00715409
0.894786
-0.00763905
0.892719
-0.008073
0.890547
-0.00846481
0.888273
-0.00882042
0.885902
-0.00914479
0.883434
-0.0094438
0.880869
-0.00972354
0.878209
-0.00998949
0.875452
-0.0102466
0.872597
-0.0104997
0.869641
-0.0107536
0.866582
-0.011013
0.863415
-0.0112827
0.860135
-0.011567
0.856735
-0.0118701
0.853206
-0.012196
0.84954
-0.0125481
0.845727
-0.0129295
0.841754
-0.0133429
0.837609
-0.0137906
0.833279
-0.0142745
0.828748
-0.0147962
0.824001
-0.0153573
0.81902
-0.0159591
0.813787
-0.0166026
0.80828
-0.0172888
0.802477
-0.0180184
0.796354
-0.0187916
0.789885
-0.0196082
0.783041
-0.0204674
0.775793
-0.0213675
-0.0223066
0.768108
0.737028
-0.00391946
0.734744
-0.00432735
0.732284
-0.00469381
0.729661
-0.00501603
0.726885
-0.00529766
0.723965
-0.0055448
0.720907
-0.0057625
0.717716
-0.0059549
0.714399
-0.00612647
0.710957
-0.00628186
0.707393
-0.00642543
0.703707
-0.00656105
0.6999
-0.00669234
0.695969
-0.00682284
0.691912
-0.00695592
0.687724
-0.00709476
0.683399
-0.00724232
0.67893
-0.0074013
0.674308
-0.00757411
0.669523
-0.00776282
0.664562
-0.00796916
0.659414
-0.0081945
0.654063
-0.00843992
0.648495
-0.00870617
0.642692
-0.00899376
0.636638
-0.00930296
0.630312
-0.00963385
0.623696
-0.00998626
0.616767
-0.0103598
0.609502
-0.0107538
0.601877
-0.0111673
0.593868
-0.0115987
0.585446
-0.0120461
0.576586
-0.012507
-0.0129783
0.567258
0.495422
-0.00158141
0.492869
-0.00177489
0.490116
-0.00194053
0.487177
-0.0020778
0.484069
-0.00218941
0.480803
-0.00227955
0.477392
-0.00235192
0.473847
-0.00240954
0.470175
-0.00245531
0.466385
-0.00249218
0.462482
-0.00252277
0.458471
-0.00254939
0.454352
-0.002574
0.450128
-0.00259846
0.445796
-0.0026244
0.441354
-0.00265333
0.436799
-0.00268646
0.432122
-0.00272491
0.427317
-0.00276948
0.422375
-0.00282089
0.417286
-0.0028795
0.412037
-0.00294563
0.406616
-0.00301925
0.40101
-0.00310031
0.395205
-0.00318847
0.389185
-0.00328341
0.382935
-0.0033845
0.37644
-0.00349119
0.369683
-0.0036026
0.362647
-0.00371788
0.355315
-0.00383581
0.347671
-0.00395518
0.3397
-0.00407435
0.331384
-0.00419171
-0.0043052
0.322712
0.185907
0.184132
0.182192
0.180114
0.177924
0.175644
0.173292
0.170883
0.168427
0.165935
0.163412
0.160862
0.158288
0.15569
0.153065
0.150412
0.147725
0.145
0.142231
0.13941
0.13653
0.133585
0.130565
0.127465
0.124277
0.120993
0.117608
0.114117
0.110515
0.106797
0.102961
0.0990055
0.0949312
0.0907396
0.0864345
-0.0157647
0.00031696
-0.0160873
0.000318851
-0.0164408
0.00035017
-0.0168619
0.00041893
-0.0173919
0.000529052
-0.01807
0.000679173
-0.0189271
0.000859714
-0.0199758
0.00105315
-0.0212029
0.00123256
0.00136734
-0.0225637
-0.0414985
0.00135559
-0.0426135
0.00142789
-0.0438537
0.00158582
-0.0452786
0.00184163
-0.0469419
0.00219312
-0.0488805
0.00262129
-0.0511031
0.00308904
-0.0535851
0.00354331
-0.0562649
0.00392243
0.00416635
-0.059054
-0.0612229
0.00292813
-0.0628968
0.00309723
-0.0647197
0.00340538
-0.0667434
0.00386304
-0.0690075
0.00445657
-0.0715288
0.00514368
-0.0742939
0.0058566
-0.0772573
0.00651035
-0.0803466
0.007016
0.00729799
-0.0834738
-0.0709861
0.00445884
-0.0725522
0.00465927
-0.0741863
0.00503559
-0.0759244
0.005598
-0.0777928
0.00632304
-0.0797984
0.00714877
-0.0819234
0.00798197
-0.0841243
0.00871294
-0.0863382
0.00923174
0.00945158
-0.0884886
-0.0671455
0.00527402
-0.0678649
0.00537457
-0.0684994
0.00566491
-0.0690682
0.00616251
-0.0695907
0.00684181
-0.0700746
0.00762981
-0.0705092
0.0084154
-0.0708684
0.00907131
-0.0711104
0.00947557
0.00952779
-0.0711839
-0.047563
0.00490563
-0.0469666
0.00477151
-0.0461166
0.00480753
-0.0450062
0.00504385
-0.0436423
0.00546939
-0.0420258
0.00600645
-0.0401345
0.00651802
-0.0379382
0.00687271
-0.0354148
0.00695191
0.0066606
-0.032543
-0.00992497
0.00308678
-0.0078765
0.00271514
-0.00552046
0.00244175
-0.00276523
0.0022779
0.000505111
0.00218902
0.00439147
0.00211172
0.00891693
0.00198754
0.0140439
0.00174386
0.019703
0.00129498
0.000573459
0.0257957
0.0513146
-0.000839273
0.0555157
-0.00148958
0.0600939
-0.00214038
0.0651545
-0.00278642
0.0707829
-0.00344244
0.0770336
-0.00414118
0.0839456
-0.004925
0.0915365
-0.00584628
0.0997975
-0.00696368
-0.00833242
0.108707
0.14629
-0.00753472
0.153358
-0.0085593
0.160863
-0.00964706
0.168877
-0.0108018
0.177471
-0.0120378
0.186709
-0.01338
0.196646
-0.014862
0.207325
-0.0165238
0.218773
-0.0184098
-0.0205628
0.231005
0.2911
-0.0167399
0.300713
-0.0181734
0.31078
-0.0197157
0.321353
-0.0213751
0.332481
-0.0231664
0.344212
-0.0251115
0.356589
-0.0272385
0.369646
-0.0295797
0.383407
-0.0321692
-0.0350395
0.397885
0.483866
-0.0263896
0.493876
-0.0281838
0.504275
-0.0301151
0.515093
-0.0321932
0.526358
-0.034432
0.538097
-0.0368501
0.550328
-0.0394699
0.563066
-0.042316
0.576311
-0.0454133
-0.0487841
0.590056
0.686863
-0.0339177
0.694656
-0.035977
0.702724
-0.0381839
0.711078
-0.0405475
0.719725
-0.0430793
0.728669
-0.0457936
0.737906
-0.0487069
0.747427
-0.0518363
0.757213
-0.0551979
-0.0588046
0.767234
0.848492
-0.0382111
0.852903
-0.0403885
0.857429
-0.0427102
0.862065
-0.0451828
0.8668
-0.0478149
0.871623
-0.0506159
0.876513
-0.0535962
0.881443
-0.0567657
0.886378
-0.0601322
-0.0637004
0.891275
0.940485
-0.0391606
0.941382
-0.0412855
0.94221
-0.043539
0.942953
-0.0459252
0.943587
-0.0484484
0.944084
-0.0511133
0.944413
-0.0539241
0.944532
-0.0568838
0.944393
-0.0599931
-0.0632487
0.943942
0.956398
-0.0368529
0.953865
-0.0387533
0.951082
-0.0407557
0.948018
-0.0428604
0.944637
-0.0450678
0.940902
-0.0473776
0.936767
-0.0497882
0.93218
-0.0522965
0.927084
-0.0548964
-0.0575784
0.921415
0.895663
-0.0314376
0.889862
-0.0329518
0.883639
-0.0345322
0.876954
-0.0361758
0.869766
-0.0378791
0.862026
-0.0396372
0.853683
-0.0414442
0.844679
-0.0432918
0.834953
-0.0451694
-0.047063
0.824438
0.759952
-0.0232813
0.751288
-0.0242882
0.742079
-0.0253227
0.732284
-0.0263798
0.721858
-0.0274532
0.710758
-0.028536
0.698934
-0.0296196
0.686337
-0.0306943
0.672917
-0.0317479
-0.0327664
0.658621
0.557433
-0.0134566
0.547083
-0.0139376
0.536178
-0.0144167
0.524688
-0.0148889
0.512584
-0.0153485
0.499838
-0.0157893
0.486424
-0.0162043
0.472317
-0.016586
0.457497
-0.016926
-0.0172152
0.441947
0.313668
-0.00441286
0.304244
-0.00451233
0.294429
-0.00460145
0.28422
-0.00467773
0.273611
-0.00473892
0.262606
-0.00478251
0.25121
-0.0048063
0.239434
-0.00480792
0.227295
-0.00478535
-0.00473667
0.214818
0.082022
0.0775101
0.0729093
0.0682322
0.0634941
0.0587124
0.0539069
0.0490998
0.0443153
0.0395793
-0.023986
0.00142853
-0.0253798
0.00139997
-0.026658
0.00128246
-0.027754
0.00109877
-0.0286443
0.000890442
-0.0293579
0.000712255
-0.0299768
0.000616107
-0.0306205
0.000640538
-0.0314259
0.000802491
-0.0325279
0.00110037
-0.0340414
0.00151427
-0.0360513
0.00201262
-0.0386063
0.00255964
-0.0417338
0.00313337
-0.045481
0.00375398
-0.0499844
0.00450911
-0.0555196
0.00553929
-0.0624942
0.00697655
-0.071357
0.00886372
-0.0824321
0.0110767
-0.0957013
0.0132702
-0.110596
0.0148948
-0.125948
0.0153486
-0.140189
0.0142361
-0.151764
0.0115697
-0.159484
0.00771597
-0.162675
0.00318829
-0.1613
-0.0013763
-0.155833
-0.00546782
-0.146704
-0.00912929
-0.134115
-0.0125919
-0.118228
-0.0158899
-0.0991884
-0.0190436
-0.0772851
-0.0219065
-0.0244318
-0.0528559
-0.0618494
0.00423351
-0.0645565
0.00411445
-0.06711
0.00384043
-0.069495
0.00348434
-0.0717592
0.00315189
-0.0740149
0.0029627
-0.0764267
0.00302165
-0.0791847
0.00339276
-0.0824726
0.00408694
-0.0864344
0.0050621
-0.0911493
0.00623324
-0.096618
0.00748911
-0.102772
0.00872393
-0.109505
0.00987803
-0.116718
0.0109794
-0.124351
0.0121519
-0.132362
0.0135559
-0.140668
0.0152843
-0.149057
0.0172531
-0.157094
0.0191138
-0.164054
0.0202303
-0.168943
0.0197815
-0.17065
0.0170502
-0.168224
0.0118015
-0.161273
0.00460932
-0.150284
-0.00328015
-0.136357
-0.010743
-0.120209
-0.0175251
-0.101711
-0.0239664
-0.0805492
-0.0302927
-0.0566798
-0.0364655
-0.0301725
-0.0424038
-0.00123524
-0.0479873
0.0300439
-0.0531909
-0.0579151
0.0635232
-0.0865503
0.00731465
-0.0895044
0.00707215
-0.0922943
0.00663327
-0.0949211
0.00611269
-0.0974341
0.0056658
-0.0999294
0.00545931
-0.102535
0.00562848
-0.105378
0.00623879
-0.108556
0.00726773
-0.112098
0.00860903
-0.115945
0.0100858
-0.119936
0.0114868
-0.123822
0.0126172
-0.127298
0.013362
-0.13004
0.0137305
-0.131731
0.0138487
-0.132054
0.0138824
-0.130697
0.0139262
-0.127339
0.0138935
-0.121664
0.0134376
-0.113398
0.0119641
-0.102364
0.00874567
-0.0885109
0.00319268
-0.0722148
-0.00450133
-0.0541969
-0.0134149
-0.034938
-0.0225428
-0.0142295
-0.0314518
0.00838488
-0.0401376
0.0331456
-0.0487264
0.0600906
-0.0572392
0.0892018
-0.0655797
0.12041
-0.0736156
0.153612
-0.081192
0.188599
-0.0881807
-0.0944571
0.225139
-0.0904977
0.00932703
-0.0922931
0.00887223
-0.0938181
0.00816305
-0.0950384
0.0073382
-0.0959523
0.00658576
-0.0965954
0.00610892
-0.0970241
0.00606418
-0.0972888
0.00650969
-0.0974053
0.00739031
-0.097327
0.00853583
-0.0969222
0.0096863
-0.095973
0.0105428
-0.0941849
0.0108351
-0.0912123
0.0103965
-0.0866828
0.00920888
-0.0802339
0.00740663
-0.0715957
0.00524622
-0.0606432
0.00297104
-0.0473603
0.000606062
-0.0318156
-0.00210868
-0.0141361
-0.00571494
0.00549413
-0.0108826
0.0266463
-0.0179582
0.0488206
-0.0266744
0.0718344
-0.036427
0.0960113
-0.0467177
0.121801
-0.0572397
0.149509
-0.0678434
0.179209
-0.0784257
0.210829
-0.0888602
0.24421
-0.0989626
0.279122
-0.108529
0.315292
-0.117364
0.352408
-0.125298
-0.132204
0.390154
-0.0710271
0.00917591
-0.0705734
0.00842584
-0.0697484
0.00734632
-0.0684707
0.00606907
-0.0666651
0.00478802
-0.0642936
0.00374416
-0.0613522
0.00312888
-0.0578555
0.00301784
-0.0538006
0.0033407
-0.0490881
0.0038299
-0.0435252
0.0041325
-0.036877
0.003906
-0.0288929
0.00286452
-0.0193525
0.000871407
-0.00815797
-0.00197049
0.00461702
-0.00535861
0.0189171
-0.009053
0.0349327
-0.0130493
0.0529985
-0.0174645
0.0733837
-0.0224959
0.0961228
-0.0284536
0.120898
-0.0356566
0.147215
-0.0442728
0.174754
-0.0542113
0.203511
-0.0651824
0.233615
-0.0768193
0.265172
-0.088795
0.298176
-0.100846
0.33249
-0.112739
0.36787
-0.124241
0.404014
-0.135107
0.440585
-0.145102
0.477233
-0.154013
0.513608
-0.161674
-0.167979
0.549381
-0.0293105
0.0059514
-0.0257182
0.00484479
-0.0217796
0.00341956
-0.0175022
0.00180204
-0.0128787
0.000171817
-0.00784523
-0.00128505
-0.00226631
-0.0024493
0.00410773
-0.00335536
0.0116529
-0.0042011
0.0206826
-0.00519111
0.0313329
-0.00650468
0.0435831
-0.00832914
0.0573007
-0.0108383
0.0723265
-0.0141421
0.088596
-0.0182315
0.106239
-0.0229979
0.125527
-0.0283409
0.146721
-0.0342458
0.170024
-0.0407702
0.195551
-0.0480241
0.22326
-0.0561619
0.252936
-0.0653323
0.284262
-0.0755975
0.31692
-0.0868687
0.35065
-0.0989116
0.385244
-0.111411
0.420494
-0.124044
0.456155
-0.136506
0.491924
-0.148508
0.527457
-0.159773
0.56239
-0.170042
0.596366
-0.179079
0.629047
-0.186694
0.660128
-0.192756
-0.197199
0.689347
0.0322161
-0.000461124
0.0388911
-0.00182194
0.0458038
-0.00348682
0.0530036
-0.00539459
0.0606326
-0.00745754
0.0689407
-0.00959612
0.0782505
-0.0117633
0.0888611
-0.0139695
0.100962
-0.0163035
0.114666
-0.0188926
0.130038
-0.0218705
0.147087
-0.0253709
0.16577
-0.0295144
0.186019
-0.0343841
0.207795
-0.0400023
0.231136
-0.0463356
0.256132
-0.0533372
0.282872
-0.0609866
0.311396
-0.0692955
0.341669
-0.0782977
0.373543
-0.0880366
0.40675
-0.0985391
0.440926
-0.109773
0.475668
-0.12161
0.510583
-0.133826
0.545303
-0.146131
0.579476
-0.158216
0.612747
-0.169776
0.644756
-0.180517
0.675152
-0.190169
0.703604
-0.198494
0.729816
-0.205291
0.753537
-0.210416
0.774567
-0.213786
-0.215389
0.792756
0.118243
-0.00999397
0.128394
-0.01197
0.139169
-0.0142607
0.150621
-0.0168471
0.162856
-0.0196956
0.176028
-0.0227725
0.19032
-0.0260592
0.205914
-0.0295673
0.222956
-0.0333471
0.241539
-0.0374754
0.261709
-0.0420386
0.283466
-0.0471233
0.306762
-0.0528061
0.33152
-0.0591386
0.357656
-0.0661347
0.385095
-0.0737724
0.413769
-0.0820109
0.443593
-0.090811
0.474439
-0.100143
0.506121
-0.10998
0.538377
-0.120292
0.570867
-0.131029
0.60319
-0.142097
0.63492
-0.153341
0.665635
-0.164541
0.694936
-0.175432
0.72245
-0.18573
0.74783
-0.195155
0.770759
-0.203444
0.790952
-0.210363
0.808174
-0.215715
0.822235
-0.219352
0.833003
-0.221184
0.840402
-0.221186
-0.219399
0.844412
0.244031
-0.023018
0.257861
-0.0257984
0.272514
-0.0289132
0.288024
-0.0323578
0.304444
-0.0361182
0.321847
-0.0401778
0.340311
-0.0445271
0.359914
-0.0491723
0.380706
-0.0541401
0.402703
-0.0594732
0.425887
-0.0652205
0.450195
-0.0714298
0.475531
-0.0781394
0.501764
-0.0853685
0.528741
-0.0931104
0.556302
-0.101332
0.584274
-0.109982
0.612465
-0.119002
0.640653
-0.128331
0.668576
-0.137904
0.695929
-0.147645
0.722361
-0.157461
0.74749
-0.167226
0.770924
-0.176775
0.792281
-0.185898
0.811208
-0.194359
0.827389
-0.201909
0.840545
-0.208311
0.850445
-0.213344
0.856906
-0.216824
0.859801
-0.218609
0.859062
-0.218612
0.854684
-0.216806
0.846725
-0.213227
-0.20798
0.835306
0.413086
-0.0382172
0.429008
-0.0417197
0.445649
-0.0455538
0.463006
-0.0497161
0.481082
-0.0541956
0.499881
-0.0589782
0.519404
-0.0640524
0.539646
-0.0694155
0.56058
-0.075075
0.582154
-0.0810476
0.604287
-0.0873527
0.626866
-0.0940072
0.649747
-0.101019
0.672761
-0.108381
0.695719
-0.116067
0.718417
-0.124029
0.740641
-0.132206
0.762161
-0.140523
0.782729
-0.148899
0.802073
-0.157247
0.819896
-0.165467
0.835879
-0.173444
0.84969
-0.181038
0.861
-0.188085
0.869499
-0.194397
0.874908
-0.199767
0.876992
-0.203992
0.875562
-0.206881
0.870489
-0.208269
0.8617
-0.208035
0.849196
-0.206104
0.833045
-0.202461
0.813393
-0.197153
0.790455
-0.190289
-0.182042
0.764517
0.604286
-0.0524455
0.618973
-0.0564067
0.634088
-0.0606683
0.649594
-0.0652227
0.665454
-0.0700559
0.681625
-0.0751505
0.698061
-0.0804896
0.714705
-0.0860602
0.731484
-0.0918548
0.748306
-0.0978697
0.765056
-0.104102
0.781594
-0.110545
0.797759
-0.117183
0.813369
-0.12399
0.828225
-0.130923
0.842118
-0.137922
0.854828
-0.144915
0.866124
-0.151819
0.875766
-0.15854
0.883497
-0.164978
0.889051
-0.171022
0.892156
-0.176548
0.892538
-0.18142
0.889938
-0.185486
0.884127
-0.188585
0.874915
-0.190555
0.862165
-0.191242
0.845805
-0.19052
0.825833
-0.188296
0.802326
-0.184527
0.775444
-0.179222
0.745435
-0.172451
0.712627
-0.164344
0.677423
-0.155084
-0.144906
0.640287
0.777454
-0.0626643
0.787826
-0.0667782
0.798298
-0.0711401
0.808812
-0.0757367
0.819305
-0.0805493
0.829709
-0.0855555
0.839951
-0.0907319
0.849946
-0.0960561
0.859599
-0.101508
0.868797
-0.107067
0.877409
-0.112714
0.885288
-0.118423
0.892267
-0.124162
0.898164
-0.129887
0.902785
-0.135543
0.905926
-0.141062
0.907374
-0.146363
0.906913
-0.151357
0.90432
-0.155947
0.899372
-0.160029
0.891845
-0.163494
0.881524
-0.166226
0.868212
-0.168108
0.851744
-0.169017
0.831999
-0.168839
0.808915
-0.16747
0.782502
-0.164828
0.752852
-0.160869
0.720146
-0.155589
0.684656
-0.149036
0.646746
-0.141311
0.606863
-0.132568
0.565528
-0.123007
0.523313
-0.112868
-0.102412
0.48082
0.896081
-0.0674699
0.900737
-0.0714342
0.905178
-0.0755807
0.909332
-0.0798903
0.913121
-0.0843386
0.916463
-0.0888976
0.919268
-0.0935372
0.921437
-0.0982261
0.922863
-0.102933
0.923421
-0.107626
0.922977
-0.112269
0.921379
-0.116825
0.918463
-0.121246
0.914056
-0.125479
0.907974
-0.12946
0.90003
-0.133117
0.890036
-0.136369