/*--------------------------------*- C++ -*----------------------------------*\
| =========                 |                                                 |
| \\      /  F ield         | OpenFOAM: The Open Source CFD Toolbox           |
|  \\    /   O peration     | Version:  2406                                  |
|   \\  /    A nd           | Website:  www.openfoam.com                      |
|    \\/     M anipulation  |                                                 |
\*---------------------------------------------------------------------------*/
FoamFile
{
    version     2.0;
    format      ascii;
    arch        "LSB;label=32;scalar=64";
    class       volVectorField;
    location    "143";
    object      U;
}
// * * * * * * * * * * * * * * * * * * * * * * * * * * * * * * * * * * * * * //

dimensions      [0 1 -1 0 0 0 0];

internalField   nonuniform List<vector> 
1900
(
(1.89929 -0.0055057 0)
(1.91229 -0.0115952 0)
(1.93022 -0.0136277 0)
(1.94838 -0.0141695 0)
(1.9675 -0.0144883 0)
(1.98878 -0.0148557 0)
(2.01246 -0.0152788 0)
(2.03808 -0.0166386 0)
(2.06824 -0.0153861 0)
(2.0849 -0.0385332 0)
(5.09539 -0.00565215 0)
(5.09528 -0.0139543 0)
(5.0989 -0.0192278 0)
(5.1039 -0.023177 0)
(5.11113 -0.0268863 0)
(5.1215 -0.0306663 0)
(5.13512 -0.0346787 0)
(5.15204 -0.0394406 0)
(5.17228 -0.0453127 0)
(5.19512 -0.05476 0)
(7.49676 -0.00504392 0)
(7.4971 -0.0136027 0)
(7.49932 -0.0204207 0)
(7.50153 -0.0264226 0)
(7.50483 -0.0323432 0)
(7.51024 -0.0384666 0)
(7.51782 -0.0449959 0)
(7.52728 -0.0523556 0)
(7.53824 -0.0609629 0)
(7.54964 -0.0721407 0)
(9.09732 -0.00457161 0)
(9.09752 -0.0131104 0)
(9.09862 -0.0208567 0)
(9.0988 -0.0281936 0)
(9.09916 -0.0355355 0)
(9.10068 -0.0431106 0)
(9.10339 -0.0510906 0)
(9.10693 -0.0597051 0)
(9.11092 -0.0691364 0)
(9.11488 -0.0794381 0)
(9.89748 -0.00408308 0)
(9.89721 -0.0120404 0)
(9.89713 -0.0197614 0)
(9.89538 -0.0274193 0)
(9.89299 -0.0352005 0)
(9.89095 -0.0432323 0)
(9.88928 -0.051615 0)
(9.88763 -0.060438 0)
(9.88571 -0.0697116 0)
(9.8833 -0.0793041 0)
(9.8974 -0.00334135 0)
(9.89652 -0.01008 0)
(9.89517 -0.0170432 0)
(9.89146 -0.0242926 0)
(9.88645 -0.0318092 0)
(9.88111 -0.0395996 0)
(9.87544 -0.0476968 0)
(9.86913 -0.0561074 0)
(9.86195 -0.0647706 0)
(9.85377 -0.0735375 0)
(9.09707 -0.00217919 0)
(9.09543 -0.0070552 0)
(9.09277 -0.0127291 0)
(9.08713 -0.0189856 0)
(9.07965 -0.0255661 0)
(9.07128 -0.0324041 0)
(9.06201 -0.0395106 0)
(9.05151 -0.0468489 0)
(9.03959 -0.0543192 0)
(9.02619 -0.0617748 0)
(7.49634 -0.000365784 0)
(7.49362 -0.00266699 0)
(7.48964 -0.00675117 0)
(7.4823 -0.0117396 0)
(7.47271 -0.0170137 0)
(7.46175 -0.0224672 0)
(7.44938 -0.0281255 0)
(7.43525 -0.0339282 0)
(7.4192 -0.0397547 0)
(7.4012 -0.045477 0)
(5.09483 0.00211001 0)
(5.09048 0.0032863 0)
(5.08563 0.00146265 0)
(5.07768 -0.0016444 0)
(5.06743 -0.00503568 0)
(5.05562 -0.00856023 0)
(5.04212 -0.012249 0)
(5.02656 -0.0160296 0)
(5.00877 -0.0197795 0)
(4.98873 -0.0233967 0)
(1.89877 0.00362149 0)
(1.90717 0.00641539 0)
(1.91552 0.00568907 0)
(1.91909 0.00389173 0)
(1.91903 0.00212019 0)
(1.91669 0.000461997 0)
(1.91205 -0.00114144 0)
(1.90475 -0.00264553 0)
(1.89475 -0.00398394 0)
(1.88224 -0.0051266 0)
(0.000299253 -0.000363766 0)
(-0.000815117 9.96015e-05 0)
(-0.00376178 0.000488753 0)
(-0.00774802 0.000641278 0)
(-0.0121046 0.000698603 0)
(-0.0165796 0.000730702 0)
(-0.0211045 0.000755801 0)
(-0.0256539 0.000773998 0)
(-0.0302079 0.00078199 0)
(-0.0347508 0.000778551 0)
(-0.0392775 0.00076541 0)
(-0.0437971 0.00074716 0)
(-0.0483328 0.000729804 0)
(-0.0529175 0.000719997 0)
(-0.0575864 0.00072355 0)
(-0.0623695 0.000744706 0)
(-0.0672839 0.00078544 0)
(-0.07233 0.000844608 0)
(-0.0774893 0.000918048 0)
(-0.0827272 0.000998081 0)
(-0.0879981 0.00107532 0)
(-0.0932528 0.00113991 0)
(-0.0984477 0.00118468 0)
(-0.103552 0.00120706 0)
(-0.108555 0.00120954 0)
(-0.113461 0.00119808 0)
(-0.118289 0.00117784 0)
(-0.123058 0.00115012 0)
(-0.127776 0.00111 0)
(-0.132427 0.00104813 0)
(-0.136967 0.000953844 0)
(-0.141331 0.000820059 0)
(-0.145448 0.000647029 0)
(-0.149263 0.000440218 0)
(-0.15277 0.000207766 0)
(-0.000598425 0.000995677 0)
(-0.00678716 0.0046541 0)
(-0.0167266 0.00728193 0)
(-0.0286023 0.00847283 0)
(-0.0410877 0.00892367 0)
(-0.0537224 0.00909429 0)
(-0.0663516 0.00916451 0)
(-0.0789037 0.00918551 0)
(-0.0913371 0.00917375 0)
(-0.103634 0.00914527 0)
(-0.115805 0.00912172 0)
(-0.127885 0.00912517 0)
(-0.13993 0.00917292 0)
(-0.152005 0.0092723 0)
(-0.16417 0.00941897 0)
(-0.176465 0.00959739 0)
(-0.188903 0.00978344 0)
(-0.201466 0.00994981 0)
(-0.214107 0.0100709 0)
(-0.226758 0.010129 0)
(-0.239348 0.0101173 0)
(-0.25181 0.0100428 0)
(-0.264101 0.00992314 0)
(-0.276203 0.00978453 0)
(-0.288126 0.00965216 0)
(-0.299902 0.00954412 0)
(-0.311568 0.00946232 0)
(-0.323151 0.00939109 0)
(-0.334651 0.00929665 0)
(-0.346036 0.00913701 0)
(-0.357243 0.00887468 0)
(-0.368197 0.00849355 0)
(-0.378847 0.00801202 0)
(-0.389204 0.00749119 0)
(-0.399377 0.00703985 0)
(-0.00206945 0.00667905 0)
(-0.0156087 0.0165961 0)
(-0.0340078 0.0222891 0)
(-0.0543634 0.0246432 0)
(-0.0749343 0.0254107 0)
(-0.0952825 0.0255623 0)
(-0.115269 0.025474 0)
(-0.134829 0.0252697 0)
(-0.153944 0.0250054 0)
(-0.172633 0.0247318 0)
(-0.190956 0.0245035 0)
(-0.208998 0.0243695 0)
(-0.226858 0.0243625 0)
(-0.244634 0.0244897 0)
(-0.2624 0.0247316 0)
(-0.280197 0.0250434 0)
(-0.298023 0.0253644 0)
(-0.315835 0.0256295 0)
(-0.333562 0.0257828 0)
(-0.351115 0.0257892 0)
(-0.368415 0.0256414 0)
(-0.385399 0.0253614 0)
(-0.402043 0.0249939 0)
(-0.418361 0.0245956 0)
(-0.434402 0.0242182 0)
(-0.450236 0.0238945 0)
(-0.46594 0.0236268 0)
(-0.481571 0.0233852 0)
(-0.497158 0.0231145 0)
(-0.512689 0.0227537 0)
(-0.528129 0.0222614 0)
(-0.543432 0.0216422 0)
(-0.558585 0.020969 0)
(-0.573636 0.0203964 0)
(-0.588734 0.0201588 0)
(-0.00404619 0.0180971 0)
(-0.0264875 0.0374003 0)
(-0.0539894 0.0462558 0)
(-0.0825861 0.0491778 0)
(-0.11034 0.049643 0)
(-0.137037 0.0492199 0)
(-0.162675 0.0484708 0)
(-0.187283 0.0475911 0)
(-0.210925 0.0466828 0)
(-0.233697 0.0458364 0)
(-0.255723 0.0451374 0)
(-0.277144 0.0446538 0)
(-0.298105 0.0444181 0)
(-0.318731 0.0444205 0)
(-0.33912 0.0446056 0)
(-0.359319 0.0448836 0)
(-0.379332 0.0451453 0)
(-0.399117 0.0452839 0)
(-0.418602 0.0452183 0)
(-0.437703 0.0449074 0)
(-0.456349 0.0443624 0)
(-0.474494 0.0436375 0)
(-0.492135 0.0428234 0)
(-0.509314 0.0420182 0)
(-0.526112 0.0413114 0)
(-0.542636 0.040755 0)
(-0.558994 0.0403551 0)
(-0.575278 0.0400641 0)
(-0.591541 0.0397965 0)
(-0.607788 0.0394551 0)
(-0.623976 0.0389688 0)
(-0.640035 0.0383337 0)
(-0.65589 0.0376455 0)
(-0.671497 0.0371245 0)
(-0.686877 0.0371012 0)
(-0.00665207 0.0364718 0)
(-0.039066 0.0676003 0)
(-0.0750444 0.0786256 0)
(-0.110133 0.0806917 0)
(-0.142664 0.0796639 0)
(-0.172896 0.0777064 0)
(-0.201095 0.0755017 0)
(-0.227479 0.0732782 0)
(-0.252251 0.0711617 0)
(-0.275609 0.0692638 0)
(-0.297752 0.0676876 0)
(-0.318876 0.0665054 0)
(-0.339172 0.0657393 0)
(-0.358808 0.0653476 0)
(-0.377916 0.0652285 0)
(-0.396577 0.0652352 0)
(-0.41482 0.0652012 0)
(-0.432624 0.0649736 0)
(-0.44993 0.0644444 0)
(-0.466661 0.0635752 0)
(-0.482743 0.0624015 0)
(-0.49813 0.061026 0)
(-0.512816 0.0595925 0)
(-0.526844 0.0582565 0)
(-0.540303 0.0571485 0)
(-0.553315 0.0563447 0)
(-0.566015 0.0558433 0)
(-0.578526 0.0555594 0)
(-0.590924 0.0553444 0)
(-0.603222 0.0550241 0)
(-0.615358 0.0544543 0)
(-0.627198 0.0535787 0)
(-0.638549 0.0524846 0)
(-0.649196 0.0514285 0)
(-0.658937 0.0508368 0)
(-0.0101008 0.0630675 0)
(-0.0530516 0.106763 0)
(-0.0949116 0.117308 0)
(-0.132396 0.11616 0)
(-0.165084 0.111953 0)
(-0.194044 0.107224 0)
(-0.219948 0.102613 0)
(-0.24328 0.0982966 0)
(-0.26442 0.0943652 0)
(-0.283668 0.0909099 0)
(-0.301279 0.0880222 0)
(-0.31749 0.0857633 0)
(-0.332523 0.0841318 0)
(-0.346583 0.0830449 0)
(-0.359838 0.0823444 0)
(-0.372413 0.0818198 0)
(-0.384373 0.0812437 0)
(-0.395725 0.0804141 0)
(-0.406426 0.0791963 0)
(-0.416404 0.0775546 0)
(-0.425582 0.0755513 0)
(-0.433895 0.073337 0)
(-0.441309 0.0711094 0)
(-0.447832 0.0690762 0)
(-0.453523 0.0674058 0)
(-0.458483 0.0661929 0)
(-0.462846 0.0654206 0)
(-0.466749 0.0649582 0)
(-0.470301 0.0645795 0)
(-0.473552 0.0640154 0)
(-0.476467 0.0630252 0)
(-0.478913 0.0614734 0)
(-0.480655 0.0593982 0)
(-0.481358 0.0570557 0)
(-0.480625 0.0549311 0)
(-0.0147645 0.100041 0)
(-0.0678578 0.152919 0)
(-0.109252 0.157388 0)
(-0.14091 0.14968 0)
(-0.165635 0.140426 0)
(-0.18566 0.131748 0)
(-0.202048 0.123929 0)
(-0.215539 0.116962 0)
(-0.226673 0.110802 0)
(-0.235813 0.105444 0)
(-0.243211 0.100927 0)
(-0.249077 0.0972801 0)
(-0.2536 0.0944727 0)
(-0.256961 0.0923863 0)
(-0.259316 0.090819 0)
(-0.26079 0.0895165 0)
(-0.261468 0.0882025 0)
(-0.26137 0.0866219 0)
(-0.260479 0.0846178 0)
(-0.258768 0.0821541 0)
(-0.256204 0.0793072 0)
(-0.252759 0.0762388 0)
(-0.24841 0.0731633 0)
(-0.24314 0.0702977 0)
(-0.236942 0.0678299 0)
(-0.229826 0.0658732 0)
(-0.221814 0.0644251 0)
(-0.212933 0.0633535 0)
(-0.203214 0.0624189 0)
(-0.192671 0.0613273 0)
(-0.181298 0.0597938 0)
(-0.169066 0.0576102 0)
(-0.155899 0.0546982 0)
(-0.141654 0.0511708 0)
(-0.126093 0.0473575 0)
(-0.0218965 0.152628 0)
(-0.0797218 0.200018 0)
(-0.10432 0.187527 0)
(-0.11321 0.170081 0)
(-0.115731 0.155097 0)
(-0.114623 0.142263 0)
(-0.110674 0.131361 0)
(-0.104617 0.122096 0)
(-0.0970408 0.114101 0)
(-0.0882681 0.107163 0)
(-0.0784466 0.101214 0)
(-0.067636 0.0962235 0)
(-0.0558393 0.0921255 0)
(-0.0430184 0.0887914 0)
(-0.0291122 0.0860262 0)
(-0.0140786 0.083587 0)
(0.00215488 0.0812269 0)
(0.019567 0.0787344 0)
(0.0379368 0.0759665 0)
(0.0570542 0.0728557 0)
(0.0767515 0.0694184 0)
(0.0969164 0.0657477 0)
(0.117525 0.0619904 0)
(0.13867 0.0582958 0)
(0.160513 0.0548219 0)
(0.183267 0.0517041 0)
(0.207179 0.0489763 0)
(0.232489 0.0465598 0)
(0.259384 0.044285 0)
(0.287958 0.0419222 0)
(0.318213 0.0392275 0)
(0.350087 0.035998 0)
(0.383493 0.0321188 0)
(0.418396 0.0275983 0)
(0.454826 0.0225936 0)
(-0.0254765 0.21336 0)
(-0.052629 0.226262 0)
(-0.0149421 0.182154 0)
(0.0321863 0.158587 0)
(0.074891 0.141743 0)
(0.114945 0.126355 0)
(0.153986 0.113328 0)
(0.192111 0.10285 0)
(0.229287 0.0941467 0)
(0.265731 0.0866105 0)
(0.301736 0.080005 0)
(0.337586 0.0742437 0)
(0.373555 0.0692423 0)
(0.409892 0.0648866 0)
(0.446782 0.0610321 0)
(0.484327 0.0575088 0)
(0.522531 0.0541489 0)
(0.561338 0.0508196 0)
(0.600676 0.0474168 0)
(0.640471 0.0438623 0)
(0.680664 0.040118 0)
(0.721245 0.0361944 0)
(0.762259 0.0321352 0)
(0.803858 0.0280095 0)
(0.846115 0.0238855 0)
(0.889313 0.0197966 0)
(0.933787 0.0157351 0)
(0.979852 0.0116518 0)
(1.02779 0.00745342 0)
(1.0778 0.0030118 0)
(1.13006 -0.00181361 0)
(1.18464 -0.00715193 0)
(1.24163 -0.0130964 0)
(1.30113 -0.0196813 0)
(1.36332 -0.0268721 0)
(0.236306 0.12719 0)
(0.343124 0.146916 0)
(0.470759 0.115377 0)
(0.597321 0.0939025 0)
(0.701918 0.0818324 0)
(0.791214 0.0718529 0)
(0.872658 0.0624849 0)
(0.948908 0.0541997 0)
(1.02099 0.0469498 0)
(1.08984 0.0404105 0)
(1.15627 0.034402 0)
(1.22089 0.0288641 0)
(1.28417 0.0237572 0)
(1.3465 0.0190224 0)
(1.40822 0.0145819 0)
(1.46957 0.0103446 0)
(1.53076 0.00621477 0)
(1.59193 0.00210224 0)
(1.65317 -0.00207424 0)
(1.7146 -0.00638199 0)
(1.77628 -0.0108678 0)
(1.83832 -0.0155549 0)
(1.90087 -0.0204479 0)
(1.96407 -0.025534 0)
(2.02818 -0.0308 0)
(2.09345 -0.0362573 0)
(2.16013 -0.0419399 0)
(2.22848 -0.0479039 0)
(2.29876 -0.0542315 0)
(2.37123 -0.0610268 0)
(2.44612 -0.0684053 0)
(2.52362 -0.0764793 0)
(2.60395 -0.0853426 0)
(2.68729 -0.0950587 0)
(2.77389 -0.105659 0)
(2.16572 -0.0711751 0)
(2.22682 -0.0704265 0)
(2.30341 -0.0642774 0)
(2.39081 -0.059226 0)
(2.47593 -0.0554628 0)
(2.55685 -0.0532474 0)
(2.63552 -0.0525228 0)
(2.71261 -0.0528201 0)
(2.78798 -0.0537353 0)
(2.86164 -0.0550769 0)
(2.93381 -0.0567483 0)
(3.00471 -0.0586665 0)
(3.07451 -0.0607687 0)
(3.14342 -0.0630267 0)
(3.21163 -0.0654451 0)
(3.27932 -0.0680523 0)
(3.34669 -0.0708914 0)
(3.41388 -0.0740112 0)
(3.48106 -0.0774608 0)
(3.54837 -0.0812839 0)
(3.61596 -0.0855144 0)
(3.68397 -0.090174 0)
(3.75256 -0.0952735 0)
(3.82191 -0.10082 0)
(3.8922 -0.106825 0)
(3.96364 -0.113304 0)
(4.03646 -0.120293 0)
(4.11088 -0.127843 0)
(4.18713 -0.13603 0)
(4.26545 -0.144942 0)
(4.34602 -0.154679 0)
(4.42906 -0.16534 0)
(4.51474 -0.177013 0)
(4.60326 -0.189769 0)
(4.69479 -0.203663 0)
(5.21535 -0.0668357 0)
(5.23096 -0.0726661 0)
(5.25092 -0.0758215 0)
(5.27699 -0.0796107 0)
(5.30598 -0.0838093 0)
(5.33651 -0.0878106 0)
(5.3688 -0.0916094 0)
(5.40285 -0.0953044 0)
(5.43834 -0.0988997 0)
(5.47498 -0.10239 0)
(5.51264 -0.105796 0)
(5.55127 -0.109149 0)
(5.59081 -0.112479 0)
(5.63123 -0.115827 0)
(5.67251 -0.119245 0)
(5.71467 -0.122799 0)
(5.75772 -0.126559 0)
(5.8017 -0.130596 0)
(5.84663 -0.134977 0)
(5.89254 -0.139762 0)
(5.9395 -0.145004 0)
(5.98755 -0.150742 0)
(6.03676 -0.157009 0)
(6.08722 -0.163833 0)
(6.13902 -0.171242 0)
(6.19226 -0.179272 0)
(6.24709 -0.187969 0)
(6.30361 -0.197392 0)
(6.36195 -0.207617 0)
(6.42224 -0.218729 0)
(6.48458 -0.230817 0)
(6.54907 -0.243972 0)
(6.61581 -0.258277 0)
(6.68488 -0.273804 0)
(6.75636 -0.290614 0)
(7.55973 -0.0843378 0)
(7.56867 -0.093335 0)
(7.57905 -0.0995738 0)
(7.59218 -0.104964 0)
(7.60723 -0.109975 0)
(7.62333 -0.114476 0)
(7.64034 -0.118587 0)
(7.65827 -0.122519 0)
(7.67701 -0.126376 0)
(7.69642 -0.130182 0)
(7.71645 -0.133962 0)
(7.73707 -0.137751 0)
(7.75828 -0.141586 0)
(7.78007 -0.145512 0)
(7.80246 -0.14958 0)
(7.82546 -0.153852 0)
(7.84909 -0.158393 0)
(7.87337 -0.16327 0)
(7.89833 -0.168548 0)
(7.92399 -0.174287 0)
(7.95037 -0.180539 0)
(7.97751 -0.18735 0)
(8.00544 -0.194757 0)
(8.03421 -0.202797 0)
(8.06387 -0.211507 0)
(8.09448 -0.220928 0)
(8.12609 -0.231108 0)
(8.15877 -0.242107 0)
(8.19258 -0.253993 0)
(8.22756 -0.266841 0)
(8.26374 -0.280732 0)
(8.30116 -0.295741 0)
(8.33981 -0.311943 0)
(8.3797 -0.329401 0)
(8.42082 -0.348174 0)
(9.11823 -0.0897086 0)
(9.12089 -0.0984361 0)
(9.12378 -0.105417 0)
(9.12771 -0.111489 0)
(9.13259 -0.117168 0)
(9.13801 -0.12251 0)
(9.14381 -0.12754 0)
(9.15001 -0.132353 0)
(9.15657 -0.137022 0)
(9.16342 -0.14158 0)
(9.1705 -0.146056 0)
(9.17779 -0.150488 0)
(9.18527 -0.154927 0)
(9.19293 -0.159426 0)
(9.20078 -0.164046 0)
(9.2088 -0.168852 0)
(9.21701 -0.173915 0)
(9.22539 -0.179304 0)
(9.23395 -0.185088 0)
(9.24269 -0.191329 0)
(9.25159 -0.198084 0)
(9.26066 -0.205402 0)
(9.26989 -0.213329 0)
(9.27928 -0.221907 0)
(9.28883 -0.231178 0)
(9.29855 -0.241185 0)
(9.30843 -0.251978 0)
(9.31847 -0.263611 0)
(9.32865 -0.276146 0)
(9.33896 -0.289648 0)
(9.34936 -0.304182 0)
(9.35978 -0.319813 0)
(9.37017 -0.3366 0)
(9.38044 -0.354596 0)
(9.39049 -0.373851 0)
(9.88011 -0.0888074 0)
(9.87608 -0.0975643 0)
(9.87164 -0.105229 0)
(9.86727 -0.112026 0)
(9.8631 -0.118264 0)
(9.85898 -0.124046 0)
(9.85479 -0.1294 0)
(9.85053 -0.134397 0)
(9.84617 -0.139126 0)
(9.84168 -0.143661 0)
(9.83701 -0.148061 0)
(9.83214 -0.152385 0)
(9.82705 -0.156696 0)
(9.82173 -0.16106 0)
(9.81617 -0.165542 0)
(9.81035 -0.170211 0)
(9.80426 -0.175134 0)
(9.79787 -0.18038 0)
(9.79115 -0.186013 0)
(9.78408 -0.192092 0)
(9.77661 -0.198671 0)
(9.76871 -0.205798 0)
(9.76032 -0.213518 0)
(9.75141 -0.22187 0)
(9.74192 -0.230895 0)
(9.7318 -0.240632 0)
(9.72098 -0.251126 0)
(9.7094 -0.262421 0)
(9.69697 -0.274566 0)
(9.6836 -0.287613 0)
(9.66918 -0.301611 0)
(9.65357 -0.316606 0)
(9.63663 -0.332643 0)
(9.61819 -0.349756 0)
(9.59806 -0.367977 0)
(9.84448 -0.0821377 0)
(9.83408 -0.0901867 0)
(9.82277 -0.0974117 0)
(9.81083 -0.103845 0)
(9.7984 -0.109671 0)
(9.78546 -0.115015 0)
(9.77195 -0.119941 0)
(9.75789 -0.124517 0)
(9.74326 -0.128829 0)
(9.72807 -0.132952 0)
(9.7123 -0.136946 0)
(9.69593 -0.140868 0)
(9.67896 -0.144777 0)
(9.66135 -0.148732 0)
(9.6431 -0.152792 0)
(9.62418 -0.157019 0)
(9.60455 -0.161471 0)
(9.58417 -0.16621 0)
(9.56298 -0.171289 0)
(9.54092 -0.176762 0)
(9.51793 -0.182674 0)
(9.49393 -0.18907 0)
(9.46882 -0.195986 0)
(9.44252 -0.203458 0)
(9.41493 -0.211521 0)
(9.38593 -0.220205 0)
(9.35541 -0.229545 0)
(9.32323 -0.239575 0)
(9.28924 -0.250329 0)
(9.2533 -0.261842 0)
(9.2152 -0.274144 0)
(9.17474 -0.287264 0)
(9.13172 -0.301224 0)
(9.08587 -0.31604 0)
(9.03694 -0.331722 0)
(9.01127 -0.069021 0)
(8.99483 -0.0758282 0)
(8.97699 -0.0820255 0)
(8.95793 -0.0875945 0)
(8.93778 -0.092628 0)
(8.91658 -0.0972198 0)
(8.89435 -0.10143 0)
(8.87112 -0.10531 0)
(8.84692 -0.108923 0)
(8.82175 -0.112333 0)
(8.79563 -0.115595 0)
(8.76855 -0.118763 0)
(8.74049 -0.12189 0)
(8.71144 -0.125029 0)
(8.68138 -0.128234 0)
(8.65026 -0.13156 0)
(8.61804 -0.135057 0)
(8.58466 -0.138776 0)
(8.55004 -0.142762 0)
(8.51409 -0.147059 0)
(8.47672 -0.151704 0)
(8.43781 -0.156731 0)
(8.39726 -0.162169 0)
(8.35492 -0.168044 0)
(8.31065 -0.17438 0)
(8.26431 -0.181198 0)
(8.21571 -0.188518 0)
(8.16469 -0.19636 0)
(8.11104 -0.20474 0)
(8.05455 -0.213676 0)
(7.99499 -0.223177 0)
(7.93209 -0.233252 0)
(7.8656 -0.2439 0)
(7.79522 -0.255115 0)
(7.72064 -0.266883 0)
(7.38123 -0.0509643 0)
(7.35932 -0.0560808 0)
(7.33557 -0.06072 0)
(7.31012 -0.064852 0)
(7.28309 -0.0685202 0)
(7.2546 -0.0717902 0)
(7.22469 -0.0747163 0)
(7.19344 -0.077347 0)
(7.16089 -0.0797352 0)
(7.12709 -0.0819359 0)
(7.09205 -0.0840005 0)
(7.0558 -0.0859757 0)
(7.01834 -0.0879061 0)
(6.97965 -0.0898348 0)
(6.93972 -0.0918039 0)
(6.89851 -0.0938529 0)
(6.85596 -0.0960192 0)
(6.81201 -0.0983371 0)
(6.76658 -0.100838 0)
(6.71957 -0.103551 0)
(6.67088 -0.106498 0)
(6.62037 -0.109701 0)
(6.56791 -0.113176 0)
(6.51335 -0.116935 0)
(6.45654 -0.120989 0)
(6.3973 -0.125346 0)
(6.33545 -0.130012 0)
(6.27079 -0.134991 0)
(6.20312 -0.140284 0)
(6.13221 -0.14589 0)
(6.05782 -0.151802 0)
(5.97972 -0.158009 0)
(5.89763 -0.164496 0)
(5.81129 -0.171239 0)
(5.72042 -0.178207 0)
(4.96645 -0.0267992 0)
(4.94197 -0.0299099 0)
(4.91541 -0.0326676 0)
(4.88691 -0.0350518 0)
(4.85664 -0.0370872 0)
(4.82473 -0.0388194 0)
(4.79133 -0.0402913 0)
(4.75652 -0.0415409 0)
(4.72042 -0.0426066 0)
(4.68309 -0.0435277 0)
(4.64462 -0.0443407 0)
(4.60503 -0.0450783 0)
(4.56438 -0.0457705 0)
(4.52266 -0.0464459 0)
(4.47989 -0.047131 0)
(4.43603 -0.0478503 0)
(4.39106 -0.0486262 0)
(4.34491 -0.0494788 0)
(4.29753 -0.0504254 0)
(4.24882 -0.0514808 0)
(4.19869 -0.052656 0)
(4.14702 -0.0539593 0)
(4.09371 -0.0553958 0)
(4.03861 -0.056968 0)
(3.98159 -0.0586759 0)
(3.9225 -0.0605176 0)
(3.86119 -0.0624889 0)
(3.79751 -0.0645839 0)
(3.73129 -0.066794 0)
(3.66236 -0.0691081 0)
(3.59056 -0.071512 0)
(3.51573 -0.0739881 0)
(3.43769 -0.0765146 0)
(3.3563 -0.0790661 0)
(3.27139 -0.0816128 0)
(1.86746 -0.00606542 0)
(1.85062 -0.00679504 0)
(1.83198 -0.00731558 0)
(1.81182 -0.00764461 0)
(1.79043 -0.00781716 0)
(1.76804 -0.00787252 0)
(1.74484 -0.00784196 0)
(1.721 -0.00774894 0)
(1.69665 -0.00761349 0)
(1.67189 -0.00745425 0)
(1.6468 -0.00728647 0)
(1.62143 -0.00712227 0)
(1.59581 -0.00697076 0)
(1.56995 -0.00683989 0)
(1.54384 -0.00673562 0)
(1.51746 -0.00666313 0)
(1.49077 -0.00662562 0)
(1.46373 -0.00662548 0)
(1.43627 -0.00666296 0)
(1.40834 -0.0067374 0)
(1.37985 -0.0068462 0)
(1.35074 -0.00698653 0)
(1.32094 -0.00715418 0)
(1.29035 -0.00734524 0)
(1.25893 -0.0075546 0)
(1.22658 -0.00777749 0)
(1.19326 -0.00800786 0)
(1.15889 -0.00824006 0)
(1.12343 -0.00846713 0)
(1.08683 -0.00868267 0)
(1.04907 -0.00887893 0)
(1.01012 -0.00904887 0)
(0.969969 -0.00918406 0)
(0.928635 -0.00927702 0)
(0.886142 -0.00931911 0)
(-0.156029 -4.04141e-05 0)
(-0.159189 -0.000285849 0)
(-0.162496 -0.00049433 0)
(-0.166285 -0.000606673 0)
(-0.170958 -0.00054859 0)
(-0.176931 -0.000248747 0)
(-0.184574 0.000324252 0)
(-0.194122 0.00113893 0)
(-0.205587 0.00208169 0)
(-0.218676 0.00298466 0)
(-0.409611 0.00680312 0)
(-0.420286 0.00695207 0)
(-0.431915 0.00765158 0)
(-0.445089 0.00902993 0)
(-0.460403 0.011126 0)
(-0.478345 0.0138622 0)
(-0.499177 0.01702 0)
(-0.522841 0.0202485 0)
(-0.548899 0.023098 0)
(-0.576559 0.0251011 0)
(-0.604148 0.0205461 0)
(-0.620274 0.0218584 0)
(-0.637611 0.024342 0)
(-0.656703 0.028111 0)
(-0.678042 0.0330764 0)
(-0.701947 0.0389135 0)
(-0.728463 0.0450721 0)
(-0.7573 0.0508395 0)
(-0.787846 0.0554493 0)
(-0.819238 0.058229 0)
(-0.702152 0.0379858 0)
(-0.717557 0.0401806 0)
(-0.73343 0.0439955 0)
(-0.750165 0.0495278 0)
(-0.768113 0.0565854 0)
(-0.787475 0.0646365 0)
(-0.808216 0.0728582 0)
(-0.830036 0.0802492 0)
(-0.852383 0.0857826 0)
(-0.874507 0.0886069 0)
(-0.66764 0.0512428 0)
(-0.675274 0.053188 0)
(-0.681932 0.0570766 0)
(-0.687821 0.0630428 0)
(-0.693183 0.0708146 0)
(-0.698189 0.0796594 0)
(-0.70284 0.0884695 0)
(-0.706963 0.0959547 0)
(-0.710217 0.10085 0)
(-0.712104 0.102135 0)
(-0.47804 0.0536691 0)
(-0.473224 0.0539409 0)
(-0.465901 0.0562525 0)
(-0.455969 0.0607753 0)
(-0.443508 0.0671782 0)
(-0.428612 0.0745486 0)
(-0.411163 0.081586 0)
(-0.390893 0.0869755 0)
(-0.367564 0.0895147 0)
(-0.340922 0.0882723 0)
(-0.108891 0.0438072 0)
(-0.0895613 0.0411316 0)
(-0.0674716 0.0398551 0)
(-0.0419055 0.0402331 0)
(-0.0121338 0.0420834 0)
(0.0233775 0.0447156 0)
(0.0654151 0.0471468 0)
(0.11351 0.0483494 0)
(0.167318 0.0472663 0)
(0.226053 0.04306 0)
(0.492959 0.017371 0)
(0.533453 0.0122333 0)
(0.577187 0.00745689 0)
(0.62518 0.0031667 0)
(0.678437 -0.000805514 0)
(0.737699 -0.00484128 0)
(0.80339 -0.00940309 0)
(0.875786 -0.0150847 0)
(0.954955 -0.0225578 0)
(1.04072 -0.0324246 0)
(1.42857 -0.0345965 0)
(1.49729 -0.04277 0)
(1.57002 -0.051327 0)
(1.64746 -0.060276 0)
(1.73032 -0.069751 0)
(1.81932 -0.0800094 0)
(1.91505 -0.0914016 0)
(2.01799 -0.104364 0)
(2.1285 -0.119388 0)
(2.24681 -0.136949 0)
(2.86401 -0.11715 0)
(2.95801 -0.129525 0)
(3.05632 -0.142798 0)
(3.1594 -0.157036 0)
(3.26778 -0.172386 0)
(3.38195 -0.18908 0)
(3.50238 -0.207423 0)
(3.62945 -0.227772 0)
(3.76346 -0.250517 0)
(3.9046 -0.276034 0)
(4.78955 -0.218734 0)
(4.88779 -0.235022 0)
(4.98977 -0.252585 0)
(5.09578 -0.271517 0)
(5.20613 -0.291966 0)
(5.32109 -0.314136 0)
(5.44089 -0.338278 0)
(5.5657 -0.364678 0)
(5.69559 -0.393628 0)
(5.83056 -0.425403 0)
(6.83034 -0.30876 0)
(6.90692 -0.328297 0)
(6.98621 -0.349297 0)
(7.0683 -0.371854 0)
(7.15329 -0.3961 0)
(7.24124 -0.4222 0)
(7.33216 -0.450347 0)
(7.42598 -0.480751 0)
(7.52256 -0.513614 0)
(7.62166 -0.549111 0)
(8.46316 -0.368314 0)
(8.50669 -0.389878 0)
(8.55139 -0.412929 0)
(8.59721 -0.43755 0)
(8.6441 -0.463842 0)
(8.69193 -0.491925 0)
(8.74054 -0.521933 0)
(8.78971 -0.553999 0)
(8.83913 -0.588244 0)
(8.8884 -0.624752 0)
(9.40021 -0.394406 0)
(9.40948 -0.416305 0)
(9.41815 -0.439597 0)
(9.42606 -0.464336 0)
(9.433 -0.490587 0)
(9.43874 -0.518423 0)
(9.44296 -0.547914 0)
(9.4453 -0.579126 0)
(9.44533 -0.6121 0)
(9.44252 -0.646841 0)
(9.57604 -0.387331 0)
(9.55191 -0.407841 0)
(9.5254 -0.429528 0)
(9.49624 -0.452416 0)
(9.46411 -0.476529 0)
(9.42864 -0.501887 0)
(9.38941 -0.528505 0)
(9.34593 -0.55638 0)
(9.29767 -0.585483 0)
(9.24401 -0.615747 0)
(8.98463 -0.34827 0)
(8.92863 -0.365684 0)
(8.86861 -0.383954 0)
(8.80417 -0.403068 0)
(8.73492 -0.423009 0)
(8.66041 -0.443749 0)
(8.58013 -0.465247 0)
(8.49354 -0.487441 0)
(8.40005 -0.510242 0)
(8.29901 -0.533526 0)
(7.64152 -0.279182 0)
(7.55752 -0.291983 0)
(7.46825 -0.305249 0)
(7.37334 -0.318937 0)
(7.27234 -0.332992 0)
(7.16483 -0.347349 0)
(7.05033 -0.361929 0)
(6.92836 -0.376631 0)
(6.7984 -0.391332 0)
(6.65995 -0.40588 0)
(5.62473 -0.185364 0)
(5.52393 -0.192665 0)
(5.41773 -0.200061 0)
(5.30583 -0.207492 0)
(5.18793 -0.214893 0)
(5.06376 -0.22219 0)
(4.93303 -0.229296 0)
(4.79548 -0.236115 0)
(4.65089 -0.242534 0)
(4.49908 -0.248425 0)
(3.18284 -0.0841215 0)
(3.09053 -0.0865548 0)
(2.99435 -0.0888731 0)
(2.89425 -0.0910331 0)
(2.79016 -0.0929897 0)
(2.68209 -0.0946945 0)
(2.57007 -0.0960974 0)
(2.45417 -0.0971452 0)
(2.33455 -0.0977834 0)
(2.21141 -0.0979562 0)
(0.84254 -0.00930334 0)
(0.7979 -0.00922215 0)
(0.752312 -0.00907047 0)
(0.705894 -0.00884336 0)
(0.658784 -0.00853903 0)
(0.611148 -0.0081563 0)
(0.56317 -0.00769733 0)
(0.515062 -0.00716569 0)
(0.467055 -0.00656894 0)
(0.419401 -0.00591695 0)
(-0.232782 0.00367011 0)
(-0.247056 0.00402309 0)
(-0.260563 0.00401001 0)
(-0.27249 0.00366403 0)
(-0.282364 0.00303491 0)
(-0.290217 0.00216725 0)
(-0.296634 0.0010958 0)
(-0.302662 -0.000105533 0)
(-0.309623 -0.00128529 0)
(-0.318908 -0.00220117 0)
(-0.331796 -0.0025966 0)
(-0.349306 -0.00231992 0)
(-0.372093 -0.00142606 0)
(-0.400466 -0.000134085 0)
(-0.434665 0.00145556 0)
(-0.47546 0.00376456 0)
(-0.524835 0.00785385 0)
(-0.586277 0.0150805 0)
(-0.664351 0.0266125 0)
(-0.763494 0.0429578 0)
(-0.885996 0.0631859 0)
(-1.02938 0.0839354 0)
(-1.18456 0.0995587 0)
(-1.33661 0.104506 0)
(-1.46882 0.0964664 0)
(-1.56732 0.0776679 0)
(-1.62308 0.053546 0)
(-1.63108 0.0298766 0)
(-1.5937 0.00957231 0)
(-1.52013 -0.00813788 0)
(-1.41076 -0.0246534 0)
(-1.26741 -0.0403167 0)
(-1.09137 -0.0555224 0)
(-0.884699 -0.0708434 0)
(-0.650029 -0.0865152 0)
(-0.604786 0.0258871 0)
(-0.63251 0.0252984 0)
(-0.658872 0.0234452 0)
(-0.683448 0.0207387 0)
(-0.706418 0.0178452 0)
(-0.728627 0.015604 0)
(-0.751512 0.0148406 0)
(-0.776903 0.0162042 0)
(-0.806728 0.0200323 0)
(-0.842687 0.0263045 0)
(-0.885956 0.0346405 0)
(-0.936974 0.0444293 0)
(-0.995378 0.0550579 0)
(-1.06017 0.0662508 0)
(-1.13017 0.07841 0)
(-1.20451 0.0926776 0)
(-1.28281 0.110466 0)
(-1.3647 0.132616 0)
(-1.44894 0.158451 0)
(-1.53252 0.184841 0)
(-1.60991 0.20568 0)
(-1.67253 0.212723 0)
(-1.70907 0.198761 0)
(-1.70779 0.161649 0)
(-1.66077 0.10599 0)
(-1.56756 0.0411411 0)
(-1.43846 -0.0240263 0)
(-1.28715 -0.0843121 0)
(-1.11589 -0.138843 0)
(-0.916804 -0.190229 0)
(-0.690719 -0.239966 0)
(-0.437107 -0.287857 0)
(-0.157791 -0.333415 0)
(0.142654 -0.375601 0)
(0.464242 -0.413534 0)
(-0.850511 0.0587783 0)
(-0.880806 0.0570918 0)
(-0.90954 0.0536306 0)
(-0.936518 0.049314 0)
(-0.962001 0.0454641 0)
(-0.986733 0.0436007 0)
(-1.01188 0.0450946 0)
(-1.03878 0.0508102 0)
(-1.06866 0.0608685 0)
(-1.10223 0.0745824 0)
(-1.13941 0.0905468 0)
(-1.17914 0.106945 0)
(-1.21937 0.122013 0)
(-1.25717 0.134608 0)
(-1.28916 0.144712 0)
(-1.31204 0.153559 0)
(-1.32277 0.16292 0)
(-1.31836 0.173826 0)
(-1.29555 0.185252 0)
(-1.25123 0.193124 0)
(-1.183 0.190195 0)
(-1.08876 0.167933 0)
(-0.96617 0.120984 0)
(-0.81377 0.0508158 0)
(-0.637844 -0.0334099 0)
(-0.449703 -0.119195 0)
(-0.250577 -0.199795 0)
(-0.0313962 -0.276109 0)
(0.207051 -0.351293 0)
(0.464963 -0.426197 0)
(0.744287 -0.499933 0)
(1.04547 -0.571496 0)
(1.36731 -0.639635 0)
(1.70831 -0.702737 0)
(2.06626 -0.759292 0)
(-0.89557 0.0882467 0)
(-0.914788 0.0847825 0)
(-0.931524 0.0789335 0)
(-0.945314 0.0720637 0)
(-0.955926 0.0660668 0)
(-0.963494 0.0630296 0)
(-0.968535 0.064635 0)
(-0.971723 0.071594 0)
(-0.973522 0.0833729 0)
(-0.973842 0.0982334 0)
(-0.971839 0.113562 0)
(-0.965832 0.126424 0)
(-0.953294 0.134247 0)
(-0.930866 0.135624 0)
(-0.894504 0.130893 0)
(-0.840179 0.122021 0)
(-0.764859 0.111499 0)
(-0.6669 0.100631 0)
(-0.545495 0.0886666 0)
(-0.401494 0.0724317 0)
(-0.237885 0.0466324 0)
(-0.0556569 0.00492272 0)
(0.152488 -0.0572507 0)
(0.376616 -0.137502 0)
(0.604256 -0.229175 0)
(0.838633 -0.326066 0)
(1.08662 -0.424265 0)
(1.35313 -0.522275 0)
(1.64 -0.620154 0)
(1.94692 -0.717173 0)
(2.27241 -0.811816 0)
(2.61441 -0.902424 0)
(2.97038 -0.987224 0)
(3.33741 -1.06467 0)
(3.71236 -1.13356 0)
(-0.712006 0.0992946 0)
(-0.709259 0.0924996 0)
(-0.703166 0.0826825 0)
(-0.692906 0.0715343 0)
(-0.677557 0.0613442 0)
(-0.65642 0.0545966 0)
(-0.629363 0.0529882 0)
(-0.596744 0.0567893 0)
(-0.558975 0.0646879 0)
(-0.5155 0.0741543 0)
(-0.464705 0.0821116 0)
(-0.404571 0.0854042 0)
(-0.332808 0.0813442 0)
(-0.246754 0.0685646 0)
(-0.143322 0.0476233 0)
(-0.0216585 0.0207152 0)
(0.114556 -0.00966783 0)
(0.265103 -0.0420507 0)
(0.434532 -0.0764442 0)
(0.625365 -0.114665 0)
(0.840132 -0.160743 0)
(1.07842 -0.219696 0)
(1.33588 -0.295201 0)
(1.60682 -0.38696 0)
(1.88881 -0.490691 0)
(2.1829 -0.601482 0)
(2.49101 -0.715753 0)
(2.81399 -0.831269 0)
(3.15109 -0.946305 0)
(3.50029 -1.05896 0)
(3.85874 -1.16705 0)
(4.22315 -1.26832 0)
(4.59005 -1.36063 0)
(4.95592 -1.44221 0)
(5.31734 -1.5118 0)
(-0.310735 0.0828301 0)
(-0.276912 0.0733889 0)
(-0.239503 0.0607134 0)
(-0.198515 0.0461047 0)
(-0.153635 0.0314476 0)
(-0.105075 0.0189366 0)
(-0.0512062 0.0100673 0)
(0.00839108 0.00505302 0)
(0.0766912 0.00269413 0)
(0.15867 0.000752992 0)
(0.256488 -0.00344812 0)
(0.370613 -0.0126537 0)
(0.500365 -0.0292576 0)
(0.644203 -0.0545963 0)
(0.800998 -0.0882393 0)
(0.970423 -0.128279 0)
(1.15446 -0.173076 0)
(1.35623 -0.222333 0)
(1.57821 -0.276918 0)
(1.82194 -0.338525 0)
(2.08803 -0.40952 0)
(2.37551 -0.492222 0)
(2.68163 -0.587722 0)
(3.00274 -0.695075 0)
(3.33561 -0.811646 0)
(3.67791 -0.934209 0)
(4.02778 -1.05969 0)
(4.38307 -1.18525 0)
(4.74107 -1.30814 0)
(5.0985 -1.42563 0)
(5.45175 -1.53503 0)
(5.79716 -1.63387 0)
(6.1312 -1.72006 0)
(6.45065 -1.79203 0)
(6.75266 -1.84887 0)
(0.288664 0.0352656 0)
(0.354093 0.0238956 0)
(0.422029 0.00942981 0)
(0.492619 -0.00726303 0)
(0.566729 -0.0249842 0)
(0.646003 -0.0426118 0)
(0.733511 -0.059285 0)
(0.832517 -0.0750556 0)
(0.945668 -0.0911169 0)
(1.07441 -0.109109 0)
(1.21953 -0.130611 0)
(1.38145 -0.157151 0)
(1.56007 -0.190138 0)
(1.75482 -0.230561 0)
(1.96503 -0.27864 0)
(2.19056 -0.333918 0)
(2.43205 -0.395864 0)
(2.69054 -0.464377 0)
(2.96678 -0.539812 0)
(3.26086 -0.622837 0)
(3.57194 -0.714306 0)
(3.89809 -0.814943 0)
(4.2361 -0.924802 0)
(4.58192 -1.0428 0)
(4.93138 -1.16675 0)
(5.28059 -1.29373 0)
(5.62601 -1.42057 0)
(5.96417 -1.5441 0)
(6.2915 -1.66127 0)
(6.60441 -1.76923 0)
(6.89944 -1.86539 0)
(7.17343 -1.94754 0)
(7.42361 -2.01396 0)
(7.64774 -2.06354 0)
(7.84407 -2.09588 0)
(1.13288 -0.0451047 0)
(1.23128 -0.0608079 0)
(1.33586 -0.0795104 0)
(1.44691 -0.100942 0)
(1.56517 -0.124626 0)
(1.69193 -0.150084 0)
(1.82888 -0.177035 0)
(1.97793 -0.205613 0)
(2.14079 -0.236451 0)
(2.31871 -0.270488 0)
(2.51235 -0.308782 0)
(2.72194 -0.352407 0)
(2.94728 -0.402345 0)
(3.18772 -0.459283 0)
(3.44242 -0.52345 0)
(3.71051 -0.594648 0)
(3.99128 -0.672504 0)
(4.28401 -0.756735 0)
(4.58771 -0.847224 0)