/*--------------------------------*- C++ -*----------------------------------*\
| =========                 |                                                 |
| \\      /  F ield         | OpenFOAM: The Open Source CFD Toolbox           |
|  \\    /   O peration     | Version:  2406                                  |
|   \\  /    A nd           | Website:  www.openfoam.com                      |
|    \\/     M anipulation  |                                                 |
\*---------------------------------------------------------------------------*/
FoamFile
{
    version     2.0;
    format      ascii;
    arch        "LSB;label=32;scalar=64";
    class       surfaceScalarField;
    location    "80";
    object      phi;
}
// * * * * * * * * * * * * * * * * * * * * * * * * * * * * * * * * * * * * * //

dimensions      [0 3 -1 0 0 0 0];

oriented        oriented;

internalField   nonuniform List<scalar> 
3880
(
0.00995004
-0.000200037
0.0101683
-0.000218293
0.0103289
-0.000160525
0.0104439
-0.000115021
0.0105289
-8.49862e-05
0.0105924
-6.35571e-05
0.0106404
-4.7959e-05
0.0106774
-3.69921e-05
0.0107068
-2.93747e-05
-2.39339e-05
0.0107307
0.0276589
-0.000108891
0.0276449
-0.00020431
0.0276868
-0.000202406
0.0277496
-0.000177813
0.0278177
-0.000153106
0.0278836
-0.000129461
0.0279436
-0.000107924
0.0279965
-8.99337e-05
0.0280427
-7.56066e-05
-6.42319e-05
0.028083
0.0436992
-5.80494e-05
0.0436346
-0.000139748
0.043597
-0.000164845
0.0435832
-0.000164002
0.0435863
-0.000156187
0.0436015
-0.00014462
0.0436241
-0.000130523
0.0436503
-0.00011614
0.0436776
-0.000102957
-9.13271e-05
0.0437047
0.0577268
-3.48856e-05
0.0576797
-9.25953e-05
0.0576367
-0.000121868
0.0576039
-0.000131227
0.0575802
-0.000132434
0.0575648
-0.000129233
0.0575568
-0.000122495
0.0575544
-0.000113798
0.0575562
-0.000104694
-9.59284e-05
0.0575608
0.0697376
-2.25283e-05
0.0697078
-6.27931e-05
0.0696746
-8.85811e-05
0.0696441
-0.000100768
0.0696172
-0.000105525
0.0695941
-0.000106133
0.0695751
-0.000103494
0.0695599
-9.86238e-05
0.069548
-9.27448e-05
-8.66346e-05
0.0695387
0.0797425
-1.50766e-05
0.0797229
-4.3147e-05
0.0796978
-6.34723e-05
0.0796721
-7.50499e-05
0.0796473
-8.07656e-05
0.0796241
-8.2907e-05
0.0796029
-8.23242e-05
0.079584
-7.97166e-05
0.0795673
-7.59696e-05
-7.17569e-05
0.0795524
0.0877449
-1.00244e-05
0.0877309
-2.90577e-05
0.0877112
-4.38206e-05
0.0876894
-5.31983e-05
0.087667
-5.84237e-05
0.087645
-6.08709e-05
0.0876239
-6.12042e-05
0.0876041
-5.99173e-05
0.0875857
-5.7614e-05
-5.48051e-05
0.0875688
0.0937462
-6.18409e-06
0.0937351
-1.80373e-05
0.0937189
-2.7594e-05
0.0936998
-3.4065e-05
0.0936793
-3.79358e-05
0.0936584
-3.99362e-05
0.0936377
-4.04953e-05
0.0936177
-3.99356e-05
0.0935987
-3.86339e-05
-3.69253e-05
0.0935808
0.0977468
-2.96018e-06
0.0977374
-8.65873e-06
0.0977232
-1.33454e-05
0.0977057
-1.66275e-05
0.0976864
-1.86665e-05
0.0976663
-1.9771e-05
0.0976459
-2.01468e-05
0.097626
-1.9954e-05
0.0976067
-1.93732e-05
-1.85686e-05
0.0975883
0.099747
2.09372e-10
0.0997384
5.6007e-10
0.099725
5.08086e-10
0.0997084
8.79605e-10
0.0996897
1.5057e-09
0.09967
1.36637e-09
0.0996498
6.55354e-10
0.0996299
5.02458e-10
0.0996105
1.26917e-09
1.98054e-09
0.0995919
0.099747
2.96028e-06
0.0997384
8.65905e-06
0.099725
1.33472e-05
0.0997084
1.663e-05
0.0996897
1.86684e-05
0.09967
1.97726e-05
0.0996498
2.01489e-05
0.0996299
1.99564e-05
0.0996105
1.93759e-05
1.85713e-05
0.0995919
0.0977468
6.18458e-06
0.0977374
1.80384e-05
0.0977232
2.75951e-05
0.0977057
3.40667e-05
0.0976864
3.79383e-05
0.0976663
3.99385e-05
0.0976459
4.04969e-05
0.097626
3.99371e-05
0.0976067
3.86364e-05
3.69288e-05
0.0975883
0.0937462
1.00247e-05
0.0937351
2.90584e-05
0.0937189
4.38223e-05
0.0936998
5.32001e-05
0.0936793
5.84254e-05
0.0936584
6.0873e-05
0.0936377
6.12066e-05
0.0936177
5.99196e-05
0.0935987
5.7616e-05
5.48069e-05
0.0935808
0.0877449
1.5077e-05
0.0877309
4.31477e-05
0.0877112
6.34734e-05
0.0876894
7.50516e-05
0.087667
8.07676e-05
0.087645
8.29094e-05
0.0876239
8.23268e-05
0.0876041
7.97187e-05
0.0875857
7.59712e-05
7.17585e-05
0.0875688
0.0797425
2.25287e-05
0.0797229
6.2794e-05
0.0796978
8.85822e-05
0.0796721
0.000100769
0.0796473
0.000105527
0.0796241
0.000106136
0.0796029
0.000103497
0.079584
9.86259e-05
0.0795673
9.27462e-05
8.66356e-05
0.0795524
0.0697376
3.48859e-05
0.0697078
9.25959e-05
0.0696746
0.000121869
0.0696441
0.000131229
0.0696172
0.000132436
0.0695941
0.000129236
0.0695751
0.000122498
0.0695599
0.000113801
0.069548
0.000104695
9.5929e-05
0.0695387
0.0577268
5.80499e-05
0.0576797
0.000139749
0.0576367
0.000164846
0.0576039
0.000164003
0.0575802
0.000156189
0.0575648
0.000144623
0.0575568
0.000130525
0.0575544
0.000116142
0.0575562
0.000102958
9.13284e-05
0.0575608
0.0436992
0.000108891
0.0436346
0.00020431
0.043597
0.000202408
0.0435832
0.000177815
0.0435863
0.000153107
0.0436015
0.000129463
0.0436241
0.000107927
0.0436503
8.99366e-05
0.0436776
7.5608e-05
6.42324e-05
0.0437047
0.0276589
0.000200037
0.0276449
0.000218294
0.0276868
0.000160526
0.0277496
0.000115022
0.0278177
8.49879e-05
0.0278836
6.35594e-05
0.0279436
4.79611e-05
0.0279965
3.69933e-05
0.0280427
2.93754e-05
2.39353e-05
0.028083
0.00995004
0.0101683
0.0103289
0.0104439
0.0105289
0.0105924
0.0106404
0.0106774
0.0107068
0.0107307
0.0107506
-1.98902e-05
0.0107674
-1.67991e-05
0.0107818
-1.43947e-05
0.0107943
-1.24946e-05
0.0108052
-1.0965e-05
0.010815
-9.709e-06
0.0108236
-8.66112e-06
0.0108314
-7.77904e-06
0.0108384
-7.0338e-06
0.0108448
-6.4023e-06
0.0108507
-5.86361e-06
0.0108561
-5.39874e-06
0.0108611
-4.99216e-06
0.0108657
-4.63228e-06
0.01087
-4.31118e-06
0.0108741
-4.02368e-06
0.0108778
-3.76601e-06
0.0108814
-3.5351e-06
0.0108847
-3.32802e-06
0.0108878
-3.14171e-06
0.0108908
-2.97325e-06
0.0108936
-2.81976e-06
0.0108963
-2.6788e-06
0.0108988
-2.54833e-06
0.0109013
-2.42688e-06
0.0109036
-2.31341e-06
0.0109058
-2.20728e-06
0.0109079
-2.10809e-06
0.0109099
-2.01554e-06
0.0109118
-1.92933e-06
0.0109137
-1.84914e-06
0.0109155
-1.77447e-06
0.0109172
-1.70483e-06
0.0109188
-1.63962e-06
-1.5783e-06
0.0109204
0.0281182
-5.50803e-05
0.0281491
-4.76461e-05
0.0281763
-4.15816e-05
0.0282004
-3.66116e-05
0.0282219
-3.25001e-05
0.0282413
-2.90532e-05
0.0282587
-2.61273e-05
0.0282746
-2.36252e-05
0.028289
-2.14811e-05
0.0283023
-1.96423e-05
0.0283145
-1.80591e-05
0.0283257
-1.66842e-05
0.0283362
-1.5476e-05
0.028346
-1.44021e-05
0.0283551
-1.34398e-05
0.0283637
-1.25739e-05
0.0283717
-1.17942e-05
0.0283793
-1.10922e-05
0.0283864
-1.04599e-05
0.0283931
-9.88913e-06
0.0283995
-9.37153e-06
0.0284056
-8.89921e-06
0.0284114
-8.46498e-06
0.0284169
-8.06304e-06
0.0284222
-7.68885e-06
0.0284272
-7.33919e-06
0.028432
-7.01192e-06
0.0284366
-6.70553e-06
0.028441
-6.41899e-06
0.0284452
-6.15128e-06
0.0284493
-5.90137e-06
0.0284532
-5.66799e-06
0.0284569
-5.44973e-06
0.0284605
-5.24505e-06
-5.05237e-06
0.028464
0.0437308
-8.1147e-05
0.0437555
-7.22832e-05
0.0437785
-6.463e-05
0.0438
-5.80634e-05
0.0438199
-5.24269e-05
0.0438384
-4.75554e-05
0.0438556
-4.33095e-05
0.0438715
-3.95916e-05
0.0438864
-3.63376e-05
0.0439002
-3.3497e-05
0.0439132
-3.10165e-05
0.0439254
-2.88384e-05
0.0439368
-2.69064e-05
0.0439476
-2.51733e-05
0.0439577
-2.36056e-05
0.0439673
-2.21818e-05
0.0439764
-2.08884e-05
0.0439851
-1.97151e-05
0.0439932
-1.86519e-05
0.044001
-1.76871e-05
0.0440085
-1.68085e-05
0.0440156
-1.60034e-05
0.0440224
-1.52604e-05
0.0440289
-1.45701e-05
0.0440351
-1.39252e-05
0.0440411
-1.33206e-05
0.0440468
-1.27529e-05
0.0440524
-1.22199e-05
0.0440577
-1.17198e-05
0.0440628
-1.12511e-05
0.0440677
-1.08121e-05
0.0440724
-1.04007e-05
0.044077
-1.00147e-05
0.0440814
-9.65168e-06
-9.30907e-06
0.0440856
0.0575674
-8.77133e-05
0.0575752
-8.01326e-05
0.0575838
-7.32622e-05
0.0575929
-6.71318e-05
0.0576022
-6.16975e-05
0.0576115
-5.68656e-05
0.0576207
-5.25397e-05
0.0576298
-4.8654e-05
0.0576386
-4.51747e-05
0.0576472
-4.20786e-05
0.0576555
-3.93336e-05
0.0576636
-3.68929e-05
0.0576714
-3.47026e-05
0.0576789
-3.27139e-05
0.0576862
-3.08912e-05
0.0576932
-2.92135e-05
0.0577
-2.76703e-05
0.0577066
-2.62556e-05
0.0577129
-2.49626e-05
0.057719
-2.37813e-05
0.0577248
-2.26989e-05
0.0577305
-2.17013e-05
0.0577361
-2.07748e-05
0.0577414
-1.99081e-05
0.0577466
-1.90928e-05
0.0577516
-1.83234e-05
0.0577564
-1.75967e-05
0.0577611
-1.69106e-05
0.0577656
-1.62638e-05
0.0577701
-1.5655e-05
0.0577743
-1.50823e-05
0.0577785
-1.45435e-05
0.0577825
-1.40357e-05
0.0577864
-1.35559e-05
-1.31012e-05
0.0577902
0.0695316
-8.06121e-05
0.0695263
-7.48319e-05
0.0695225
-6.94263e-05
0.0695198
-6.44875e-05
0.0695181
-6.00305e-05
0.0695173
-5.60056e-05
0.0695171
-5.23453e-05
0.0695174
-4.90029e-05
0.0695182
-4.59624e-05
0.0695194
-4.32215e-05
0.0695208
-4.07676e-05
0.0695225
-3.85697e-05
0.0695244
-3.65835e-05
0.0695264
-3.47636e-05
0.0695286
-3.30764e-05
0.0695309
-3.15028e-05
0.0695333
-3.00365e-05
0.0695357
-2.86769e-05
0.0695381
-2.74231e-05
0.0695406
-2.62701e-05
0.0695431
-2.52079e-05
0.0695457
-2.42234e-05
0.0695482
-2.3303e-05
0.0695507
-2.24352e-05
0.0695532
-2.16114e-05
0.0695557
-2.08268e-05
0.0695582
-2.0079e-05
0.0695607
-1.93677e-05
0.0695631
-1.86928e-05
0.0695655
-1.80541e-05
0.0695679
-1.74504e-05
0.0695702
-1.68797e-05
0.0695725
-1.63393e-05
0.0695748
-1.58261e-05
-1.53368e-05
0.069577
0.0795392
-6.74156e-05
0.0795275
-6.312e-05
0.0795171
-5.90141e-05
0.0795078
-5.52105e-05
0.0794995
-5.17526e-05
0.0794921
-4.86165e-05
0.0794855
-4.57504e-05
0.0794796
-4.31162e-05
0.0794744
-4.07038e-05
0.0794697
-3.85192e-05
0.0794655
-3.65612e-05
0.0794617
-3.48101e-05
0.0794584
-3.32301e-05
0.0794554
-3.17809e-05
0.0794527
-3.04303e-05
0.0794504
-2.91601e-05
0.0794483
-2.79654e-05
0.0794465
-2.68483e-05
0.0794449
-2.5812e-05
0.0794435
-2.48557e-05
0.0794422
-2.3973e-05
0.0794412
-2.31532e-05
0.0794402
-2.23839e-05
0.0794395
-2.16539e-05
0.0794388
-2.0955e-05
0.0794383
-2.02827e-05
0.0794378
-1.96357e-05
0.0794375
-1.90148e-05
0.0794372
-1.84215e-05
0.079437
-1.7857e-05
0.0794369
-1.7321e-05
0.0794368
-1.68124e-05
0.0794368
-1.63287e-05
0.0794368
-1.5867e-05
-1.54243e-05
0.0794369
0.0875531
-5.17838e-05
0.0875387
-4.8713e-05
0.0875254
-4.57233e-05
0.0875132
-4.29219e-05
0.0875018
-4.03606e-05
0.0874912
-3.80332e-05
0.0874813
-3.59046e-05
0.0874722
-3.39452e-05
0.0874636
-3.21472e-05
0.0874556
-3.05181e-05
0.0874481
-2.9062e-05
0.0874411
-2.77673e-05
0.0874345
-2.66076e-05
0.0874282
-2.55499e-05
0.0874224
-2.45659e-05
0.0874168
-2.36388e-05
0.0874116
-2.27633e-05
0.0874067
-2.19416e-05
0.0874021
-2.11777e-05
0.0873977
-2.04733e-05
0.0873936
-1.98246e-05
0.0873896
-1.92239e-05
0.0873859
-1.86608e-05
0.0873824
-1.81253e-05
0.087379
-1.761e-05
0.0873759
-1.71103e-05
0.0873728
-1.66254e-05
0.08737
-1.61564e-05
0.0873673
-1.57055e-05
0.0873647
-1.52744e-05
0.0873622
-1.4864e-05
0.0873599
-1.44736e-05
0.0873577
-1.41014e-05
0.0873555
-1.37449e-05
-1.34014e-05
0.0873535
0.0935641
-3.50186e-05
0.0935484
-3.30359e-05
0.0935337
-3.10753e-05
0.09352
-2.92192e-05
0.0935072
-2.75133e-05
0.0934951
-2.59605e-05
0.0934837
-2.45395e-05
0.093473
-2.323e-05
0.0934629
-2.20261e-05
0.0934533
-2.09346e-05
0.0934442
-1.99608e-05
0.0934356
-1.90995e-05
0.0934273
-1.83338e-05
0.0934194
-1.76406e-05
0.0934118
-1.6999e-05
0.0934046
-1.63954e-05
0.0933976
-1.5825e-05
0.093391
-1.52892e-05
0.0933846
-1.47914e-05
0.0933784
-1.43335e-05
0.0933725
-1.39139e-05
0.0933668
-1.35276e-05
0.0933614
-1.31673e-05
0.0933561
-1.28254e-05
0.0933509
-1.24959e-05
0.093346
-1.21752e-05
0.0933412
-1.1862e-05
0.0933366
-1.15575e-05
0.0933322
-1.12633e-05
0.0933279
-1.09814e-05
0.0933237
-1.07126e-05
0.0933197
-1.04568e-05
0.0933158
-1.02129e-05
0.0933121
-9.97894e-06
-9.75283e-06
0.0933084
0.097571
-1.76474e-05
0.0975546
-1.66751e-05
0.0975392
-1.5704e-05
0.0975248
-1.47784e-05
0.0975112
-1.3924e-05
0.0974984
-1.31447e-05
0.0974863
-1.2431e-05
0.0974748
-1.1773e-05
0.097464
-1.11675e-05
0.0974536
-1.0618e-05
0.0974438
-1.01276e-05
0.0974344
-9.69471e-06
0.0974254
-9.31134e-06
0.0974167
-8.96607e-06
0.0974084
-8.64791e-06
0.0974003
-8.34949e-06
0.0973926
-8.06785e-06
0.0973851
-7.80331e-06
0.0973778
-7.55766e-06
0.0973708
-7.33205e-06
0.0973641
-7.126e-06
0.0973575
-6.93713e-06
0.0973511
-6.76177e-06
0.0973449
-6.59598e-06
0.0973388
-6.43641e-06
0.0973329
-6.28095e-06
0.0973272
-6.12887e-06
0.0973216
-5.98051e-06
0.0973161
-5.83686e-06
0.0973109
-5.6989e-06
0.0973057
-5.5673e-06
0.0973007
-5.44207e-06
0.0972958
-5.32264e-06
0.097291
-5.20804e-06
-5.0971e-06
0.0972864
0.0995743
1.4837e-09
0.0995576
-8.68126e-11
0.0995419
-1.23776e-09
0.0995271
-6.82182e-10
0.0995132
1.30335e-09
0.0995001
3.1516e-09
0.0994876
3.35616e-09
0.0994758
1.89341e-09
0.0994647
8.895e-11
0.0994541
-8.14418e-10
0.0994439
-2.86564e-10
0.0994343
1.31775e-09
0.0994249
3.09019e-09
0.099416
4.34735e-09
0.0994073
4.75668e-09
0.099399
4.43874e-09
0.0993909
3.80615e-09
0.0993831
3.25591e-09
0.0993755
3.14389e-09
0.0993682
3.56794e-09
0.099361
4.46594e-09
0.0993541
5.65254e-09
0.0993473
6.86541e-09
0.0993407
7.93145e-09
0.0993343
8.72048e-09
0.099328
9.24231e-09
0.0993219
9.58811e-09
0.0993159
9.88199e-09
0.09931
1.02773e-08
0.0993043
1.08556e-08
0.0992987
1.16748e-08
0.0992933
1.27188e-08
0.0992879
1.3942e-08
0.0992827
1.52847e-08
1.66757e-08
0.0992776
0.0995743
1.76493e-05
0.0995576
1.66753e-05
0.0995419
1.57029e-05
0.0995271
1.47781e-05
0.0995132
1.39265e-05
0.0995001
1.31496e-05
0.0994876
1.24363e-05
0.0994758
1.17763e-05
0.0994647
1.11683e-05
0.0994541
1.06174e-05
0.0994439
1.0128e-05
0.0994343
9.69765e-06
0.0994249
9.31723e-06
0.099416
8.97404e-06
0.0994073
8.65661e-06
0.099399
8.35777e-06
0.0993909
8.07516e-06
0.0993831
7.80991e-06
0.0993755
7.56425e-06
0.0993682
7.33956e-06
0.099361
7.13518e-06
0.0993541
6.9484e-06
0.0993473
6.77518e-06
0.0993407
6.61126e-06
0.0993343
6.45315e-06
0.099328
6.29876e-06
0.0993219
6.14748e-06
0.0993159
5.9999e-06
0.09931
5.85717e-06
0.0993043
5.72048e-06
0.0992987
5.59051e-06
0.0992933
5.46728e-06
0.0992879
5.35015e-06
0.0992827
5.23806e-06
5.12974e-06
0.0992776
0.097571
3.50212e-05
0.0975546
3.30362e-05
0.0975392
3.10739e-05
0.0975248
2.92188e-05
0.0975112
2.75158e-05
0.0974984
2.59652e-05
0.0974863
2.45441e-05
0.0974748
2.32324e-05
0.097464
2.20266e-05
0.0974537
2.09346e-05
0.0974438
1.99622e-05
0.0974344
1.91033e-05
0.0974254
1.83398e-05
0.0974167
1.76478e-05
0.0974084
1.70063e-05
0.0974003
1.64023e-05
0.0973926
1.58314e-05
0.0973851
1.52956e-05
0.0973778
1.47984e-05
0.0973708
1.43416e-05
0.0973641
1.39235e-05
0.0973575
1.35388e-05
0.0973511
1.318e-05
0.0973449
1.28394e-05
0.0973388
1.2511e-05
0.0973329
1.21912e-05
0.0973272
1.18791e-05
0.0973216
1.15756e-05
0.0973162
1.12827e-05
0.0973109
1.10022e-05
0.0973057
1.07351e-05
0.0973007
1.04812e-05
0.0972958
1.02393e-05
0.0972911
1.00074e-05
9.7835e-06
0.0972864
0.0935641
5.17854e-05
0.0935484
4.8714e-05
0.0935337
4.57241e-05
0.09352
4.29231e-05
0.0935072
4.03627e-05
0.0934951
3.80357e-05
0.0934837
3.59067e-05
0.093473
3.39466e-05
0.0934629
3.21485e-05
0.0934533
3.05202e-05
0.0934442
2.90653e-05
0.0934356
2.77717e-05
0.0934273
2.66125e-05
0.0934194
2.55549e-05
0.0934118
2.45709e-05
0.0934046
2.36439e-05
0.0933976
2.2769e-05
0.093391
2.19482e-05
0.0933846
2.11856e-05
0.0933785
2.04822e-05
0.0933725
1.98345e-05
0.0933669
1.92344e-05
0.0933614
1.86718e-05
0.0933561
1.8137e-05
0.093351
1.76224e-05
0.093346
1.71239e-05
0.0933413
1.66403e-05
0.0933367
1.61729e-05
0.0933322
1.57235e-05
0.0933279
1.52941e-05
0.0933238
1.48852e-05
0.0933198
1.44964e-05
0.0933159
1.41257e-05
0.0933121
1.37707e-05
1.34288e-05
0.0933085
0.0875531
6.74171e-05
0.0875387
6.31213e-05
0.0875254
5.90157e-05
0.0875132
5.52126e-05
0.0875018
5.17546e-05
0.0874912
4.86174e-05
0.0874813
4.57506e-05
0.0874722
4.31168e-05
0.0874636
4.0706e-05
0.0874556
3.85232e-05
0.0874481
3.65661e-05
0.0874411
3.48147e-05
0.0874344
3.32337e-05
0.0874282
3.17835e-05
0.0874223
3.04327e-05
0.0874168
2.91635e-05
0.0874116
2.79705e-05
0.0874067
2.68553e-05
0.0874021
2.58206e-05
0.0873977
2.48651e-05
0.0873936
2.39825e-05
0.0873896
2.31624e-05
0.0873859
2.23928e-05
0.0873824
2.16628e-05
0.087379
2.09645e-05
0.0873759
2.02935e-05
0.0873729
1.96481e-05
0.08737
1.90291e-05
0.0873673
1.84376e-05
0.0873647
1.78747e-05
0.0873623
1.73401e-05
0.0873599
1.68326e-05
0.0873577
1.63499e-05
0.0873556
1.58891e-05
1.54474e-05
0.0873536
0.0795392
8.06136e-05
0.0795275
7.48344e-05
0.0795171
6.94294e-05
0.0795078
6.449e-05
0.0794995
6.0031e-05
0.0794921
5.60045e-05
0.0794855
5.23443e-05
0.0794796
4.90039e-05
0.0794744
4.59662e-05
0.0794697
4.32269e-05
0.0794655
4.07728e-05
0.0794617
3.85732e-05
0.0794584
3.65849e-05
0.0794554
3.47641e-05
0.0794527
3.30774e-05
0.0794504
3.15056e-05
0.0794483
3.00416e-05
0.0794465
2.86841e-05
0.0794449
2.74315e-05
0.0794435
2.62786e-05
0.0794422
2.52158e-05
0.0794412
2.42305e-05
0.0794403
2.33095e-05
0.0794395
2.24417e-05
0.0794388
2.16186e-05
0.0794383
2.08352e-05
0.0794378
2.00891e-05
0.0794375
1.93795e-05
0.0794372
1.87062e-05
0.079437
1.80688e-05
0.0794369
1.74661e-05
0.0794368
1.68962e-05
0.0794368
1.63563e-05
0.0794369
1.58436e-05
1.5355e-05
0.079437
0.0695316
8.77145e-05
0.0695263
8.01359e-05
0.0695225
7.32667e-05
0.0695198
6.71347e-05
0.0695181
6.16969e-05
0.0695173
5.68627e-05
0.0695171
5.25378e-05
0.0695174
4.86558e-05
0.0695182
4.51798e-05
0.0695194
4.20847e-05
0.0695208
3.9338e-05
0.0695225
3.68945e-05
0.0695244
3.4702e-05
0.0695264
3.27129e-05
0.0695286
3.08917e-05
0.0695309
2.92164e-05
0.0695333
2.76756e-05
0.0695357
2.62623e-05
0.0695381
2.49696e-05
0.0695406
2.37877e-05
0.0695431
2.27044e-05
0.0695457
2.17059e-05
0.0695482
2.0779e-05
0.0695507
1.99126e-05
0.0695532
1.90981e-05
0.0695558
1.83299e-05
0.0695582
1.76045e-05
0.0695607
1.69197e-05
0.0695631
1.6274e-05
0.0695655
1.5666e-05
0.0695679
1.50939e-05
0.0695702
1.45554e-05
0.0695726
1.40479e-05
0.0695748
1.35684e-05
1.31141e-05
0.0695771
0.0575673
8.11495e-05
0.0575752
7.22873e-05
0.0575838
6.4634e-05
0.0575929
5.80648e-05
0.0576022
5.2425e-05
0.0576115
4.75526e-05
0.0576207
4.33088e-05
0.0576298
3.95943e-05
0.0576386
3.63425e-05
0.0576472
3.35015e-05
0.0576555
3.10188e-05
0.0576636
2.88383e-05
0.0576714
2.69051e-05
0.0576789
2.51725e-05
0.0576862
2.36065e-05
0.0576932
2.21846e-05
0.0577
2.08925e-05
0.0577066
1.97198e-05
0.0577129
1.86562e-05
0.057719
1.76909e-05
0.0577249
1.68117e-05
0.0577306
1.60063e-05
0.0577361
1.52633e-05
0.0577414
1.45734e-05
0.0577466
1.3929e-05
0.0577516
1.33251e-05
0.0577564
1.27581e-05
0.0577611
1.22257e-05
0.0577657
1.17261e-05
0.0577701
1.12579e-05
0.0577744
1.08192e-05
0.0577785
1.04081e-05
0.0577825
1.00224e-05
0.0577864
9.65958e-06
9.31724e-06
0.0577902
0.0437308
5.50823e-05
0.0437555
4.76504e-05
0.0437785
4.15856e-05
0.0437999
3.66122e-05
0.0438199
3.24975e-05
0.0438384
2.90505e-05
0.0438556
2.61271e-05
0.0438715
2.36278e-05
0.0438864
2.14847e-05
0.0439002
1.96447e-05
0.0439132
1.80596e-05
0.0439254
1.66834e-05
0.0439368
1.54751e-05
0.0439476
1.44021e-05
0.0439577
1.34409e-05
0.0439673
1.2576e-05
0.0439764
1.17965e-05
0.0439851
1.10944e-05
0.0439933
1.04618e-05
0.0440011
9.89083e-06
0.0440085
9.37324e-06
0.0440156
8.90107e-06
0.0440224
8.46705e-06
0.0440289
8.06527e-06
0.0440351
7.69116e-06
0.0440411
7.34156e-06
0.0440469
7.01432e-06
0.0440524
6.70806e-06
0.0440577
6.42168e-06
0.0440628
6.15426e-06
0.0440677
5.90465e-06
0.0440724
5.67161e-06
0.044077
5.45363e-06
0.0440814
5.24919e-06
5.05668e-06
0.0440857
0.0281182
1.98926e-05
0.0281491
1.68014e-05
0.0281763
1.43955e-05
0.0282004
1.24938e-05
0.0282219
1.09636e-05
0.0282413
9.70839e-06
0.0282587
8.66174e-06
0.0282746
7.78035e-06
0.028289
7.03497e-06
0.0283023
6.40281e-06
0.0283145
5.86347e-06
0.0283257
5.39842e-06
0.0283362
4.99204e-06
0.028346
4.63251e-06
0.0283551
4.31172e-06
0.0283637
4.02431e-06
0.0283717
3.76664e-06
0.0283793
3.53571e-06
0.0283864
3.32865e-06
0.0283932
3.14245e-06
0.0283996
2.97408e-06
0.0284056
2.82066e-06
0.0284114
2.67967e-06
0.0284169
2.54911e-06
0.0284222
2.42752e-06
0.0284272
2.31393e-06
0.028432
2.20775e-06
0.0284366
2.10859e-06
0.028441
2.01615e-06
0.0284453
1.93013e-06
0.0284493
1.85011e-06
0.0284532
1.77562e-06
0.028457
1.70609e-06
0.0284606
1.64095e-06
1.57962e-06
0.028464
0.0107506
0.0107674
0.0107818
0.0107943
0.0108052
0.010815
0.0108236
0.0108314
0.0108384
0.0108448
0.0108507
0.0108561
0.0108611
0.0108657
0.01087
0.0108741
0.0108778
0.0108814
0.0108847
0.0108878
0.0108908
0.0108936
0.0108963
0.0108989
0.0109013
0.0109036
0.0109058
0.0109079
0.0109099
0.0109119
0.0109137
0.0109155
0.0109172
0.0109188
0.0109204
0.0109219
-1.52031e-06
0.0109234
-1.46525e-06
0.0109248
-1.41276e-06
0.0109262
-1.36264e-06
0.0109275
-1.31473e-06
0.0109287
-1.26899e-06
0.01093
-1.22537e-06
0.0109311
-1.18388e-06
0.0109323
-1.14445e-06
-1.10705e-06
0.0109334
0.0284674
-4.87024e-06
0.0284706
-4.69737e-06
0.0284737
-4.53274e-06
0.0284767
-4.37558e-06
0.0284796
-4.22537e-06
0.0284824
-4.08182e-06
0.0284852
-3.94473e-06
0.0284878
-3.814e-06
0.0284903
-3.68948e-06
-3.57101e-06
0.0284928
0.0440897
-8.98451e-06
0.0440937
-8.67597e-06
0.0440976
-8.38173e-06
0.0441013
-8.10053e-06
0.0441049
-7.83149e-06
0.0441084
-7.57404e-06
0.0441118
-7.3278e-06
0.0441151
-7.09253e-06
0.0441182
-6.86796e-06
-6.65376e-06
0.0441213
0.0577939
-1.26687e-05
0.0577974
-1.2256e-05
0.0578009
-1.18611e-05
0.0578043
-1.14827e-05
0.0578076
-1.11198e-05
0.0578108
-1.07716e-05
0.0578139
-1.04378e-05
0.0578169
-1.01181e-05
0.0578199
-9.81212e-06
-9.51936e-06
0.0578227
0.0695792
-1.48688e-05
0.0695814
-1.44196e-05
0.0695835
-1.39876e-05
0.0695856
-1.35715e-05
0.0695876
-1.31708e-05
0.0695897
-1.2785e-05
0.0695916
-1.24139e-05
0.0695936
-1.20572e-05
0.0695955
-1.17147e-05
-1.13859e-05
0.0695973
0.079437
-1.49978e-05
0.0794372
-1.45857e-05
0.0794374
-1.41865e-05
0.0794376
-1.37996e-05
0.0794379
-1.34249e-05
0.0794382
-1.30624e-05
0.0794385
-1.27123e-05
0.0794388
-1.23746e-05
0.0794391
-1.20491e-05
-1.17354e-05
0.0794395
0.0873516
-1.30684e-05
0.0873498
-1.27443e-05
0.087348
-1.24281e-05
0.0873463
-1.21195e-05
0.0873447
-1.18187e-05
0.0873432
-1.15263e-05
0.0873417
-1.12426e-05
0.0873403
-1.0968e-05
0.0873389
-1.07024e-05
-1.04455e-05
0.0873377
0.0933049
-9.53265e-06
0.0933015
-9.31707e-06
0.0932982
-9.1054e-06
0.0932949
-8.89755e-06
0.0932918
-8.69385e-06
0.0932888
-8.49486e-06
0.0932858
-8.3011e-06
0.093283
-8.11293e-06
0.0932802
-7.93044e-06
-7.75346e-06
0.0932775
0.0972819
-4.9888e-06
0.0972774
-4.88237e-06
0.0972731
-4.77746e-06
0.0972689
-4.67401e-06
0.0972647
-4.57224e-06
0.0972607
-4.47251e-06
0.0972568
-4.37513e-06
0.097253
-4.28034e-06
0.0972492
-4.1882e-06
-4.09863e-06
0.0972456
0.0992726
1.80719e-08
0.0992677
1.9434e-08
0.0992629
2.07547e-08
0.0992582
2.20374e-08
0.0992536
2.32998e-08
0.0992491
2.45723e-08
0.0992447
2.58808e-08
0.0992404
2.7261e-08
0.0992362
2.87334e-08
3.03214e-08
0.0992321
0.0992726
5.02409e-06
0.0992677
4.9203e-06
0.0992629
4.81796e-06
0.0992582
4.71705e-06
0.0992536
4.6178e-06
0.0992491
4.52062e-06
0.0992447
4.42587e-06
0.0992404
4.33383e-06
0.0992362
4.24462e-06
4.15818e-06
0.0992321
0.0972819
9.5656e-06
0.0972774
9.35235e-06
0.0972731
9.14304e-06
0.0972689
8.93759e-06
0.0972648
8.73635e-06
0.0972608
8.53989e-06
0.0972568
8.34875e-06
0.097253
8.16331e-06
0.0972493
7.98369e-06
7.80973e-06
0.0972456
0.0933049
1.30976e-05
0.0933015
1.27754e-05
0.0932982
1.24613e-05
0.093295
1.21549e-05
0.0932919
1.18565e-05
0.0932888
1.15665e-05
0.0932859
1.12854e-05
0.093283
1.10134e-05
0.0932803
1.07505e-05
1.04964e-05
0.0932776
0.0873516
1.50222e-05
0.0873498
1.46115e-05
0.087348
1.4214e-05
0.0873464
1.38291e-05
0.0873448
1.34566e-05
0.0873432
1.30964e-05
0.0873418
1.27487e-05
0.0873404
1.24134e-05
0.087339
1.20904e-05
1.17791e-05
0.0873378
0.0794371
1.48878e-05
0.0794373
1.44397e-05
0.0794375
1.4009e-05
0.0794377
1.35946e-05
0.079438
1.31957e-05
0.0794383
1.28119e-05
0.0794386
1.24428e-05
0.0794389
1.20882e-05
0.0794392
1.17477e-05
1.14208e-05
0.0794396
0.0695793
1.26822e-05
0.0695814
1.22703e-05
0.0695836
1.18765e-05
0.0695857
1.14993e-05
0.0695877
1.11378e-05
0.0695898
1.07911e-05
0.0695917
1.04588e-05
0.0695937
1.01406e-05
0.0695956
9.83596e-06
9.54453e-06
0.0695975
0.0577939
8.99309e-06
0.0577975
8.68502e-06
0.057801
8.39141e-06
0.0578044
8.11092e-06
0.0578077
7.84272e-06
0.0578109
7.58612e-06
0.057814
7.34081e-06
0.057817
7.10641e-06
0.05782
6.88274e-06
6.66937e-06
0.0578229
0.0440898
4.8747e-06
0.0440938
4.70195e-06
0.0440976
4.53749e-06
0.0441014
4.38053e-06
0.044105
4.23063e-06
0.0441085
4.08743e-06
0.0441119
3.95079e-06
0.0441152
3.82052e-06
0.0441183
3.69651e-06
3.57852e-06
0.0441214
0.0284674
1.5216e-06
0.0284706
1.46649e-06
0.0284738
1.41397e-06
0.0284768
1.36385e-06
0.0284797
1.316e-06
0.0284825
1.27036e-06
0.0284852
1.2269e-06
0.0284879
1.18557e-06
0.0284904
1.14634e-06
1.10912e-06
0.0284929
0.0109219
0.0109234
0.0109248
0.0109262
0.0109275
0.0109288
0.01093
0.0109312
0.0109323
0.0109334
0.0109345
-1.07154e-06
0.0109355
-1.03785e-06
0.0109365
-1.00577e-06
0.0109375
-9.75175e-07
0.0109384
-9.45882e-07
0.0109394
-9.17776e-07
0.0109402
-8.9071e-07
0.0109411
-8.64623e-07
0.0109419
-8.39423e-07
0.0109428
-8.15103e-07
0.0109436
-7.91612e-07
0.0109443
-7.68973e-07
0.0109451
-7.47144e-07
0.0109458
-7.26152e-07
0.0109465
-7.05947e-07
0.0109472
-6.86537e-07
0.0109479
-6.67857e-07
0.0109485
-6.49898e-07
0.0109491
-6.32584e-07
0.0109498
-6.15901e-07
0.0109504
-5.9977e-07
0.0109509
-5.84184e-07
0.0109515
-5.69075e-07
0.0109521
-5.54446e-07
0.0109526
-5.40243e-07
0.0109531
-5.26485e-07
0.0109536
-5.13125e-07
0.0109541
-5.00195e-07
0.0109546
-4.8765e-07
0.0109551
-4.75526e-07
0.0109556
-4.63782e-07
0.010956
-4.52454e-07
0.0109565
-4.41502e-07
0.0109569
-4.30969e-07
-4.20825e-07
0.0109573
0.0284952
-3.45832e-06
0.0284975
-3.35109e-06
0.0284997
-3.2489e-06
0.0285019
-3.15132e-06
0.028504
-3.0579e-06
0.0285061
-2.96824e-06
0.0285081
-2.88197e-06
0.02851
-2.79881e-06
0.0285119
-2.71853e-06
0.0285137
-2.641e-06
0.0285155
-2.56611e-06
0.0285172
-2.49383e-06
0.0285189
-2.42409e-06
0.0285205
-2.35689e-06
0.0285221
-2.29214e-06
0.0285237
-2.2298e-06
0.0285252
-2.16976e-06
0.0285266
-2.11192e-06
0.028528
-2.05614e-06
0.0285294
-2.00231e-06
0.0285308
-1.95027e-06
0.0285321
-1.89993e-06
0.0285334
-1.85115e-06
0.0285346
-1.80385e-06
0.0285358
-1.75796e-06
0.028537
-1.71344e-06
0.0285382
-1.67021e-06
0.0285393
-1.62829e-06
0.0285404
-1.58762e-06
0.0285415
-1.54821e-06
0.0285425
-1.51004e-06
0.0285436
-1.47311e-06
0.0285446
-1.43742e-06
0.0285455
-1.40299e-06
-1.36984e-06
0.0285465
0.0441243
-6.44949e-06
0.0441272
-6.25461e-06
0.04413
-6.06844e-06
0.0441328
-5.8903e-06
0.0441354
-5.71947e-06
0.044138
-5.5553e-06
0.0441405
-5.39719e-06
0.044143
-5.24468e-06
0.0441454
-5.09741e-06
0.0441477
-4.9551e-06
0.0441499
-4.81759e-06
0.0441521
-4.68475e-06
0.0441542
-4.55647e-06
0.0441563
-4.43267e-06
0.0441583
-4.31324e-06
0.0441603
-4.19804e-06
0.0441622
-4.0869e-06
0.0441641
-3.97965e-06
0.0441659
-3.87605e-06
0.0441677
-3.7759e-06
0.0441694
-3.67899e-06
0.0441711
-3.58511e-06
0.0441727
-3.49409e-06
0.0441744
-3.40577e-06
0.0441759
-3.32004e-06
0.0441774
-3.23679e-06
0.0441789
-3.15594e-06
0.0441804
-3.07745e-06
0.0441818
-3.00126e-06
0.0441832
-2.92736e-06
0.0441845
-2.8557e-06
0.0441858
-2.78628e-06
0.0441871
-2.71909e-06
0.0441884
-2.65415e-06
-2.5915e-06
0.0441896
0.0578255
-9.23928e-06
0.0578282
-8.97117e-06
0.0578309
-8.71423e-06
0.0578335
-8.46762e-06
0.057836
-8.23048e-06
0.0578384
-8.00204e-06
0.0578408
-7.78163e-06
0.0578431
-7.56868e-06
0.0578454
-7.36276e-06
0.0578476
-7.16355e-06
0.0578498
-6.97081e-06
0.0578519
-6.78436e-06
0.0578539
-6.60405e-06
0.0578559
-6.42974e-06
0.0578579
-6.26126e-06
0.0578598
-6.09841e-06
0.0578616
-5.94097e-06
0.0578634
-5.78869e-06
0.0578652
-5.6413e-06
0.0578669
-5.49855e-06
0.0578686
-5.36016e-06
0.0578702
-5.22591e-06
0.0578718
-5.09556e-06
0.0578734
-4.96895e-06
0.0578749
-4.8459e-06
0.0578764
-4.7263e-06
0.0578779
-4.61005e-06
0.0578793
-4.49706e-06
0.0578807
-4.38728e-06
0.057882
-4.28064e-06
0.0578833
-4.17711e-06
0.0578846
-4.07666e-06
0.0578859
-3.97928e-06
0.0578871
-3.88499e-06
-3.79383e-06
0.0578883
0.0695992
-1.10701e-05
0.069601
-1.07667e-05
0.0696027
-1.04747e-05
0.0696045
-1.01933e-05
0.0696061
-9.92165e-06
0.0696078
-9.65908e-06
0.0696094
-9.40494e-06
0.069611
-9.15874e-06
0.0696126
-8.92009e-06
0.0696141
-8.68872e-06
0.0696156
-8.46442e-06
0.0696171
-8.247e-06
0.0696185
-8.03631e-06
0.0696199
-7.83217e-06
0.0696213
-7.6344e-06
0.0696226
-7.44276e-06
0.0696239
-7.25701e-06
0.0696252
-7.07688e-06
0.0696265
-6.90209e-06
0.0696277
-6.73238e-06
0.0696289
-6.56749e-06
0.0696301
-6.40717e-06
0.0696313
-6.25123e-06
0.0696324
-6.09949e-06
0.0696335
-5.95179e-06
0.0696346
-5.80802e-06
0.0696356
-5.66807e-06
0.0696367
-5.53185e-06
0.0696377
-5.3993e-06
0.0696387
-5.27036e-06
0.0696396
-5.14497e-06
0.0696406
-5.02311e-06
0.0696415
-4.90477e-06
0.0696424
-4.78995e-06
-4.67872e-06
0.0696433
0.0794398
-1.1433e-05
0.0794402
-1.11411e-05
0.0794406
-1.08589e-05
0.079441
-1.05856e-05
0.0794414
-1.03205e-05
0.0794418
-1.00632e-05
0.0794422
-9.81302e-06
0.0794426
-9.56979e-06
0.079443
-9.33324e-06
0.0794434
-9.10324e-06
0.0794438
-8.87966e-06
0.0794443
-8.6624e-06
0.0794447
-8.45132e-06
0.0794451
-8.24628e-06
0.0794455
-8.04709e-06
0.0794459
-7.85352e-06
0.0794463
-7.66534e-06
0.0794467
-7.48229e-06
0.0794471
-7.30414e-06
0.0794475
-7.13064e-06
0.0794479
-6.96159e-06
0.0794483
-6.7968e-06
0.0794487
-6.63612e-06
0.0794491
-6.47941e-06
0.0794495
-6.32657e-06
0.0794498
-6.1775e-06
0.0794502
-6.03213e-06
0.0794505
-5.89039e-06
0.0794509
-5.75221e-06
0.0794512
-5.61756e-06
0.0794516
-5.48639e-06
0.0794519
-5.35867e-06
0.0794523
-5.23438e-06
0.0794526
-5.11356e-06
-4.99626e-06
0.0794529
0.0873364
-1.01969e-05
0.0873352
-9.95586e-06
0.0873341
-9.72173e-06
0.087333
-9.49386e-06
0.087332
-9.27171e-06
0.0873309
-9.0549e-06
0.08733
-8.84318e-06
0.087329
-8.63643e-06
0.0873281
-8.4346e-06
0.0873273
-8.23769e-06
0.0873264
-8.04571e-06
0.0873256
-7.85862e-06
0.0873249
-7.67635e-06
0.0873241
-7.49881e-06
0.0873234
-7.32582e-06
0.0873227
-7.1572e-06
0.087322
-6.99274e-06
0.0873214
-6.83225e-06
0.0873208
-6.67553e-06
0.0873201
-6.5224e-06
0.0873196