/*--------------------------------*- C++ -*----------------------------------*\
| =========                 |                                                 |
| \\      /  F ield         | OpenFOAM: The Open Source CFD Toolbox           |
|  \\    /   O peration     | Version:  2406                                  |
|   \\  /    A nd           | Website:  www.openfoam.com                      |
|    \\/     M anipulation  |                                                 |
\*---------------------------------------------------------------------------*/
FoamFile
{
    version     2.0;
    format      ascii;
    arch        "LSB;label=32;scalar=64";
    class       volVectorField;
    location    "80";
    object      U;
}
// * * * * * * * * * * * * * * * * * * * * * * * * * * * * * * * * * * * * * //

dimensions      [0 1 -1 0 0 0 0];

internalField   nonuniform List<vector> 
2000
(
(0.0987817 -0.00115179 0)
(0.10069 -0.00127678 0)
(0.102494 -0.000782793 0)
(0.103911 -0.000449918 0)
(0.104911 -0.000284781 0)
(0.105638 -0.000188033 0)
(0.106187 -0.000125692 0)
(0.106606 -8.81469e-05 0)
(0.106933 -6.60777e-05 0)
(0.107197 -5.20233e-05 0)
(0.276422 -0.00152722 0)
(0.276238 -0.0025565 0)
(0.276623 -0.00230878 0)
(0.277167 -0.00182698 0)
(0.27782 -0.0014267 0)
(0.278506 -0.00111003 0)
(0.279148 -0.000860952 0)
(0.279715 -0.000674924 0)
(0.28021 -0.00054058 0)
(0.280641 -0.000442584 0)
(0.436684 -0.00081449 0)
(0.436436 -0.00169031 0)
(0.436214 -0.00187913 0)
(0.435907 -0.00180107 0)
(0.435794 -0.00166082 0)
(0.435898 -0.00149015 0)
(0.436112 -0.00130375 0)
(0.436367 -0.00112615 0)
(0.436637 -0.000971526 0)
(0.436912 -0.000841125 0)
(0.576872 -0.000438795 0)
(0.576816 -0.00108601 0)
(0.576673 -0.00138681 0)
(0.576254 -0.00146957 0)
(0.575888 -0.00146262 0)
(0.575686 -0.001406 0)
(0.575589 -0.00131288 0)
(0.575546 -0.00120265 0)
(0.575544 -0.00109207 0)
(0.575577 -0.00098847 0)
(0.696971 -0.000274839 0)
(0.69701 -0.00074082 0)
(0.696996 -0.00102123 0)
(0.696665 -0.00114387 0)
(0.696295 -0.00118432 0)
(0.696028 -0.0011792 0)
(0.695832 -0.00113951 0)
(0.695669 -0.00107747 0)
(0.695533 -0.00100647 0)
(0.695426 -0.000934554 0)
(0.797033 -0.000183228 0)
(0.797113 -0.000512166 0)
(0.797176 -0.00074 0)
(0.796927 -0.000863839 0)
(0.796598 -0.000921965 0)
(0.796335 -0.00094038 0)
(0.796125 -0.000928504 0)
(0.795932 -0.000894765 0)
(0.795753 -0.000849337 0)
(0.795593 -0.000799598 0)
(0.877072 -0.000123383 0)
(0.877169 -0.000351588 0)
(0.877273 -0.000523876 0)
(0.87708 -0.000630442 0)
(0.876789 -0.000688567 0)
(0.876543 -0.000714472 0)
(0.876337 -0.000715713 0)
(0.876139 -0.0006984 0)
(0.875947 -0.00066983 0)
(0.875769 -0.000635895 0)
(0.937097 -7.99898e-05 0)
(0.937201 -0.000230407 0)
(0.937327 -0.000349795 0)
(0.937169 -0.000429472 0)
(0.936906 -0.000476695 0)
(0.936674 -0.000500676 0)
(0.936474 -0.000506646 0)
(0.936278 -0.000498775 0)
(0.936081 -0.000481889 0)
(0.935895 -0.000460128 0)
(0.977112 -4.52193e-05 0)
(0.977219 -0.000130979 0)
(0.977355 -0.000200935 0)
(0.977218 -0.00024968 0)
(0.976973 -0.000280006 0)
(0.976751 -0.000296468 0)
(0.976556 -0.000302003 0)
(0.976361 -0.000299018 0)
(0.976164 -0.000290266 0)
(0.975973 -0.00027819 0)
(0.997119 -1.46505e-05 0)
(0.997226 -4.25345e-05 0)
(0.997367 -6.55571e-05 0)
(0.99724 -8.19218e-05 0)
(0.997003 -9.23382e-05 0)
(0.996787 -9.81599e-05 0)
(0.996595 -0.000100319 0)
(0.9964 -9.96016e-05 0)
(0.996202 -9.69061e-05 0)
(0.99601 -9.30419e-05 0)
(0.997119 1.46531e-05 0)
(0.997226 4.25415e-05 0)
(0.997367 6.55715e-05 0)
(0.99724 8.19438e-05 0)
(0.997003 9.23625e-05 0)
(0.996787 9.81817e-05 0)
(0.996595 0.000100337 0)
(0.9964 9.9621e-05 0)
(0.996202 9.69342e-05 0)
(0.99601 9.30762e-05 0)
(0.977112 4.52222e-05 0)
(0.977219 0.000130986 0)
(0.977355 0.000200948 0)
(0.977218 0.000249701 0)
(0.976973 0.00028003 0)
(0.976751 0.000296488 0)
(0.976556 0.000302018 0)
(0.976361 0.000299034 0)
(0.976164 0.000290291 0)
(0.975973 0.000278223 0)
(0.937097 7.99934e-05 0)
(0.937201 0.000230416 0)
(0.937327 0.000349812 0)
(0.937169 0.000429492 0)
(0.936906 0.000476716 0)
(0.936674 0.000500697 0)
(0.936474 0.000506667 0)
(0.936278 0.000498795 0)
(0.936081 0.00048191 0)
(0.935895 0.000460153 0)
(0.877072 0.000123386 0)
(0.877169 0.000351595 0)
(0.877273 0.000523887 0)
(0.87708 0.000630457 0)
(0.876789 0.000688586 0)
(0.876543 0.000714496 0)
(0.876337 0.000715738 0)
(0.876139 0.000698424 0)
(0.875947 0.000669852 0)
(0.875769 0.000635916 0)
(0.797033 0.000183232 0)
(0.797113 0.000512175 0)
(0.797176 0.000740013 0)
(0.796927 0.000863853 0)
(0.796598 0.000921983 0)
(0.796335 0.000940405 0)
(0.796125 0.000928532 0)
(0.795932 0.000894788 0)
(0.795753 0.000849351 0)
(0.795593 0.000799606 0)
(0.696971 0.000274842 0)
(0.69701 0.000740828 0)
(0.696996 0.00102124 0)
(0.696665 0.00114389 0)
(0.696295 0.00118434 0)
(0.696028 0.00117923 0)
(0.695832 0.00113954 0)
(0.695669 0.00107749 0)
(0.695533 0.00100648 0)
(0.695426 0.000934563 0)
(0.576872 0.000438799 0)
(0.576816 0.00108602 0)
(0.576673 0.00138682 0)
(0.576254 0.00146959 0)
(0.575888 0.00146264 0)
(0.575686 0.00140602 0)
(0.575589 0.00131291 0)
(0.575546 0.00120267 0)
(0.575544 0.00109208 0)
(0.575577 0.000988478 0)
(0.436684 0.000814494 0)
(0.436436 0.00169032 0)
(0.436214 0.00187914 0)
(0.435907 0.00180109 0)
(0.435794 0.00166084 0)
(0.435898 0.00149018 0)
(0.436112 0.00130378 0)
(0.436367 0.00112617 0)
(0.436637 0.00097154 0)
(0.436912 0.000841133 0)
(0.276422 0.00152722 0)
(0.276238 0.00255651 0)
(0.276622 0.0023088 0)
(0.277167 0.001827 0)
(0.27782 0.00142672 0)
(0.278506 0.00111005 0)
(0.279148 0.000860981 0)
(0.279715 0.000674952 0)
(0.28021 0.000540596 0)
(0.280641 0.000442594 0)
(0.0987817 0.00115179 0)
(0.10069 0.00127679 0)
(0.102494 0.000782799 0)
(0.103911 0.000449925 0)
(0.104911 0.000284791 0)
(0.105638 0.000188048 0)
(0.106187 0.000125705 0)
(0.106606 8.81483e-05 0)
(0.106933 6.60771e-05 0)
(0.107197 5.20346e-05 0)
(0.107414 -4.22235e-05 0)
(0.107596 -3.50973e-05 0)
(0.10775 -2.97837e-05 0)
(0.107884 -2.56952e-05 0)
(0.108001 -2.24578e-05 0)
(0.108103 -1.98405e-05 0)
(0.108195 -1.76847e-05 0)
(0.108277 -1.58766e-05 0)
(0.108351 -1.43422e-05 0)
(0.108418 -1.30398e-05 0)
(0.108479 -1.19395e-05 0)
(0.108535 -1.10071e-05 0)
(0.108587 -1.02045e-05 0)
(0.108635 -9.49427e-06 0)
(0.108679 -8.84963e-06 0)
(0.108721 -8.25815e-06 0)
(0.10876 -7.71763e-06 0)
(0.108796 -7.2313e-06 0)
(0.108831 -6.80064e-06 0)
(0.108863 -6.4222e-06 0)
(0.108893 -6.08824e-06 0)
(0.108922 -5.78757e-06 0)
(0.10895 -5.51011e-06 0)
(0.108976 -5.24784e-06 0)
(0.109001 -4.99683e-06 0)
(0.109025 -4.75643e-06 0)
(0.109047 -4.52819e-06 0)
(0.109069 -4.31453e-06 0)
(0.109089 -4.1173e-06 0)
(0.109109 -3.93704e-06 0)
(0.109128 -3.77304e-06 0)
(0.109146 -3.6231e-06 0)
(0.109163 -3.48477e-06 0)
(0.10918 -3.35511e-06 0)
(0.109196 -3.232e-06 0)
(0.281017 -0.000368936 0)
(0.281346 -0.000312254 0)
(0.281634 -0.000267976 0)
(0.28189 -0.000232903 0)
(0.282117 -0.000204629 0)
(0.282321 -0.000181393 0)
(0.282504 -0.000161995 0)
(0.28267 -0.00014565 0)
(0.282821 -0.000131819 0)
(0.282959 -0.000120073 0)
(0.283086 -0.000110032 0)
(0.283203 -0.000101359 0)
(0.283312 -9.37717e-05 0)
(0.283413 -8.70609e-05 0)
(0.283507 -8.10767e-05 0)
(0.283595 -7.57158e-05 0)
(0.283678 -7.09049e-05 0)
(0.283756 -6.65841e-05 0)
(0.283829 -6.27005e-05 0)
(0.283899 -5.92015e-05 0)
(0.283964 -5.60354e-05 0)
(0.284027 -5.3153e-05 0)
(0.284086 -5.05086e-05 0)
(0.284142 -4.80646e-05 0)
(0.284196 -4.57911e-05 0)
(0.284248 -4.36671e-05 0)
(0.284297 -4.16792e-05 0)
(0.284344 -3.98185e-05 0)
(0.284389 -3.80799e-05 0)
(0.284432 -3.64579e-05 0)
(0.284473 -3.49473e-05 0)
(0.284513 -3.35402e-05 0)
(0.284551 -3.22276e-05 0)
(0.284588 -3.09993e-05 0)
(0.284623 -2.98445e-05 0)
(0.43718 -0.000731496 0)
(0.437434 -0.000639416 0)
(0.437673 -0.000562399 0)
(0.437896 -0.000498117 0)
(0.438102 -0.000444227 0)
(0.438294 -0.000398602 0)
(0.438473 -0.00035958 0)
(0.438638 -0.000326002 0)
(0.438792 -0.000297066 0)
(0.438935 -0.000272124 0)
(0.439069 -0.000250561 0)
(0.439195 -0.000231779 0)
(0.439312 -0.000215245 0)
(0.439423 -0.000200531 0)
(0.439528 -0.000187332 0)
(0.439627 -0.000175441 0)
(0.43972 -0.000164713 0)
(0.439809 -0.000155032 0)
(0.439893 -0.000146293 0)
(0.439972 -0.000138388 0)
(0.440048 -0.000131209 0)
(0.440121 -0.000124653 0)
(0.440191 -0.000118627 0)
(0.440257 -0.000113052 0)
(0.440321 -0.000107865 0)
(0.440382 -0.000103018 0)
(0.44044 -9.84795e-05 0)
(0.440497 -9.42262e-05 0)
(0.440551 -9.02418e-05 0)
(0.440603 -8.65129e-05 0)
(0.440653 -8.3026e-05 0)
(0.440701 -7.97657e-05 0)
(0.440747 -7.67142e-05 0)
(0.440792 -7.38518e-05 0)
(0.440835 -7.11579e-05 0)
(0.575636 -0.00089349 0)
(0.57571 -0.000807521 0)
(0.575793 -0.000730882 0)
(0.575883 -0.000663429 0)
(0.575975 -0.000604323 0)
(0.576068 -0.000552334 0)
(0.576161 -0.000506312 0)
(0.576253 -0.000465456 0)
(0.576342 -0.00042928 0)
(0.57643 -0.000397393 0)
(0.576514 -0.000369329 0)
(0.576596 -0.000344526 0)
(0.576675 -0.000322397 0)
(0.576752 -0.00030244 0)
(0.576826 -0.000284296 0)
(0.576898 -0.00026774 0)
(0.576967 -0.000252634 0)
(0.577033 -0.000238879 0)
(0.577098 -0.000226371 0)
(0.57716 -0.000214989 0)
(0.57722 -0.000204593 0)
(0.577277 -0.000195044 0)
(0.577333 -0.000186211 0)
(0.577388 -0.000177989 0)
(0.57744 -0.000170296 0)
(0.577491 -0.000163073 0)
(0.57754 -0.000156282 0)
(0.577588 -0.000149897 0)
(0.577634 -0.000143896 0)
(0.577679 -0.000138262 0)
(0.577722 -0.000132974 0)
(0.577764 -0.000128009 0)
(0.577805 -0.000123342 0)
(0.577845 -0.000118945 0)
(0.577883 -0.000114791 0)
(0.695345 -0.000864843 0)
(0.695285 -0.000798765 0)
(0.69524 -0.000737533 0)
(0.695208 -0.000681925 0)
(0.695187 -0.000631927 0)
(0.695175 -0.000586902 0)
(0.69517 -0.000546083 0)
(0.695171 -0.000508964 0)
(0.695177 -0.000475352 0)
(0.695187 -0.000445161 0)
(0.6952 -0.000418192 0)
(0.695216 -0.000394059 0)
(0.695234 -0.000372267 0)
(0.695253 -0.000352345 0)
(0.695275 -0.000333951 0)
(0.695297 -0.000316892 0)
(0.69532 -0.000301093 0)
(0.695344 -0.000286525 0)
(0.695369 -0.000273146 0)
(0.695394 -0.000260877 0)
(0.695419 -0.000249596 0)
(0.695444 -0.000239161 0)
(0.695469 -0.000229432 0)
(0.695494 -0.000220293 0)
(0.69552 -0.000211661 0)
(0.695545 -0.000203483 0)
(0.69557 -0.000195731 0)
(0.695594 -0.000188391 0)
(0.695619 -0.000181455 0)
(0.695643 -0.00017491 0)
(0.695667 -0.00016874 0)
(0.69569 -0.000162921 0)
(0.695714 -0.000157423 0)
(0.695737 -0.000152215 0)
(0.695759 -0.000147265 0)
(0.795453 -0.000749116 0)
(0.795329 -0.000699702 0)
(0.795219 -0.000652821 0)
(0.795121 -0.000609574 0)
(0.795034 -0.000570317 0)
(0.794956 -0.000534714 0)
(0.794886 -0.000502179 0)
(0.794824 -0.000472297 0)
(0.794768 -0.000444964 0)
(0.794719 -0.000420223 0)
(0.794674 -0.000398027 0)
(0.794635 -0.000378127 0)
(0.794599 -0.000360115 0)
(0.794568 -0.00034356 0)
(0.79454 -0.00032813 0)
(0.794515 -0.000313645 0)
(0.794493 -0.00030006 0)
(0.794473 -0.000287395 0)
(0.794456 -0.000275669 0)
(0.794441 -0.000264855 0)
(0.794428 -0.000254871 0)
(0.794417 -0.000245594 0)
(0.794407 -0.000236891 0)
(0.794398 -0.000228646 0)
(0.794391 -0.000220776 0)
(0.794385 -0.000213237 0)
(0.79438 -0.000206014 0)
(0.794376 -0.000199112 0)
(0.794373 -0.00019254 0)
(0.794371 -0.000186304 0)
(0.794369 -0.000180395 0)
(0.794368 -0.000174796 0)
(0.794368 -0.000169481 0)
(0.794368 -0.000164418 0)
(0.794369 -0.000159574 0)
(0.875606 -0.000599878 0)
(0.875456 -0.000563584 0)
(0.875318 -0.000528466 0)
(0.87519 -0.000495682 0)
(0.875072 -0.000465765 0)
(0.874963 -0.000438594 0)
(0.874861 -0.000413742 0)
(0.874766 -0.000390864 0)
(0.874677 -0.000369877 0)
(0.874595 -0.000350862 0)
(0.874517 -0.000333849 0)
(0.874445 -0.000318686 0)
(0.874377 -0.000305055 0)
(0.874312 -0.00029258 0)
(0.874252 -0.000280946 0)
(0.874195 -0.000269975 0)
(0.874141 -0.000259618 0)
(0.874091 -0.000249905 0)
(0.874043 -0.00024088 0)
(0.873998 -0.000232551 0)
(0.873956 -0.00022487 0)
(0.873915 -0.000217741 0)
(0.873877 -0.000211047 0)
(0.873841 -0.000204676 0)
(0.873807 -0.000198549 0)
(0.873774 -0.000192621 0)
(0.873743 -0.000186883 0)
(0.873714 -0.00018135 0)
(0.873686 -0.000176042 0)
(0.873659 -0.000170978 0)
(0.873634 -0.000166162 0)
(0.87361 -0.000161584 0)
(0.873587 -0.000157223 0)
(0.873566 -0.00015305 0)
(0.873545 -0.000149035 0)
(0.935721 -0.000436028 0)
(0.935559 -0.000411088 0)
(0.935408 -0.000386519 0)
(0.935266 -0.000363323 0)
(0.935134 -0.000342033 0)
(0.93501 -0.000322659 0)
(0.934893 -0.000304925 0)
(0.934782 -0.00028858 0)
(0.934678 -0.000273558 0)
(0.93458 -0.000259942 0)
(0.934486 -0.000247794 0)
(0.934398 -0.000237039 0)
(0.934313 -0.000227459 0)
(0.934233 -0.000218763 0)
(0.934155 -0.000210695 0)
(0.934081 -0.000203092 0)
(0.93401 -0.000195904 0)
(0.933942 -0.000189151 0)
(0.933877 -0.000182876 0)
(0.933814 -0.000177102 0)
(0.933754 -0.000171805 0)
(0.933696 -0.000166919 0)
(0.933641 -0.000162351 0)
(0.933587 -0.000158009 0)
(0.933535 -0.000153821 0)
(0.933484 -0.000149744 0)
(0.933436 -0.000145769 0)
(0.933389 -0.000141907 0)
(0.933344 -0.000138183 0)
(0.9333 -0.000134616 0)
(0.933258 -0.000131218 0)
(0.933217 -0.000127985 0)
(0.933178 -0.000124903 0)
(0.933139 -0.000121948 0)
(0.933102 -0.000119093 0)
(0.975793 -0.000264373 0)
(0.975625 -0.000249792 0)
(0.975467 -0.000235237 0)
(0.975318 -0.000221374 0)
(0.975178 -0.000208583 0)
(0.975046 -0.000196915 0)
(0.974922 -0.000186222 0)
(0.974804 -0.000176352 0)
(0.974692 -0.000167264 0)
(0.974587 -0.000159015 0)
(0.974486 -0.000151661 0)
(0.97439 -0.000145174 0)
(0.974298 -0.000139432 0)
(0.97421 -0.000134257 0)
(0.974125 -0.000129482 0)
(0.974043 -0.000124994 0)
(0.973964 -0.000120754 0)
(0.973888 -0.000116769 0)
(0.973814 -0.000113069 0)
(0.973743 -0.000109675 0)
(0.973674 -0.000106577 0)
(0.973607 -0.000103738 0)
(0.973542 -0.000101102 0)
(0.973479 -9.86066e-05 0)
(0.973418 -9.62019e-05 0)
(0.973358 -9.38567e-05 0)
(0.9733 -9.1561e-05 0)
(0.973243 -8.93217e-05 0)
(0.973188 -8.71544e-05 0)
(0.973135 -8.50751e-05 0)
(0.973083 -8.30933e-05 0)
(0.973032 -8.12094e-05 0)
(0.972982 -7.94143e-05 0)
(0.972934 -7.76926e-05 0)
(0.972887 -7.6027e-05 0)
(0.995828 -8.85486e-05 0)
(0.995657 -8.3763e-05 0)
(0.995495 -7.8951e-05 0)
(0.995343 -7.43379e-05 0)
(0.9952 -7.00612e-05 0)
(0.995064 -6.61515e-05 0)
(0.994937 -6.25718e-05 0)
(0.994816 -5.92735e-05 0)
(0.994701 -5.62365e-05 0)
(0.994592 -5.34735e-05 0)
(0.994489 -5.10024e-05 0)
(0.99439 -4.88193e-05 0)
(0.994295 -4.68894e-05 0)
(0.994204 -4.51577e-05 0)
(0.994116 -4.35686e-05 0)
(0.994031 -4.20822e-05 0)
(0.993948 -4.06807e-05 0)
(0.993869 -3.93638e-05 0)
(0.993792 -3.81398e-05 0)
(0.993718 -3.70153e-05 0)
(0.993646 -3.59888e-05 0)
(0.993575 -3.50498e-05 0)
(0.993507 -3.41802e-05 0)
(0.99344 -3.33604e-05 0)
(0.993375 -3.25731e-05 0)
(0.993311 -3.18068e-05 0)
(0.993249 -3.1057e-05 0)
(0.993188 -3.03248e-05 0)
(0.993129 -2.96147e-05 0)
(0.993071 -2.89318e-05 0)
(0.993015 -2.82795e-05 0)
(0.99296 -2.76583e-05 0)
(0.992906 -2.70654e-05 0)
(0.992853 -2.64959e-05 0)
(0.992801 -2.59441e-05 0)
(0.995828 8.85723e-05 0)
(0.995657 8.37601e-05 0)
(0.995495 7.89287e-05 0)
(0.995343 7.43258e-05 0)
(0.9952 7.00852e-05 0)
(0.995064 6.62098e-05 0)
(0.994937 6.26366e-05 0)
(0.994816 5.93144e-05 0)
(0.994701 5.62435e-05 0)
(0.994592 5.34615e-05 0)
(0.994489 5.09979e-05 0)
(0.99439 4.88435e-05 0)
(0.994295 4.69481e-05 0)
(0.994204 4.52422e-05 0)
(0.994116 4.36628e-05 0)
(0.994031 4.21716e-05 0)
(0.993948 4.07579e-05 0)
(0.993869 3.943e-05 0)
(0.993792 3.82029e-05 0)
(0.993718 3.7086e-05 0)
(0.993646 3.6077e-05 0)
(0.993575 3.51614e-05 0)
(0.993507 3.43167e-05 0)
(0.99344 3.35189e-05 0)
(0.993375 3.27483e-05 0)
(0.993311 3.19932e-05 0)
(0.993249 3.12504e-05 0)
(0.993188 3.05239e-05 0)
(0.993129 2.9821e-05 0)
(0.993071 2.91488e-05 0)
(0.993015 2.85119e-05 0)
(0.99296 2.79109e-05 0)
(0.992906 2.73422e-05 0)
(0.992853 2.67997e-05 0)
(0.992801 2.62763e-05 0)
(0.975793 0.000264399 0)
(0.975625 0.000249796 0)
(0.975467 0.000235226 0)
(0.975318 0.000221371 0)
(0.975178 0.00020861 0)
(0.975046 0.000196966 0)
(0.974922 0.000186273 0)
(0.974804 0.000176381 0)
(0.974692 0.000167267 0)
(0.974587 0.000159007 0)
(0.974486 0.000151665 0)
(0.97439 0.000145206 0)
(0.974298 0.000139493 0)
(0.97421 0.000134337 0)
(0.974125 0.000129567 0)
(0.974043 0.000125074 0)
(0.973964 0.000120824 0)
(0.973888 0.000116833 0)
(0.973814 0.000113134 0)
(0.973743 0.00010975 0)
(0.973674 0.000106668 0)
(0.973607 0.00010385 0)
(0.973542 0.000101234 0)
(0.973479 9.87558e-05 0)
(0.973418 9.63648e-05 0)
(0.973358 9.403e-05 0)
(0.9733 9.17427e-05 0)
(0.973243 8.95117e-05 0)
(0.973188 8.73543e-05 0)
(0.973135 8.52877e-05 0)
(0.973083 8.33221e-05 0)
(0.973032 8.14575e-05 0)
(0.972982 7.96845e-05 0)
(0.972934 7.79869e-05 0)
(0.972887 7.63464e-05 0)
(0.935721 0.000436048 0)
(0.935559 0.000411094 0)
(0.935408 0.000386516 0)
(0.935267 0.000363328 0)
(0.935134 0.000342058 0)
(0.93501 0.000322696 0)
(0.934892 0.000304958 0)
(0.934782 0.000288597 0)
(0.934678 0.000273563 0)
(0.93458 0.000259949 0)
(0.934487 0.000247817 0)
(0.934398 0.000237083 0)
(0.934313 0.000227518 0)
(0.934233 0.000218829 0)
(0.934155 0.000210759 0)
(0.934081 0.000203153 0)
(0.93401 0.000195963 0)
(0.933942 0.000189213 0)
(0.933877 0.000182948 0)
(0.933815 0.000177186 0)
(0.933754 0.000171903 0)
(0.933696 0.000167029 0)
(0.933641 0.000162472 0)
(0.933587 0.00015814 0)
(0.933535 0.000153961 0)
(0.933484 0.000149894 0)
(0.933436 0.000145929 0)
(0.933389 0.000142081 0)
(0.933344 0.000138371 0)
(0.9333 0.000134819 0)
(0.933258 0.000131438 0)
(0.933217 0.000128223 0)
(0.933178 0.000125159 0)
(0.93314 0.000122222 0)
(0.933103 0.000119387 0)
(0.875606 0.000599894 0)
(0.875456 0.000563594 0)
(0.875318 0.000528474 0)
(0.87519 0.000495697 0)
(0.875072 0.000465787 0)
(0.874963 0.000438614 0)
(0.874861 0.000413754 0)
(0.874766 0.000390872 0)
(0.874677 0.000369892 0)
(0.874595 0.000350892 0)
(0.874517 0.000333892 0)
(0.874445 0.000318735 0)
(0.874377 0.000305102 0)
(0.874312 0.000292619 0)
(0.874252 0.000280981 0)
(0.874195 0.000270014 0)
(0.874141 0.000259668 0)
(0.874091 0.000249971 0)
(0.874043 0.000240962 0)
(0.873998 0.000232645 0)
(0.873956 0.000224971 0)
(0.873915 0.000217844 0)
(0.873877 0.000211149 0)
(0.873841 0.00020478 0)
(0.873807 0.000198658 0)
(0.873774 0.000192741 0)
(0.873743 0.000187018 0)
(0.873714 0.000181502 0)
(0.873686 0.000176213 0)
(0.87366 0.000171167 0)
(0.873635 0.000166366 0)
(0.873611 0.000161803 0)
(0.873588 0.000157454 0)
(0.873566 0.000153294 0)
(0.873545 0.000149291 0)
(0.795453 0.000749126 0)
(0.795329 0.000699719 0)
(0.795219 0.000652847 0)
(0.795121 0.000609601 0)
(0.795034 0.000570333 0)
(0.794956 0.000534713 0)
(0.794886 0.00050217 0)
(0.794824 0.000472301 0)
(0.794768 0.000444994 0)
(0.794719 0.000420275 0)
(0.794675 0.000398085 0)
(0.794635 0.000378172 0)
(0.794599 0.000360141 0)
(0.794568 0.000343571 0)
(0.79454 0.000328139 0)
(0.794515 0.000313669 0)
(0.794493 0.000300108 0)
(0.794473 0.000287468 0)
(0.794456 0.000275759 0)
(0.794441 0.000264952 0)
(0.794428 0.000254965 0)
(0.794417 0.000245679 0)
(0.794407 0.000236968 0)
(0.794398 0.00022872 0)
(0.794391 0.000220855 0)
(0.794385 0.000213328 0)
(0.79438 0.000206123 0)
(0.794376 0.000199241 0)
(0.794373 0.000192689 0)
(0.794371 0.000186469 0)
(0.794369 0.000180574 0)
(0.794369 0.000174985 0)
(0.794368 0.000169676 0)
(0.794368 0.000164619 0)
(0.794369 0.000159783 0)
(0.695345 0.000864856 0)
(0.695285 0.000798794 0)
(0.69524 0.000737573 0)
(0.695208 0.000681955 0)
(0.695187 0.000631927 0)
(0.695175 0.000586877 0)
(0.69517 0.000546062 0)
(0.695171 0.000508975 0)
(0.695177 0.0004754 0)
(0.695187 0.000445227 0)
(0.6952 0.000418248 0)
(0.695216 0.000394087 0)
(0.695234 0.000372268 0)
(0.695253 0.000352335 0)
(0.695275 0.000333949 0)
(0.695297 0.000316916 0)
(0.695321 0.000301146 0)
(0.695345 0.0002866 0)
(0.695369 0.000273231 0)
(0.695394 0.000260959 0)
(0.695419 0.000249667 0)
(0.695444 0.000239219 0)
(0.695469 0.000229483 0)
(0.695495 0.000220343 0)
(0.69552 0.000211718 0)
(0.695545 0.000203553 0)
(0.69557 0.000195819 0)
(0.695595 0.000188497 0)
(0.695619 0.000181576 0)
(0.695643 0.000175043 0)
(0.695667 0.000168882 0)
(0.695691 0.000163066 0)
(0.695714 0.000157571 0)
(0.695737 0.000152365 0)
(0.69576 0.00014742 0)
(0.575636 0.000893511 0)
(0.57571 0.000807564 0)
(0.575793 0.000730931 0)
(0.575883 0.000663451 0)
(0.575975 0.000604304 0)
(0.576068 0.000552297 0)
(0.576161 0.000506296 0)
(0.576253 0.000465484 0)
(0.576342 0.000429341 0)
(0.57643 0.000397454 0)
(0.576514 0.000369365 0)
(0.576596 0.000344528 0)
(0.576675 0.000322379 0)
(0.576752 0.000302425 0)
(0.576826 0.000284301 0)
(0.576898 0.000267771 0)
(0.576967 0.000252687 0)
(0.577033 0.000238942 0)
(0.577098 0.000226432 0)
(0.57716 0.000215041 0)
(0.57722 0.000204634 0)
(0.577278 0.000195077 0)
(0.577334 0.000186243 0)
(0.577388 0.000178025 0)
(0.57744 0.00017034 0)
(0.577491 0.000163128 0)
(0.57754 0.000156349 0)
(0.577588 0.000149974 0)
(0.577634 0.000143981 0)
(0.577679 0.000138353 0)
(0.577723 0.000133068 0)
(0.577765 0.000128106 0)
(0.577805 0.00012344 0)
(0.577845 0.000119046 0)
(0.577884 0.000114894 0)
(0.43718 0.000731519 0)
(0.437434 0.000639461 0)
(0.437673 0.000562443 0)
(0.437896 0.000498126 0)
(0.438102 0.000444199 0)
(0.438294 0.000398571 0)
(0.438473 0.000359579 0)
(0.438638 0.000326037 0)
(0.438792 0.000297114 0)
(0.438935 0.000272158 0)
(0.439069 0.000250568 0)
(0.439195 0.000231766 0)
(0.439312 0.000215229 0)
(0.439423 0.000200528 0)
(0.439528 0.000187349 0)
(0.439627 0.000175473 0)
(0.43972 0.00016475 0)
(0.439809 0.000155067 0)
(0.439893 0.000146321 0)
(0.439972 0.000138409 0)
(0.440049 0.000131227 0)
(0.440121 0.000124672 0)
(0.440191 0.00011865 0)
(0.440257 0.000113081 0)
(0.440321 0.000107898 0)
(0.440382 0.000103056 0)
(0.440441 9.85195e-05 0)
(0.440497 9.42682e-05 0)
(0.440551 9.02852e-05 0)
(0.440603 8.65583e-05 0)
(0.440653 8.30733e-05 0)
(0.440701 7.98158e-05 0)
(0.440748 7.6767e-05 0)
(0.440793 7.3908e-05 0)
(0.440836 7.12171e-05 0)
(0.281017 0.000368959 0)
(0.281346 0.000312291 0)
(0.281634 0.000268003 0)
(0.28189 0.0002329 0)
(0.282117 0.000204606 0)
(0.282321 0.000181377 0)
(0.282504 0.000162001 0)
(0.28267 0.000145673 0)
(0.282821 0.000131841 0)
(0.282959 0.000120082 0)
(0.283086 0.000110028 0)
(0.283203 0.000101351 0)
(0.283312 9.37691e-05 0)
(0.283413 8.70665e-05 0)
(0.283507 8.10885e-05 0)
(0.283595 7.57292e-05 0)
(0.283678 7.09165e-05 0)
(0.283756 6.65933e-05 0)
(0.283829 6.27087e-05 0)
(0.283899 5.92109e-05 0)
(0.283964 5.60478e-05 0)
(0.284027 5.31677e-05 0)
(0.284086 5.05249e-05 0)
(0.284142 4.80804e-05 0)
(0.284196 4.58056e-05 0)
(0.284248 4.36796e-05 0)
(0.284297 4.16904e-05 0)
(0.284344 3.98295e-05 0)
(0.284389 3.80922e-05 0)
(0.284432 3.64725e-05 0)
(0.284473 3.4965e-05 0)
(0.284513 3.35607e-05 0)
(0.284551 3.22508e-05 0)
(0.284588 3.10238e-05 0)
(0.284623 2.987e-05 0)
(0.107414 4.22409e-05 0)
(0.107596 3.5104e-05 0)
(0.10775 2.97761e-05 0)
(0.107884 2.56864e-05 0)
(0.108001 2.24586e-05 0)
(0.108103 1.98494e-05 0)
(0.108195 1.76922e-05 0)
(0.108277 1.58761e-05 0)
(0.108351 1.43355e-05 0)
(0.108418 1.30332e-05 0)
(0.108479 1.19379e-05 0)
(0.108535 1.10121e-05 0)
(0.108587 1.0213e-05 0)
(0.108635 9.50245e-06 0)
(0.108679 8.85457e-06 0)
(0.108721 8.25881e-06 0)
(0.10876 7.71506e-06 0)
(0.108796 7.22756e-06 0)
(0.108831 6.79768e-06 0)
(0.108863 6.42179e-06 0)
(0.108894 6.09053e-06 0)
(0.108922 5.79249e-06 0)
(0.10895 5.51627e-06 0)
(0.108976 5.25417e-06 0)
(0.109001 5.00193e-06 0)
(0.109025 4.75969e-06 0)
(0.109047 4.52926e-06 0)
(0.109069 4.31392e-06 0)
(0.109089 4.11551e-06 0)
(0.109109 3.93521e-06 0)
(0.109128 3.77169e-06 0)
(0.109146 3.62312e-06 0)
(0.109164 3.48609e-06 0)
(0.10918 3.35797e-06 0)
(0.109196 3.23572e-06 0)
(0.109212 -3.11363e-06 0)
(0.109227 -2.99929e-06 0)
(0.109241 -2.88864e-06 0)
(0.109255 -2.78207e-06 0)
(0.109268 -2.67996e-06 0)
(0.109281 -2.58293e-06 0)
(0.109294 -2.4912e-06 0)
(0.109306 -2.40502e-06 0)
(0.109317 -2.32407e-06 0)
(0.109329 -2.24816e-06 0)
(0.284657 -2.87535e-05 0)
(0.28469 -2.77178e-05 0)
(0.284722 -2.67309e-05 0)
(0.284752 -2.57881e-05 0)
(0.284782 -2.48867e-05 0)
(0.284811 -2.40255e-05 0)
(0.284838 -2.32036e-05 0)
(0.284865 -2.2421e-05 0)
(0.284891 -2.16769e-05 0)
(0.284916 -2.09706e-05 0)
(0.440877 -6.86125e-05 0)
(0.440918 -6.61976e-05 0)
(0.440957 -6.38983e-05 0)
(0.440995 -6.17034e-05 0)
(0.441031 -5.96047e-05 0)
(0.441067 -5.75977e-05 0)
(0.441101 -5.56793e-05 0)
(0.441134 -5.3848e-05 0)
(0.441167 -5.21021e-05 0)
(0.441198 -5.04394e-05 0)
(0.57792 -0.000110852 0)
(0.577957 -0.000107105 0)
(0.577992 -0.00010353 0)
(0.578026 -0.000100113 0)
(0.57806 -9.68418e-05 0)
(0.578092 -9.37094e-05 0)
(0.578124 -9.07108e-05 0)
(0.578154 -8.78425e-05 0)
(0.578184 -8.51011e-05 0)
(0.578213 -8.24828e-05 0)
(0.695781 -0.000142546 0)
(0.695803 -0.000138033 0)
(0.695825 -0.000133707 0)
(0.695846 -0.000129556 0)
(0.695866 -0.000125568 0)
(0.695887 -0.000121739 0)
(0.695907 -0.000118063 0)
(0.695926 -0.000114537 0)
(0.695945 -0.000111157 0)
(0.695964 -0.000107919 0)
(0.79437 -0.000154923 0)
(0.794371 -0.000150443 0)
(0.794373 -0.00014612 0)
(0.794375 -0.000141944 0)
(0.794378 -0.000137911 0)
(0.79438 -0.000134021 0)
(0.794383 -0.000130272 0)
(0.794386 -0.000126663 0)
(0.794389 -0.000123191 0)
(0.794393 -0.000119852 0)
(0.873525 -0.000145152 0)
(0.873507 -0.000141382 0)
(0.873489 -0.000137715 0)
(0.873471 -0.000134145 0)
(0.873455 -0.000130676 0)
(0.873439 -0.00012731 0)
(0.873424 -0.000124051 0)
(0.87341 -0.000120902 0)
(0.873396 -0.000117861 0)
(0.873383 -0.000114925 0)
(0.933066 -0.000116316 0)
(0.933032 -0.000113602 0)
(0.932998 -0.000110941 0)
(0.932965 -0.000108332 0)
(0.932933 -0.00010578 0)
(0.932903 -0.00010329 0)
(0.932873 -0.00010087 0)
(0.932844 -9.85212e-05 0)
(0.932816 -9.62464e-05 0)
(0.932788 -9.40431e-05 0)
(0.972841 -7.44014e-05 0)
(0.972796 -7.28045e-05 0)
(0.972752 -7.12305e-05 0)
(0.97271 -6.96789e-05 0)
(0.972668 -6.81531e-05 0)
(0.972627 -6.66583e-05 0)
(0.972587 -6.51996e-05 0)
(0.972548 -6.37808e-05 0)
(0.972511 -6.24029e-05 0)
(0.972474 -6.1065e-05 0)
(0.992751 -2.54046e-05 0)
(0.992701 -2.48735e-05 0)
(0.992653 -2.43487e-05 0)
(0.992605 -2.38301e-05 0)
(0.992559 -2.33189e-05 0)
(0.992513 -2.28169e-05 0)
(0.992469 -2.23258e-05 0)
(0.992425 -2.18469e-05 0)
(0.992383 -2.13805e-05 0)
(0.992341 -2.09261e-05 0)
(0.992751 2.57654e-05 0)
(0.992701 2.52623e-05 0)
(0.992653 2.47646e-05 0)
(0.992605 2.4272e-05 0)
(0.992559 2.37862e-05 0)
(0.992513 2.33094e-05 0)
(0.992469 2.28442e-05 0)
(0.992425 2.23923e-05 0)
(0.992383 2.19549e-05 0)
(0.992341 2.15317e-05 0)
(0.972841 7.47464e-05 0)
(0.972796 7.31751e-05 0)
(0.972753 7.16263e-05 0)
(0.97271 7.00996e-05 0)
(0.972668 6.85987e-05 0)
(0.972627 6.71291e-05 0)
(0.972588 6.56964e-05 0)
(0.972549 6.43047e-05 0)
(0.972511 6.29558e-05 0)
(0.972474 6.16487e-05 0)
(0.933067 0.00011663 0)
(0.933032 0.000113937 0)
(0.932998 0.000111298 0)
(0.932966 0.000108713 0)
(0.932934 0.000106185 0)
(0.932903 0.00010372 0)
(0.932873 0.000101325 0)
(0.932844 9.9004e-05 0)
(0.932816 9.67575e-05 0)
(0.932789 9.45836e-05 0)
(0.873526 0.000145423 0)
(0.873507 0.000141669 0)
(0.873489 0.00013802 0)
(0.873472 0.000134471 0)
(0.873456 0.000131024 0)
(0.87344 0.000127682 0)
(0.873425 0.000124449 0)
(0.873411 0.000121326 0)
(0.873397 0.000118312 0)
(0.873384 0.000115402 0)
(0.79437 0.000155141 0)
(0.794372 0.000150673 0)
(0.794374 0.000146364 0)
(0.794376 0.000142206 0)
(0.794378 0.000138194 0)
(0.794381 0.000134326 0)
(0.794384 0.0001306 0)
(0.794387 0.000127015 0)
(0.794391 0.000123566 0)
(0.794394 0.000120249 0)
(0.695782 0.000142706 0)
(0.695804 0.000138203 0)
(0.695825 0.000133889 0)
(0.695846 0.000129753 0)
(0.695867 0.000125782 0)
(0.695887 0.000121971 0)
(0.695908 0.000118313 0)
(0.695927 0.000114806 0)
(0.695946 0.000111443 0)
(0.695965 0.000108221 0)
(0.577921 0.00011096 0)
(0.577957 0.000107219 0)
(0.577993 0.000103654 0)
(0.578027 0.000100247 0)
(0.578061 9.69873e-05 0)
(0.578093 9.38668e-05 0)
(0.578125 9.08806e-05 0)
(0.578155 8.80238e-05 0)
(0.578185 8.52938e-05 0)
(0.578214 8.26856e-05 0)
(0.440878 6.86754e-05 0)
(0.440918 6.62639e-05 0)
(0.440957 6.3969e-05 0)
(0.440995 6.17782e-05 0)
(0.441032 5.9685e-05 0)
(0.441068 5.76831e-05 0)
(0.441102 5.5771e-05 0)
(0.441135 5.39454e-05 0)
(0.441168 5.2206e-05 0)
(0.441199 5.05491e-05 0)
(0.284658 2.87789e-05 0)
(0.28469 2.77434e-05 0)
(0.284722 2.67562e-05 0)
(0.284753 2.58141e-05 0)
(0.284783 2.49136e-05 0)
(0.284811 2.40544e-05 0)
(0.284839 2.32348e-05 0)
(0.284866 2.24553e-05 0)
(0.284892 2.17143e-05 0)
(0.284917 2.10115e-05 0)
(0.109212 3.11802e-06 0)
(0.109227 3.00352e-06 0)
(0.109241 2.89258e-06 0)
(0.109255 2.78514e-06 0)
(0.109268 2.68241e-06 0)
(0.109281 2.58454e-06 0)
(0.109294 2.49257e-06 0)
(0.109306 2.40612e-06 0)
(0.109318 2.32559e-06 0)
(0.109329 2.24999e-06 0)
(0.109339 -2.17656e-06 0)
(0.10935 -2.10885e-06 0)
(0.10936 -2.04426e-06 0)
(0.10937 -1.98242e-06 0)
(0.10938 -1.92276e-06 0)
(0.109389 -1.86515e-06 0)
(0.109398 -1.80925e-06 0)
(0.109407 -1.75518e-06 0)
(0.109415 -1.70277e-06 0)
(0.109424 -1.65225e-06 0)
(0.109432 -1.6035e-06 0)
(0.109439 -1.55675e-06 0)
(0.109447 -1.51184e-06 0)
(0.109454 -1.46892e-06 0)
(0.109462 -1.42775e-06 0)
(0.109468 -1.38843e-06 0)
(0.109475 -1.35064e-06 0)
(0.109482 -1.31442e-06 0)
(0.109488 -1.27947e-06 0)
(0.109494 -1.24583e-06 0)
(0.109501 -1.21321e-06 0)
(0.109506 -1.1817e-06 0)
(0.109512 -1.15105e-06 0)
(0.109518 -1.1214e-06 0)
(0.109523 -1.09254e-06 0)
(0.109529 -1.06466e-06 0)
(0.109534 -1.03756e-06 0)
(0.109539 -1.01145e-06 0)
(0.109544 -9.86121e-07 0)
(0.109549 -9.61796e-07 0)
(0.109553 -9.38249e-07 0)
(0.109558 -9.15706e-07 0)
(0.109562 -8.93936e-07 0)
(0.109567 -8.73189e-07 0)
(0.109571 -8.53269e-07 0)
(0.28494 -2.03002e-05 0)
(0.284964 -1.96634e-05 0)
(0.284986 -1.90575e-05 0)
(0.285009 -1.84794e-05 0)
(0.28503 -1.79262e-05 0)
(0.285051 -1.73952e-05 0)
(0.285071 -1.68842e-05 0)
(0.285091 -1.63913e-05 0)
(0.28511 -1.59154e-05 0)
(0.285128 -1.54558e-05 0)
(0.285146 -1.50119e-05 0)
(0.285164 -1.45838e-05 0)
(0.285181 -1.41711e-05 0)
(0.285197 -1.37739e-05 0)
(0.285213 -1.33917e-05 0)
(0.285229 -1.30242e-05 0)