/*--------------------------------*- C++ -*----------------------------------*\
| =========                 |                                                 |
| \\      /  F ield         | OpenFOAM: The Open Source CFD Toolbox           |
|  \\    /   O peration     | Version:  2406                                  |
|   \\  /    A nd           | Website:  www.openfoam.com                      |
|    \\/     M anipulation  |                                                 |
\*---------------------------------------------------------------------------*/
FoamFile
{
    version     2.0;
    format      ascii;
    arch        "LSB;label=32;scalar=64";
    class       surfaceScalarField;
    location    "121";
    object      phi;
}
// * * * * * * * * * * * * * * * * * * * * * * * * * * * * * * * * * * * * * //

dimensions      [0 3 -1 0 0 0 0];

oriented        oriented;

internalField   nonuniform List<scalar> 
3680
(
0.019425
-0.000424984
0.0200151
-0.000590106
0.0205964
-0.000581377
0.0211492
-0.000552726
0.0216829
-0.000533702
0.02221
-0.0005272
0.0227498
-0.000539801
0.0233357
-0.000585922
0.0239974
-0.000661658
-0.00117743
0.0251748
0.0508143
-0.00023928
0.0507439
-0.000519726
0.0508061
-0.000643587
0.0509715
-0.000718131
0.0512267
-0.00078894
0.0515656
-0.000866078
0.051987
-0.000961219
0.0524981
-0.00109701
0.0531364
-0.00129998
-0.00165298
0.0536119
0.0749201
-0.000159421
0.074817
-0.000416551
0.0747601
-0.000586701
0.0747589
-0.000717019
0.074815
-0.000844971
0.0749316
-0.000982762
0.0751094
-0.00113898
0.0753402
-0.00132786
0.0756019
-0.00156169
-0.00185528
0.0758042
0.0909576
-0.000116985
0.0908647
-0.000323665
0.0907738
-0.000495835
0.0907066
-0.000649816
0.0906674
-0.000805836
0.0906578
-0.000973144
0.0906761
-0.00115725
0.0907133
-0.00136507
0.0907529
-0.00160134
-0.0018664
0.0907641
0.0989624
-7.93543e-05
0.0988651
-0.000226447
0.0987442
-0.000374942
0.0986229
-0.000528516
0.0985075
-0.000690376
0.0983981
-0.000863795
0.0982929
-0.00105204
0.0981854
-0.00125758
0.0980645
-0.00148041
-0.00171648
0.0979146
0.0989546
-3.39836e-05
0.0988355
-0.000107361
0.0986783
-0.000217725
0.0985052
-0.00035545
0.0983216
-0.000506711
0.0981269
-0.00066915
0.0979194
-0.000844482
0.0976939
-0.0010321
0.0974425
-0.00122899
-0.00143019
0.0971562
0.0909344
3.16219e-05
0.090777
5.00317e-05
0.0905787
-1.94802e-05
0.0903581
-0.000134822
0.0901163
-0.000264876
0.0898522
-0.000405071
0.0895635
-0.000555828
0.0892453
-0.000713886
0.0888911
-0.00087476
-0.0010341
0.088495
0.0748819
0.000149718
0.0746751
0.000256827
0.0744452
0.000210424
0.0741965
0.00011388
0.0739247
6.90567e-06
0.0736277
-0.000108071
0.0733013
-0.000229445
0.0729394
-0.000351922
0.0725358
-0.000471181
-0.000584365
0.0720861
0.0507655
0.000384171
0.0505619
0.000460437
0.0504008
0.000371601
0.0502481
0.000266539
0.0500854
0.000169632
0.049899
7.82809e-05
0.0496771
-7.53248e-06
0.0494105
-8.53623e-05
0.0490929
-0.000153495
-0.000211936
0.0487204
0.0193842
0.0198446
0.0202162
0.0204827
0.0206524
0.0207307
0.0207231
0.0206378
0.0204843
0.0202723
-3.60798e-05
3.60715e-05
-0.000149654
0.000113555
-0.00031003
0.000160357
-0.000487905
0.000177856
-0.000669197
0.000181274
-0.00084888
0.000179666
-0.0010257
0.000176807
-0.00119957
0.000173852
-0.00137056
0.000170973
-0.0015387
0.000168119
-0.00170396
0.000165247
-0.00186633
0.00016236
-0.00202584
0.000159485
-0.0021825
0.000156653
-0.00233641
0.000153891
-0.00248765
0.000151222
-0.00263632
0.000148663
-0.00278257
0.000146228
-0.00292651
0.00014393
-0.0030683
0.000141779
-0.0032081
0.00013978
-0.00334605
0.000137939
-0.00348232
0.00013626
-0.00361708
0.000134748
-0.0037505
0.000133405
-0.00388274
0.000132227
-0.00401396
0.00013121
-0.00414432
0.000130344
-0.00427394
0.000129617
-0.00440296
0.000129008
-0.00453146
0.000128495
-0.0046595
0.00012804
-0.0047871
0.000127599
-0.00491422
0.00012711
0.000126501
-0.00504071
-0.000148251
0.000184303
-0.000448934
0.00041419
-0.000828784
0.000540161
-0.0012368
0.000585829
-0.00164718
0.000591619
-0.00204961
0.000582056
-0.00244087
0.000568021
-0.00282034
0.000553292
-0.00318823
0.000538822
-0.00354488
0.000524734
-0.00389069
0.000511023
-0.00422607
0.000497703
-0.00455143
0.000484814
-0.0048672
0.000472389
-0.00517379
0.000460452
-0.00547161
0.00044901
-0.00576105
0.000438068
-0.00604248
0.000427625
-0.00631626
0.000417679
-0.00658273
0.000408221
-0.00684221
0.000399235
-0.007095
0.000390701
-0.00734137
0.000382601
-0.00758156
0.000374912
-0.00781578
0.000367601
-0.0080442
0.000360624
-0.00826693
0.000353925
-0.00848404
0.000347436
-0.00869552
0.000341075
-0.00890127
0.000334742
-0.0091011
0.000328314
-0.00929471
0.000321641
-0.00948165
0.00031454
-0.00966132
0.000306788
0.000298125
-0.00983294
-0.000270116
0.000454399
-0.000754022
0.00089805
-0.00132311
0.0011092
-0.00191066
0.00117335
-0.00248714
0.00116806
-0.00304149
0.00113637
-0.00357073
0.00109723
-0.00407498
0.0010575
-0.00455534
0.00101915
-0.0050132
0.000982564
-0.00544993
0.000947716
-0.00586679
0.000914535
-0.00626495
0.000882944
-0.00664545
0.000852855
-0.00700919
0.000824168
-0.00735699
0.00079678
-0.00768954
0.000770593
-0.00800747
0.000745518
-0.00831129
0.000721476
-0.00860148
0.000698379
-0.0088784
0.000676129
-0.00914235
0.000654627
-0.00939355
0.000633775
-0.00963213
0.000613474
-0.00985815
0.000593604
-0.0100716
0.000574022
-0.0102722
0.000554562
-0.0104598
0.000535041
-0.010634
0.00051525
-0.0107943
0.000494949
-0.0109398
0.000473857
-0.0110698
0.000451657
-0.0111833
0.000427976
-0.0112789
0.000402381
0.000374381
-0.0113551
-0.000386059
0.00084044
-0.00102665
0.00153859
-0.00173572
0.00181824
-0.00243505
0.00187264
-0.00309718
0.00183015
-0.00371495
0.0017541
-0.00428874
0.00167099
-0.0048214
0.00159013
-0.00531632
0.00151404
-0.00577672
0.00144294
-0.00620547
0.00137643
-0.006605
0.00131404
-0.00697742
0.00125533
-0.00732447
0.00119987
-0.00764758
0.00114725
-0.00794794
0.00109711
-0.00822651
0.00104914
-0.00848409
0.00100307
-0.00872129
0.000958652
-0.0089386
0.000915666
-0.00913636
0.00087386
-0.00931474
0.000832989
-0.00947382
0.000792824
-0.00961351
0.00075314
-0.00973361
0.000713691
-0.0098338
0.000674186
-0.00991356
0.000634308
-0.00997226
0.000593717
-0.0100091
0.000552051
-0.010023
0.000508902
-0.010013
0.00046382
-0.00997767
0.000416315
-0.00991553
0.000365839
-0.00982492
0.000311769
0.000253434
-0.00970396
-0.000491847
0.00133227
-0.00124106
0.00228777
-0.00201115
0.00258828
-0.00272513
0.00258659
-0.0033666
0.00247159
-0.00393755
0.00232502
-0.00444483
0.00217824
-0.00489593
0.0020412
-0.00529752
0.00191561
-0.00565516
0.00180055
-0.00597335
0.00169458
-0.0062557
0.00159637
-0.00650513
0.00150473
-0.00672396
0.00141866
-0.006914
0.00133726
-0.00707668
0.00125976
-0.00721309
0.00118552
-0.00732405
0.001114
-0.00741017
0.00104475
-0.00747188
0.000977346
-0.00750939
0.000911343
-0.00752273
0.000846299
-0.00751174
0.000781809
-0.00747612
0.000717504
-0.00741545
0.000652991
-0.00732911
0.000587821
-0.00721632
0.000521504
-0.00707617
0.000453545
-0.00690757
0.000383431
-0.00670929
0.000310608
-0.00647995
0.000234469
-0.00621803
0.000154378
-0.00592186
6.96664e-05
-0.00558969
-2.04129e-05
-0.000116575
-0.00521968
-0.000586929
0.00191918
-0.00137072
0.00307151
-0.00208103
0.00329857
-0.0026721
0.00317762
-0.00315442
0.00295388
-0.00354486
0.00271543
-0.00385865
0.00249201
-0.00410849
0.00229101
-0.00430425
0.00211133
-0.00445332
0.00194959
-0.00456126
0.00180249
-0.00463226
0.00166734
-0.00466955
0.00154199
-0.00467558
0.00142467
-0.00465221
0.00131386
-0.00460079
0.0012083
-0.00452226
0.00110697
-0.0044173
0.001009
-0.00428631
0.000913732
-0.00412957
0.000820572
-0.00394708
0.000728825
-0.00373866
0.00063784
-0.00350391
0.000547037
-0.00324233
0.000455888
-0.00295323
0.000363866
-0.0026358
0.000270364
-0.00228907
0.000174746
-0.00191196
7.64055e-05
-0.00150326
-2.52869e-05
-0.00106165
-0.000131026
-0.000585701
-0.000241499
-7.39774e-05
-0.000357364
0.000474994
-0.000479323
0.00106268
-0.000608117
-0.000744501
0.0016906
-0.000666706
0.00258587
-0.00135718
0.00376195
-0.00181208
0.00375343
-0.00208065
0.00344616
-0.00222333
0.00309652
-0.00227364
0.0027657
-0.00225256
0.0024709
-0.00217546
0.00221387
-0.00205305
0.00198889
-0.0018925
0.001789
-0.00169865
0.0016086
-0.00147493
0.00144359
-0.00122386
0.00129088
-0.000947225
0.001148
-0.000646241
0.00101284
-0.000321694
0.000883718
2.59732e-05
0.000759262
0.000396525
0.000638408
0.000789925
0.000520295
0.00120636
0.000404106
0.0016462
0.000288944
0.00210998
0.000174024
0.00259829
5.8698e-05
0.00311186
-5.77104e-05
0.00365169
-0.000176004
0.00421895
-0.000296923
0.00481478
-0.000421107
0.00544036
-0.000549199
0.00609691
-0.000681868
0.00678566
-0.000819799
0.00750784
-0.000963699
0.00826473
-0.00111427
0.00905758
-0.0012722
0.00988765
-0.00143821
-0.00161299
0.0107561
-0.000691761
0.00327761
-0.000978162
0.00404832
-0.000824604
0.00359984
-0.000477216
0.00309874
-5.14601e-05
0.00267073
0.000419997
0.00229421
0.000923186
0.00196767
0.00144863
0.0016884
0.00199083
0.00144666
0.00254727
0.00123253
0.00311682
0.00103902
0.00369895
0.000861422
0.00429346
0.000696348
0.00490044
0.000540993
0.00552021
0.000393035
0.00615323
0.000250677
0.00679992
0.000112542
0.00746075
-2.24559e-05
0.00813654
-0.000155518
0.00882843
-0.000287818
0.00953754
-0.000420189
0.0102649
-0.000553363
0.0110116
-0.000688059
0.0117789
-0.000824979
0.0125677
-0.000964823
0.013379
-0.0011083
0.014214
-0.00125612
0.0150738
-0.00140897
0.0159594
-0.00156753
0.0168721
-0.0017325
0.0178129
-0.00190453
0.0187829
-0.00208428
0.0197831
-0.00227239
0.0208143
-0.00246945
-0.00267601
0.0218773
-0.000248453
0.00352605
0.00075847
0.00304136
0.00209748
0.00226079
0.00339039
0.00180581
0.00459788
0.00146321
0.00573718
0.00115488
0.00682331
0.00088152
0.00786762
0.00064406
0.00887963
0.000434622
0.00986701
0.000245124
0.0108356
7.04418e-05
0.0117898
-9.28717e-05
0.0127338
-0.000247688
0.013671
-0.000396213
0.0146041
-0.000540084
0.0155354
-0.000680631
0.0164669
-0.000818997
0.0174007
-0.000956203
0.0183382
-0.00109313
0.019281
-0.00123064
0.0202304
-0.00136953
0.0211876
-0.00151059
0.022154
-0.00165451
0.023131
-0.001802
0.0241199
-0.00195372
0.0251219
-0.00211034
0.0261383
-0.00227251
0.0271701
-0.00244085
0.0282185
-0.00261597
0.0292845
-0.00279847
0.0303689
-0.00298891
0.0314724
-0.0031878
0.0325956
-0.00339561
0.0337388
-0.00361274
-0.00383953
0.0349023
0.00444468
-0.000918657
0.00776254
-0.000276518
0.0102852
-0.000261933
0.0124344
-0.000343362
0.0143228
-0.000425173
0.0160119
-0.00053426
0.017557
-0.000663632
0.0189983
-0.000797222
0.0203616
-0.000928749
0.0216645
-0.00105773
0.0229194
-0.00118452
0.0241358
-0.00130925
0.0253204
-0.00143229
0.0264784
-0.0015543
0.0276143
-0.00167599
0.0287317
-0.00179803
0.0298338
-0.00192108
0.0309233
-0.00204575
0.0320028
-0.00217265
0.0330745
-0.00230238
0.0341405
-0.00243553
0.0352026
-0.00257267
0.0362624
-0.00271436
0.0373216
-0.00286116
0.0383814
-0.00301361
0.0394433
-0.00317223
0.0405083
-0.00333753
0.0415774
-0.00351
0.0426515
-0.00369008
0.0437312
-0.00387819
0.044817
-0.0040747
0.0459091
-0.0042799
0.0470075
-0.00449405
0.0481121
-0.00471727
-0.00494962
0.0492221
0.0260938
-0.00183766
0.0277422
-0.00192491
0.029376
-0.00189579
0.0309481
-0.00191546
0.0324697
-0.00194676
0.0339228
-0.0019874
0.0353041
-0.00204495
0.0366226
-0.00211573
0.0378878
-0.00219388
0.0391067
-0.00227665
0.0402852
-0.00236309
0.0414286
-0.00245262
0.0425412
-0.00254489
0.0436267
-0.00263983
0.0446883
-0.00273758
0.0457286
-0.00283841
0.0467502
-0.00294264
0.047755
-0.00305061
0.0487451
-0.00316271
0.049722
-0.00327935
0.0506874
-0.00340093
0.0516426
-0.00352786
0.0525888
-0.00366056
0.0535271
-0.00379943
0.0544583
-0.00394485
0.0553832
-0.00409718
0.0563025
-0.00425677
0.0572164
-0.00442393
0.0581252
-0.00459891
0.0590289
-0.00478192
0.0599273
-0.0049731
0.06082
-0.00517253
0.0617061
-0.00538017
0.0625847
-0.0055959
-0.00581947
0.0634546
0.0538428
-0.00206859
0.0542407
-0.00232276
0.0547811
-0.00243626
0.0553977
-0.00253203
0.0560776
-0.00262662
0.0568019
-0.00271176
0.0575491
-0.00279213
0.058306
-0.00287263
0.0590657
-0.00295365
0.0598238
-0.00303472
0.0605769
-0.00311616
0.0613227
-0.00319852
0.0620601
-0.00328225
0.062788
-0.00336778
0.063506
-0.00345559
0.0642138
-0.00354618
0.0649112
-0.00364002
0.0655982
-0.0037376
0.0662748
-0.00383935
0.0669412
-0.00394572
0.0675974
-0.00405712
0.0682434
-0.00417393
0.0688794
-0.00429652
0.0695051
-0.00442521
0.0701206
-0.00456031
0.0707255
-0.00470207
0.0713194
-0.0048507
0.0719019
-0.00500637
0.0724721
-0.00516916
0.0730293
-0.00533912
0.0735724
-0.00551618
0.0741001
-0.00570019
0.0746108
-0.00589092
0.0751029
-0.00608797
-0.00629087
0.0755743
0.0759176
-0.00218201
0.0760447
-0.00244986
0.0762348
-0.00262637
0.0764651
-0.00276228
0.0767236
-0.00288516
0.077007
-0.00299518
0.0773086
-0.0030937
0.0776215
-0.00318549
0.0779412
-0.00327336
0.0782647
-0.00335823
0.0785894
-0.00344086
0.0789131
-0.00352221
0.079234
-0.00360316
0.0795507
-0.00368447
0.0798619
-0.00376682
0.0801666
-0.00385089
0.0804638
-0.00393728
0.0807528
-0.00402655
0.0810327
-0.00411924
0.0813028
-0.00421579
0.0815623
-0.00431664
0.0818105
-0.00442215
0.0820466
-0.00453265
0.0822698
-0.00464841
0.0824792
-0.00476966
0.0826737
-0.00489656
0.0828522
-0.00502921
0.0830135
-0.00516764
0.0831562
-0.00531182
0.0832787
-0.00546161
0.0833793
-0.00561681
0.0834562
-0.00577709
0.0835074
-0.00594203
0.0835305
-0.00611108
-0.00628356
0.0835232
0.0907259
-0.00214385
0.0906676
-0.00239156
0.0906256
-0.00258435
0.0906008
-0.00273752
0.0905861
-0.00287046
0.0905793
-0.00298838
0.0905782
-0.00309257
0.090579
-0.00318632
0.0905785
-0.00327289
0.0905745
-0.00335419
0.0905651
-0.00343147
0.0905488
-0.00350594
0.0905244
-0.00357872
0.0904907
-0.00365077
0.0904468
-0.0037229
0.0903918
-0.00379585
0.0903248
-0.00387028
0.090245
-0.00394677
0.0901516
-0.00402583
0.0900437
-0.00410788
0.0899204
-0.00419333
0.0897807
-0.00428246
0.0896236
-0.00437556
0.089448
-0.00447279
0.0892527
-0.0045743
0.0890363
-0.00468014
0.0887974
-0.00479032
0.0885345
-0.00490474
0.0882459
-0.00502324
0.0879299
-0.00514558
0.0875846
-0.00527142
0.0872078
-0.00540031
0.0867975
-0.00553172
0.0863515
-0.005665
-0.00579936
0.0858673
0.0977248
-0.00195414
0.0975059
-0.00217263
0.0972778
-0.00235622
0.0970473
-0.00250706
0.0968123
-0.0026354
0.096571
-0.00274707
0.0963226
-0.00284425
0.0960658
-0.00292947
0.0957986
-0.00300574
0.0955198
-0.00307533
0.0952282
-0.00313987
0.0949229
-0.0032007
0.0946032
-0.003259
0.0942683
-0.00331581
0.0939174
-0.00337201
0.0935499
-0.00342832
0.093165
-0.00348538
0.0927619
-0.00354374
0.09234
-0.00360385
0.0918982
-0.00366611
0.0914357
-0.00373081
0.0909515
-0.00379819
0.0904444
-0.00386844
0.0899132
-0.00394166
0.0893569
-0.00401788
0.0887738
-0.0040971
0.0881628
-0.00417921
0.0875221
-0.00426404
0.0868502
-0.00435135
0.0861455
-0.00444083
0.0854062
-0.00453206
0.0846305
-0.00462456
0.0838165
-0.00471775
0.0829626
-0.00481097
-0.00490344
0.0820667
0.0968297
-0.00162766
0.096467
-0.00180997
0.0960783
-0.00196744
0.0956699
-0.00209868
0.0952431
-0.0022086
0.094798
-0.00230194
0.0943351
-0.00238134
0.0938546
-0.00244902
0.0933564
-0.00250749
0.09284
-0.00255895
0.0923052
-0.00260511
0.0917518
-0.00264729
0.0911795
-0.00268665
0.0905879
-0.00272418
0.0899766
-0.00276071
0.0893452
-0.00279691
0.0886932
-0.00283335
0.08802
-0.0028705
0.0873249
-0.00290874
0.0866072
-0.00294839
0.085866
-0.00298967
0.0851006
-0.00303274
0.0843099
-0.0030777
0.0834929
-0.0031246
0.0826484
-0.00317341
0.0817754
-0.00322405
0.0808726
-0.00327637
0.0799388
-0.00333017
0.0789726
-0.00338517
0.0779729
-0.00344106
0.0769383
-0.00349742
0.0758676
-0.0035538
0.0747596
-0.00360968
0.0736131
-0.00366446
-0.0037175
0.0724272
0.088054
-0.00118664
0.0875699
-0.00132582
0.0870484
-0.00144597
0.0864953
-0.00154554
0.0859136
-0.00162699
0.0853055
-0.00169376
0.0846725
-0.00174838
0.0840163
-0.00179284
0.083338
-0.00182916
0.0826383
-0.00185926
0.0819179
-0.00188468
0.0811773
-0.00190662
0.0804167
-0.0019261
0.0796365
-0.00194397
0.0788367
-0.00196091
0.0780173
-0.00197749
0.0771782
-0.00199416
0.076319
-0.00201129
0.0754394
-0.00202914
0.0745389
-0.00204793
0.0736171
-0.00206781
0.0726732
-0.00208885
0.0717067
-0.0021111
0.0707166
-0.00213454
0.0697024
-0.0021591
0.068663
-0.00218468
0.0675978
-0.00221111
0.0665059
-0.0022382
0.0653865
-0.0022657
0.0642388
-0.00229333
0.0630622
-0.00232076
0.061856
-0.00234763
0.0606199
-0.00237352
0.0593536
-0.00239801
-0.00242063
0.0580567
0.0715881
-0.000688675
0.0710431
-0.000780819
0.0704552
-0.000858058
0.0698294
-0.000919771
0.0691701
-0.000967643
0.0684806
-0.00100424
0.067764
-0.00103176
0.0670231
-0.00105193
0.0662603
-0.00106638
0.0654777
-0.00107657
0.0646767
-0.00108374
0.0638589
-0.0010888
0.0630253
-0.00109249
0.0621768
-0.0010954
0.0613139
-0.00109799
0.060437
-0.00110063
0.0595465
-0.00110356
0.0586422
-0.001107
0.0577242
-0.00111106
0.0567921
-0.00111585
0.0558457
-0.0011214
0.0548846
-0.00112771
0.0539084
-0.00113477
0.0529164
-0.00114251
0.0519082
-0.00115085
0.0508832
-0.00115968
0.049841
-0.00116887
0.0487812
-0.00117827
0.0477032
-0.00118769
0.0466069
-0.00119695
0.0454921
-0.00120584
0.0443586
-0.00121413
0.0432067
-0.00122157
0.0420367
-0.00122794
-0.00123296
0.0408491
0.0482927
-0.000260936
0.0478123
-0.000300365
0.0472844
-0.000330179
0.0467157
-0.000351104
0.0461128
-0.000364739
0.0454816
-0.000372945
0.044827
-0.000377233
0.0441538
-0.000378703
0.0434657
-0.000378236
0.0427657
-0.000376572
0.0420563
-0.000374264
0.0413392
-0.00037169
0.0406158
-0.000369103
0.0398871
-0.000366684
0.0391537
-0.000364551
0.0384159
-0.000362779
0.0376738
-0.000361406
0.0369272
-0.000360445
0.0361761
-0.000359893
0.03542
-0.000359734
0.0346586
-0.00035994
0.0338914
-0.000360475
0.033118
-0.000361295
0.0323379
-0.000362351
0.0315507
-0.000363589
0.030756
-0.000364948
0.0299536
-0.000366363
0.0291431
-0.000367768
0.0283246
-0.000369089
0.027498
-0.000370253
0.0266634
-0.000371183
0.0258211
-0.000371802
0.0249716
-0.000372033
0.0241156
-0.000371799
-0.000371027
0.0232537
0.0200114
0.019711
0.0193809
0.0190298
0.018665
0.0182921
0.0179149
0.0175362
0.0171579
0.0167814
0.0164071
0.0160354
0.0156663
0.0152996
0.0149351
0.0145723
0.0142109
0.0138505
0.0134906
0.0131309
0.012771
0.0124105
0.0120492
0.0116869
0.0113233
0.0109584
0.010592
0.0102243
0.00985523
0.00948499
0.00911383
0.00874205
0.00837004
0.00799826
0.00762725
-0.00516639
0.00012568
-0.00529093
0.000124546
-0.00541388
0.000122964
-0.00553465
0.000120786
-0.00565247
0.000117836
-0.00576639
0.000113934
-0.00587524
0.000108877
-0.00597765
0.000102445
-0.006072
9.43824e-05
8.44328e-05
-0.00615639
-0.0099955
0.000288258
-0.0101478
0.000276856
-0.0102883
0.000263532
-0.0104154
0.000247858
-0.0105269
0.000229357
-0.0106204
0.000207549
-0.0106934
0.000181947
-0.010743
0.000152069
-0.0107659
0.000117395
7.73668e-05
-0.0107587
-0.0114103
0.000343452
-0.0114424
0.000309017
-0.0114493
0.000270462
-0.0114285
0.000227115
-0.0113774
0.000178265
-0.011293
0.000123164
-0.011172
6.11061e-05
-0.0110114
-8.5378e-06
-0.0108077
-8.61553e-05
-0.000172164
-0.0105581
-0.00955061
0.00019012
-0.00936264
0.000121075
-0.00913765
4.54972e-05
-0.00887315
-3.7343e-05
-0.00856675
-0.000128101
-0.00821604
-0.000227486
-0.00781867
-0.000336204
-0.00737234
-0.000454796
-0.00687465
-0.000583777
-0.000723384
-0.00632335
-0.00481003
-0.00021953
-0.00435888
-0.000330062
-0.00386445
-0.000448923
-0.00332492
-0.000576844
-0.00273843
-0.000714569
-0.00210311
-0.000862764
-0.00141733
-0.00102195
-0.00067961
-0.00119247
0.000111157
-0.00137449
-0.00156814
0.000955966
0.00236028
-0.00088922
0.00307321
-0.001043
0.0038308
-0.00120652
0.00463436
-0.00138041
0.00548505
-0.00156525
0.00638379
-0.00176151
0.00733134
-0.00196949
0.00832817
-0.00218929
0.00937449
-0.0024208
-0.00266371
0.0104701
0.0116641
-0.00179721
0.0126125
-0.00199146
0.0136023
-0.00219629
0.014634
-0.00241213
0.0157081
-0.0026393
0.0168245
-0.00287798
0.0179832
-0.00312815
0.0191834
-0.00338955
0.0204243
-0.0036617
-0.00394382
0.0217045
0.0229727
-0.00289257
0.0241007
-0.00311951
0.0252615
-0.00335713
0.026455
-0.00360557
0.0276805
-0.00386485
0.0289373
-0.00413474
0.0302239
-0.00441485
0.0315389
-0.00470447
0.0328798
-0.00500267
-0.00530817
0.0342442
0.036086
-0.0040762
0.0372893
-0.00432287
0.0385117
-0.00457949
0.039752
-0.00484587
0.0410087
-0.00512162
0.0422801
-0.00540611
0.0435637
-0.00569849
0.0448569
-0.00599764
0.0461564
-0.00630214
-0.00661027
0.0474585
0.0503369
-0.00519101
0.0514553
-0.00544122
0.0525757
-0.00569985
0.0536961
-0.00596633
0.0548144
-0.00623987
0.0559277
-0.00651945
0.057033
-0.00680382
0.0581269
-0.00709144
0.0592052
-0.00738052
-0.00766899
0.060264
0.064314
-0.00605048
0.0651612
-0.00628839
0.0659938
-0.00653247
0.0668093
-0.0067818
0.0676047
-0.00703527
0.0683768
-0.00729154
0.069122
-0.00754902
0.0698365
-0.00780592
0.0705162
-0.00806018
-0.00830956
0.0711568
0.0760228
-0.00649895
0.0764459
-0.00671142
0.0768407
-0.00692729
0.0772043
-0.00714541
0.0775335
-0.00736444
0.0778248
-0.00758282
0.0780746
-0.00779881
0.0782793
-0.0080105
0.0784349
-0.00821576
-0.00841232
0.0785377
0.083483
-0.00645865
0.0834069
-0.00663538
0.0832923
-0.00681264
0.0831361
-0.00698914
0.0829351
-0.00716345
0.0826863
-0.00733398
0.0823865
-0.00749899
0.0820327
-0.00765661
0.0816218
-0.00780484
-0.0079416
0.0811511
0.0853426
-0.00593392
0.0847749
-0.00606766
0.0841618
-0.00619944
0.0835007
-0.00632802
0.0827893
-0.006452
0.0820253
-0.00656992
0.0812065
-0.0066802
0.0803312
-0.0067812
0.0793976
-0.00687123
-0.00694857
0.0784046
0.0811271
-0.00499433
0.0801422
-0.00508268
0.0791103
-0.00516747
0.0780299
-0.00524761
0.0768999
-0.00532192
0.0757192
-0.00538917
0.0744872
-0.00544812
0.0732035
-0.0054975
0.0718684
-0.00553603
-0.0055625
0.0704824
0.071201
-0.00376808
0.0699339
-0.00381545
0.0686253
-0.00385881
0.067275
-0.0038973
0.0658832
-0.00393009
0.0644504
-0.00395629
0.0629774
-0.00397506
0.0614655
-0.00398555
0.0599165
-0.00398699
-0.00397867
0.0583328
0.0567296
-0.00244088
0.0553725
-0.00245826
0.053986
-0.00247223
0.052571
-0.00248229
0.0511289
-0.00248791
0.0496612
-0.00248859
0.0481701
-0.00248388
0.046658
-0.00247337
0.0451278
-0.00245668
-0.00243354
0.0435827
0.0396447
-0.00123638
0.0384245
-0.00123795
0.0371897
-0.00123742
0.0359421
-0.00123456
0.0346834
-0.00122915
0.0334158
-0.00122099
0.032142
-0.00120993
0.0308645
-0.00119584
0.0295865
-0.00117865
-0.0011583
0.0283113
0.0223871
-0.000369645
0.0215168
-0.00036759
0.0206442
-0.000364803
0.019771
-0.000361234
0.0188988
-0.000356844
0.0180294
-0.000351604
0.0171651
-0.000345497
0.0163078
-0.00033852
0.0154599
-0.000330684
-0.000322015
0.0146236
0.00725762
0.00689005
0.00652527
0.00616405
0.00580722
0.00545563
0.00511015
0.00477164
0.00444097
0.00411896
-0.0062287
7.2357e-05
-0.00628655
5.7912e-05
-0.0063273
4.08081e-05
-0.00634796
2.07283e-05
-0.00634543
-2.46475e-06
-0.00631679
-2.85756e-05
-0.0062593
-5.74093e-05
-0.00617028
-8.89287e-05
-0.00604727
-0.000122918
-0.00588809
-0.000159077
-0.00569099
-0.000196993
-0.00545472
-0.000236163
-0.00517862
-0.000275985
-0.00486271
-0.000315807
-0.00450768
-0.000354915
-0.00411502
-0.000392557
-0.00368688
-0.000428027
-0.00322606
-0.000460704
-0.00273593
-0.000490011
-0.00222041
-0.000515405
-0.00168371
-0.000536579
-0.00113026
-0.000553323
-0.000564766
-0.00056537
8.14329e-06
-0.000572789
0.000583919
-0.000575654
0.00115804
-0.000574006
0.00172629
-0.000568134
0.00228487
-0.000558462
0.00283039
-0.000545406
0.00335996
-0.000529462
0.00387122
-0.000511158
0.00436238
-0.000491054
0.00483218
-0.000469709
0.00527996
-0.000447687
-0.000425533
0.00570558
-0.0107178
3.15001e-05
-0.0106392
-2.05563e-05
-0.0105193
-7.89804e-05
-0.0103545
-0.000143894
-0.0101415
-0.00021533
-0.00987678
-0.000293148
-0.0095571
-0.000376924
-0.0091799
-0.000465947
-0.00874331
-0.000559316
-0.00824614
-0.00065603
-0.00768795
-0.000754966
-0.00706908
-0.000854803
-0.00639075
-0.000954093
-0.00565501
-0.00105132
-0.00486475
-0.00114494
-0.0040238
-0.00123326
-0.00313681
-0.00131478
-0.00220898
-0.00138829
-0.00124588
-0.00145286
-0.000253211
-0.00150781
0.000762848
-0.00155238
0.00179565
-0.00158587
0.00283876
-0.00160823
0.00388575
-0.00161953
0.00493033
-0.00162
0.0059666
-0.00161005
0.00698905
-0.00159036
0.00799267
-0.00156186
0.00897303
-0.00152556
0.00992636
-0.00148259
0.0108495
-0.00143416
0.0117402
-0.00138153
0.0125967
-0.00132599
0.013418
-0.00126883
-0.00121129
0.0142039
-0.0102595
-0.000267053
-0.00990879
-0.000371131
-0.00950316
-0.000484499
-0.00903991
-0.00060702
-0.00851679
-0.000738323
-0.007932
-0.000877792
-0.00728431
-0.00102446
-0.00657307
-0.00117702
-0.00579856
-0.00133365
-0.00496183
-0.00149258
-0.00406455
-0.00165206
-0.00310916
-0.00181001
-0.00209885
-0.00196421
-0.00103757
-0.0021124
7.0039e-05
-0.00225234
0.00121893
-0.00238195
0.00240371
-0.00249936
0.0036186
-0.00260299
0.0048573
-0.00269139
0.00611318
-0.00276352
0.00737958
-0.00281861
0.00865007
-0.00285619
0.00991818
-0.00287618
0.0111777
-0.00287892
0.0124229
-0.00286501
0.0136484
-0.00283538
0.0148494
-0.00279123
0.0160217
-0.00273402
0.0171617
-0.00266539
0.0182664
-0.00258712
0.0193335
-0.0025011
0.0203613
-0.00240925
0.021349
-0.00231355
0.0222962
-0.00221593
-0.00211831
0.0232034
-0.0057165
-0.000873823
-0.00505238
-0.00103516
-0.00432969
-0.0012071
-0.00354755
-0.00138905
-0.00270561
-0.00158015
-0.0018041
-0.00177918
-0.000843975
-0.00198446
0.000173056
-0.00219393
0.00124501
-0.00240549
0.00236945
-0.00261691
0.00354314
-0.00282564
0.00476216
-0.00302892
0.00602201
-0.00322395
0.00731769
-0.00340797
0.00864379
-0.00357833
0.0099945
-0.00373255
0.0113637
-0.00386846
0.012745
-0.00398418
0.014132
-0.00407824
0.0155182
-0.0041496
0.0168973
-0.00419761
0.0182633
-0.00422209
0.0196105
-0.00422329
0.0209337
-0.00420194
0.0222279
-0.00415915
0.023489
-0.0040964
0.0247134
-0.0040155
0.025898
-0.00391852
0.0270405
-0.00380775
0.0281391
-0.00368562
0.0291927
-0.00355466
0.030201
-0.00341745
0.0311641
-0.00327656
0.0320828
-0.00313451
-0.00299377
0.0329584
0.00185552
-0.00177332
0.00281001
-0.00198959
0.00381918
-0.0022162
0.00488227
-0.00245208
0.00599798
-0.0026958
0.00716444
-0.00294559
0.0083793
-0.00319926
0.00963973
-0.00345431
0.0109423
-0.003708
0.0122829
-0.00395747
0.0136569
-0.00419962
0.0150593
-0.00443124
0.0164846
-0.00464916
0.0179269
-0.00485027
0.0193803
-0.00503167
0.0208386
-0.00519073
0.0222954
-0.00532519
0.0237445
-0.00543319
0.0251797
-0.0055134
0.0265951
-0.00556497
0.0279852
-0.00558758
0.0293447
-0.00558147
0.0306688
-0.00554739
0.0319536
-0.00548659
0.0331953
-0.00540079
0.034391
-0.00529209
0.0355385
-0.00516293
0.0366361
-0.00501606
0.0376828
-0.00485439
0.0386783
-0.00468098
0.0396226
-0.00449896
0.0405167
-0.00431146
0.0413618
-0.00412159
0.0421597
-0.00393234
-0.00374662
0.0429126
0.0116142
-0.00291747
0.0128059
-0.00318119
0.0140433
-0.00345361
0.0153244
-0.00373313
0.0166464
-0.00401779
0.0180061
-0.00430526
0.0193997
-0.00459286
0.020823
-0.00487761
0.0222714
-0.0051563
0.0237395
-0.00542556
0.0252218
-0.00568194
0.0267126
-0.00592193
0.0282056
-0.00614213
0.0296946
-0.00633932
0.0311736
-0.00651056
0.0326362
-0.00665328
0.0340764
-0.00676539
0.0354886
-0.00684531
0.0368673
-0.00689203
0.0382075
-0.00690513
0.0395048
-0.00688483
0.0407553
-0.00683192
0.0419557
-0.00674776
0.0431034
-0.00663425
0.0441964
-0.00649376
0.0452334
-0.00632904
0.0462137
-0.0061432
0.0471373
-0.00593957
0.0480045
-0.00572164
0.0488166
-0.00549302
0.049575
-0.0052573
0.0502816
-0.00501806
0.0509389
-0.00477878
0.0515493
-0.00454279
-0.00431326
0.052116
0.0230218
-0.00423485
0.024374
-0.00453337
0.0257581
-0.00483763
0.0271704
-0.00514549
0.0286071
-0.00545447
0.0300637
-0.00576176
0.031535
-0.00606422
0.0330159
-0.0063585
0.0345007
-0.00664103
0.0359833
-0.00690819
0.0374577
-0.00715632
0.0389177
-0.00738186
0.040357
-0.00758142
0.0417696
-0.00775191
0.0431497
-0.00789063
0.0444918
-0.00799534
0.0457908
-0.00806436
0.0470422
-0.00809662
0.0482418
-0.00809169
0.0493865
-0.00804977
0.0504735
-0.00797175
0.0515006
-0.00785908
0.0524668
-0.00771385
0.0533711
-0.00753862
0.0542138
-0.0073364
0.0549953
-0.00711057
0.0557169
-0.00686477
0.0563802
-0.00660284
0.0569873
-0.00632872
0.0575406
-0.00604635
0.058043
-0.00575967
0.0584974
-0.00547247
0.058907
-0.00518841
0.0592752
-0.00491094
-0.00464331
0.0596052
0.0356288
-0.00561941
0.0370299
-0.00593448
0.0384434
-0.00625111
0.0398646
-0.00656672
0.0412885
-0.0068784
0.0427098
-0.00718297
0.0441226
-0.007477
0.045521
-0.00775692
0.046899
-0.00801905
0.0482506
-0.00825973
0.0495697
-0.00847539
0.0508505
-0.00866266
0.0520876
-0.00881845
0.0532758
-0.00894009
0.0544105
-0.00902536
0.0554878
-0.00907264
0.0565044
-0.00908088
0.0574575
-0.00904972
0.0583453
-0.00897947
0.0591666
-0.00887109
0.059921
-0.00872618
0.0606089
-0.00854697
0.0612312
-0.00833616
0.0617896
-0.00809697
0.0622861
-0.00783296
0.0627235
-0.00754797
0.0631048
-0.00724604
0.0634332
-0.00693131
0.0637124
-0.00660793
0.063946
-0.00628
0.0641379
-0.0059515
0.0642916
-0.00562623
0.064411
-0.00530778
0.0644995
-0.00499951
-0.0047045
0.0645607
0.0487591
-0.00692001
0.0500537
-0.00722904
0.0513373
-0.00753471
0.0526047
-0.00783412
0.0538504
-0.00812411
0.0550688
-0.00840133
0.0562541
-0.00866228
0.0574006
-0.0089034
0.0585028
-0.00912118
0.0595552
-0.00931218
0.0605531
-0.0094732
0.0614917
-0.00960133
0.0623674
-0.00969406
0.0631767
-0.00974937
0.0639171
-0.00976578
0.0645869
-0.00974242
0.0651851
-0.00967908
0.0657115
-0.0095762
0.0661669
-0.00943489
0.0665527
-0.00925689
0.0668711
-0.00904452
0.0671247
-0.00880064
0.0673171
-0.00852854
0.0674519
-0.00823188
0.0675335
-0.00791458
0.0675663
-0.00758074
0.0675547
-0.00723454
0.0675036
-0.00688018
0.0674174
-0.00652176
0.0673006
-0.00616324
0.0671574
-0.00580841
0.066992
-0.00546082
0.0668079
-0.00512373
0.0666085
-0.00480018
-0.00449287
0.0663969
0.0612985
-0.00795451
0.062304
-0.00823449
0.0632754
-0.00850609
0.0642075
-0.00876628
0.0650953
-0.00901188
0.0659336
-0.00923959
0.0667175
-0.00944611
0.0674422
-0.00962817