/*--------------------------------*- C++ -*----------------------------------*\
| =========                 |                                                 |
| \\      /  F ield         | OpenFOAM: The Open Source CFD Toolbox           |
|  \\    /   O peration     | Version:  2406                                  |
|   \\  /    A nd           | Website:  www.openfoam.com                      |
|    \\/     M anipulation  |                                                 |
\*---------------------------------------------------------------------------*/
FoamFile
{
    version     2.0;
    format      ascii;
    arch        "LSB;label=32;scalar=64";
    class       volScalarField;
    location    "52";
    object      p;
}
// * * * * * * * * * * * * * * * * * * * * * * * * * * * * * * * * * * * * * //

dimensions      [0 2 -2 0 0 0 0];

internalField   nonuniform List<scalar> 
1800
(
0.120437
0.119395
0.117134
0.113948
0.110007
0.105301
0.0997789
0.0933247
0.0858106
0.076862
0.123669
0.120811
0.117565
0.114193
0.110262
0.105596
0.100208
0.0940939
0.0872496
0.07993
0.127212
0.122897
0.118742
0.115324
0.111655
0.107329
0.102467
0.0972777
0.0920515
0.0874138
0.131194
0.126281
0.121611
0.118175
0.11481
0.110954
0.106784
0.102619
0.0987591
0.0956031
0.135426
0.130298
0.12543
0.122069
0.11904
0.115699
0.112226
0.108955
0.10612
0.103937
0.139286
0.134152
0.129393
0.126267
0.123585
0.120708
0.117822
0.115235
0.113116
0.111568
0.142083
0.137158
0.132787
0.129996
0.127602
0.125074
0.122609
0.120474
0.118784
0.117589
0.143253
0.138938
0.135193
0.13268
0.130426
0.128097
0.125884
0.123987
0.122489
0.121428
0.142412
0.139515
0.136646
0.134226
0.131888
0.129562
0.1274
0.125535
0.12404
0.122957
0.139908
0.13874
0.136757
0.134465
0.132108
0.129788
0.12762
0.125716
0.12416
0.123007
0.0842817
0.0841482
0.0840421
0.0840171
0.0840684
0.0841918
0.0843912
0.0846761
0.0850606
0.0855626
0.0862051
0.0870166
0.0880332
0.0892997
0.090871
0.0928124
0.0951985
0.0981097
0.101626
0.105818
0.110731
0.116373
0.122699
0.129593
0.136839
0.144119
0.150999
0.156948
0.161409
0.163778
0.163419
0.159831
0.152682
0.141887
0.127673
0.0844339
0.0842966
0.0842076
0.0842025
0.0842649
0.0843921
0.0845921
0.0848768
0.085261
0.0857622
0.086402
0.0872065
0.088208
0.0894465
0.0909712
0.0928413
0.0951262
0.0979028
0.101252
0.105249
0.109956
0.115401
0.121549
0.128284
0.135392
0.142546
0.149321
0.155211
0.159598
0.161835
0.161316
0.157522
0.150108
0.138979
0.124371
0.0845202
0.0843609
0.084273
0.0842786
0.0843431
0.0844641
0.0846532
0.0849239
0.0852903
0.0857685
0.0863766
0.0871371
0.0880769
0.0892309
0.090643
0.0923698
0.0944804
0.0970571
0.10019
0.103974
0.108482
0.11374
0.119712
0.126286
0.133236
0.140229
0.14681
0.152432
0.156473
0.158272
0.157194
0.152691
0.144397
0.132211
0.116404
0.0843859
0.084208
0.0841165
0.0841232
0.0841804
0.084288
0.0844594
0.0847081
0.0850466
0.0854879
0.0860468
0.0867412
0.0875946
0.0886382
0.0899152
0.0914863
0.0934299
0.0958383
0.0988165
0.102456
0.10683
0.111949
0.117766
0.124162
0.130896
0.137609
0.143819
0.148942
0.15232
0.153251
0.151046
0.145104
0.135014
0.120668
0.102462
0.0839155
0.0837531
0.0836847
0.0837072
0.0837703
0.0838776
0.0840444
0.0842831
0.0846044
0.0850183
0.0855372
0.0861772
0.0869615
0.0879228
0.0891101
0.0905915
0.092454
0.0947787
0.0976649
0.101216
0.105496
0.110518
0.116225
0.122457
0.128944
0.135285
0.140961
0.14535
0.147744
0.147382
0.143493
0.13535
0.122399
0.104402
0.0819533
0.0830079
0.082941
0.0829728
0.0830677
0.0831809
0.0833255
0.0835204
0.083778
0.0841089
0.0845246
0.0850369
0.0856623
0.0864241
0.0873561
0.0885122
0.0899652
0.0918043
0.0941303
0.0970451
0.100638
0.104958
0.109999
0.115671
0.121782
0.128021
0.133952
0.139019
0.142557
0.143806
0.14193
0.136039
0.125228
0.108674
0.0856679
0.056686
0.0815579
0.0817598
0.0820577
0.0823405
0.0825799
0.082814
0.0830756
0.0833832
0.0837485
0.0841853
0.0847117
0.0853483
0.0861244
0.0870849
0.0882933
0.0898294
0.0917873
0.0942686
0.0973689
0.101162
0.105678
0.110877
0.116635
0.12272
0.128788
0.134376
0.138905
0.141683
0.141896
0.138608
0.130728
0.117096
0.0965297
0.0678438
0.031322
0.0792188
0.0802211
0.0811502
0.0817707
0.082198
0.082549
0.0828843
0.0832431
0.0836504
0.0841251
0.0846928
0.0853876
0.0862552
0.0873509
0.0887464
0.0905264
0.0927861
0.0956203
0.0991107
0.103306
0.108203
0.113722
0.1197
0.125875
0.131886
0.137273
0.141475
0.143824
0.143497
0.13945
0.130226
0.114003
0.0881222
0.050924
0.00230625
0.0743608
0.0782105
0.0806088
0.0816229
0.0822083
0.0826793
0.0830765
0.0834656
0.0839188
0.0844789
0.0851743
0.0860477
0.087157
0.0885699
0.0903616
0.0926144
0.0954123
0.098831
0.102923
0.107699
0.113112
0.119044
0.1253
0.131608
0.137623
0.142936
0.147071
0.149476
0.149452
0.146039
0.137608
0.121541
0.0918391
0.0423535
-0.0437458
0.0658436
0.0758812
0.0806417
0.0818202
0.0824333
0.0830868
0.0836521
0.084182
0.0848164
0.0856254
0.0866385
0.0879028
0.0894869
0.0914635
0.0939008
0.0968629
0.100406
0.104572
0.109369
0.114765
0.120673
0.126946
0.133378
0.139714
0.145661
0.150903
0.155105
0.157914
0.158913
0.157541
0.152786
0.142809
0.12197
0.0794805
-0.0464484
0.0707237
0.0770844
0.0816166
0.0827175
0.0832986
0.0841849
0.0851027
0.0860096
0.0870608
0.0883544
0.0899277
0.091826
0.0941145
0.0968562
0.100099
0.103876
0.108204
0.113082
0.118478
0.124322
0.130498
0.136851
0.143188
0.149293
0.154947
0.159944
0.164101
0.167269
0.169322
0.170146
0.169564
0.167349
0.162547
0.153755
0.124656
0.0763193
0.0795126
0.0832781
0.0849703
0.0859614
0.0871719
0.0885528
0.0900201
0.0916666
0.0935926
0.0958511
0.0984845
0.10154
0.105054
0.109046
0.113512
0.118433
0.123768
0.129454
0.135397
0.141473
0.147534
0.153418
0.158964
0.164028
0.168501
0.172319
0.175471
0.178005
0.180028
0.181693
0.183205
0.184575
0.185517
0.182184
0.0850348
0.0859781
0.0882632
0.0899755
0.0912757
0.0927777
0.0945824
0.0965982
0.0988357
0.10137
0.10426
0.10754
0.111226
0.115324
0.119818
0.124674
0.129843
0.13526
0.140842
0.146488
0.152082
0.157499
0.162618
0.167334
0.171571
0.175289
0.178493
0.181239
0.183629
0.185821
0.188013
0.190431
0.193184
0.196144
0.197316
0.0938212
0.0939418
0.0953515
0.0969748
0.098563
0.100377
0.102526
0.104954
0.107647
0.110648
0.114
0.117715
0.121781
0.126169
0.130837
0.13573
0.140781
0.145913
0.151041
0.156072
0.160912
0.16547
0.16967
0.173458
0.176807
0.179719
0.18223
0.184407
0.186347
0.188184
0.190082
0.192215
0.194666
0.197283
0.198877
0.102707
0.102671
0.103627
0.105074
0.106763
0.108743
0.111069
0.11372
0.116674
0.119939
0.123525
0.127414
0.13157
0.135942
0.140472
0.145095
0.14974
0.154334
0.158802
0.163073
0.16708
0.170773
0.174115
0.177087
0.179694
0.181955
0.183909
0.185607
0.187123
0.188553
0.190025
0.191674
0.193564
0.195531
0.196835
0.110721
0.110685
0.111405
0.112677
0.114336
0.116348
0.118721
0.121436
0.124464
0.127785
0.131375
0.135197
0.139199
0.143323
0.147507
0.151686
0.155799
0.159783
0.163586
0.167159
0.170466
0.173485
0.176204
0.178626
0.180763
0.182637
0.184274
0.185707
0.186981
0.188164
0.189353
0.190656
0.192098
0.1935
0.194394
0.116949
0.116921
0.1175
0.118607
0.12015
0.122083
0.124382
0.127021
0.129964
0.133171
0.136601
0.140205
0.143928
0.147713
0.151502
0.15524
0.158877
0.162369
0.165678
0.168778
0.171647
0.174279
0.176671
0.178829
0.180765
0.182491
0.184024
0.18538
0.186588
0.187696
0.188776
0.189897
0.191041
0.192018
0.192536
0.120845
0.120777
0.12123
0.122175
0.123562
0.125352
0.12751
0.130002
0.132784
0.135812
0.139037
0.142407
0.145871
0.149375
0.152872
0.156316
0.159665
0.162887
0.165951
0.168838
0.171534
0.174031
0.176327
0.178425
0.180331
0.182053
0.1836
0.184986
0.186232
0.187373
0.188455
0.189508
0.19048
0.191171
0.191411
0.122325
0.122171
0.122503
0.123306
0.124552
0.126207
0.128235
0.130597
0.133248
0.136143
0.139232
0.142467
0.145799
0.149178
0.152562
0.155906
0.159175
0.162334
0.165358
0.168223
0.170915
0.173425
0.175747
0.177881
0.17983
0.181601
0.183204
0.184654
0.185973
0.187191
0.188336
0.189404
0.190306
0.190842
0.190934
0.122296
0.122054
0.122291
0.122999
0.124158
0.125736
0.127698
0.130002
0.132603
0.135455
0.138509
0.141718
0.145032
0.148405
0.151791
0.155148
0.158438
0.161627
0.164686
0.167594
0.170333
0.172892
0.175265
0.17745
0.17945
0.181271
0.182925
0.18443
0.185813
0.187104
0.188322
0.189444
0.190357
0.190864
0.190919
0.110597
0.0915074
0.0714286
0.0513699
0.0321496
0.0143349
-0.00180549
-0.0161718
-0.0286877
-0.0393532
0.10688
0.0874364
0.0671672
0.0471315
0.0281097
0.0105754
-0.00517081
-0.0189585
-0.0308047
-0.0408223
0.097679
0.0771941
0.0563828
0.0364226
0.0179598
0.00130032
-0.0133823
-0.0260346
-0.0367345
-0.045649
0.0813309
0.0589264
0.0372881
0.0176616
0.000294758
-0.0148181
-0.0276485
-0.0383059
-0.0470584
-0.0541873
0.0565022
0.0310627
0.00880954
-0.00955942
-0.0248753
-0.0375329
-0.047567
-0.0552831
-0.0612196
-0.0658151
0.0233436
-0.00738334
-0.0296273
-0.0450603
-0.0568721
-0.0657978
-0.071839
-0.0756188
-0.0779585
-0.0793966
-0.0148201
-0.0546217
-0.0763122
-0.0873009
-0.0941974
-0.0977267
-0.0981847
-0.096902
-0.0949908
-0.0929137
-0.0643709
-0.111391
-0.126866
-0.130342
-0.130199
-0.126473
-0.12035
-0.11383
-0.108027
-0.103003
-0.159113
-0.185239
-0.173375
-0.161691
-0.15124
-0.140069
-0.129508
-0.12055
-0.113238
-0.10729
-0.273703
-0.238901
-0.194993
-0.174882
-0.159176
-0.144099
-0.13126
-0.121129
-0.113226
-0.107039
-0.0482589
-0.0555492
-0.0613907
-0.0659565
-0.0694155
-0.0719246
-0.0736243
-0.0746367
-0.0750663
-0.0750004
-0.0745115
-0.0736588
-0.0724909
-0.071048
-0.0693637
-0.0674665
-0.0653816
-0.0631314
-0.060737
-0.0582183
-0.0555948
-0.0528857
-0.0501101
-0.0472871
-0.0444356
-0.0415743
-0.0387212
-0.0358937
-0.033108
-0.0303792
-0.0277205
-0.0251437
-0.0226585
-0.0202727
-0.0179922
-0.0491549
-0.0559648
-0.0614245
-0.0657051
-0.0689657
-0.0713473
-0.0729729
-0.0739494
-0.0743681
-0.0743063
-0.0738289
-0.0729903
-0.0718363
-0.0704057
-0.0687316
-0.0668427
-0.0647641
-0.0625187
-0.0601277
-0.0576115
-0.0549899
-0.0522827
-0.0495097
-0.0466903
-0.0438441
-0.0409901
-0.0381467
-0.0353314
-0.0325608
-0.0298497
-0.0272114
-0.0246574
-0.0221971
-0.0198379
-0.0175851
-0.0529704
-0.0588934
-0.0636092
-0.0672959
-0.0701046
-0.0721548
-0.0735446
-0.074358
-0.0746676
-0.0745342
-0.0740092
-0.073137
-0.0719565
-0.0705021
-0.0688044
-0.0668905
-0.0647846
-0.0625092
-0.0600852
-0.0575331
-0.0548728
-0.0521248
-0.0493095
-0.0464476
-0.0435597
-0.0406659
-0.0377858
-0.0349382
-0.0321403
-0.0294078
-0.0267547
-0.0241926
-0.0217308
-0.0193763
-0.0171339
-0.0599236
-0.0644782
-0.0680543
-0.0708321
-0.072942
-0.0744691
-0.0754776
-0.0760251
-0.0761599
-0.0759202
-0.0753368
-0.074438
-0.0732503
-0.0717985
-0.0701057
-0.0681931
-0.0660809
-0.0637882
-0.0613336
-0.0587362
-0.0560155
-0.0531924
-0.0502882
-0.0473255
-0.0443269
-0.0413152
-0.0383128
-0.0353415
-0.0324221
-0.0295734
-0.0268124
-0.0241531
-0.0216069
-0.0191819
-0.0168834
-0.0693407
-0.0720216
-0.0740822
-0.0756935
-0.0769291
-0.0778075
-0.0783484
-0.0785796
-0.0785193
-0.0781742
-0.0775489
-0.076653
-0.0754998
-0.0741037
-0.0724788
-0.070638
-0.0685935
-0.0663567
-0.0639397
-0.061356
-0.0586217
-0.0557554
-0.0527777
-0.0497116
-0.0465809
-0.0434108
-0.0402272
-0.0370559
-0.0339231
-0.0308535
-0.0278706
-0.0249949
-0.0222437
-0.0196303
-0.017164
-0.0802016
-0.080607
-0.0808982
-0.0812283
-0.0815408
-0.0817333
-0.0817751
-0.0816743
-0.0814217
-0.0809888
-0.0803497
-0.079492
-0.0784148
-0.0771233
-0.0756247
-0.0739251
-0.0720284
-0.0699365
-0.0676512
-0.0651769
-0.0625221
-0.0596993
-0.0567252
-0.0536196
-0.0504048
-0.0471054
-0.043748
-0.0403612
-0.0369753
-0.0336217
-0.0303315
-0.0271349
-0.0240591
-0.0211276
-0.0183589
-0.0907414
-0.0886992
-0.0872144
-0.0863855
-0.0859217
-0.0855472
-0.0851742
-0.0847961
-0.0843864
-0.0838953
-0.0832758
-0.0824953
-0.0815362
-0.0803933
-0.0790685
-0.0775641
-0.0758783
-0.0740047
-0.0719352
-0.069664
-0.0671898
-0.0645169
-0.0616546
-0.0586165
-0.0554193
-0.052083
-0.048631
-0.0450901
-0.0414913
-0.0378689
-0.0342603
-0.0307041
-0.0272388
-0.0239004
-0.0207211
-0.0982353
-0.0940699
-0.091332
-0.0898566
-0.0889949
-0.088349
-0.0878048
-0.0873226
-0.086856
-0.0863604
-0.0857954
-0.0851227
-0.0843126
-0.0833504
-0.0822329
-0.0809594
-0.0795243
-0.0779157
-0.0761183
-0.0741181
-0.0719053
-0.0694754
-0.0668294
-0.0639722
-0.0609125
-0.0576623
-0.0542377
-0.0506595
-0.0469542
-0.0431543
-0.0392983
-0.0354293
-0.0315938
-0.0278392
-0.0242116
-0.101262
-0.095708
-0.0925735
-0.0911436
-0.090309
-0.0896899
-0.089222
-0.0888244
-0.0884229
-0.0879898
-0.0875101
-0.0869567
-0.0862996
-0.0855212
-0.0846155
-0.0835784
-0.082401
-0.0810683
-0.0795613
-0.0778614
-0.0759531
-0.0738251
-0.07147
-0.0688839
-0.0660662
-0.0630192
-0.0597493
-0.056268
-0.0525933
-0.048751
-0.044775
-0.0407074
-0.0365972
-0.0324985
-0.0284679
-0.101017
-0.0954403
-0.0926011
-0.091478
-0.0907966
-0.0902741
-0.0899048
-0.0895967
-0.0892665
-0.0888961
-0.0884846
-0.0880162
-0.0874691
-0.0868292
-0.0860895
-0.0852433
-0.0842792
-0.0831805
-0.081928
-0.0805021
-0.0788846
-0.07706
-0.0750145
-0.0727367
-0.0702167
-0.0674475
-0.0644249
-0.0611498
-0.0576295
-0.0538794
-0.0499245
-0.0458002
-0.0415518
-0.0372341
-0.0329089
-0.099216
-0.0948133
-0.0924797
-0.091584
-0.0910456
-0.090623
-0.0903021
-0.0900171
-0.0897111
-0.08937
-0.0889907
-0.0885619
-0.0880706
-0.0875074
-0.0868654
-0.0861361
-0.0853078
-0.0843646
-0.0832891
-0.0820629
-0.0806687
-0.0790891
-0.0773073
-0.0753066
-0.0730711
-0.0705856
-0.0678376
-0.0648176
-0.061522
-0.0579546
-0.0541287
-0.0500693
-0.0458131
-0.0414098
-0.0369202
-0.0949876
-0.0933335
-0.0921674
-0.0915385
-0.0911245
-0.090793
-0.0905045
-0.0902226
-0.0899197
-0.089584
-0.0892109
-0.088794
-0.0883248
-0.087796
-0.0871999
-0.0865271
-0.085767
-0.084906
-0.0839289
-0.08282
-0.0815636
-0.0801429
-0.0785407
-0.076739
-0.0747191
-0.0724621
-0.0699496
-0.0671649
-0.0640952
-0.0607339
-0.0570826
-0.0531542
-0.0489747
-0.0445848
-0.0400398
-0.0923815
-0.0919632
-0.0915204
-0.0911724
-0.0909014
-0.0906618
-0.0904254
-0.090174
-0.0898942
-0.0895772
-0.0892177
-0.0888112
-0.0883521
-0.0878353
-0.0872549
-0.0866034
-0.0858701
-0.0850434
-0.0841099
-0.0830566
-0.0818687
-0.0805311
-0.0790274
-0.0773404
-0.0754517
-0.0733419
-0.0709909
-0.0683779
-0.0654844
-0.0622956
-0.058804
-0.0550116
-0.0509337
-0.0466012
-0.0420621
-0.0909482
-0.090913
-0.0907895
-0.0906324
-0.09048
-0.0903222
-0.0901421
-0.0899308
-0.0896807
-0.0893864
-0.0890444
-0.0886513
-0.0882035
-0.087696
-0.0871238
-0.0864791
-0.0857524
-0.0849333
-0.0840109
-0.0829728
-0.0818065
-0.0804981
-0.079033
-0.0773951
-0.0755671
-0.0735308
-0.0712663
-0.0687519
-0.0659661
-0.0628899
-0.0595087
-0.0558167
-0.0518205
-0.0475425
-0.0430232
-0.0900436
-0.0901409
-0.0901546
-0.0900976
-0.0900133
-0.0899063
-0.0897665
-0.089587
-0.0893626
-0.0890895
-0.0887641
-0.0883831
-0.0879438
-0.0874416
-0.0868708
-0.086225
-0.0854958
-0.084673
-0.0837461
-0.0827032
-0.081532
-0.0802197
-0.0787545
-0.0771222
-0.0753056
-0.0732878
-0.0710503
-0.0685714
-0.0658295
-0.0628034
-0.0594745
-0.0558321
-0.0518766
-0.0476241
-0.0431089
-0.089496
-0.0896373
-0.0897025
-0.0896856
-0.0896313
-0.0895471
-0.0894258
-0.0892615
-0.0890497
-0.088786
-0.088467
-0.0880893
-0.0876497
-0.0871442
-0.0865676
-0.0859138
-0.0851748
-0.0843409
-0.0834014
-0.0823444
-0.0811573
-0.0798279
-0.0783429
-0.0766866
-0.074844
-0.0728027
-0.0705463
-0.068053
-0.065304
-0.0622776
-0.0589519
-0.0553132
-0.0513585
-0.0470988
-0.0425646
-0.0892309
-0.089373
-0.0894494
-0.0894457
-0.0894006
-0.0893214
-0.0892034
-0.0890414
-0.088831
-0.0885674
-0.0882467
-0.0878653
-0.0874189
-0.0869031
-0.0863128
-0.0856419
-0.0848829
-0.0840272
-0.0830642
-0.0819823
-0.0807685
-0.0794105
-0.0778947
-0.0762058
-0.0743282
-0.0722469
-0.0699461
-0.0674078
-0.0646129
-0.0615404
-0.0581711
-0.054492
-0.050497
-0.0461981
-0.0416255
-0.089177
-0.0893003
-0.0893736
-0.0893758
-0.0893332
-0.0892528
-0.0891319
-0.0889656
-0.0887498
-0.0884805
-0.0881535
-0.0877643
-0.0873085
-0.086781
-0.0861762
-0.0854876
-0.084708
-0.0838287
-0.0828402
-0.0817307
-0.0804878
-0.0790979
-0.0775468
-0.0758183
-0.0738959
-0.0717625
-0.0694017
-0.066798
-0.0639348
-0.0607939
-0.0573582
-0.0536174
-0.0495675
-0.0452176
-0.0405895
-0.0892566
-0.0893613
-0.0894347
-0.0894473
-0.0894107
-0.0893303
-0.0892057
-0.0890346
-0.0888134
-0.0885382
-0.0882047
-0.0878087
-0.0873453
-0.0868092
-0.086194
-0.0854931
-0.0846989
-0.0838026
-0.0827945
-0.0816634
-0.0803969
-0.0789814
-0.0774016
-0.0756413
-0.0736827
-0.0715071
-0.0690955
-0.0664302
-0.0634948
-0.0602741
-0.0567549
-0.0529286
-0.0487945
-0.0443652
-0.0396656
-0.0893676
-0.0894684
-0.0895541
-0.089582
-0.0895539
-0.0894756
-0.0893498
-0.0891761
-0.088952
-0.0886741
-0.0883383
-0.08794
-0.0874743
-0.0869355
-0.0863173
-0.0856125
-0.084813
-0.0839098
-0.0828927
-0.0817505
-0.0804709
-0.0790404
-0.0774438
-0.0756649
-0.0736858
-0.0714873
-0.0690493
-0.0663513
-0.0633739
-0.0601001
-0.056517
-0.0526183
-0.0484075
-0.0438995
-0.0391229
-0.0158209
-0.0137608
-0.0118127
-0.00997612
-0.00824992
-0.0066323
-0.00512134
-0.00372646
-0.00245769
-0.00106346
-0.0154422
-0.0134107
-0.0114906
-0.00968061
-0.00797834
-0.00638028
-0.0048883
-0.00351858
-0.00229368
-0.00102261
-0.0150062
-0.0129937
-0.0110953
-0.00930844
-0.00762997
-0.00605661
-0.00459003
-0.00325614
-0.00209621
-0.00101604
-0.0147137
-0.0126726
-0.010758
-0.00896634
-0.00729383
-0.00573746
-0.00430039
-0.00301265
-0.00192639
-0.00112596
-0.0148498
-0.012689
-0.0106799
-0.00881908
-0.00710232
-0.00552953
-0.00410022
-0.00285433
-0.00179088
-0.00136651
-0.0157661
-0.013357
-0.0111345
-0.0090985
-0.0072465
-0.00558021
-0.00409226
-0.00284288
-0.00168814
-0.0017624
-0.0177274
-0.0149395
-0.0123709
-0.0100298
-0.00791811
-0.00604279
-0.00438106
-0.00303615
-0.00163655
-0.0023044
-0.0207534
-0.0175009
-0.0144831
-0.0117218
-0.00922746
-0.00701683
-0.00504612
-0.00348303
-0.00167222
-0.00289256
-0.0245619
-0.0208333
-0.0173285
-0.014086
-0.0111288
-0.0084863
-0.0061006
-0.00419887
-0.00186809
-0.00336589
-0.0286419
-0.0244995
-0.0205441
-0.0168317
-0.0133997
-0.0102948
-0.00745001
-0.00513682
-0.0022947
-0.00355636
-0.0324141
-0.0279664
-0.0236522
-0.0195431
-0.0156932
-0.0121626
-0.00889921
-0.00616503
-0.00295129
-0.00335452
-0.0354085
-0.0307695
-0.0262067
-0.0218045
-0.0176332
-0.0137675
-0.0101832
-0.00708716
-0.00373069
-0.00275466
-0.0373806
-0.0326357
-0.0279167
-0.0233181
-0.018927
-0.0148294
-0.0110464
-0.00769198
-0.00443251
-0.00185571
-0.0383215
-0.0335148
-0.0286954
-0.0239666
-0.0194316
-0.0151884
-0.0113108
-0.007814
-0.00483383
-0.000818307
-0.0383855
-0.0335278
-0.0286309
-0.0238043
-0.0191671
-0.014831
-0.0109197
-0.00738442
-0.00476068
0.00019622
-0.037805
-0.0328917
-0.02792
-0.0230063
-0.018281
-0.0138719
-0.00994398
-0.00643791
-0.00414431
0.00107622
-0.036821
-0.0318513
-0.0268093
-0.021815
-0.0170048
-0.012525
-0.0085613
-0.0051109
-0.00302831
0.0017778
-0.0357244
-0.0306865
-0.0255726
-0.020503
-0.0156179
-0.011066
-0.00704273
-0.00363068
-0.00157578
0.00228432
-0.0347365
-0.0296399
-0.0244654
-0.0193286
-0.0143662
-0.00973519
-0.00562528
-0.00219666
5.46435e-05
0.002631
-0.0341238
-0.0289682
-0.0237439
-0.0185606
-0.0135508
-0.0088771
-0.00472698
-0.00127332
0.00128544
0.00274197
)
;

boundaryField
{
    inlet
    {
        type            zeroGradient;
    }
    outlet
    {
        type            fixedValue;
        value           uniform 0;
    }
    upperWall
    {
        type            zeroGradient;
    }
    lowerWall
    {
        type            zeroGradient;
    }
    frontAndBack
    {
        type            empty;
    }
}


// ************************************************************************* //
