/*--------------------------------*- C++ -*----------------------------------*\
| =========                 |                                                 |
| \\      /  F ield         | OpenFOAM: The Open Source CFD Toolbox           |
|  \\    /   O peration     | Version:  2406                                  |
|   \\  /    A nd           | Website:  www.openfoam.com                      |
|    \\/     M anipulation  |                                                 |
\*---------------------------------------------------------------------------*/
FoamFile
{
    version     2.0;
    format      ascii;
    arch        "LSB;label=32;scalar=64";
    class       surfaceScalarField;
    location    "52";
    object      phi;
}
// * * * * * * * * * * * * * * * * * * * * * * * * * * * * * * * * * * * * * //

dimensions      [0 3 -1 0 0 0 0];

oriented        oriented;

internalField   nonuniform List<scalar> 
3470
(
0.0194373
-0.000437348
0.0200686
-0.000631294
0.0207148
-0.000646232
0.0213736
-0.000658746
0.0220744
-0.00070082
0.0228499
-0.000775462
0.0237463
-0.000896463
0.0248413
-0.00109499
0.026256
-0.00141473
-0.00249652
0.0287525
0.0508615
-0.000298847
0.0509271
-0.000696963
0.0512088
-0.000927869
0.0516675
-0.0011175
0.0522905
-0.00132386
0.0530819
-0.00156682
0.0540579
-0.00187251
0.0552507
-0.00228781
0.0567107
-0.00287475
-0.00379127
0.0580054
0.0749524
-0.000251254
0.0749374
-0.00068203
0.0750342
-0.00102463
0.0752548
-0.00133807
0.0756023
-0.00167143
0.0760831
-0.00204764
0.0766998
-0.00248918
0.0774408
-0.00302886
0.0782659
-0.0036999
-0.00454158
0.0790162
0.0909774
-0.000228611
0.0909393
-0.000643976
0.0909419
-0.0010273
0.0910081
-0.00140426
0.0911414
-0.00180471
0.0913413
-0.00224762
0.091602
-0.00274984
0.0919042
-0.00333111
0.0922122
-0.00400796
-0.0047884
0.092459
0.0989694
-0.000198006
0.0988923
-0.000566903
0.0988049
-0.000939956
0.0987292
-0.0013285
0.0986673
-0.0017429
0.0986141
-0.00219436
0.0985592
-0.00269498
0.0984839
-0.0032558
0.0983591
-0.00388318
-0.00457473
0.0981454
0.0989491
-0.000147123
0.0988149
-0.00043273
0.0986322
-0.000757261
0.0984196
-0.00111589
0.0981759
-0.00149919
0.0978926
-0.00191108
0.0975575
-0.00235998
0.0971526
-0.00285087
0.0966534
-0.00338397
-0.00395369
0.0960323
0.090917
-6.40871e-05
0.090711
-0.000226754
0.0904327
-0.000478996
0.0900949
-0.000778095
0.0896903
-0.00109467
0.0892087
-0.00142948
0.0886368
-0.00178812
0.0879568
-0.00217086
0.0871474
-0.00257454
-0.00299338
0.086187
0.0748545
8.14516e-05
0.0745721
5.56126e-05
0.07422
-0.00012697
0.0737952
-0.000353302
0.0732842
-0.000583675
0.0726754
-0.000820736
0.071954
-0.00106672
0.0711015
-0.00131842
0.070099
-0.00157207
-0.00182381
0.0689294
0.0507414
0.000340008
0.0504712
0.000325778
0.050189
0.000155231
0.0498448
-9.06398e-06
0.0494102
-0.000149124
0.0488654
-0.000275996
0.0481925
-0.000393812
0.0473763
-0.000502188
0.0464053
-0.000601168
-0.00069109
0.0452726
0.01934
0.0196658
0.019821
0.0198119
0.0196628
0.0193868
0.018993
0.0184908
0.0178896
0.0171985
-5.18654e-05
5.18633e-05
-0.000224574
0.0001727
-0.000472043
0.000247453
-0.000751629
0.000279565
-0.00104468
0.000293029
-0.0013467
0.000301989
-0.00165921
0.000312475
-0.00198584
0.000326587
-0.00233088
0.000344984
-0.00269877
0.000367837
-0.00309386
0.000395024
-0.00351993
0.000426009
-0.00397951
0.000459502
-0.0044727
0.00049312
-0.00499574
0.000522972
-0.00553925
0.000543438
-0.00608632
0.000547015
-0.00661085
0.000524472
-0.00707628
0.00046537
-0.00743542
0.000359101
-0.0076318
0.000196334
-0.00760214
-2.97016e-05
-0.00728333
-0.000318842
-0.00661864
-0.000664722
-0.00556068
-0.00105798
-0.00407594
-0.00148476
-0.00214827
-0.00192768
0.000221699
-0.00236999
0.00301195
-0.00279025
0.00617111
-0.00315918
0.00962485
-0.00345374
0.013276
-0.00365121
0.0170039
-0.00372787
0.0206662
-0.0036623
-0.00344027
0.0241064
-0.00021836
0.000270216
-0.000680849
0.000635157
-0.00127536
0.000841917
-0.00192665
0.000930803
-0.00259886
0.000965173
-0.00328035
0.000983411
-0.00397078
0.00100281
-0.00467389
0.00102959
-0.00539425
0.00106521
-0.00613552
0.00110897
-0.00689923
0.00115858
-0.00768322
0.00120985
-0.00847982
0.00125595
-0.00927373
0.00128687
-0.0100399
0.00128899
-0.010742
0.00124536
-0.0113316
0.00113649
-0.0117489
0.000941697
-0.011925
0.000641323
-0.0117861
0.000220147
-0.0112613
-0.000328614
-0.0102906
-0.00100045
-0.00882353
-0.00178594
-0.00682124
-0.00266706
-0.00426289
-0.00361637
-0.00114264
-0.00460504
0.00253064
-0.00560101
0.00672347
-0.00656286
0.0113824
-0.00744926
0.0164418
-0.00821857
0.0218163
-0.0088283
0.0274001
-0.00923502
0.0330666
-0.00939438
0.0386672
-0.0092629
-0.00880856
0.0440355
-0.000383221
0.000653425
-0.00110161
0.00135351
-0.00196204
0.0017023
-0.0028655
0.0018342
-0.00376834
0.00186796
-0.00465483
0.00186982
-0.00552108
0.00186899
-0.00636692
0.00187534
-0.00719166
0.00188985
-0.0079918
0.001909
-0.00875922
0.00192589
-0.00947954
0.00193004
-0.0101305
0.00190682
-0.0106809
0.00183713
-0.0110899
0.0016978
-0.0113076
0.00146297
-0.0112777
0.00110637
-0.0109396
0.000603561
-0.0102343
-6.40943e-05
-0.00911204
-0.000902206
-0.00753485
-0.00190587
-0.00547192
-0.00306343
-0.00290266
-0.00435525
0.000182302
-0.00575206
0.00378316
-0.00721727
0.00788229
-0.00870422
0.0124468
-0.0101656
0.0174358
-0.0115519
0.0227977
-0.0128112
0.02847
-0.0138909
0.034378
-0.0147363
0.0404307
-0.0152878
0.0465189
-0.0154827
0.0525081
-0.0152521
-0.0145404
0.0582399
-0.000518018
0.00117143
-0.00141921
0.00225466
-0.00243183
0.00271486
-0.00343764
0.00283996
-0.00439114
0.0028214
-0.00527619
0.00275482
-0.00608688
0.00267962
-0.00681898
0.00260736
-0.00746598
0.00253677
-0.00801701
0.00245994
-0.00845555
0.00236433
-0.00875875
0.00223313
-0.00889713
0.00204508
-0.0088349
0.00177476
-0.00853123
0.00139399
-0.00794234
0.000873949
-0.00702482
0.000188722
-0.0057416
-0.000679773
-0.00406535
-0.00174044
-0.00197283
-0.0029948
0.000554522
-0.00443328
0.00352807
-0.00603702
0.00694742
-0.00777464
0.0108009
-0.00960563
0.0150664
-0.0114828
0.0197149
-0.0133527
0.024709
-0.0151598
0.0300051
-0.0168481
0.0355554
-0.0183616
0.0413088
-0.0196443
0.0472085
-0.0206361
0.053188
-0.0212673
0.0591639
-0.0214587
0.0650151
-0.0211035
-0.0201115
0.0705862
-0.000617566
0.00178897
-0.00159995
0.00323699
-0.00261195
0.0037268
-0.00353376
0.00376172
-0.00432994
0.00361752
-0.00499099
0.00341582
-0.00551345
0.003202
-0.00589264
0.00298649
-0.00611991
0.00276396
-0.00618151
0.00252146
-0.00605852
0.00224124
-0.00572743
0.00190193
-0.00516102
0.00147855
-0.00432942
0.000943017
-0.00320235
0.000266787
-0.0017523
-0.000576249
4.2669e-05
-0.00160636
0.00220036
-0.00283756
0.00473472
-0.00427485
0.00765192
-0.00591204
0.0109505
-0.00773186
0.0146188
-0.00970542
0.0186367
-0.0117926
0.0229749
-0.0139438
0.0275955
-0.0161034
0.0324554
-0.0182127
0.037509
-0.0202134
0.0427114
-0.0220505
0.0480226
-0.0236729
0.0534105
-0.0250323
0.0588498
-0.0260754
0.0643196
-0.0267372
0.069787
-0.0269262
0.0751595
-0.0264759
-0.0252494
0.0802973
-0.000685684
0.00247464
-0.00162058
0.00417182
-0.00243215
0.0045383
-0.00304147
0.00437097
-0.00344741
0.00402341
-0.00365755
0.0036259
-0.00367608
0.00322047
-0.00350178
0.00281211
-0.00312751
0.00238961
-0.00254088
0.00193474
-0.00172501
0.00142526
-0.000660035
0.000836841
0.000674786
0.000143594
0.00230051
-0.00068283
0.00423672
-0.00166954
0.00649852
-0.00283814
0.00909563
-0.00420354
0.0120306
-0.00577257
0.0152979
-0.00754222
0.0188834
-0.00949754
0.0227625
-0.011611
0.0269003
-0.0138432
0.0312526
-0.0161449
0.0357679
-0.0184591
0.0403906
-0.0207262
0.0450654
-0.0228876
0.0497421
-0.0248901
0.0543809
-0.0266894
0.0589584
-0.0282505
0.0634728
-0.0295467
0.067945
-0.0305476
0.0724251
-0.0312173
0.0769652
-0.0314662
0.0815721
-0.0310829
-0.0299327
0.0862553
-0.000718492
0.00319311
-0.00141385
0.00486711
-0.0017369
0.00486128
-0.00173729
0.00437128
-0.00148401
0.00377006
-0.00100794
0.00314975
-0.000320113
0.00253257
0.000577843
0.00191408
0.00169172
0.00127565
0.00303287
0.00059351
0.00461625
-0.000158201
0.00645981
-0.00100681
0.00858248
-0.00197916
0.0109981
-0.00309857
0.0137137
-0.00438515
0.0167288
-0.00585334
0.020035
-0.00750979
0.023614
-0.00935158
0.0274365
-0.0113647
0.0314622
-0.0135232
0.0356404
-0.0157892
0.0399118
-0.0181147
0.044211
-0.0204441
0.0484702
-0.0227183
0.0526237
-0.0248797
0.0566128
-0.0268767
0.060392
-0.0286693
0.0639353
-0.0302328
0.0672451
-0.0315602
0.0703607
-0.0326624
0.0733667
-0.0335536
0.0764043
-0.034255
0.0796389
-0.0347009
0.0833073
-0.0347513
-0.0345983
0.0879729
-0.000653681
0.00384676
-0.000673715
0.00488708
-1.89735e-05
0.00420645
0.00099533
0.0033569
0.00222129
0.00254402
0.00362748
0.0017435
0.00521069
0.000949299
0.00697566
0.000149047
0.00893528
-0.00068404
0.0111087
-0.00158001
0.013514
-0.00256349
0.0161629
-0.0036558
0.0190605
-0.00487685
0.0222053
-0.0062434
0.0255872
-0.00776711
0.0291864
-0.00945258
0.0329723
-0.0112957
0.0369033
-0.0132826
0.0409271
-0.0153885
0.0449819
-0.0175781
0.0489988
-0.0198062
0.0529048
-0.0220207
0.0566258
-0.0241651
0.060091
-0.0261836
0.0632368
-0.0280256
0.0660115
-0.0296514
0.0683804
-0.0310382
0.0703337
-0.0321861
0.0718978
-0.0331244
0.0731525
-0.0339172
0.0742628
-0.0346639
0.0755052
-0.0354974
0.0772809
-0.0364766
0.0801904
-0.0376609
-0.0398276
0.0854197
6.57864e-05
0.00378095
0.0019075
0.00304527
0.00428515
0.00182872
0.0067311
0.000910876
0.00919145
8.36072e-05
0.0116938
-0.000758874
0.0142739
-0.00163092
0.0169636
-0.00254069
0.0197868
-0.00350734
0.0227588
-0.00455207
0.0258882
-0.0056929
0.0291769
-0.00694449
0.0326184
-0.00831841
0.0361969
-0.00982195
0.0398863
-0.0114566
0.04365
-0.0132164
0.0474413
-0.015087
0.0512039
-0.0170453
0.054874
-0.0190586
0.0583819
-0.021086
0.0616555
-0.0230798
0.0646227
-0.0249879
0.0672149
-0.0267573
0.0693703
-0.0283389
0.0710365
-0.0296918
0.0721744
-0.0307893
0.0727611
-0.0316249
0.0727953
-0.0322204
0.0723076
-0.0326367
0.0713796
-0.0329892
0.0701982
-0.0334826
0.0691476
-0.034447
0.0691033
-0.0364323
0.071499
-0.0400567
-0.0451238
0.0767952
0.00604781
-0.00226691
0.0109343
-0.00184129
0.0149816
-0.00221866
0.0186603
-0.00276786
0.0221202
-0.00337641
0.0254458
-0.00408448
0.0287079
-0.00489304
0.0319587
-0.00579159
0.0352311
-0.00677982
0.0385425
-0.00786351
0.0418982
-0.00904856
0.0452926
-0.010339
0.0487102
-0.011736
0.0521251
-0.0132368
0.0555016
-0.0148331
0.058795
-0.0165098
0.0619529
-0.0182449
0.0649163
-0.0200087
0.0676219
-0.0217643
0.0700047
-0.0234688
0.0720002
-0.0250753
0.0735473
-0.026535
0.074591
-0.0278011
0.075085
-0.0288329
0.0749932
-0.0296001
0.0742918
-0.0300879
0.07297
-0.0303031
0.07103
-0.0302804
0.0684867
-0.0300935
0.0653686
-0.029871
0.0617275
-0.0298416
0.0576835
-0.030403
0.0537446
-0.0324935
0.0517235
-0.0380356
-0.0496593
0.0562589
0.0305855
-0.00410002
0.0335072
-0.00476302
0.0364772
-0.00518869
0.0394307
-0.0057214
0.0423861
-0.00633188
0.0453221
-0.0070205
0.0482326
-0.00780356
0.0511238
-0.00868282
0.0539985
-0.00965456
0.0568517
-0.0107168
0.0596714
-0.0118682
0.0624382
-0.0131059
0.0651255
-0.0144233
0.0676989
-0.0158103
0.0701171
-0.0172513
0.0723328
-0.0187256
0.0742938
-0.0202059
0.0759447
-0.0216596
0.0772289
-0.0230485
0.078091
-0.0243309
0.078479
-0.0254633
0.0783469
-0.0264029
0.0776573
-0.0271116
0.0763833
-0.0275589
0.0745096
-0.0277264
0.0720333
-0.0276116
0.0689618
-0.0272316
0.0653079
-0.0266267
0.06108
-0.0258656
0.0562605
-0.0250515
0.0507565
-0.0243376
0.0442917
-0.0239382
0.0360472
-0.024249
0.0238288
-0.0258173
-0.0258305
0.0588586
-0.00495327
0.0599956
-0.00590001
0.0614196
-0.00661277
0.0630113
-0.00731308
0.0647323
-0.00805289
0.0665417
-0.00883
0.0683954
-0.00965719
0.070259
-0.0105465
0.0721053
-0.0115008
0.0739069
-0.0125185
0.0756345
-0.0135958
0.0772554
-0.0147268
0.0787331
-0.0159011
0.0800273
-0.0171045
0.0810937
-0.0183177
0.081885
-0.0195169
0.0823524
-0.0206734
0.0824469
-0.0217541
0.0821214
-0.022723
0.081333
-0.0235425
0.0800456
-0.0241758
0.0782324
-0.0245897
0.0758782
-0.0247575
0.0729815
-0.0246621
0.0695545
-0.0242994
0.0656225
-0.0236797
0.0612201
-0.0228292
0.0563835
-0.0217901
0.0511365
-0.0206187
0.0454671
-0.0193823
0.039284
-0.0181545
0.0323485
-0.0170027
0.0241084
-0.0160091
0.0134188
-0.0151277
-0.0124117
0.0795856
-0.00552272
0.0801475
-0.00646191
0.0808099
-0.00727521
0.0815425
-0.00804566
0.0823185
-0.00882888
0.0831201
-0.0096316
0.0839212
-0.0104583
0.084692
-0.0113173
0.0854029
-0.0122118
0.0860236
-0.0131392
0.0865215
-0.0140938
0.0868613
-0.0150666
0.0870054
-0.0160452
0.0869137
-0.0170128
0.0865449
-0.017949
0.0858572
-0.0188292
0.0848095
-0.0196258
0.0833643
-0.0203089
0.0814891
-0.0208478
0.0791592
-0.0212127
0.0763608
-0.0213774
0.0730927
-0.0213216
0.0693685
-0.0210333
0.0652177
-0.0205113
0.0606842
-0.019766
0.0558245
-0.0188199
0.0507011
-0.0177059
0.0453747
-0.0164637
0.0398896
-0.0151336
0.0342538
-0.0137464
0.0284088
-0.0123096
0.0221984
-0.0107924
0.0153414
-0.00915208
0.00755208
-0.00733846
-0.00485966
0.0925847
-0.00564835
0.0926297
-0.00650698
0.0926608
-0.00730633
0.0926804
-0.00806529
0.0926687
-0.00881718
0.0926093
-0.00957225
0.092483
-0.010332
0.0922649
-0.0110992
0.0919278
-0.0118747
0.0914434
-0.0126548
0.0907815
-0.0134319
0.0899103
-0.0141955
0.0887969
-0.0149318
0.0874079
-0.0156238
0.0857107
-0.0162518
0.0836751
-0.0167936
0.081275
-0.0172258
0.0784912
-0.0175251
0.0753131
-0.0176697
0.0717415
-0.0176412
0.067791
-0.0174269
0.0634906
-0.0170213
0.0588849
-0.0164277
0.0540326
-0.015659
0.0490038
-0.0147372
0.0438756
-0.0136917
0.0387253
-0.0125557
0.0336217
-0.0113602
0.0286131
-0.010125
0.0237112
-0.00884459
0.0188754
-0.00747385
0.0140127
-0.00592976
0.00902189
-0.0041613
0.00398871
-0.00230536
-0.00087096
0.0978087
-0.00531173
0.0973554
-0.00605363
0.0968134
-0.00676438
0.0961887
-0.00744063
0.0954682
-0.00809665
0.0946361
-0.0087402
0.0936758
-0.00937167
0.0925668
-0.0099903
0.0912864
-0.0105944
0.0898107
-0.0111791
0.0881154
-0.0117366
0.086176
-0.0122562
0.0839691
-0.0127249
0.0814732
-0.013128
0.0786709
-0.0134494
0.0755499
-0.0136726
0.0721059
-0.0137818
0.0683439
-0.0137631
0.0642802
-0.013606
0.0599439
-0.0133049
0.0553774
-0.0128603
0.0506354
-0.0122793
0.0457839
-0.0115762
0.0408966
-0.0107717
0.0360506
-0.00989122
0.0313213
-0.00896247
0.0267766
-0.00801102
0.0224698
-0.00705342
0.0184309
-0.00608616
0.0146574
-0.00507118
0.0111121
-0.00392859
0.0077473
-0.00256499
0.00457231
-0.00098639
0.00178518
0.000481679
0.000914212
0.0952666
-0.00454609
0.0943508
-0.00513779
0.0932923
-0.00570592
0.0920935
-0.00624186
0.0907461
-0.00674919
0.0892376
-0.00723174
0.087555
-0.00768915
0.085684
-0.00811931
0.0836089
-0.00851932
0.0813144
-0.00888462
0.0787863
-0.00920847
0.0760126
-0.00948247
0.0729848
-0.00969713
0.0696993
-0.00984252
0.0661587
-0.00990888
0.0623734
-0.00988745
0.0583631
-0.00977146
0.054157
-0.00955699
0.0497948
-0.00924384
0.0453259
-0.00883613
0.0408082
-0.00834257
0.0363051
-0.00777624
0.0318828
-0.00715397
0.0276061
-0.00649508
0.0235347
-0.00581979
0.0197191
-0.00514696
0.0161984
-0.00449032
0.0129963
-0.00385144
0.0101183
-0.00320821
0.00755012
-0.00250302
0.00526824
-0.00164678
0.00327299
-0.000569809
0.00163248
0.000654027
0.000494957
0.00161912
0.00140916
0.0850583
-0.00341739
0.0837527
-0.00383218
0.0822699
-0.0042232
0.0806106
-0.00458249
0.0787709
-0.00490951
0.0767449
-0.0052058
0.074527
-0.00547125
0.072112
-0.0057044
0.0694959
-0.00590324
0.0666763
-0.00606508
0.063654
-0.00618619
0.0604337
-0.00626219
0.0570251
-0.00628856
0.0534438
-0.00626122
0.0497119
-0.00617698
0.0458585
-0.00603411
0.0419198
-0.00583277
0.0379382
-0.00557545
0.0339614
-0.00526708
0.0300402
-0.00491499
0.0262262
-0.00452861
0.0225688
-0.00411889
0.0191124
-0.00369758
0.0158938
-0.00327651
0.0129407
-0.00286677
0.0102713
-0.0024776
0.00789441
-0.0021135
0.0058104
-0.00176749
0.00401297
-0.00141085
0.00249585
-0.000985972
0.00126694
-0.000417949
0.00036857
0.000328473
-0.000126443
0.00114895
-0.000184292
0.00167688
0.00122485
0.06758
-0.00206799
0.0660447
-0.00229683
0.064324
-0.00250253
0.0624221
-0.00268061
0.0603434
-0.00283084
0.0580925
-0.00295492
0.0556752
-0.00305404
0.0530993
-0.00312852
0.0503743
-0.00317832
0.0475123
-0.00320313
0.0445284
-0.00320229
0.0414412
-0.00317498
0.0382731
-0.00312053
0.0350506
-0.00303876
0.0318038
-0.00293021
0.0285659
-0.00279625
0.0253723
-0.00263923
0.0222592
-0.00246244
0.0192621
-0.00226999
0.0164136
-0.00206662
0.0137424
-0.00185741
0.011271
-0.00164753
0.00901532
-0.00144198
0.00698414
-0.00124539
0.00517937
-0.00106205
0.00359725
-0.000895547
0.00223052
-0.000746841
0.00107149
-0.000608543
0.000118616
-0.000458058
-0.000613205
-0.000254235
-0.0010822
5.09653e-05
-0.00122501
0.000471193
-0.000996299
0.00092013
-0.000466433
0.00114693
0.00075841
0.0439758
-0.000771259
0.0425188
-0.000839828
0.0409111
-0.00089487
0.0391663
-0.000935817
0.0372992
-0.000963855
0.0353252
-0.000980896
0.0332595
-0.000988434
0.0311183
-0.000987343
0.0289182
-0.000978199
0.0266764
-0.000961445
0.0244115
-0.000937393
0.0221428
-0.000906291
0.0198906
-0.000868451
0.0176762
-0.000824341
0.0155205
-0.000774613
0.0134443
-0.000720107
0.0114669
-0.000661835
0.00960535
-0.000600953
0.00787402
-0.000538705
0.00628369
-0.00047635
0.00484129
-0.000415069
0.00354988
-0.000356184
0.00240873
-0.000300894
0.00141329
-0.000250012
0.000555761
-0.000204589
-0.000174128
-0.00016572
-0.000787628
-0.000133404
-0.00129141
-0.000104828
-0.00167859
-7.09395e-05
-0.00191833
-1.45667e-05
-0.00195166
8.42326e-05
-0.00171186
0.000231316
-0.00118077
0.00038896
-0.000484407
0.000450494
0.000273994
0.0164272
0.0155874
0.0146925
0.0137567
0.0127928
0.0118119
0.0108235
0.00983613
0.00885793
0.00789647
0.00695907
0.00605277
0.0051843
0.00435995
0.00358533
0.00286521
0.00220337
0.00160241
0.00106369
0.000587335
0.000172256
-0.000183937
-0.00048484
-0.00073486
-0.000939457
-0.00110519
-0.0012386
-0.00134343
-0.00141438
-0.00142896
-0.00134473
-0.00111343
-0.000724479
-0.000273994
0.027167
-0.00306054
0.0297092
-0.00254224
0.0316397
-0.00193042
0.0329243
-0.00128462
0.0335806
-0.000656237
0.0336559
-7.52414e-05
0.0332268
0.000429089
0.0323983
0.00082853
0.0312806
0.00111771
0.00130754
0.0299731
0.0489973
-0.0080223
0.0533928
-0.00693773
0.0571108
-0.0056484
0.0601033
-0.004277
0.0623712
-0.00292406
0.0639517
-0.00165578
0.0648938
-0.000513011
0.065244
0.000478351
0.0650612
0.00130053
0.00195019
0.0644186
0.0635344
-0.0133168
0.0682232
-0.0116266
0.0722139
-0.00963901
0.075498
-0.00756111
0.0781106
-0.00553658
0.0801013
-0.00364653
0.0815326
-0.00194435
0.0824726
-0.000461657
0.0829789
0.000794281
0.00183136
0.0830978
0.0756683
-0.018399
0.0800613
-0.0160195
0.0836991
-0.0132768
0.0866287
-0.0104907
0.0889221
-0.00782996
0.0906519
-0.0053764
0.0918969
-0.00318931
0.0927367
-0.00130151
0.0932438
0.000287175
0.00159858
0.0934767
0.0849208
-0.0230225
0.0887689
-0.0198676
0.0918211
-0.0163291
0.0941729
-0.0128426
0.095906
-0.00956311
0.0971066
-0.00657703
0.0978794
-0.00396223
0.0983261
-0.00174817
0.0985307
8.25738e-05
0.00157036
0.0985589
0.0904745
-0.0272417
0.0937417
-0.023135
0.0960709
-0.0186583
0.0975806
-0.0143523
0.0983873
-0.0103699
0.0986692
-0.00685901
0.0986206
-0.00391366
0.0983925
-0.00152003
0.0980824
0.000392623
0.00190743
0.0977453
0.0921051
-0.0313739
0.0944405
-0.0254705
0.0951923
-0.0194102
0.0947454
-0.0139055
0.0935581
-0.00918258
0.0921079
-0.00540884
0.0907243
-0.00253011
0.0895591
-0.000354911
0.0886494
0.00130221
0.00257927
0.0879775
0.0883599
-0.0343141
0.087076
-0.0241866
0.0834396
-0.0157738
0.0789923
-0.00945819
0.0747998
-0.00499015
0.0714266
-0.00203571
0.0689854
-8.90875e-05
0.0673958
0.00123452
0.0665253
0.00217245
0.00292548
0.0661789
0.0718886
-0.0294075
0.0615878
-0.0138859
0.0515836
-0.00576959
0.044046
-0.00192066
0.03915
-9.42412e-05
0.0363802
0.00073394
0.0351856
0.00110539
0.035125
0.00129474
0.0358397
0.00145748
0.00190455
0.0368603
0.0268514
0.0129655
0.00719589
0.00527521
0.00518094
0.00591484
0.00702016
0.0083148
0.00977219
0.0116766
0.0285588
0.0014143
0.0271035
0.00145542
0.0256554
0.00144817
0.024247
0.00140854
0.0228972
0.00134996
0.0216147
0.00128265
0.0204012
0.00121361
0.0192542
0.00114724
0.0181683
0.00108609
0.0171372
0.00103133
0.0161542
0.000983203
0.0152131
0.000941356
0.0143083
0.0009051
0.013435
0.000873641
0.0125892
0.000846111
0.0117678
0.000821688
0.0109685
0.000799554
0.0101899
0.000778972
0.00943092
0.000759228
0.00869148
0.000739701
0.00797189
0.000719813
0.007273
0.000699095
0.00659601
0.000677146
0.00594245
0.000653686
0.00531402
0.000628518
0.00471253
0.000601564
0.00413972
0.000572834
0.00359729
0.000542445
0.00308667
0.000510597
0.00260905
0.000477571
0.00216527
0.000443713
0.00175577
0.000409412
0.0013806
0.00037508
0.00103937
0.000341127
0.000307949
0.000731331
0.0633945
0.00243854
0.0620654
0.00278457
0.0605025
0.00301128
0.0587679
0.00314336
0.0569136
0.00320448
0.0549815
0.00321496
0.0530042
0.0031911
0.0510063
0.00314549
0.049005
0.0030877
0.047012
0.00302462
0.0450346
0.00296097
0.0430767
0.00289973
0.0411396
0.0028426
0.0392234
0.00279035
0.0373269
0.00274306
0.0354488
0.00270026
0.0335878
0.00266109
0.0317429
0.00262438
0.0299138
0.0025888
0.028101
0.00255284
0.0263062
0.00251497
0.024532
0.00247367
0.0227818
0.00242756
0.0210603
0.00237539
0.0193728
0.00231617
0.0177253
0.00224916
0.0161242
0.00217395
0.0145762
0.00209047
0.0130877
0.00199902
0.011665
0.00190021
0.0103136
0.00179499
0.0090382
0.0016846
0.00784264
0.00157045
0.00672945
0.00145412
0.00133724
0.00569999
0.0828724
0.00266393
0.0823439
0.00331325
0.0815501
0.00380516
0.0805254
0.00416816
0.0793003
0.00442968
0.0779023
0.0046131
0.0763561
0.00473746
0.0746834
0.00481833
0.0729029
0.00486841
0.0710301
0.00489762
0.0690778
0.0049135
0.0670563
0.00492155
0.0649735
0.00492572
0.0628355
0.00492862
0.0606472
0.00493176
0.0584121
0.00493574
0.0561332
0.00494035
0.0538133
0.00494469
0.0514551
0.00494732
0.049062
0.0049463
0.0466379
0.00493935
0.0441878
0.004924
0.041718
0.00489765
0.0392358
0.00485779
0.0367501
0.00480207
0.034271
0.00472846
0.0318097
0.00463538
0.0293784
0.00452177
0.0269903
0.00438726
0.0246583
0.00423216
0.0223958
0.00405754
0.0202151
0.00386519
0.0181279
0.00365755
0.0161443
0.00343766
0.00320896
0.0142724
0.0934802
0.00266037
0.0932897
0.00350381
0.0929305
0.00416444
0.0924185
0.00468016
0.0917635
0.0050848
0.090972
0.00540459
0.0900498
0.0056597
0.0890018
0.00586644
0.0878323
0.00603802
0.0865453
0.00618484
0.0851441
0.00631482
0.0836319
0.00643403
0.0820109
0.00654696
0.080283
0.00665677
0.0784496
0.00676545
0.0765117
0.00687392
0.0744702
0.00698219
0.0723258
0.00708936
0.0700797
0.00719371
0.0677335
0.0072928
0.0652896
0.00738355
0.0627515
0.00746239
0.060124
0.00752535
0.0574137
0.00756829
0.054629
0.00758701
0.0517801
0.00757747
0.0488796
0.00753601
0.045942
0.00745953
0.0429837
0.00734571
0.0400227
0.0071932
0.0370785
0.00700177
0.0341713
0.00677241
0.0313214
0.00650742
0.0285488
0.0062103
0.00588574
0.0258719
0.0984584
0.00276086
0.0982654
0.00369685
0.0980021
0.00442769
0.0976769
0.00500542
0.0972898
0.00547182
0.0968386
0.00585581
0.0963195
0.00617873
0.0957283
0.0064577
0.0950601
0.00670623
0.0943104
0.00693462
0.0934745
0.00715078
0.0925478
0.00736088
0.0915253
0.0075696
0.090402
0.00778028
0.0891726
0.0079951
0.0878316
0.00821511
0.0863737
0.00844037
0.0847933
0.00866992
0.0830855
0.0089018
0.0812454
0.00913313
0.079269
0.00936016
0.0771533
0.0095783
0.0748966
0.00978232
0.0724987
0.00996637
0.0699616
0.0101243
0.0672897
0.0102496
0.0644898
0.0103361
0.0615719
0.0103777
0.0585489
0.0103689
0.0554368
0.0103054
0.0522548
0.0101839
0.0490248
0.0100026
0.0457708
0.00976153
0.0425188
0.00946251
0.00910936
0.0392953
0.0974164
0.00308982
0.0971222
0.00399102
0.0968702
0.00467966
0.096649
0.00522653
0.0964433
0.00567749
0.0962397
0.0060593
0.0960265
0.00639186
0.0957929
0.00669128
0.0955293
0.00696973
0.0952277
0.00723626
0.0948803
0.00749815
0.0944799
0.00776137
0.0940189
0.00803071
0.0934895
0.00830979
0.0928836
0.00860117
0.0921925
0.00890641
0.091407
0.00922601
0.0905177
0.00955945
0.0895145
0.00990511
0.0883876
0.0102603
0.0871266
0.0106213
0.0857218
0.0109833
0.084164
0.0113404
0.0824447
0.0116859
0.080557
0.0120122
0.0784958
0.0123111
0.0762582
0.0125739
0.0738443
0.0127918
0.0712573
0.0129562
0.0685042
0.0130588
0.0655961
0.0130923
0.0625481
0.0130509
0.0593796
0.0129303
0.0561139
0.0127284
0.0124456
0.0527779
0.0875306
0.00353671
0.0873035
0.004218
0.0872616
0.00472146
0.0873523
0.00513575
0.0875318
0.00549779
0.0877679
0.00582311
0.0880349
0.00612468
0.0883131
0.0064129
0.0885879
0.00669481
0.0888482
0.00697591
0.0890849
0.00726134
0.0892904
0.00755584
0.0894575
0.00786358
0.0895793
0.00818806
0.0896484
0.00853212
0.089657
0.00889785
0.0895966
0.00928648
0.0894578
0.00969832
0.0892304
0.0101326
0.0889031
0.0105877
0.0884641
0.0110605
0.0879006
0.0115469
0.0871994
0.0120416
0.0863474
0.012538
0.0853312
0.0130285
0.0841384
0.013504
0.0827574
0.013955
0.0811786
0.0143709
0.0793944
0.0147406
0.0774003
0.0150531
0.0751956
0.0152973
0.0727837
0.0154631
0.0701726
0.0155416
0.0673757
0.0155257
0.0154104
0.0644112
0.0662634
0.003452
0.0667435
0.00373769
0.0674999
0.0039649
0.0684269
0.00420857
0.0694551
0.00446938
0.0705365
0.00474142
0.0716373
0.0050237
0.072735
0.00531493
0.0738157
0.00561381
0.0748705
0.00592091
0.0758932
0.00623847
0.0768794
0.00656954
0.0778254
0.00691744
0.0787279
0.0072855
0.0795832
0.00767685
0.0803868
0.00809418
0.0811337
0.0085396
0.0818176
0.0090145
0.0824308
0.00951945
0.0829645
0.010054
0.0834085
0.0106166
0.083751
0.0112044
0.0839791
0.0118135
0.0840789
0.0124384
0.0840352
0.0130722
0.0838326
0.0137068
0.083455
0.0143327
0.0828868
0.0149392
0.0821132
0.0155145
0.0811208
0.0160458
0.0798983
0.0165201
0.0784378
0.0169241
0.0767348
0.017245
0.0747896
0.0174711
0.0175926
0.0726078
0.0381775
0.00213458
0.0399535
0.0019614
0.0419394
0.00197878
0.0440043
0.00214335
0.0460792
0.00239419
0.0481241
0.00269621
0.0501202
0.00302725
0.0520617
0.0033732
0.0539478
0.0037274
0.0557801
0.00408828
0.0575613
0.00445702
0.0592943
0.00483636
0.0609816
0.00522999
0.0626249
0.005642
0.0642253
0.00607639
0.0657825
0.00653687
0.0672953
0.00702675
0.0687609
0.00754883
0.070175
0.0081052
0.0715319
0.00869708
0.0728238
0.00932462
0.0740413
0.0099868
0.0751734
0.0106813
0.0762073
0.0114044
0.0771285
0.0121509
0.0779211
0.0129142
0.078568
0.0136859
0.0790511
0.0144562
0.0793519
0.0152138
0.0794518
0.0159461
0.079333
0.0166391
0.0789791
0.0172782
0.078376
0.0178484
0.0775127
0.0183348
0.0187235
0.0763821
0.0141782
-0.000367396
0.0170477
-0.000908478
0.019861
-0.000834863
0.0225397
-0.000535785
0.025089
-0.000155475
0.027523
0.000261793
0.0298623
0.000687504
0.0321267
0.00110837
0.0343312
0.00152251
0.0364871
0.00193202
0.0386038
0.00233996
0.0406891
0.00275072
0.0427492
0.00316965
0.0447886
0.00360228
0.046811
0.00405379
0.0488186
0.00452908
0.0508124
0.00503274
0.0527921
0.00556897
0.0547557
0.00614143
0.0566996
0.00675297
0.0586184
0.00740557
0.0605049
0.00810008
0.0623498
0.0088362
0.0641418
0.00961222
0.0658675
0.010425
0.0675117
0.0112699
0.0690571
0.0121404
0.0704848
0.0130284
0.0717747
0.0139239
0.0729056
0.0148153
0.0738556
0.0156892
0.0746033
0.0165307
0.0751278
0.0173241
0.0754099
0.0180529
0.018701
0.0754327
0.0024281
-0.0027957
0.00492626
-0.00340723
0.00719288
-0.00310205
0.00932709
-0.00267055
0.0113655
-0.00219443
0.0133344
-0.00170768
0.0152602
-0.00123894
0.0171639
-0.000795926
0.0190599
-0.00037401
0.0209586
3.28007e-05
0.0228674
0.000430742
0.0247912
0.00082644
0.0267345
0.001226
0.0287011
0.00163537
0.0306943
0.0020602
0.0327171
0.00250606
0.0347711
0.00297843
0.0368573
0.00348243
0.0389756
0.0040228
0.0411245
0.00460371
0.0433011
0.00522864
0.0455006
0.00590025
0.0477162
0.00662021
0.049939
0.00738907
0.0521578
0.00820599
0.0543588
0.00906861
0.056526
0.0099729
0.0586413
0.010913
0.0606841
0.0118811
0.0626323
0.0128672
0.0644623
0.0138593
0.0661496
0.0148435
0.0676694
0.0158044
0.0689972
0.0167254
0.0175892
0.0701091
-7.5349e-05
-0.00272068
0.00058491
-0.00406816
0.00157766
-0.00409546
0.00267344
-0.00376701
0.0038165
-0.0033382
0.00499808
-0.00288999
0.00621749
-0.00245909
0.00747661
-0.00205576
0.00877867
-0.00167674
0.0101267
-0.00131588
0.0115243
-0.000967406
0.0129758
-0.000625545
0.0144852
-0.000283841
0.0160563
6.38295e-05
0.0176924
0.000423761
0.0193958
0.000802272
0.021169
0.00120483
0.0230144
0.00163665
0.0249339
0.00210288
0.0269288
0.00260841
0.0289993
0.00315763
0.0311445
0.00375457
0.0333616
0.00440261
0.0356457
0.00510443
0.0379897
0.00586151
0.0403839
0.00667405
0.0428157
0.00754075
0.0452699
0.00845854
0.0477285
0.00942232
0.0501709
0.0104247
0.0525743
0.0114557
0.0549144
0.0125035
0.057165
0.0135538
0.0592994
0.014591
0.0155982
0.0612905
-0.000463899
-0.00225705
-0.00074699
-0.00378582
-0.000725911
-0.00411728
-0.000509262
-0.00398442
-0.000162117
-0.00368613
0.000288755
-0.00334168
0.000829132
-0.00300028
0.00145055
-0.00267798
0.00214882
-0.00237577
0.00292224
-0.00208999
0.00377032
-0.00181611
0.00469336
-0.00154915
0.00569255
-0.0012835
0.00676961
-0.00101365
0.00792763
-0.000734594
0.00917075
-0.000441182
0.0105033
-0.000127962
0.0119293
0.000210331
0.0134527
0.00057919
0.0150773
0.000983414
0.0168069
0.00142764
0.0186445
0.0019164
0.0205922
0.00245435
0.0226502
0.0030458
0.0248169
0.00369431
0.0270881
0.0044023
0.0294572
0.00517119
0.0319146
0.0060009
0.0344473
0.00688939
0.0370396
0.00783223
0.0396729
0.00882237
0.0423261
0.00985023
0.044976
0.0109039
0.0475975
0.0119696
0.0130318
0.0501639
-0.000516234
-0.00174119
-0.00116111
-0.00314174
-0.00167154
-0.00360762
-0.00202729
-0.00362941
-0.00224804
-0.00346615
-0.00235112
-0.00323936
-0.00234995
-0.00300222
-0.0022544
-0.00277429
-0.00207082
-0.00256006
-0.00180301
-0.00235846
-0.00145306
-0.00216665
-0.00102168
-0.00198102
-0.000508206
-0.00179736
8.92098e-05
-0.00161133
0.00077303
-0.00141859
0.0015462
-0.00121443
0.00241216
-0.000993987
0.00337526
-0.000752775
0.00444083
-0.000486495
0.00561493
-0.000190851
0.00690374
0.000138475
0.00831393
0.000505749
0.00985177
0.000915891