/*--------------------------------*- C++ -*----------------------------------*\
| =========                 |                                                 |
| \\      /  F ield         | OpenFOAM: The Open Source CFD Toolbox           |
|  \\    /   O peration     | Version:  2406                                  |
|   \\  /    A nd           | Website:  www.openfoam.com                      |
|    \\/     M anipulation  |                                                 |
\*---------------------------------------------------------------------------*/
FoamFile
{
    version     2.0;
    format      ascii;
    arch        "LSB;label=32;scalar=64";
    class       surfaceScalarField;
    location    "23";
    object      phi;
}
// * * * * * * * * * * * * * * * * * * * * * * * * * * * * * * * * * * * * * //

dimensions      [0 3 -1 0 0 0 0];

oriented        oriented;

internalField   nonuniform List<scalar> 
3680
(
0.0193214
-0.000321383
0.0196359
-0.000314302
0.0199083
-0.000272064
0.0202077
-0.000299263
0.0205996
-0.000392027
0.0211827
-0.000583272
0.0221462
-0.000963394
0.0238726
-0.00172555
0.0273547
-0.00348235
-0.00888516
0.03624
0.0510039
-0.00032484
0.0512496
-0.000559442
0.051626
-0.000648204
0.0521286
-0.000802077
0.0528151
-0.00107888
0.053788
-0.00155634
0.0552148
-0.00238969
0.0573626
-0.00387272
0.0605087
-0.00662792
-0.0118713
0.0634934
0.074981
-0.000305719
0.0751007
-0.000678824
0.0753839
-0.000931363
0.0758201
-0.00123875
0.0764346
-0.00169382
0.0772744
-0.00239642
0.0783919
-0.00350699
0.0797947
-0.00527553
0.0812426
-0.00807626
-0.0123347
0.0817058
0.0909686
-0.000274086
0.0909814
-0.000691347
0.0910984
-0.00104887
0.0913222
-0.00146324
0.0916511
-0.002023
0.0920786
-0.00282396
0.0925677
-0.00399614
0.0929988
-0.00570679
0.0930633
-0.00814115
-0.0114011
0.0921289
0.0989411
-0.000214796
0.0988482
-0.000598774
0.098784
-0.000985254
0.0987525
-0.00143217
0.0987335
-0.00200395
0.0986872
-0.00277757
0.0985348
-0.00384362
0.0981273
-0.00529941
0.0972079
-0.00722202
-0.00959625
0.0954033
0.0989042
-0.000119094
0.0987143
-0.000408685
0.0984937
-0.000764841
0.0982392
-0.00117788
0.0979168
-0.00168159
0.097471
-0.00233155
0.0968121
-0.00318444
0.0958033
-0.00429037
0.0942548
-0.00567334
-0.00728901
0.0919479
0.0908675
1.37487e-05
0.0906137
-0.000154396
0.0903015
-0.000452968
0.0899104
-0.000786713
0.0893967
-0.00116772
0.0887008
-0.00163564
0.087739
-0.00222278
0.086401
-0.00295225
0.0845554
-0.00382754
-0.00481007
0.0820768
0.074845
0.000169144
0.0746057
8.47531e-05
0.0743074
-0.00015403
0.0739022
-0.000381306
0.0733468
-0.000612722
0.0725894
-0.000878803
0.0715634
-0.00119715
0.070189
-0.001578
0.0683822
-0.00202068
-0.00250335
0.0660755
0.0508867
0.000282504
0.0508073
0.000164742
0.0506436
9.86968e-06
0.050354
-9.18598e-05
0.0499178
-0.000176943
0.0493041
-0.000265663
0.0484729
-0.000366398
0.047377
-0.000482302
0.0459694
-0.000613256
-0.000752972
0.0442186
0.0192825
0.0194473
0.0194572
0.0193653
0.0191883
0.0189226
0.0185561
0.0180738
0.0174605
0.0167074
-0.000130509
0.00013059
-0.000341579
0.000211139
-0.000496131
0.000154599
-0.000518121
2.20922e-05
-0.000385044
-0.000132905
-0.000107551
-0.000277226
0.000286014
-0.000393219
0.000760667
-0.000474217
0.00128159
-0.000520435
0.001818
-0.000535891
0.00234486
-0.000526361
0.00284336
-0.000498044
0.00330056
-0.000456809
0.0037086
-0.000407761
0.00406387
-0.000355088
0.00436596
-0.00030203
0.00461687
-0.000250954
0.00482019
-0.000203477
0.00498054
-0.000160588
0.00510303
-0.000122792
0.0051929
-9.02231e-05
0.00525527
-6.27545e-05
0.00529496
-4.00752e-05
0.00531635
-2.17707e-05
0.00532337
-7.36001e-06
0.0053194
3.65116e-06
0.00530738
1.17577e-05
0.00528974
1.74241e-05
0.00526849
2.10843e-05
0.00524526
2.31251e-05
0.0052213
2.38923e-05
0.0051976
2.36833e-05
0.00517487
2.27543e-05
0.00515361
2.1319e-05
1.95547e-05
0.00513414
-0.000239383
0.000370094
-0.000567509
0.000539505
-0.000726555
0.000313923
-0.0005825
-0.000121626
-9.90196e-05
-0.000615879
0.000695682
-0.00107125
0.00173851
-0.0014352
0.00295301
-0.00168777
0.00426337
-0.00182978
0.0056023
-0.00187379
0.00691471
-0.00183781
0.00815874
-0.00174122
0.00930504
-0.00160243
0.0103353
-0.00143758
0.0112405
-0.00126002
0.0120187
-0.00108024
0.0126736
-0.00090606
0.0132127
-0.000742934
0.013646
-0.000594359
0.0139848
-0.000462251
0.0142411
-0.000347316
0.0144269
-0.000249361
0.0145536
-0.000167567
0.0146318
-0.000100699
0.014671
-4.72864e-05
0.0146798
-5.74371e-06
0.0146655
2.55287e-05
0.0146344
4.8081e-05
0.0145918
6.33675e-05
0.014542
7.27181e-05
0.0144884
7.7326e-05
0.0144339
7.82383e-05
0.0143803
7.63634e-05
0.0143293
7.24696e-05
6.72018e-05
0.0142818
-0.000249835
0.000619994
-0.000504565
0.000794452
-0.000458296
0.000267757
2.39401e-05
-0.000603615
0.00095782
-0.00154939
0.0022862
-0.00239917
0.00391618
-0.00306467
0.00574445
-0.00351548
0.00767268
-0.00375741
0.00961569
-0.00381622
0.0115048
-0.0037264
0.0132883
-0.00352427
0.0149302
-0.00324396
0.0164082
-0.00291532
0.0177114
-0.00256308
0.018838
-0.00220675
0.0197928
-0.00186101
0.0205859
-0.00153623
0.0212304
-0.0012392
0.0217415
-0.000973769
0.0221353
-0.000741524
0.0224278
-0.000542324
0.0226345
-0.000374799
0.0227701
-0.000236747
0.0228478
-0.000125458
0.0228796
-3.7955e-05
0.022876
2.88132e-05
0.0228459
7.78394e-05
0.022797
0.000111965
0.0227357
0.000133814
0.0226672
0.000145761
0.0225954
0.000149913
0.0225237
0.000148106
0.0224542
0.000141912
0.000132653
0.0223889
-0.000203037
0.000823077
-0.000247331
0.000838886
0.000177066
-0.000156252
0.00115841
-0.00158471
0.00265523
-0.00304596
0.0045636
-0.00430719
0.00675887
-0.00525956
0.00911921
-0.00587544
0.0115373
-0.00617518
0.0139252
-0.00620375
0.0162147
-0.00601557
0.0183563
-0.00566555
0.0203168
-0.0052042
0.0220768
-0.00467514
0.0236282
-0.00411436
0.0249717
-0.00355019
0.0261146
-0.00300397
0.0270692
-0.00249088
0.0278508
-0.00202093
0.0284767
-0.00159987
0.0289651
-0.00123013
0.0293341
-0.000911608
0.0296014
-0.000642358
0.0297835
-0.000419156
0.0298957
-0.000237972
0.0299518
-9.43341e-05
0.0299639
1.63889e-05
0.0299427
9.87801e-05
0.0298972
0.000157224
0.029835
0.000195805
0.0297624
0.000218245
0.0296843
0.000227871
0.0296047
0.000227601
0.0295266
0.00021995
0.000207049
0.0294522
-0.000108898
0.000932224
0.000203214
0.000527534
0.00119863
-0.00115124
0.00285648
-0.00324198
0.00503797
-0.00522687
0.00757724
-0.00684594
0.0103198
-0.00800162
0.013136
-0.00869124
0.0159239
-0.00896274
0.0186071
-0.00888652
0.0211307
-0.00853885
0.0234582
-0.00799273
0.0255676
-0.00731331
0.0274485
-0.00655593
0.0291001
-0.00576572
0.030528
-0.00497802
0.0317434
-0.00421934
0.032761
-0.00350849
0.0335978
-0.00285782
0.0342723
-0.00227441
0.0348031
-0.00176116
0.0352091
-0.00131779
0.0355082
-0.000941647
0.0357172
-0.000628461
0.0358519
-0.000372883
0.0359263
-0.000168971
0.035953
-1.05399e-05
0.0359429
0.00010856
0.0359057
0.000194246
0.0358492
0.000252063
0.0357802
0.000287094
0.035704
0.000303908
0.035625
0.000306538
0.0355464
0.00029848
0.000282712
0.0354707
7.13574e-05
0.000861148
0.000959166
-0.000360879
0.00278326
-0.00297469
0.0053216
-0.00577986
0.00830086
-0.00820575
0.0114934
-0.010038
0.0147309
-0.0112386
0.017896
-0.0118559
0.0209105
-0.0119768
0.0237244
-0.0117001
0.0263084
-0.0111224
0.0286473
-0.0103313
0.0307368
-0.00940254
0.0325802
-0.00839913
0.0341864
-0.00737176
0.0355683
-0.00635977
0.0367413
-0.00539235
0.0377229
-0.00449006
0.0385312
-0.00366618
0.0391848
-0.00292811
0.0397021
-0.00227856
0.0401008
-0.00171667
0.0403978
-0.00123891
0.040609
-0.000839885
0.0407489
-0.000512997
0.0408306
-0.000250932
0.0408659
-4.6093e-05
0.0408652
0.000109088
0.0408373
0.000221914
0.0407899
0.000299256
0.0407294
0.000347441
0.040661
0.000372185
0.0405888
0.000378555
0.0405163
0.000370966
0.000353201
0.0404457
0.000457063
0.000402756
0.00231018
-0.00221366
0.005322
-0.00598791
0.00894886
-0.00940711
0.0127793
-0.0120361
0.0165637
-0.0138221
0.0201617
-0.0148363
0.0235008
-0.0151945
0.0265484
-0.0150241
0.0292958
-0.0144471
0.0317473
-0.0135736
0.0339149
-0.0124986
0.0358149
-0.0113023
0.0374659
-0.0100499
0.0388874
-0.00879321
0.0400996
-0.00757185
0.0411222
-0.00641487
0.0419744
-0.0053423
0.0426749
-0.00436673
0.0432413
-0.00349468
0.0436905
-0.00272789
0.0440382
-0.00206447
0.0442988
-0.00149977
0.044486
-0.00102727
0.044612
-0.000639167
0.0446878
-0.000326966
0.0447234
-8.18775e-05
0.0447274
0.000104838
0.0447075
0.000241622
0.0446702
0.00033643
0.0446208
0.000396614
0.0445641
0.000428835
0.0445035
0.000439025
0.044442
0.000432373
0.000413342
0.0443818
0.00132368
-0.000920276
0.00488314
-0.00577719
0.00953586
-0.010642
0.0143534
-0.0142254
0.0189156
-0.0165986
0.0230621
-0.0179687
0.0267499
-0.0185241
0.0299889
-0.0184334
0.0328108
-0.0178458
0.0352551
-0.0168912
0.0373621
-0.0156804
0.0391703
-0.0143066
0.040715
-0.0128469
0.0420282
-0.011363
0.0431385
-0.00990346
0.0440712
-0.00850455
0.0448488
-0.00719242
0.045491
-0.00598454
0.0460154
-0.00489122
0.0464377
-0.00391705
0.0467718
-0.0030621
0.0470302
-0.002323
0.0472241
-0.00169387
0.0473637
-0.00116703
0.047458
-0.000733653
0.0475152
-0.000384292
0.0475424
-0.000109254
0.047546
0.000101057
0.0475316
0.000255893
0.0475039
0.000363979
0.047467
0.000433392
0.0474243
0.000471469
0.0473785
0.000484762
0.0473318
0.000479024
0.000459214
0.0472858
0.00364855
-0.00457116
0.01019
-0.0123204
0.0166696
-0.017123
0.0223452
-0.0199021
0.0271477
-0.0214015
0.03116
-0.0219812
0.0344931
-0.0218573
0.0372531
-0.0211934
0.0395329
-0.0201256
0.0414118
-0.0187701
0.0429572
-0.0172257
0.0442259
-0.0155753
0.0452656
-0.0138866
0.0461164
-0.0122138
0.0468112
-0.0105983
0.0473772
-0.00907062
0.0478367
-0.00765201
0.0482079
-0.00635576
0.0485054
-0.00518884
0.0487414
-0.00415314
0.0489258
-0.00324661
0.0490669
-0.00246422
0.0491718
-0.00179878
0.0492462
-0.0012416
0.0492956
-0.000783077
0.0493243
-0.000413083
0.0493363
-0.000121382
0.0493352
0.000102107
0.0493239
0.000267071
0.0493052
0.000382642
0.0492812
0.000457275
0.049254
0.000498661
0.049225
0.000513687
0.0491956
0.000508408
0.000488064
0.0491667
0.0125227
-0.0170945
0.0217461
-0.0215454
0.0284909
-0.0238695
0.0336366
-0.0250484
0.0376165
-0.0253817
0.0407071
-0.0250721
0.0431034
-0.024254
0.0449501
-0.0230404
0.0463601
-0.0215357
0.0474239
-0.019834
0.0482158
-0.0180177
0.0487967
-0.0161563
0.0492163
-0.0143063
0.0495147
-0.0125122
0.0497234
-0.0108071
0.049867
-0.00921441
0.0499644
-0.00774945
0.0500292
-0.00642072
0.0500716
-0.00523136
0.0500987
-0.00418028
0.0501152
-0.00326323
0.0501245
-0.00247356
0.0501287
-0.00180296
0.050129
-0.00124201
0.0501265
-0.000780586
0.0501217
-0.000408303
0.0501151
-0.000114759
0.050107
0.000110206
0.0500978
0.000276316
0.0500877
0.00039272
0.0500771
0.000467884
0.0500662
0.000509519
0.0500553
0.000524531
0.0500447
0.000519009
0.000498227
0.0500345
0.0390141
-0.0198703
0.0423287
-0.0248615
0.0452692
-0.0268102
0.0476818
-0.0274611
0.0495595
-0.0272597
0.0509337
-0.0264467
0.0518696
-0.0251901
0.0524439
-0.023615
0.052732
-0.0218239
0.0528023
-0.0199044
0.0527146
-0.0179301
0.0525194
-0.0159613
0.0522582
-0.0140452
0.0519632
-0.0122174
0.0516593
-0.0105033
0.051364
-0.00891929
0.0510893
-0.00747496
0.0508426
-0.00617414
0.0506275
-0.00501631
0.0504448
-0.0039977
0.0502937
-0.00311211
0.0501717
-0.00235163
0.050076
-0.00170719
0.050003
-0.001169
0.0499494
-0.000726887
0.0499117
-0.000370591
0.049887
-8.99701e-05
0.0498725
0.0001248
0.0498658
0.000283081
0.0498649
0.000393656
0.0498682
0.000464645
0.0498743
0.000503442
0.0498822
0.000516678
0.049891
0.000510197
0.000489073
0.0499002
0.0629954
-0.0193727
0.0622609
-0.0241271
0.0617948
-0.0263442
0.0614039
-0.0270703
0.0609602
-0.0268161
0.0603954
-0.025882
0.0596905
-0.0244855
0.0588608
-0.0227855
0.0579388
-0.020902
0.0569627
-0.0189284
0.0559698
-0.0169374
0.0549932
-0.0149849
0.0540599
-0.0131121
0.05319
-0.0113477
0.0523971
-0.00971064
0.0516892
-0.00821164
0.0510694
-0.00685536
0.0505369
-0.00564177
0.0500879
-0.00456745
0.0497167
-0.00362656
0.0494162
-0.00281158
0.0491784
-0.00211389
0.0489955
-0.00152419
0.0488594
-0.00103283
0.0487627
-0.000630033
0.0486984
-0.000306105
0.0486601
-5.15854e-05
0.0486424
0.000142623
0.0486405
0.000285143
0.0486502
0.000384046
0.0486682
0.000446779
0.0486916
0.000480122
0.0487182
0.000490151
0.0487462
0.000482228
0.000461004
0.0487743
0.0799331
-0.0176005
0.0773565
-0.0215506
0.0747529
-0.0237402
0.0722668
-0.0245841
0.069898
-0.0244475
0.0676221
-0.0236063
0.0654219
-0.0222853
0.0632963
-0.0206601
0.0612572
-0.018863
0.0593223
-0.0169936
0.0575103
-0.0151255
0.055837
-0.0133119
0.0543141
-0.0115894
0.052948
-0.00998189
0.0517402
-0.00850308
0.0506877
-0.00715943
0.0497841
-0.00595196
0.0490201
-0.00487794
0.0483845
-0.00393205
0.0478652
-0.00310729
0.0474492
-0.00239563
0.0471238
-0.00178841
0.0468764
-0.00127671
0.0466952
-0.000851545
0.0465694
-0.000503992
0.0464888
-0.000225351
0.0464446
-7.21365e-06
0.046429
0.00015844
0.0464351
0.000279183
0.0464572
0.000362078
0.0464905
0.000413634
0.046531
0.000439767
0.0465754
0.000445779
0.0466214
0.000436347
0.000415529
0.0466669
0.0896338
-0.0151053
0.0862068
-0.0181229
0.0824588
-0.0199918
0.0786785
-0.0208036
0.074995
-0.020764
0.0714693
-0.0200805
0.0681306
-0.0189466
0.0649968
-0.0175263
0.062082
-0.0159482
0.0593976
-0.0143092
0.0569513
-0.0126793
0.0547465
-0.0111073
0.0527819
-0.00962502
0.0510515
-0.00825178
0.0495456
-0.00699745
0.0482512
-0.0058653
0.0471531
-0.00485405
0.0462344
-0.00395944
0.0454775
-0.00317536
0.0448648
-0.00249463
0.0443786
-0.0019095
0.0440022
-0.001412
0.0437198
-0.000994162
0.0435165
-0.000648135
0.0433789
-0.000366277
0.043295
-0.000141221
0.0432539
3.40845e-05
0.0432462
0.000166322
0.0432638
0.000261776
0.0432998
0.000326291
0.0433483
0.000365243
0.0434047
0.000383513
0.0434651
0.000385472
0.0435265
0.000374972
0.000355353
0.0435867
0.0924483
-0.0121498
0.0886277
-0.0143017
0.0843526
-0.0157161
0.0799169
-0.0163673
0.0755104
-0.0163571
0.0712553
-0.0158249
0.0672274
-0.0149183
0.0634725
-0.0137711
0.0600175
-0.012493
0.0568758
-0.0111673
0.0540507
-0.00985421
0.0515379
-0.00859447
0.0493266
-0.00741388
0.0474017
-0.00632702
0.0457445
-0.00534045
0.0443342
-0.00445524
0.0431488
-0.0036689
0.042166
-0.00297677
0.0413634
-0.00237294
0.0407195
-0.00185089
0.0402139
-0.00140389
0.0398271
-0.00102524
0.0395414
-0.000708394
0.0393404
-0.000447002
0.0392092
-0.000234999
0.0391348
-6.65806e-05
0.0391053
6.37514e-05
0.0391106
0.000161193
0.0391419
0.000230603
0.0391919
0.000276496
0.0392543
0.000303012
0.039324
0.000313909
0.039397
0.000312545
0.0394702
0.000301881
0.000284477
0.0395411
0.0887578
-0.00895903
0.084832
-0.010375
0.0804424
-0.0113256
0.0758398
-0.0117641
0.0712222
-0.0117389
0.0667366
-0.0113387
0.0624845
-0.0106656
0.0585309
-0.009817
0.054913
-0.00887463
0.0516473
-0.0079014
0.0487357
-0.00694236
0.0461689
-0.00602761
0.0439305
-0.00517552
0.0419993
-0.00439585
0.040351
-0.00369229
0.0389601
-0.00306455
0.0378009
-0.00250983
0.0368479
-0.00202392
0.0360768
-0.00160188
0.0354643
-0.00123851
0.034989
-0.000928611
0.0346309
-0.000667122
0.0343718
-0.000449185
0.0341951
-0.000270188
0.0340859
-0.000125749
0.0340313
-1.17307e-05
0.0340194
7.57784e-05
0.0340403
0.000140444
0.0340854
0.000185697
0.0341473
0.000214706
0.0342201
0.000230385
0.0342987
0.000235362
0.0343794
0.000231998
0.0344589
0.000222354
0.00020823
0.0345352
0.0789125
-0.00579422
0.0751577
-0.00661975
0.0710014
-0.00716889
0.0666456
-0.00740793
0.0622688
-0.00736168
0.0580139
-0.00708335
0.0539851
-0.00663648
0.050251
-0.00608267
0.0468507
-0.00547412
0.0438003
-0.00485092
0.0410995
-0.0042415
0.0387363
-0.0036644
0.0366913
-0.00313052
0.0349406
-0.00264518
0.0334581
-0.00220989
0.0322172
-0.0018237
0.0311916
-0.00148421
0.0303559
-0.00118825
0.0296865
-0.000932349
0.029161
-0.000712948
0.0287591
-0.000526607
0.0284623
-0.00037003
0.0282534
-0.000240124
0.0281174
-0.000133972
0.0280408
-4.8843e-05
0.0280115
1.78335e-05
0.028019
6.84655e-05
0.0280544
0.000105314
0.0281098
0.000130477
0.0281787
0.000145903
0.0282559
0.000153366
0.0283368
0.000154484
0.0284182
0.000150684
0.0284973
0.000143239
0.000133224
0.0285722
0.0632553
-0.00297414
0.0599955
-0.00336012
0.0564337
-0.00360741
0.0527262
-0.0037007
0.0490177
-0.00365344
0.0454274
-0.00349339
0.0420437
-0.00325307
0.0389243
-0.00296365
0.0361011
-0.0026512
0.0335853
-0.00233544
0.0313735
-0.00203
0.0294523
-0.0017435
0.0278023
-0.00148067
0.0264005
-0.00124356
0.0252229
-0.00103235
0.0242454
-0.000846117
0.0234446
-0.000683319
0.0227988
-0.000542128
0.0222874
-0.000420622
0.0218918
-0.000316928
0.0215949
-0.000229258
0.0213813
-0.00015595
0.0212372
-9.54546e-05
0.0211501
-4.6336e-05
0.021109
-7.25639e-06
0.0211043
2.30342e-05
0.0211275
4.57041e-05
0.0211713
6.18464e-05
0.0212295
7.24767e-05
0.0212971
7.85323e-05
0.0213697
8.08729e-05
0.021444
8.02714e-05
0.0215172
7.74221e-05
0.0215874
7.29259e-05
6.73087e-05
0.0216532
0.0421301
-0.000886103
0.0397609
-0.000991415
0.0372066
-0.00105383
0.0345755
-0.0010702
0.0319673
-0.00104595
0.0294636
-0.000990295
0.0271233
-0.000913346
0.0249834
-0.000824378
0.0230624
-0.000730866
0.0213647
-0.00063825
0.0198844
-0.000550109
0.0186091
-0.00046856
0.0175228
-0.00039463
0.0166077
-0.000328619
0.0158456
-0.000270346
0.015219
-0.000219375
0.014711
-0.000175128
0.0143062
-0.000137001
0.0139904
-0.000104382
0.0137507
-7.67138e-05
0.0135755
-5.34609e-05
0.0134543
-3.41564e-05
0.0133779
-1.83505e-05
0.0133378
-5.65263e-06
0.0133268
4.32244e-06
0.0133384
1.19098e-05
0.0133671
1.74471e-05
0.0134081
2.12252e-05
0.0134573
2.35391e-05
0.0135113
2.46366e-05
0.0135675
2.47685e-05
0.0136236
2.41367e-05
0.013678
2.29442e-05
0.0137294
2.13443e-05
1.94913e-05
0.0137771
0.0158213
0.0148298
0.0137758
0.0127055
0.0116595
0.0106691
0.00975566
0.0089312
0.00820025
0.00756193
0.00701177
0.00654316
0.0061485
0.00581987
0.00554953
0.00533017
0.00515508
0.00501813
0.00491381
0.00483717
0.00478378
0.00474971
0.00473144
0.00472586
0.00473025
0.00474222
0.00475972
0.00478098
0.00480454
0.00482919
0.00485397
0.0048781
0.00490102
0.00492235
0.00494181
0.00511663
1.76039e-05
0.00510116
1.55799e-05
0.00508771
1.3569e-05
0.00507619
1.16355e-05
0.00506648
9.82438e-06
0.00505843
8.16525e-06
0.00505185
6.67431e-06
0.00504658
5.35852e-06
0.00504244
4.21601e-06
3.24046e-06
0.00503926
0.0142385
6.10845e-05
0.0141998
5.45413e-05
0.0141657
4.78992e-05
0.0141361
4.14089e-05
0.0141109
3.52485e-05
0.0140898
2.95427e-05
0.0140723
2.43648e-05
0.0140581
1.97544e-05
0.0140467
1.57177e-05
1.22424e-05
0.0140378
0.0223286
0.000121421
0.0222742
0.000109097
0.0222258
9.63769e-05
0.0221836
8.37918e-05
0.0221472
7.17329e-05
0.0221164
6.04726e-05
0.0220907
5.01855e-05
0.0220697
4.09673e-05
0.0220526
3.28509e-05
2.58225e-05
0.0220391
0.029383
0.000190668
0.0293199
0.000172247
0.0292634
0.000152931
0.0292137
0.000133603
0.0291706
0.000114922
0.0291338
9.73535e-05
0.0291028
8.12063e-05
0.0290772
6.66582e-05
0.0290563
5.37852e-05
4.25839e-05
0.0290397
0.0353996
0.000261724
0.0353343
0.000237553
0.0352754
0.000211829
0.0352233
0.000185822
0.0351778
0.000160487
0.0351387
0.00013651
0.0351056
0.000114354
0.035078
9.42965e-05
0.0350554
7.64713e-05
6.08966e-05
0.0350371
0.040379
0.000328432
0.0403173
0.000299276
0.0402613
0.000267835
0.0402114
0.000235758
0.0401676
0.000204297
0.0401298
0.000174359
0.0400977
0.000146566
0.0400707
0.000121306
0.0400485
9.87731e-05
7.90168e-05
0.0400304
0.0443245
0.000385694
0.0442713
0.000352542
0.0442227
0.000316403
0.0441792
0.00027926
0.0441409
0.000242629
0.0441077
0.000207618
0.0440793
0.000174996
0.0440555
0.000145249
0.0440356
0.000118636
9.52378e-05
0.0440195
0.047242
0.000429532
0.0472011
0.000393465
0.0471636
0.000353843
0.04713
0.000312906
0.0471003
0.000272371
0.0470744
0.000233507
0.0470523
0.000197197
0.0470335
0.00016401
0.047018
0.000134255
0.000108042
0.0470052
0.0491391
0.000457101
0.0491133
0.000419221
0.0490897
0.000377437
0.0490685
0.000334143
0.0490497
0.000291181
0.0490333
0.000249913
0.0490192
0.000211298
0.0490073
0.000175952
0.0489974
0.000144222
0.000116233
0.0489892
0.050025
0.000466672
0.0500161
0.000428085
0.050008
0.000385518
0.0500007
0.0003414
0.0499943
0.000297604
0.0499887
0.000255518
0.0499839
0.00021612
0.0499798
0.000180044
0.0499764
0.000147643
0.000119051
0.0499735
0.0499092
0.000457623
0.0499178
0.000419454
0.0499258
0.000377511
0.0499331
0.000334139
0.0499395
0.000291145
0.0499451
0.000249872
0.04995
0.000211264
0.049954
0.00017593
0.0499575
0.000144211
0.000116232
0.0499602
0.0488015
0.000430446
0.048827
0.000393862
0.0488506
0.000353957
0.0488718
0.000312883
0.0488906
0.000272296
0.048907
0.000233426
0.0489211
0.000197132
0.048933
0.000163967
0.0489429
0.000134234
0.000108038
0.0489511
0.0467105
0.000386781
0.0467514
0.000352989
0.0467888
0.000316505
0.0468224
0.000279201
0.0468522
0.000242512
0.046878
0.000207501
0.0469002
0.000174904
0.0469189
0.000145189
0.0469345
0.000118606
9.5231e-05
0.0469472
0.0436441
0.000329458
0.0436974
0.000299656
0.043746
0.000267879
0.0437895
0.000235651
0.0438278
0.000204145
0.043861
0.000174217
0.0438894
0.000146459
0.0439132
0.000121236
0.0439331
9.87381e-05
7.9007e-05
0.0439492
0.039608
0.000262512
0.0396699
0.000237795
0.039726
0.000211798
0.0397759
0.000185679
0.0398196
0.000160322
0.0398574
0.000136367
0.0398896
0.000114249
0.0399165
9.42315e-05
0.0399388
7.64395e-05
6.08886e-05
0.0399568
0.0346066
0.000191133
0.034672
0.000172332
0.034731
0.000152834
0.0347831
0.000133448
0.0348286
0.000114764
0.0348677
9.72294e-05
0.0349008
8.11162e-05
0.0349283
6.6607e-05
0.0349509
5.3758e-05
4.25797e-05
0.0349692
0.0286417
0.000121574
0.0287049
0.000109033
0.0287615
9.62301e-05
0.0288112
8.36229e-05
0.0288542
7.15867e-05
0.028891
6.03524e-05
0.0289219
5.01036e-05
0.0289475
4.09086e-05
0.0289683
3.28197e-05
2.58009e-05
0.028985
0.0217136
6.10023e-05
0.021768
5.43742e-05
0.0218163
4.77036e-05
0.0218585
4.12208e-05
0.0218948
3.50797e-05
0.0219255
2.94023e-05
0.0219512
2.42489e-05
0.0219722
1.9664e-05
0.0219893
1.5645e-05
1.21872e-05
0.0220027
0.0138204
1.74905e-05
0.013859
1.54506e-05
0.0138931
1.3434e-05
0.0139225
1.15106e-05
0.0139476
9.70763e-06
0.0139687
8.06515e-06
0.0139862
6.58454e-06
0.0140004
5.28518e-06
0.0140117
4.15142e-06
3.19013e-06
0.0140206
0.00495927
0.00497469
0.00498809
0.00499957
0.00500925
0.00501729
0.00502384
0.00502911
0.00503324
0.00503641
0.0050369
2.4201e-06
0.0050352
1.74225e-06
0.00503404
1.19096e-06
0.00503331
7.51813e-07
0.00503291
4.08453e-07
0.00503277
1.47457e-07
0.00503282
-4.58556e-08
0.005033
-1.82536e-07
0.00503327
-2.74673e-07
0.00503359
-3.30522e-07
0.00503394
-3.59419e-07
0.0050343
-3.66976e-07
0.00503465
-3.60044e-07
0.00503498
-3.42027e-07
0.00503528
-3.17747e-07
0.00503556
-2.88923e-07
0.00503581
-2.58841e-07
0.00503603
-2.28038e-07
0.00503621
-1.987e-07
0.00503637
-1.70596e-07
0.00503651
-1.45174e-07
0.00503662
-1.21758e-07
0.00503671
-1.0129e-07
0.00503679
-8.29062e-08
0.00503684
-6.72026e-08
0.00503689
-5.32834e-08
0.00503692
-4.1527e-08
0.00503694
-3.1117e-08
0.00503695
-2.22892e-08
0.00503695
-1.44123e-08
0.00503694
-7.58007e-09
0.00503693
-1.47308e-09
0.00503692
3.8528e-09
0.0050369
8.34608e-09
1.28039e-08
0.00503688
0.0140311
9.2967e-06
0.0140261
6.84129e-06
0.0140225
4.82733e-06
0.0140201
3.20596e-06
0.0140186
1.92493e-06
0.0140178
9.36515e-07
0.0140176
1.9305e-07
0.0140178
-3.4639e-07
0.0140182
-7.212e-07
0.0140188
-9.63348e-07
0.0140195
-1.10306e-06
0.0140203
-1.16337e-06
0.0140211
-1.16607e-06
0.0140219
-1.12646e-06
0.0140226
-1.05937e-06
0.0140232
-9.74042e-07
0.0140238
-8.80007e-07
0.0140244
-7.82075e-07
0.0140248
-6.86051e-07
0.0140252
-5.93739e-07
0.0140256
-5.08479e-07
0.0140258
-4.30182e-07
0.0140261
-3.60677e-07
0.0140263
-2.98776e-07
0.0140264
-2.4546e-07
0.0140265
-1.98957e-07
0.0140266
-1.5984e-07
0.0140267
-1.26051e-07
0.0140267
-9.80451e-08
0.0140268
-7.3652e-08
0.0140268
-5.34016e-08
0.0140268
-3.50998e-08
0.0140268
-1.9485e-08
0.0140268
-4.31147e-09
9.99259e-09
0.0140268
0.0220287
1.98329e-05
0.0220208
1.48099e-05
0.022015
1.06654e-05
0.0220109
7.30444e-06
0.0220083
4.62907e-06
0.0220067
2.54401e-06
0.0220059
9.58189e-07
0.0220058
-2.11672e-07
0.0220061
-1.04149e-06
0.0220067
-1.59761e-06
0.0220076
-1.9384e-06
0.0220085
-2.11286e-06
0.0220095
-2.16286e-06
0.0220105
-2.12215e-06
0.0220114
-2.01881e-06
0.0220123
-1.87442e-06
0.0220131
-1.70651e-06
0.0220138
-1.52769e-06
0.0220145
-1.34793e-06
0.022015
-1.17368e-06
0.0220155
-1.00992e-06
0.0220159
-8.59103e-07
0.0220163
-7.2311e-07
0.0220165
-6.02062e-07
0.0220168
-4.96055e-07
0.0220169
-4.03956e-07
0.0220171
-3.24946e-07
0.0220172
-2.57311e-07
0.0220172
-1.99852e-07
0.0220173
-1.5069e-07
0.0220173
-1.0854e-07
0.0220173
-7.15982e-08
0.0220173
-3.86145e-08
0.0220173
-7.6924e-09
2.29753e-08
0.0220173
0.0290266
3.29931e-05
0.0290165
2.49104e-05
0.029009
1.82074e-05
0.0290036
1.27406e-05
0.0289999
8.36164e-06
0.0289976
4.92294e-06
0.0289962
2.28398e-06
0.0289957
3.13878e-07
0.0289958
-1.10582e-06
0.0289963
-2.08069e-06
0.028997
-2.70251e-06
0.028998
-3.05022e-06
0.028999
-3.19005e-06
0.029
-3.17714e-06
0.029001
-3.05611e-06
0.029002
-2.86292e-06
0.0290029
-2.62547e-06
0.0290037
-2.36541e-06
0.0290045
-2.09865e-06
0.0290051
-1.83688e-06
0.0290057
-1.58791e-06
0.0290062
-1.35701e-06
0.0290066
-1.14692e-06
0.0290069
-9.59025e-07
0.0290072
-7.93164e-07
0.0290074
-6.48556e-07
0.0290075
-5.23551e-07
0.0290077
-4.16327e-07
0.0290078
-3.24592e-07
0.0290078
-2.46135e-07
0.0290079
-1.78508e-07
0.0290079
-1.19412e-07
0.0290079
-6.63664e-08
0.0290079
-1.68303e-08
3.21843e-08
0.0290079
0.0350227
4.75068e-05
0.0350115
3.61761e-05
0.035003
2.67389e-05
0.0349967
1.90066e-05
0.0349923
1.27806e-05
0.0349894
7.86229e-06
0.0349877
4.0605e-06
0.0349868
1.19658e-06
0.0349866
-8.92375e-07
0.0349868
-2.35184e-06
0.0349875
-3.30918e-06
0.0349883
-3.87403e-06
0.0349892
-4.13909e-06
0.0349902
-4.18153e-06
0.0349912
-4.06439e-06
0.0349922
-3.83843e-06
0.0349931
-3.54354e-06
0.0349939
-3.21061e-06
0.0349946
-2.86277e-06
0.0349953
-2.51697e-06
0.0349959
-2.185e-06
0.0349964
-1.87468e-06
0.0349968
-1.5906e-06
0.0349972
-1.33505e-06
0.0349974
-1.10842e-06
0.0349977
-9.0991e-07
0.0349979
-7.37698e-07
0.034998
-5.89457e-07
0.0349981
-4.62363e-07
0.0349982
-3.53495e-07
0.0349982
-2.59678e-07
0.0349983
-1.77837e-07
0.0349983
-1.04623e-07
0.0349983
-3.6617e-08
3.02123e-08
0.0349983
0.040016
6.19744e-05
0.0400047
4.75038e-05
0.0399961
3.54089e-05
0.0399897
2.54618e-05
0.039985
1.74192e-05
0.0399819
1.10357e-05
0.0399799
6.0736e-06
0.0399788
2.30959e-06
0.0399784
-4.60916e-07
0.0399784
-2.42131e-06
0.0399789
-3.73272e-06
0.0399795
-4.53433e-06
0.0399803
-4.9442e-06
0.0399812
-5.06097e-06
0.0399821
-4.96552e-06
0.0399829
-4.7232e-06
0.0399838
-4.38566e-06
0.0399845
-3.99304e-06
0.0399852
-3.57564e-06
0.0399859
-3.15582e-06
0.0399864
-2.74934e-06
0.0399869
-2.36683e-06
0.0399873
-2.01478e-06
0.0399876
-1.6966e-06
0.0399879
-1.41333e-06
0.0399881
-1.16434e-06
0.0399883
-9.47711e-07
0.0399884
-7.60795e-07
0.0399885
-6.00343e-07
0.0399886
-4.62831e-07
0.0399887
-3.44543e-07
0.0399887
-2.41664e-07
0.0399887
-1.50273e-07
0.0399887
-6.61994e-08
1.49986e-08
0.0399887
0.0440065
7.49996e-05
0.0439963
5.77694e-05
0.0439884
4.33283e-05
0.0439824
3.14169e-05
0.0439781
2.17554e-05
0.0439751
1.40593e-05
0.0439732
8.05162e-06
0.043972
3.47084e-06
0.0439715
7.66399e-08
0.0439714
-2.34708e-06
0.0439716
-3.99083e-06
0.0439721
-5.01951e-06
0.0439727
-5.5735e-06
0.0439734
-5.77027e-06
0.0439742
-5.70656e-06
0.0439749
-5.46062e-06
0.0439756
-5.09464e-06
0.0439762
-4.65705e-06
0.0439768
-4.18468e-06
0.0439774
-3.70479e-06
0.0439778
-3.23683e-06
0.0439782
-2.79402e-06
0.0439786
-2.38468e-06
0.0439789
-2.01335e-06
0.0439791
-1.68174e-06
0.0439793
-1.38947e-06
0.0439795
-1.13466e-06
0.0439796
-9.14462e-07
0.0439797
-7.25322e-07
0.0439798
-5.63337e-07
0.0439798
-4.24334e-07
0.0439798
-3.04105e-07
0.0439799
-1.9826e-07
0.0439799
-1.0229e-07
-1.1369e-08
0.0439799
0.0469949
8.53241e-05
0.0469867
6.59455e-05
0.0469804
4.96716e-05
0.0469756
3.62203e-05
0.0469721
2.52849e-05
0.0469696
1.65519e-05
0.046968
9.71453e-06
0.046967
4.48239e-06
0.0469665
5.87779e-07
0.0469663
-2.21051e-06
0.0469665
-4.12564e-06
0.0469668
-5.34245e-06
0.0469672
-6.01865e-06
0.0469677
-6.28642e-06
0.0469683
-6.25487e-06
0.0469688
-6.01244e-06
0.0469693
-5.62961e-06
0.0469698
-5.16137e-06
0.0469703
-4.64976e-06
0.0469707
-4.12596e-06
0.046971
-3.6124e-06
0.0469713
-3.12442e-06
0.0469716
-2.67186e-06
0.0469718
-2.26019e-06
0.046972
-1.89175e-06
0.0469722
-1.56639e-06
0.0469723
-1.28238e-06
0.0469724
-1.03673e-06
0.0469724
-8.2579e-07
0.0469725
-6.45363e-07
0.0469725
-4.91135e-07
0.0469726
-3.58594e-07
0.0469726
-2.43299e-07
0.0469726
-1.40633e-07
-4.61083e-08
0.0469726
0.0489826
9.19489e-05
0.0489773
7.12088e-05
0.0489733
5.37704e-05
0.0489701
3.93382e-05
0.0489679
2.75891e-05
0.0489662
1.81919e-05
0.0489651
1.08214e-05
0.0489644
5.16922e-06
0.0489641
9.50629e-07
0.0489639
-2.09144e-06
0.048964
-4.18431e-06
0.0489642
-5.52552e-06
0.0489644
-6.28363e-06
0.0489647
-6.60028e-06
0.0489651
-6.59236e-06
0.0489654
-6.3549e-06
0.0489657
-5.96361e-06
0.048966
-5.47779e-06
0.0489663
-4.94273e-06
0.0489665
-4.39225e-06
0.0489668
-3.85064e-06
0.048967
-3.33471e-06
0.0489671
-2.85522e-06
0.0489673
-2.41838e-06
0.0489674
-2.02685e-06
0.0489675
-1.68082e-06
0.0489675
-1.37855e-06
0.0489676
-1.11714e-06
0.0489676
-8.92818e-07
0.0489676
-7.01444e-07
0.0489676
-5.38562e-07
0.0489677
-3.99788e-07
0.0489677
-2.80682e-07
0.0489677
-1.77023e-07
-8.45984e-08
0.0489677
0.0499713
9.42328e-05
0.0499694
7.30277e-05
0.049968
5.51904e-05
0.0499669
4.04213e-05
0.0499661
2.8392e-05
0.0499655
1.87653e-05
0.0499651
1.12101e-05
0.0499649
5.41183e-06
0.0499648
1.08024e-06
0.0499647
-2.04724e-06
0.0499647
-4.20262e-06
0.0499648
-5.5879e-06
0.0499649
-6.37522e-06
0.049965
-6.7096e-06
0.0499651
-6.71049e-06
0.0499652
-6.47533e-06
0.0499653
-6.0815e-06
0.0499654
-5.58994e-06
0.0499655
-5.04694e-06
0.0499656
-4.48741e-06
0.0499656
-3.93613e-06
0.0499657
-3.4106e-06
0.0499657
-2.92177e-06
0.0499658
-2.47627e-06
0.0499658
-2.07678e-06
0.0499658
-1.72375e-06
0.0499658