/*--------------------------------*- C++ -*----------------------------------*\
| =========                 |                                                 |
| \\      /  F ield         | OpenFOAM: The Open Source CFD Toolbox           |
|  \\    /   O peration     | Version:  2406                                  |
|   \\  /    A nd           | Website:  www.openfoam.com                      |
|    \\/     M anipulation  |                                                 |
\*---------------------------------------------------------------------------*/
FoamFile
{
    version     2.0;
    format      ascii;
    arch        "LSB;label=32;scalar=64";
    class       volScalarField;
    location    "56";
    object      p;
}
// * * * * * * * * * * * * * * * * * * * * * * * * * * * * * * * * * * * * * //

dimensions      [0 2 -2 0 0 0 0];

internalField   nonuniform List<scalar> 
1900
(
-0.0259556
-0.029494
-0.034512
-0.040266
-0.0467467
-0.0540239
-0.0621242
-0.0711627
-0.0812645
-0.0929866
-0.0223386
-0.028044
-0.034229
-0.0401628
-0.0465914
-0.0538029
-0.0617273
-0.0703345
-0.079592
-0.0890439
-0.0190402
-0.0263225
-0.0334505
-0.0393527
-0.0454504
-0.0522881
-0.0596326
-0.0671815
-0.0745484
-0.0808851
-0.0156414
-0.0235432
-0.0312157
-0.0371087
-0.0428529
-0.0491775
-0.0557736
-0.0622104
-0.068116
-0.0729627
-0.0121655
-0.0202782
-0.0281656
-0.0339781
-0.0393656
-0.0451598
-0.0510538
-0.0566067
-0.0615501
-0.0656084
-0.00911072
-0.0172241
-0.0250053
-0.0305952
-0.0356521
-0.0410039
-0.0463493
-0.0512876
-0.055643
-0.0592931
-0.00703702
-0.0149358
-0.0223184
-0.0275954
-0.0324053
-0.0374532
-0.042432
-0.0470043
-0.0510597
-0.0545492
-0.00639939
-0.0136717
-0.0204031
-0.0254323
-0.0301522
-0.0350407
-0.0398151
-0.0442205
-0.0481784
-0.0516556
-0.00761803
-0.0133613
-0.0191794
-0.0241822
-0.0290438
-0.0339427
-0.0386761
-0.043075
-0.0470678
-0.0506117
-0.0106792
-0.0143362
-0.0190785
-0.0239605
-0.0288871
-0.033803
-0.0385567
-0.0430108
-0.0470788
-0.0507041
-0.0778403
-0.0780701
-0.0782198
-0.0781805
-0.0779581
-0.0775662
-0.0770089
-0.0762839
-0.0753858
-0.0743078
-0.0730432
-0.0715861
-0.0699313
-0.0680749
-0.066014
-0.063747
-0.0612742
-0.0585976
-0.0557213
-0.0526521
-0.0493996
-0.0459765
-0.0423986
-0.0386849
-0.0348578
-0.0309428
-0.0269683
-0.0229649
-0.0189649
-0.0150018
-0.0111089
-0.00731923
-0.00366424
-0.000172964
0.00312854
-0.0775843
-0.0778207
-0.0779441
-0.0778776
-0.0776484
-0.0772668
-0.0767291
-0.0760278
-0.0751551
-0.0741031
-0.0728648
-0.0714343
-0.0698067
-0.0679782
-0.0659462
-0.0637091
-0.0612673
-0.0586226
-0.055779
-0.0527432
-0.0495242
-0.0461341
-0.0425884
-0.038906
-0.0351089
-0.0312223
-0.0272739
-0.0232943
-0.0193153
-0.0153701
-0.0114923
-0.00771484
-0.00406905
-0.000584085
0.00271416
-0.0774616
-0.0777331
-0.0778532
-0.0777691
-0.0775381
-0.0771697
-0.0766536
-0.0759782
-0.0751326
-0.0741079
-0.0728969
-0.0714938
-0.0698939
-0.0680934
-0.0660899
-0.0638818
-0.0614691
-0.0588534
-0.0560385
-0.0530301
-0.049837
-0.046471
-0.0429474
-0.0392846
-0.0355045
-0.0316323
-0.0276956
-0.0237248
-0.0197521
-0.0158107
-0.0119342
-0.00815555
-0.00450679
-0.00101806
0.00228388
-0.0777237
-0.0780197
-0.0781376
-0.0780396
-0.0778053
-0.0774429
-0.0769376
-0.0762749
-0.0754427
-0.0744317
-0.0732348
-0.0718464
-0.0702617
-0.0684773
-0.0664901
-0.0642985
-0.0619019
-0.0593015
-0.0565002
-0.0535036
-0.0503203
-0.046962
-0.0434435
-0.0397831
-0.0360026
-0.0321272
-0.0281847
-0.0242056
-0.0202236
-0.016273
-0.0123877
-0.00860121
-0.00494556
-0.00145046
0.00185728
-0.0785365
-0.0787928
-0.0788539
-0.0787052
-0.0784361
-0.0780491
-0.0775248
-0.0768464
-0.0760015
-0.0749804
-0.0737763
-0.0723833
-0.0707966
-0.0690119
-0.0670259
-0.0648361
-0.0624413
-0.0598418
-0.0570408
-0.0540434
-0.0508576
-0.047495
-0.0439714
-0.0403054
-0.0365185
-0.0326361
-0.0286869
-0.0247021
-0.0207149
-0.01676
-0.0128722
-0.00908573
-0.00543319
-0.00194451
0.00135375
-0.0800409
-0.0801219
-0.0799952
-0.0796997
-0.0793234
-0.0788546
-0.0782649
-0.0775335
-0.0766449
-0.0755881
-0.0743547
-0.0729377
-0.0713312
-0.0695303
-0.0675313
-0.0653309
-0.0629278
-0.0603208
-0.0575128
-0.0545088
-0.0513169
-0.0479485
-0.0444188
-0.0407467
-0.036955
-0.0330701
-0.0291217
-0.0251418
-0.0211646
-0.017225
-0.0133582
-0.00959827
-0.00597731
-0.00252469
0.000733949
-0.0823893
-0.0820224
-0.0814488
-0.0808347
-0.080242
-0.0796208
-0.0789196
-0.0781053
-0.077155
-0.0760514
-0.0747817
-0.0733363
-0.0717078
-0.0698889
-0.067874
-0.0656582
-0.0632394
-0.0606178
-0.057796
-0.0547794
-0.0515768
-0.0482007
-0.0446673
-0.0409967
-0.0372126
-0.0333425
-0.0294167
-0.0254681
-0.021531
-0.0176406
-0.0138316
-0.0101373
-0.00658857
-0.00321323
-3.50232e-05
-0.0861211
-0.0845145
-0.0829444
-0.0817864
-0.0808862
-0.0800749
-0.0792552
-0.0783651
-0.0773618
-0.0762205
-0.0749235
-0.0734557
-0.0718057
-0.069965
-0.0679283
-0.0656918
-0.0632536
-0.0606141
-0.0577767
-0.0547482
-0.051539
-0.0481631
-0.0446384
-0.0409864
-0.0372324
-0.0334047
-0.0295345
-0.0256548
-0.0217998
-0.0180039
-0.0143004
-0.0107207
-0.00729343
-0.00404365
-0.000992126
-0.093659
-0.0878537
-0.0840513
-0.0822082
-0.0810197
-0.0800233
-0.0791134
-0.0781898
-0.077169
-0.0760108
-0.0746951
-0.0732073
-0.0715349
-0.0696699
-0.0676081
-0.0653471
-0.0628864
-0.0602278
-0.0573765
-0.0543414
-0.0511353
-0.0477746
-0.0442795
-0.0406734
-0.0369827
-0.0332365
-0.0294659
-0.0257033
-0.0219816
-0.0183331
-0.0147886
-0.0113765
-0.00812165
-0.00504535
-0.00216441
-0.106077
-0.0916722
-0.0844571
-0.0821265
-0.0808019
-0.0796114
-0.0785889
-0.0776291
-0.0765861
-0.0753987
-0.0740528
-0.0725357
-0.0708329
-0.0689356
-0.0668412
-0.0645505
-0.0620655
-0.0593904
-0.0565328
-0.0535045
-0.0503209
-0.0470013
-0.0435682
-0.0400464
-0.036463
-0.0328467
-0.0292276
-0.025636
-0.0221021
-0.0186549
-0.0153211
-0.0121248
-0.00908638
-0.00622239
-0.00354515
-0.100069
-0.0904394
-0.0835084
-0.0813365
-0.080172
-0.0789008
-0.0777397
-0.0766921
-0.0755906
-0.0743467
-0.0729445
-0.0713752
-0.0696248
-0.067684
-0.065552
-0.0632324
-0.0607305
-0.0580531
-0.0552102
-0.0522161
-0.0490889
-0.04585
-0.0425234
-0.0391344
-0.0357096
-0.0322762
-0.0288615
-0.0254925
-0.0221953
-0.0189942
-0.0159111
-0.0129648
-0.0101707
-0.00754042
-0.00508178
-0.0929727
-0.0877546
-0.0824035
-0.0801107
-0.0789003
-0.0776295
-0.0763737
-0.075213
-0.0740284
-0.0727188
-0.0712544
-0.0696278
-0.0678295
-0.065853
-0.063699
-0.061373
-0.0588824
-0.0562365
-0.0534475
-0.0505313
-0.0475079
-0.0443997
-0.0412308
-0.0380257
-0.0348091
-0.0316053
-0.0284378
-0.0253291
-0.0223003
-0.0193704
-0.0165561
-0.013871
-0.0113255
-0.00892697
-0.00667942
-0.0839128
-0.0824114
-0.0794911
-0.0776263
-0.0764939
-0.0753646
-0.0741625
-0.0729766
-0.0717617
-0.0704322
-0.068948
-0.0673016
-0.0654918
-0.0635182
-0.0613841
-0.0590963
-0.0566636
-0.0540972
-0.0514109
-0.0486223
-0.0457516
-0.042821
-0.0398534
-0.0368713
-0.0338962
-0.0309487
-0.0280478
-0.0252112
-0.022455
-0.0197933
-0.0172377
-0.0147974
-0.012479
-0.0102863
-0.00822105
-0.0758392
-0.0761497
-0.0749785
-0.0738275
-0.0729878
-0.0721361
-0.0711562
-0.0700982
-0.0689597
-0.0676885
-0.0662518
-0.064647
-0.062882
-0.0609639
-0.0588997
-0.0566977
-0.0543684
-0.0519246
-0.0493815
-0.0467573
-0.0440717
-0.0413457
-0.0385996
-0.035853
-0.0331239
-0.0304286
-0.0277822
-0.025198
-0.0226877
-0.0202614
-0.017927
-0.0156905
-0.0135558
-0.011525
-0.00959838
-0.0683769
-0.069589
-0.0696593
-0.0693496
-0.0689938
-0.068522
-0.0678636
-0.0670388
-0.0660612
-0.0649134
-0.0635825
-0.062075
-0.0604054
-0.058587
-0.0566305
-0.0545469
-0.0523485
-0.0500497
-0.0476669
-0.045218
-0.0427218
-0.0401968
-0.0376605
-0.0351294
-0.032618
-0.0301393
-0.027705
-0.0253252
-0.0230088
-0.0207629
-0.0185934
-0.0165042
-0.0144983
-0.0125769
-0.0107403
-0.0620609
-0.0638283
-0.0647478
-0.0651666
-0.0653186
-0.0652394
-0.0649115
-0.0643472
-0.0635662
-0.062576
-0.0613836
-0.060004
-0.058456
-0.0567568
-0.054921
-0.0529624
-0.0508958
-0.0487369
-0.0465028
-0.0442105
-0.0418773
-0.0395193
-0.0371516
-0.0347879
-0.0324404
-0.0301198
-0.0278356
-0.0255963
-0.0234089
-0.0212794
-0.0192125
-0.0172118
-0.0152797
-0.0134179
-0.0116271
-0.0573915
-0.0595253
-0.0610002
-0.0619651
-0.0625542
-0.0628219
-0.0627821
-0.062453
-0.0618599
-0.0610253
-0.0599697
-0.0587144
-0.0572817
-0.0556913
-0.0539611
-0.0521078
-0.0501481
-0.0480988
-0.0459769
-0.0437987
-0.0415799
-0.039335
-0.0370774
-0.0348192
-0.0325711
-0.030343
-0.0281435
-0.0259804
-0.0238599
-0.021788
-0.019769
-0.0178068
-0.0159039
-0.0140626
-0.0122841
-0.0546024
-0.0569807
-0.0588026
-0.060129
-0.0610284
-0.0615469
-0.0617127
-0.0615537
-0.0611006
-0.0603837
-0.0594304
-0.0582666
-0.0569163
-0.0554013
-0.0537416
-0.051956
-0.0500624
-0.0480783
-0.0460204
-0.0439043
-0.041745
-0.0395559
-0.0373499
-0.0351383
-0.0329318
-0.0307397
-0.0285707
-0.0264322
-0.0243311
-0.0222728
-0.0202623
-0.0183033
-0.0163993
-0.0145526
-0.0127653
-0.053665
-0.0562
-0.0582164
-0.05974
-0.0608095
-0.0614638
-0.0617382
-0.0616674
-0.0612864
-0.0606284
-0.0597242
-0.0586015
-0.0572856
-0.0557996
-0.0541647
-0.0524009
-0.0505267
-0.0485598
-0.0465167
-0.044413
-0.0422632
-0.0400807
-0.037878
-0.0356668
-0.0334575
-0.0312598
-0.0290824
-0.026933
-0.0248185
-0.0227447
-0.0207167
-0.0187388
-0.0168143
-0.0149462
-0.0131367
-0.0538453
-0.056476
-0.0585895
-0.0601999
-0.0613377
-0.0620413
-0.0623505
-0.0623043
-0.0619398
-0.061292
-0.0603925
-0.0592703
-0.0579516
-0.0564603
-0.0548185
-0.0530463
-0.0511625
-0.0491847
-0.0471294
-0.0450119
-0.0428468
-0.0406475
-0.0384266
-0.0361958
-0.0339659
-0.0317466
-0.0295466
-0.027374
-0.0252357
-0.0231377
-0.0210852
-0.0190827
-0.0171338
-0.0152415
-0.0134081
0.00621789
0.00907691
0.0116919
0.0140535
0.0161577
0.0180043
0.0195964
0.0209415
0.0220502
0.0229354
0.00580297
0.00866391
0.0112827
0.0136498
0.0157605
0.0176146
0.0192161
0.0205721
0.0216932
0.022592
0.00537644
0.00824161
0.0108654
0.0132383
0.0153557
0.0172173
0.0188267
0.0201915
0.0213221
0.0222315
0.00495465
0.00782306
0.0104486
0.0128222
0.0149395
0.0168006
0.0184097
0.0197747
0.0209063
0.021818
0.00443906
0.00729337
0.00990346
0.012261
0.0143625
0.0162087
0.0178048
0.0191592
0.0202832
0.0211908
0.0037772
0.0065883
0.00915537
0.0114715
0.0135343
0.0153461
0.0169128
0.0182438
0.0193512
0.0202491
0.00292671
0.00565737
0.00814723
0.0103914
0.0123893
0.0141448
0.0156651
0.0169604
0.0180434
0.0189283
0.00184488
0.00445581
0.00683378
0.00897637
0.0108853
0.0125659
0.0140267
0.0152785
0.0163342
0.0172078
0.000508781
0.00296628
0.00520442
0.00722349
0.00902732
0.0106227
0.0120189
0.0132271
0.0142596
0.0151299
-0.00106283
0.00122035
0.00330383
0.0051903
0.00688521
0.00839625
0.00973286
0.0109057
0.0119263
0.0128063
-0.00279905
-0.000693244
0.00123754
0.00299759
0.00459321
0.00603214
0.00732322
0.0084759
0.00949994
0.010405
-0.00458411
-0.00263984
-0.000843329
0.000810344
0.0023273
0.0037145
0.00497938
0.00612961
0.00717282
0.00811642
-0.00628262
-0.0044688
-0.00277609
-0.00119999
0.000264632
0.00162327
0.00288156
0.0040451
0.00511929
0.00610928
-0.00777492
-0.00605252
-0.00442834
-0.00289898
-0.0014608
-0.000109963
0.00115724
0.00234449
0.00345517
0.00449248
-0.00898779
-0.00731819
-0.00572959
-0.00422011
-0.00278743
-0.00142948
-0.000143943
0.00107108
0.00221766
0.0032974
-0.00990748
-0.00825862
-0.00667994
-0.00517056
-0.00372952
-0.00235579
-0.00104832
0.000193891
0.00137178
0.00248622
-0.0105696
-0.00891927
-0.00733358
-0.00581221
-0.00435526
-0.00296211
-0.00163269
-0.000366273
0.000837245
0.00197856
-0.0110386
-0.00937375
-0.00777123
-0.00623172
-0.00475511
-0.00334175
-0.00199128
-0.000703855
0.000520986
0.00168316
-0.0113875
-0.0096998
-0.0080746
-0.00651248
-0.00501381
-0.00357877
-0.00220743
-0.000899708
0.000344471
0.00152527
-0.0116356
-0.00992536
-0.00827828
-0.00669509
-0.0051762
-0.00372185
-0.00233211
-0.00100694
0.000253748
0.00145012
0.0236121
0.0240964
0.0244056
0.024557
0.024568
0.0244555
0.0242354
0.0239231
0.0235323
0.023076
0.0225655
0.0220109
0.0214213
0.0208042
0.0201663
0.0195129
0.0188488
0.0181776
0.0175023
0.0168251
0.0161479
0.0154719
0.014798
0.0141267
0.0134583
0.0127929
0.0121302
0.0114702
0.0108125
0.0101567
0.00950241
0.00884917
0.00819654
0.00754412
0.00689152
0.0232835
0.0237837
0.0241096
0.0242784
0.0243073
0.0242129
0.0240111
0.0237168
0.023344
0.022905
0.0224112
0.0218728
0.0212984
0.0206957
0.0200712
0.0194303
0.0187777
0.0181169
0.0174511
0.0167825
0.016113
0.0154437
0.0147758
0.0141097
0.0134459
0.0127843
0.012125
0.0114678
0.0108125
0.0101586
0.00950589
0.00885392
0.0082023
0.00755066
0.00689865
0.0229344
0.0234471
0.0237864
0.0239696
0.0240136
0.0239352
0.0237499
0.0234726
0.023117
0.0226953
0.0222188
0.0216974
0.0211396
0.0205529
0.0199438
0.0193175
0.0186787
0.0180309
0.0173771
0.0167196
0.0160602
0.0154002
0.0147405
0.0140819
0.0134247
0.0127689
0.0121147
0.011462
0.0108104
0.0101598
0.00950979
0.00886006
0.00821026
0.00756007
0.00690919
0.0225247
0.023043
0.0233898
0.0235824
0.0236378
0.0235724
0.023402
0.023141
0.0228028
0.0223996
0.0219423
0.0214404
0.0209024
0.0203355
0.0197459
0.0191386
0.0185182
0.017888
0.0172509
0.0166091
0.0159644
0.015318
0.014671
0.0140238
0.0133769
0.0127306
0.0120847
0.0114393
0.0107943
0.0101493
0.00950406
0.00885839
0.00821197
0.00756453
0.0069158
0.0218974
0.0224193
0.0227739
0.0229781
0.0230489
0.0230023
0.0228536
0.022617
0.0223054
0.0219304
0.0215025
0.0210309
0.0205235
0.0199871
0.0194276
0.0188499
0.018258
0.0176552
0.0170442
0.016427
0.0158054
0.0151805
0.0145532
0.0139242
0.0132938
0.0126623
0.0120299
0.0113964
0.0107618
0.010126
0.00948866
0.00884968
0.00820883
0.00756593
0.0069208
0.0209531
0.0214798
0.0218459
0.0220682
0.0221631
0.0221459
0.0220311
0.0218323
0.0215615
0.0212297
0.0208466
0.0204206
0.0199591
0.0194684
0.0189538
0.0184197
0.01787
0.0173075
0.0167347
0.0161537
0.0155658
0.0149723
0.014374
0.0137716
0.0131654
0.0125559
0.0119431
0.0113272
0.0107081
0.0100857
0.00946004
0.008831
0.00819847
0.00756239
0.00692268
0.0196307
0.0201665
0.020552
0.0208031
0.020935
0.020962
0.0208976
0.020754
0.0205422
0.0202721
0.0199523
0.0195903
0.0191928
0.0187652
0.0183123
0.0178381
0.0173457
0.016838
0.016317
0.0157846
0.0152421
0.0146907
0.0141312
0.0135643
0.0129906
0.0124103
0.0118238
0.0112312
0.0106327
0.0100284
0.0094183
0.00880253
0.00818114
0.00755421
0.00692181
0.0179142
0.0184686
0.0188857
0.0191801
0.0193656
0.019455
0.0194599
0.0193912
0.0192582
0.0190695
0.0188325
0.0185537
0.0182385
0.0178917
0.0175172
0.0171186
0.0166984
0.0162592
0.0158028
0.0153308
0.0148446
0.0143453
0.0138338
0.0133108
0.0127769
0.0122325
0.0116781
0.0111141
0.0105408
0.0099584
0.00936732
0.00876775
0.00815996
0.00754419
0.00692071
0.0158514
0.0164377
0.016902
0.0172568
0.0175139
0.0176841
0.0177771
0.0178018
0.017766
0.0176766
0.0175396
0.0173602
0.0171429
0.0168914
0.0166091
0.0162987
0.0159625
0.0156027
0.0152209
0.0148186
0.0143971
0.0139576
0.0135009
0.0130278
0.012539
0.0120353
0.0115173
0.0109856
0.0104407
0.00988322
0.00931356
0.00873224
0.00813972
0.00753648
0.00692296
0.0135575
0.0141914
0.0147189
0.0151501
0.0154947
0.015761
0.0159568
0.0160889
0.0161634
0.0161854
0.0161596
0.01609
0.0159799
0.0158325
0.0156501
0.0154351
0.0151894
0.0149149
0.014613
0.0142852
0.0139326
0.0135563
0.0131575
0.0127371
0.0122961
0.0118354
0.0113558
0.0108581
0.0103432
0.00981173
0.00926453
0.00870228
0.00812569
0.00753544
0.00693221
0.0112007
0.011896
0.0124993
0.0130183
0.0134602
0.0138312
0.014137
0.0143823
0.0145717
0.0147088
0.014797
0.0148391
0.0148377
0.0147949
0.0147129
0.0145933
0.0144378
0.014248
0.0140253
0.0137709
0.0134862
0.0131724
0.0128307
0.0124623
0.0120683
0.0116498
0.0112079
0.0107437
0.0102581
0.00975215
0.00922687
0.00868319
0.00812204
0.00754432
0.00695094
0.00896745
0.00973244
0.0104174
0.0110277
0.0115682
0.0120433
0.0124566
0.0128115
0.0131108
0.0133572
0.0135528
0.0136997
0.0137996
0.0138543
0.013865
0.0138334
0.0137609
0.0136489
0.0134988
0.0133119
0.0130896
0.0128332
0.012544
0.0122233
0.0118724
0.0114926
0.0110852
0.0106515
0.0101927
0.00971005
0.00920473
0.00867791
0.00813072
0.00756426
0.00697962
0.00701977
0.00785511
0.00861914
0.00931536
0.00994678
0.0105161
0.0110256
0.0114774
0.0118733
0.0122148
0.0125036
0.0127408
0.0129276
0.0130652
0.0131551
0.0131985
0.0131969
0.0131514
0.0130633
0.012934
0.0127649
0.0125574
0.0123129
0.0120328
0.0117186
0.0113719
0.0109939
0.0105862
0.0101503
0.00968741
0.00919903
0.00868648
0.00815104
0.00759398
0.00701652
0.00545927
0.00635813
0.00719132
0.00796085
0.00866845
0.00931565
0.00990377
0.010434
0.0109075
0.0113251
0.0116876
0.0119959
0.0122511
0.0124545
0.0126071
0.0127099
0.0127642
0.0127711
0.0127319
0.0126481
0.012521
0.0123521
0.0121429
0.011895
0.0116099
0.0112893
0.0109347
0.0105477
0.0101298
0.00968263
0.00920764
0.00870631
0.00818006
0.00763028
0.00705828
0.004312
0.00526271
0.00615086
0.00697736
0.00774327
0.00844927
0.00909622
0.00968463
0.0102151
0.0106879
0.0111041
0.0114645
0.01177
0.0120214
0.0122196
0.0123655
0.0124605
0.0125055
0.012502
0.0124513
0.0123548
0.0122142
0.0120309
0.0118066
0.0115429
0.0112414
0.010904
0.0105321
0.0101276
0.00969187
0.00922669
0.0087335
0.0082139
0.00766926
0.00710107
0.00353796
0.0045277
0.00545602
0.00632346
0.00713046
0.00787748
0.00856477
0.00919253
0.00976135
0.0102719
0.0107248
0.0111205
0.0114597
0.0117432
0.0119719
0.0121468
0.0122689
0.0123395
0.0123599
0.0123315
0.0122557
0.012134
0.0119682
0.0117598
0.0115105
0.0112221
0.0108962
0.0105346
0.010139
0.00971099
0.00925231
0.00876456
0.00824927
0.00770796
0.00714207
0.00305774
0.00407543
0.00503164
0.00592693
0.00676123
0.00753495
0.00824814
0.00890151
0.00949518
0.0100298
0.0105056
0.0109233
0.0112834
0.0115869
0.0118345
0.0120272
0.0121661
0.0122525
0.0122876
0.0122729
0.0122097
0.0120998
0.0119446
0.011746
0.0115055
0.011225
0.0109061
0.0105507
0.0101604
0.00973707
0.00928218
0.00879759
0.00828468
0.00774518
0.00718036
0.00278317
0.00382093
0.00479691
0.00571099
0.00656364
0.00735489
0.00808526
0.00875481
0.0093641
0.00991329
0.0104031
0.0108339
0.0112065
0.0115216
0.0117802
0.0119831
0.0121317
0.0122269
0.0122703
0.0122631
0.012207
0.0121033
0.011954
0.0117604
0.0115246
0.0112481
0.0109328
0.0105804
0.0101927
0.00977132
0.00931818
0.00883474
0.00832278
0.00778366
0.00721904
0.00264286
0.00369742
0.00468914
0.00561826
0.00648499
0.0072896
0.00803232
0.00871348
0.00933344
0.00989263
0.0103916
0.0108309
0.0112112
0.0115335
0.0117985
0.0120073
0.0121611
0.0122611
0.0123086
0.0123051
0.0122521
0.0121512
0.0120041
0.0118125
0.0115781
0.0113028
0.0109882
0.0106363
0.0102487
0.00982737
0.00937388
0.00888996
0.00837724
0.00783728
0.00727158
0.00258234
0.00365062
0.00465516
0.00559621
0.00647401
0.00728881
0.00804092
0.00873067
0.00935845
0.00992475
0.0104301
0.0108751
0.0112606
0.0115873
0.0118562
0.0120684
0.012225
0.0123273
0.0123767
0.0123746
0.0123226
0.0122224
0.0120755
0.0118839
0.0116492
0.0113732
0.0110578
0.0107049
0.0103161
0.00989334
0.00943834
0.0089528
0.00843838
0.00789666
0.00732917
0.00623838
0.0055844
0.00492934
0.00427299
0.00361524
0.00295608
0.00229573
0.00163443
0.000970528
0.000307193
0.00624595
0.0055923
0.00493748
0.00428131
0.0036237
0.00296461
0.00230431
0.0016428
0.000976651
0.000295657
0.00625734
0.00560428
0.00494982
0.0042938
0.00363612
0.00297666
0.00231563
0.0016526
0.000986558
0.000284833
0.00626557
0.00561363
0.00495982
0.00430399
0.00364602
0.00298572
0.00232334
0.0016575
0.000991954
0.000269003
0.00627328
0.00562323
0.00497054
0.00431509
0.0036568
0.00299542
0.00233144
0.00166236
0.000997671
0.000252756
0.00627929
0.00563219
0.00498133
0.00432668
0.00366825
0.00300584
0.00234022
0.00166796
0.00100404
0.000238832
0.00628403
0.00564095
0.00499268
0.0043393
0.00368097
0.00301756
0.00235029
0.00167493
0.00101085
0.000230286
0.00628976
0.00565161
0.00500652
0.00435475
0.00369662
0.0030322
0.00236296
0.00168456
0.00101834
0.000230586
0.00629963
0.00566693
0.00502531
0.00437523
0.00371722
0.00305153
0.0023798
0.0016982
0.00102691
0.000242746
0.00631666
0.00568945
0.00505122
0.00440263
0.00374438
0.00307698
0.00240203
0.00171687
0.00103722
0.000268376
0.00634273
0.00572057
0.00508528
0.0044377
0.0037787
0.00310906
0.0024301
0.00174098
0.00105012
0.000306719
0.00637781
0.00575988
0.00512682
0.00447963
0.00381933
0.00314689
0.00246336
0.00176985
0.00106633
0.000354187
0.00641986
0.00580512
0.00517347
0.00452602
0.0038639
0.00318827
0.0024999
0.00180176
0.00108602
0.000404697
0.00646537
0.00585277
0.00522173
0.00457345
0.00390915
0.0032301
0.00253698
0.00183403
0.00110841
0.000450894
0.00651059
0.00589921
0.0052681
0.00461862
0.00395192
0.00326947
0.00257182
0.00186398
0.00113186
0.000485912
0.00655297
0.00594199
0.00531041
0.00465947
0.00399043
0.00330463
0.00260282
0.00188983
0.0011545
0.00050523
0.0065918
0.00598064
0.00534833
0.00469588
0.00402467
0.00333573
0.00262999
0.0019115
0.00117495
0.000507905
0.00663015
0.00601848
0.00538508
0.00473128
0.00405802
0.0033664
0.00265695
0.00193295
0.00119514
0.000497794
0.00668156
0.00606853
0.00543373
0.00477829
0.00410323
0.00340929
0.00269688
0.00196825
0.00122779
0.000487765
0.00673733
0.00612249
0.00548591
0.0048287
0.00415185
0.0034561
0.00274165
0.00200939
0.00126343
0.000483256
)
;

boundaryField
{
    inlet
    {
        type            zeroGradient;
    }
    outlet
    {
        type            fixedValue;
        value           uniform 0;
    }
    upperWall
    {
        type            zeroGradient;
    }
    lowerWall
    {
        type            zeroGradient;
    }
    frontAndBack
    {
        type            empty;
    }
}


// ************************************************************************* //
