/*--------------------------------*- C++ -*----------------------------------*\
| =========                 |                                                 |
| \\      /  F ield         | OpenFOAM: The Open Source CFD Toolbox           |
|  \\    /   O peration     | Version:  2406                                  |
|   \\  /    A nd           | Website:  www.openfoam.com                      |
|    \\/     M anipulation  |                                                 |
\*---------------------------------------------------------------------------*/
FoamFile
{
    version     2.0;
    format      ascii;
    arch        "LSB;label=32;scalar=64";
    class       surfaceScalarField;
    location    "56";
    object      phi;
}
// * * * * * * * * * * * * * * * * * * * * * * * * * * * * * * * * * * * * * //

dimensions      [0 3 -1 0 0 0 0];

oriented        oriented;

internalField   nonuniform List<scalar> 
3680
(
0.0194081
-0.000408097
0.0199474
-0.000539285
0.0204495
-0.000502125
0.0209352
-0.00048578
0.0214468
-0.000511624
0.0220205
-0.000573733
0.022706
-0.000685533
0.023589
-0.000882968
0.0248407
-0.00125176
-0.00254436
0.027385
0.0508641
-0.000272212
0.0509341
-0.000609294
0.0512006
-0.000768673
0.0516084
-0.000893587
0.0521422
-0.00104552
0.0528099
-0.0012415
0.0536324
-0.00150807
0.0546468
-0.00189743
0.0558803
-0.00248533
-0.00346993
0.0568058
0.0749434
-0.000215589
0.0749105
-0.000576417
0.0749852
-0.000843389
0.0751742
-0.00108261
0.075475
-0.00134637
0.07589
-0.00165655
0.0764175
-0.00203566
0.0770389
-0.00251881
0.0776951
-0.00314157
-0.00394694
0.0781721
0.0909719
-0.000187532
0.0909211
-0.000525651
0.0909074
-0.000829697
0.0909519
-0.00112711
0.0910547
-0.00144919
0.0912124
-0.00181423
0.0914149
-0.00223821
0.0916362
-0.00274017
0.0918286
-0.00333398
-0.00402163
0.0919033
0.0989679
-0.000155488
0.098888
-0.000445764
0.0987985
-0.000740205
0.0987205
-0.00104904
0.0986534
-0.00138218
0.0985896
-0.00175038
0.098516
-0.00216465
0.0984098
-0.00263391
0.0982362
-0.00316045
-0.00373484
0.0979494
0.0989512
-0.000106672
0.0988242
-0.00031878
0.0986558
-0.000571791
0.0984641
-0.000857356
0.0982458
-0.00116393
0.0979909
-0.00149548
0.0976861
-0.00185985
0.097312
-0.00225977
0.0968432
-0.00269163
-0.00314438
0.0962527
0.0909223
-2.89647e-05
0.0907334
-0.000129898
0.0904878
-0.00032623
0.090198
-0.000567484
0.0898549
-0.000820849
0.0894476
-0.00108819
0.0889632
-0.00137542
0.0883845
-0.00168105
0.0876921
-0.00199925
-0.00232095
0.0868687
0.0748641
0.000106953
0.0746134
0.00012074
0.0743217
-3.44379e-05
0.0739823
-0.000228113
0.0735784
-0.000416882
0.0730969
-0.000606683
0.0725231
-0.000801595
0.0718401
-0.000998115
0.0710327
-0.0011918
-0.00137801
0.0700898
0.0507702
0.000336787
0.0505733
0.000317614
0.0503916
0.000147258
0.0501604
3.12991e-06
0.0498499
-0.000106418
0.0494448
-0.000201519
0.0489319
-0.000288723
0.0483014
-0.000367552
0.0475477
-0.000438021
-0.000500401
0.0466701
0.0193368
0.0196544
0.0198017
0.0198048
0.0196984
0.0194969
0.0192081
0.0188406
0.0184026
0.0179022
-6.09108e-05
6.08927e-05
-0.000267532
0.000206579
-0.000562085
0.000294511
-0.000888521
0.000326398
-0.00121809
0.000329535
-0.00153928
0.000321152
-0.00184851
0.000309206
-0.00214512
0.000296577
-0.00242906
0.000283923
-0.00270021
0.000271132
-0.00295815
0.000257927
-0.0032022
0.000244041
-0.00343143
0.000229223
-0.00364467
0.000213234
-0.0038405
0.000195834
-0.00401729
0.000176787
-0.00417315
0.000155875
-0.00430606
0.000132912
-0.00441381
0.000107767
-0.00449416
8.03674e-05
-0.00454486
5.07151e-05
-0.00456376
1.89179e-05
-0.00454888
-1.48553e-05
-0.00449859
-5.02542e-05
-0.00441168
-8.68805e-05
-0.00428735
-0.000124281
-0.00412539
-0.000161925
-0.00392613
-0.000199204
-0.00369059
-0.000235482
-0.00342042
-0.000270105
-0.0031179
-0.000302447
-0.00278591
-0.000331907
-0.00242786
-0.000357952
-0.00204763
-0.00038014
-0.000398139
-0.00164938
-0.000248115
0.000308968
-0.000790074
0.000748423
-0.00148626
0.000990591
-0.00223517
0.00107522
-0.00298051
0.00107479
-0.0036966
0.00103717
-0.00437367
0.000986208
-0.00500874
0.000931584
-0.00560112
0.000876258
-0.00615059
0.000820558
-0.00665667
0.000763983
-0.00711848
0.000705828
-0.00753462
0.000645355
-0.00790323
0.000581842
-0.00822199
0.0005146
-0.00848819
0.000442999
-0.00869881
0.000366514
-0.00885063
0.00028476
-0.00894038
0.000197552
-0.00896489
0.000104915
-0.00892124
7.11071e-06
-0.00880694
-9.53241e-05
-0.00862015
-0.000201571
-0.00835967
-0.000310667
-0.00802504
-0.000421418
-0.00761678
-0.00053244
-0.00713641
-0.000642183
-0.00658648
-0.000749004
-0.00597059
-0.000851219
-0.00529335
-0.000947188
-0.00456025
-0.00103535
-0.00377765
-0.0011143
-0.0029526
-0.00118277
-0.00209265
-0.00123985
-0.00128483
-0.00120571
-0.000420377
0.000729293
-0.00123683
0.00156478
-0.00221713
0.00197079
-0.00323024
0.00208824
-0.0042097
0.00205417
-0.00512589
0.00195329
-0.0059678
0.00182806
-0.0067327
0.00169642
-0.0074209
0.00156441
-0.00803347
0.00143308
-0.00857121
0.0013017
-0.00903437
0.00116895
-0.00942248
0.00103345
-0.00973449
0.000893844
-0.0099688
0.000748901
-0.0101234
0.0005976
-0.010196
0.000439167
-0.0101844
0.000273152
-0.0100863
9.9529e-05
-0.00990001
-8.13728e-05
-0.00962421
-0.000268646
-0.00925836
-0.000461108
-0.00880263
-0.000657245
-0.008258
-0.000855224
-0.00762642
-0.00105292
-0.00691083
-0.00124793
-0.0061152
-0.00143771
-0.00524447
-0.00161961
-0.0043046
-0.00179096
-0.00330239
-0.00194924
-0.00224544
-0.00209215
-0.00114193
-0.00221764
-4.56136e-07
-0.00232405
0.00116983
-0.00240994
-0.00247444
0.00235966
-0.000550583
0.00127984
-0.00154677
0.00256086
-0.00267214
0.00309606
-0.00377642
0.00319244
-0.0047955
0.00307319
-0.00570578
0.00286351
-0.00650172
0.00262394
-0.00718508
0.00237973
-0.00775992
0.0021392
-0.00823042
0.00190354
-0.00860007
0.00167131
-0.0088714
0.00144025
-0.00904601
0.00120804
-0.00912472
0.000972533
-0.00910776
0.00073193
-0.008995
0.000484834
-0.00878618
0.000230356
-0.0084811
-3.19076e-05
-0.00808001
-0.00030154
-0.00758375
-0.000577601
-0.00699357
-0.000858783
-0.00631137
-0.00114326
-0.00553984
-0.00142872
-0.00468255
-0.00171246
-0.00374389
-0.00199151
-0.00272911
-0.00226263
-0.00164432
-0.00252242
-0.000496414
-0.00276742
0.000707037
-0.0029943
0.00195786
-0.00319996
0.00324746
-0.00338162
0.00456689
-0.00353695
0.00590705
-0.00366408
0.0072589
-0.00376165
-0.00382896
0.00861357
-0.000637949
0.00191774
-0.00169475
0.00361757
-0.00279142
0.00419266
-0.00378309
0.00418404
-0.00462586
0.00391589
-0.00531311
0.00355069
-0.0058512
0.00316196
-0.00625007
0.00277855
-0.00651949
0.00240856
-0.00666777
0.00205177
-0.00670159
0.00170508
-0.00662608
0.00136469
-0.00644509
0.00102701
-0.00616157
0.000688973
-0.00577781
0.000348139
-0.00529581
2.8186e-06
-0.00471763
-0.000347841
-0.00404573
-0.000703814
-0.00328278
-0.0010645
-0.0024318
-0.00142858
-0.00149643
-0.00179415
-0.000480983
-0.0021587
0.0006096
-0.00251929
0.00176974
-0.00287258
0.00299313
-0.00321487
0.00427279
-0.00354225
0.00560114
-0.00385072
0.00697013
-0.00413635
0.0083713
-0.00439542
0.00979594
-0.00462454
0.0112352
-0.00482081
0.0126802
-0.00498189
0.0141223
-0.00510607
0.015553
-0.00519234
-0.0052404
0.0169646
-0.000685787
0.0026035
-0.00165595
0.00458766
-0.002502
0.00503863
-0.0031347
0.00481668
-0.00355933
0.00434046
-0.00379791
0.0037892
-0.0038726
0.00323659
-0.0038024
0.00270828
-0.00360225
0.00220835
-0.00328349
0.00173295
-0.0028548
0.00127633
-0.00232279
0.000832615
-0.00169265
0.000396821
-0.000968725
-3.50072e-05
-0.000154779
-0.000465857
0.000745452
-0.000897457
0.00172804
-0.00133048
0.00278887
-0.00176468
0.00392343
-0.00219909
0.0051268
-0.00263198
0.00639357
-0.00306094
0.00771777
-0.00348293
0.0090929
-0.00389443
0.0105119
-0.00429155
0.0119671
-0.00467009
0.0134506
-0.00502574
0.0149541
-0.00535419
0.016469
-0.0056513
0.0179869
-0.00591329
0.0194993
-0.00613684
0.0209977
-0.00631923
0.0224743
-0.00645845
0.0239215
-0.00655324
0.0253324
-0.00660315
-0.00660856
0.0267006
-0.000680376
0.00328384
-0.00134433
0.00525154
-0.00162703
0.00532126
-0.00159003
0.00477961
-0.00132451
0.00407487
-0.00088565
0.00335027
-0.000307164
0.00265804
0.000387882
0.00201317
0.00118396
0.00141221
0.00207085
0.000845994
0.00304113
0.000305985
0.00408922
-0.000215542
0.00521079
-0.000724809
0.00640188
-0.00122616
0.00765815
-0.00172218
0.00897495
-0.00221432
0.0103474
-0.00270301
0.0117704
-0.00318774
0.0132384
-0.0036671
0.0147453
-0.00413893
0.0162847
-0.00460035
0.0178496
-0.00504789
0.0194327
-0.00547762
0.0210264
-0.00588527
0.0226227
-0.0062664
0.0242135
-0.00661656
0.0257907
-0.00693141
0.0273464
-0.00720695
0.0288727
-0.00743964
0.0303625
-0.00762654
0.0318087
-0.00776543
0.0332051
-0.0078549
0.0345463
-0.00789439
0.0358274
-0.00788422
-0.00782559
0.0370444
-0.000538928
0.00382274
-0.000424592
0.00513714
0.000354163
0.00454244
0.00145065
0.00368307
0.00268826
0.0028372
0.00400646
0.00203202
0.00538079
0.00128365
0.00679854
0.000595366
0.0082538
-4.31181e-05
0.00974461
-0.000644871
0.0112707
-0.00122016
0.0128308
-0.00177574
0.0144226
-0.00231663
0.0160429
-0.00284653
0.0176883
-0.00336766
0.0193549
-0.00388096
0.0210382
-0.00438633
0.0227331
-0.0048827
0.0244341
-0.00536816
0.0261352
-0.00584006
0.0278299
-0.00629509
0.0295114
-0.00672944
0.0311726
-0.00713892
0.0328065
-0.00751913
0.0344057
-0.00786563
0.0359632
-0.00817408
0.0374722
-0.00844044
0.0389263
-0.00866113
0.0403198
-0.00883312
0.0416474
-0.00895414
0.0429046
-0.0090227
0.044088
-0.00903822
0.0451946
-0.009001
0.0462226
-0.00891226
-0.00877408
0.0471711
0.000305999
0.00351671
0.00235658
0.00308648
0.00487207
0.00202689
0.00735888
0.0011962
0.00972855
0.000467478
0.011988
-0.000227501
0.0141588
-0.00088719
0.0162616
-0.00150751
0.0183131
-0.00209466
0.0203248
-0.00265661
0.022304
-0.00319944
0.0242556
-0.00372733
0.0261822
-0.00424327
0.0280847
-0.0047491
0.0299626
-0.00524559
0.031814
-0.00573247
0.0336362
-0.00620858
0.0354255
-0.00667203
0.0371775
-0.00712022
0.0388873
-0.00754994
0.0405497
-0.00795749
0.042159
-0.00833882
0.0437097
-0.00868965
0.0451962
-0.00900564
0.0466131
-0.00928257
0.0479555
-0.00951649
0.0492189
-0.0097039
0.0503996
-0.00984182
0.0514945
-0.00992803
0.0525014
-0.00996107
0.0534191
-0.00994036
0.0542471
-0.00986623
0.0549859
-0.00973991
0.0556371
-0.0095635
-0.00933993
0.056203
0.00603912
-0.00252247
0.0110541
-0.00192856
0.0151289
-0.00204795
0.0186631
-0.00233804
0.0218055
-0.00267497
0.0246508
-0.00307289
0.0272741
-0.00351048
0.0297288
-0.00396232
0.032051
-0.00441684
0.0342647
-0.0048704
0.0363865
-0.00532129
0.0384273
-0.00576821
0.0403942
-0.00621012
0.0422909
-0.00664594
0.0441195
-0.00707421
0.04588
-0.00749302
0.0475713
-0.00789993
0.0491913
-0.00829205
0.0507371
-0.00866605
0.0522054
-0.00901825
0.0535925
-0.00934466
0.0548948
-0.00964115
0.0561087
-0.00990354
0.0572308
-0.0101278
0.0582583
-0.0103101
0.059189
-0.0104472
0.0600212
-0.0105362
0.0607544
-0.010575
0.0613885
-0.0105622
0.0619249
-0.0104975
0.0623656
-0.010381
0.0627135
-0.0102142
0.0629725
-0.00999894
0.0631472
-0.0097383
-0.00943581
0.063243
0.0292041
-0.00434162
0.0320669
-0.00479148
0.0349027
-0.00488373
0.0376078
-0.00504319
0.0401802
-0.00524744
0.0425975
-0.00549026
0.0448618
-0.00577475
0.0469896
-0.00609016
0.0489966
-0.0064239
0.0508943
-0.00676816
0.0526912
-0.00711817
0.0543932
-0.00747022
0.0560041
-0.00782106
0.0575259
-0.00816777
0.0589591
-0.00850747
0.0603033
-0.00883717
0.061557
-0.00915366
0.0627184
-0.00945348
0.0637853
-0.00973296
0.0647553
-0.00998826
0.0656261
-0.0102155
0.0663956
-0.0104107
0.0670622
-0.0105701
0.0676247
-0.0106903
0.0680829
-0.0107683
0.0684371
-0.0108014
0.0686887
-0.0107878
0.0688401
-0.0107263
0.0688944
-0.0106166
0.068856
-0.0104591
0.06873
-0.010255
0.0685223
-0.0100065
0.0682397
-0.00971637
0.0678895
-0.00938806
-0.00902561
0.0674792
0.057154
-0.00468982
0.05786
-0.00549748
0.058899
-0.00592276
0.060106
-0.00625027
0.0614091
-0.00655053
0.0627474
-0.00682859
0.0640724
-0.00709982
0.0653566
-0.00737433
0.0665851
-0.00765243
0.0677486
-0.00793172
0.0688407
-0.0082102
0.0698563
-0.00848592
0.0707919
-0.00875661
0.0716438
-0.00901973
0.072409
-0.00927265
0.0730844
-0.00951251
0.073667
-0.00973629
0.0741543
-0.00994074
0.0745439
-0.0101225
0.0748338
-0.0102782
0.0750229
-0.0104045
0.0751102
-0.010498
0.0750961
-0.0105559
0.0749814
-0.0105756
0.0747681
-0.010555
0.0744593
-0.0104925
0.0740588
-0.0103873
0.0735718
-0.0102393
0.0730042
-0.010049
0.0723629
-0.00981777
0.0716556
-0.00954766
0.0708904
-0.00924135
0.0700761
-0.00890211
0.0692217
-0.0085337
-0.00814023
0.0683363
0.0783499
-0.00486764
0.0784926
-0.00564017
0.0787425
-0.00617275
0.0790727
-0.00658042
0.0794562
-0.00693409
0.0798739
-0.00724622
0.0803005
-0.00752647
0.0807131
-0.00778687
0.0810944
-0.00803378
0.0814317
-0.00826902
0.0817146
-0.0084931
0.0819348
-0.00870603
0.0820853
-0.0089071
0.0821606
-0.00909501
0.082156
-0.00926801
0.0820676
-0.00942407
0.0818922
-0.00956089
0.0816275
-0.00967601
0.0812719
-0.00976687
0.0808246
-0.0098309
0.0802859
-0.00986566
0.0796568
-0.00986892
0.0789397
-0.00983876
0.0781378
-0.00977369
0.0772555
-0.00967268
0.0762984
-0.0095353
0.0752728
-0.00936168
0.0741862
-0.0091526
0.0730466
-0.00890944
0.0718631
-0.00863417
0.0706447
-0.00832931
0.0694013
-0.00799785
0.0681423
-0.00764314
0.0668774
-0.00726883
-0.00687875
0.0656159
0.0917936
-0.00475793
0.0915772
-0.00542373
0.091352
-0.00594753
0.0911329
-0.00636133
0.0909089
-0.0067101
0.0906729
-0.00701018
0.0904156
-0.0072691
0.090125
-0.00749634
0.0897908
-0.00769952
0.0894045
-0.00788263
0.088959
-0.00804764
0.0884487
-0.00819566
0.0878687
-0.00832707
0.0872153
-0.00844155
0.0864856
-0.00853828
0.0856777
-0.00861608
0.0847904
-0.00867352
0.0838235
-0.00870904
0.0827777
-0.00872102
0.0816548
-0.00870789
0.0804574
-0.00866825
0.0791895
-0.0086009
0.0778558
-0.00850499
0.0764622
-0.00838004
0.0750156
-0.008226
0.0735237
-0.00804329
0.0719949
-0.00783281
0.0704383
-0.00759593
0.0688634
-0.00733449
0.06728
-0.0070507
0.0656978
-0.00674714
0.0641267
-0.00642666
0.0625759
-0.00609229
0.0610543
-0.00574719
-0.00539452
0.0595701
0.0975166
-0.00432504
0.096964
-0.00487119
0.0963439
-0.00532731
0.0956776
-0.00569502
0.0949648
-0.0059973
0.0942035
-0.00624888
0.0933917
-0.00645719
0.092525
-0.00662964
0.0915989
-0.00677333
0.0906094
-0.00689314
0.0895539
-0.00699201
0.0884301
-0.00707181
0.0872368
-0.00713371
0.0859735
-0.00717823
0.0846407
-0.00720537
0.0832395
-0.00721478
0.0817719
-0.00720585
0.0802409
-0.0071779
0.0786501
-0.00713017
0.0770043
-0.007062
0.075309
-0.00697285
0.0735706
-0.00686238
0.0717962
-0.00673053
0.0699938
-0.00657755
0.0681719
-0.00640398
0.0663394
-0.00621073
0.0645057
-0.00599901
0.0626802
-0.00577036
0.0608724
-0.00552659
0.0590915
-0.00526972
0.0573464
-0.00500197
0.0556454
-0.00472564
0.0539963
-0.00444311
0.0524059
-0.00415673
-0.00386879
0.0508802
0.0955237
-0.00359596
0.0946656
-0.00401304
0.0937054
-0.00436709
0.0926625
-0.0046521
0.0915439
-0.0048786
0.0903527
-0.00505766
0.089092
-0.00519645
0.0877637
-0.00530125
0.0863687
-0.00537824
0.084908
-0.00543241
0.0833833
-0.0054672
0.0817965
-0.00548499
0.0801504
-0.00548745
0.0784479
-0.00547568
0.0766929
-0.00545027
0.0748897
-0.00541147
0.0730432
-0.00535929
0.071159
-0.00529361
0.0692433
-0.0052143
0.0673026
-0.00512124
0.0653443
-0.00501442
0.063376
-0.00489397
0.0614058
-0.00476022
0.059442
-0.00461367
0.0574932
-0.00445505
0.0555679
-0.00428528
0.0536744
-0.00410546
0.051821
-0.00391687
0.0500155
-0.00372092
0.0482649
-0.00351911
0.046576
-0.003313
0.0449546
-0.00310416
0.0434058
-0.00289415
0.0419335
-0.00268443
-0.00247641
0.0405412
0.0859048
-0.00263196
0.084805
-0.00291321
0.0835859
-0.00314797
0.0822647
-0.0033308
0.0808531
-0.00346699
0.0793602
-0.00356465
0.0777942
-0.00363036
0.0761626
-0.00366963
0.0744722
-0.00368768
0.0727287
-0.00368891
0.0709382
-0.0036766
0.0691064
-0.00365304
0.0672389
-0.00361988
0.0653416
-0.00357824
0.0634202
-0.00352882
0.0614809
-0.00347199
0.0595296
-0.00340793
0.0575728
-0.00333672
0.055617
-0.00325839
0.0536689
-0.00317301
0.0517353
-0.0030807
0.0498231
-0.00298168
0.0479393
-0.00287626
0.0460906
-0.00276488
0.0442838
-0.00264809
0.0425251
-0.00252654
0.0408207
-0.00240095
0.0391761
-0.00227214
0.0375962
-0.00214096
0.0360855
-0.00200828
0.0346475
-0.00187498
0.0332854
-0.00174193
0.0320012
-0.00160992
0.0307966
-0.00147971
-0.00135198
0.0296722
0.0690078
-0.00154981
0.0677926
-0.00169795
0.0664592
-0.00181452
0.0650258
-0.00189736
0.0635092
-0.0019503
0.061924
-0.00197938
0.0602836
-0.00198983
0.0585999
-0.00198578
0.0568831
-0.00197081
0.0551422
-0.00194786
0.0533848
-0.00191907
0.0516177
-0.00188585
0.0498471
-0.00184915
0.0480785
-0.00180955
0.0463172
-0.00176739
0.0445681
-0.00172281
0.0428362
-0.00167585
0.0411261
-0.00162649
0.0394425
-0.00157472
0.0377902
-0.00152057
0.0361737
-0.00146409
0.0345976
-0.0014054
0.0330661
-0.00134467
0.0315835
-0.00128212
0.0301535
-0.00121802
0.0287798
-0.00115269
0.0274654
-0.00108647
0.0262131
-0.00101972
0.025025
-0.000952812
0.023903
-0.000886125
0.0228481
-0.00082002
0.0218611
-0.000754832
0.0209421
-0.000690879
0.0200909
-0.000628426
-0.000567721
0.0193067
0.0456739
-0.000553548
0.0445711
-0.000595073
0.0433797
-0.000623079
0.0421203
-0.000637893
0.0408122
-0.000642057
0.0394716
-0.0006387
0.0381121
-0.000630226
0.0367447
-0.000618253
0.035378
-0.000604
0.0340186
-0.000588396
0.0326717
-0.000572049
0.0313413
-0.000555294
0.0300305
-0.000538308
0.0287423
-0.000521168
0.0274789
-0.000503882
0.0262426
-0.000486412
0.0250356
-0.000468705
0.0238599
-0.000450714
0.0227177
-0.000432407
0.0216111
-0.000413774
0.0205419
-0.000394824
0.0195122
-0.000375587
0.0185238
-0.000356107
0.0175782
-0.000336447
0.016677
-0.000316674
0.0158212
-0.000296872
0.015012
-0.000277122
0.0142499
-0.000257517
0.0135353
-0.000238139
0.0128683
-0.00021908
0.0122488
-0.000200413
0.0116762
-0.000182215
0.01115
-0.000164541
0.010669
-0.000147448
-0.00013097
0.0102323
0.0173487
0.0167536
0.0161305
0.0154927
0.0148506
0.014212
0.0135818
0.0129635
0.0123595
0.0117712
0.0111991
0.0106439
0.0101056
0.00958444
0.00908058
0.00859419
0.0081255
0.00767481
0.00724242
0.00682867
0.00643387
0.0060583
0.00570221
0.00536578
0.00504912
0.00475226
0.00447516
0.00421765
0.00397953
0.00376046
0.00356005
0.00337785
0.00321332
0.00306588
0.00293492
-0.00123758
-0.000411687
-0.000816756
-0.000420711
-0.000391412
-0.000425221
3.39934e-05
-0.00042528
0.000455277
-0.000421154
0.000868575
-0.000413165
0.0012704
-0.000401689
0.00165771
-0.000387179
0.00202796
-0.000370105
-0.000350958
0.00237905
-0.000299915
-0.00131721
0.000616483
-0.00133682
0.00153535
-0.0013438
0.00244909
-0.00133871
0.00335051
-0.00132227
0.00423298
-0.00129533
0.00509052
-0.00125892
0.00591789
-0.00121423
0.0067106
-0.0011625
-0.00110503
0.00746498
0.00356002
-0.00251735
0.00476207
-0.00253865
0.00595732
-0.00253882
0.00713766
-0.00251882
0.00829557
-0.00247994
0.0094242
-0.00242372
0.0105175
-0.00235197
0.0115702
-0.00226666
0.0125778
-0.00216986
-0.00206367
0.0135367
0.00996233
-0.00386596
0.011297
-0.00387312
0.0126098
-0.00385148
0.0138937
-0.0038026
0.0151424
-0.00372844
0.0163502
-0.00363132
0.0175122
-0.00351382
0.0186245
-0.0033787
0.0196836
-0.00322881
-0.00306704
0.0206872
0.0183494
-0.00525071
0.0197008
-0.00522437
0.0210125
-0.00516313
0.0222794
-0.00506928
0.0234966
-0.00494558
0.0246606
-0.00479513
0.0257682
-0.00462131
0.0268172
-0.00442763
0.0278062
-0.00421769
-0.00399504
0.0287344
0.0280206
-0.00657061
0.0292875
-0.00649121
0.0304973
-0.00637291
0.0316469
-0.00621882
0.0327339
-0.00603251
0.0337567
-0.00581787
0.0347145
-0.005579
0.0356071
-0.00532014
0.036435
-0.00504547
-0.00475913
0.0371991
0.0381943
-0.00772051
0.0392749
-0.00757171
0.0402846
-0.00738259
0.0412228
-0.00715706
0.0420898
-0.00689944
0.0428862
-0.00661431
0.0436136
-0.00630639
0.0442739
-0.00598043
0.0448696
-0.00564109
-0.00529285
0.0454033
0.0480399
-0.00858932
0.0488297
-0.00836156
0.049542
-0.00809493
0.050179
-0.00779403
0.0507433
-0.00746375
0.0512381
-0.00710918
0.0516671
-0.00673542
0.0520342
-0.00634752
0.0523434
-0.00595033
-0.00554845
0.052599
0.0566864
-0.00907283
0.0570913
-0.00876644
0.0574218
-0.00842545
0.0576826
-0.00805492
0.0578788
-0.00766005
0.0580157
-0.00724614
0.0580987
-0.00681841
0.058133
-0.00638189
0.0581239
-0.00594133
-0.00550116
0.0580765
0.0632658
-0.00909567
0.0632219
-0.00872254
0.0631178
-0.0083214
0.0629602
-0.00789743
0.0627559
-0.00745585
0.0625116
-0.00700185
0.0622334
-0.00654039
0.0619277
-0.0060762
0.0615999
-0.00561363
-0.00515666
0.0612553
0.067017
-0.00863346
0.0665108
-0.00821639
0.0659686
-0.00777931
0.0653983
-0.0073272
0.0648074
-0.00686495
0.0642027
-0.00639726
0.0635908
-0.00592859
0.0629775
-0.00546302
0.0623681
-0.00500428
-0.00455565
0.0617669
0.0674289
-0.00772607
0.0665082
-0.00729571
0.0655825
-0.00685367
0.0646596
-0.00640436
0.0637466
-0.00595202
0.0628498
-0.0055006
0.0619749
-0.00505376
0.0611266
-0.00461477
0.0603087
-0.00418651
-0.00377148
0.0595244
0.0643666
-0.00647679
0.0631378
-0.00606685
0.0619367
-0.00565268
0.0607702
-0.00523787
0.0596439
-0.00482575
0.0585626
-0.00441935
0.0575302
-0.00402137
0.0565495
-0.00363418
0.0556227
-0.00325978
-0.00289984
0.054751
0.0581307
-0.00503739
0.0567426
-0.00467881
0.0554115
-0.00432158
0.0541419
-0.00396829
0.0529374
-0.00362129
0.0518007
-0.00328261
0.0507333
-0.00295405
0.0497362
-0.00263707
0.0488093
-0.0023329
-0.00204249
0.0479518
0.0494243
-0.00358145
0.0480423
-0.00329673
0.0467372
-0.00301645
0.0455111
-0.00274224
0.0443654
-0.00247551
0.0433002
-0.00221746
0.0423152
-0.00196906
0.0414092
-0.00173112
0.0405805
-0.00150422
-0.00128881
0.0398268
0.0392312
-0.00227135
0.0380049
-0.00207039
0.036863
-0.00187453
0.0358054
-0.00168461
0.0348312
-0.00150133
0.0339391
-0.00132527
0.0331269
-0.00115687
0.0323923
-0.000996442
0.0317322
-0.000844211
-0.000700313
0.0311437
0.0286282
-0.00122732
0.0276642
-0.00110625
0.0267789
-0.00098919
0.0259708
-0.000876477
0.0252379
-0.000768393
0.0245778
-0.000665119
0.0239877
-0.000566808
0.0234648
-0.000473526
0.0230059
-0.000385327
-0.000302197
0.0226078
0.0185884
-0.000508953
0.0179345
-0.00045229
0.0173432
-0.000397845
0.0168124
-0.00034572
0.0163401
-0.000295962
0.0159236
-0.00024862
0.0155605
-0.000203694
0.0152482
-0.000161196
0.014984
-0.000121097
-8.33818e-05
0.0147652
0.00983857
-0.000115143
0.00948631
-9.99809e-05
0.009174
-8.55011e-05
0.00890002
-7.17027e-05
0.00866267
-5.85909e-05
0.00846023
-4.61542e-05
0.00829094
-3.43905e-05
0.00815305
-2.3283e-05
0.00804479
-1.28269e-05
-3.0054e-06
0.00796442
0.00281978
0.0027198
0.00263431
0.00256261
0.00250402
0.00245787
0.00242348
0.0024002
0.00238738
0.00238437
0.00270941
-0.000330226
0.00301793
-0.000308383
0.00330394
-0.000285875
0.00356718
-0.00026311
0.00380776
-0.000240453
0.0040261
-0.00021822
0.00422289
-0.000196677
0.00439903
-0.000176039
0.00455561
-0.000156476
0.00469381
-0.000138109
0.00481492
-0.000121022
0.00492025
-0.000105259
0.00501116
-9.08371e-05
0.00508896
-7.77425e-05
0.00515496
-6.59435e-05
0.0052104
-5.5389e-05
0.00525645
-4.6017e-05
0.00529423
-3.77546e-05
0.00532478
-3.05247e-05
0.00534905
-2.42453e-05
0.00536789
-1.88348e-05
0.00538211
-1.42108e-05
0.0053924
-1.02945e-05
0.00539941
-7.00874e-06
0.00540368
-4.28156e-06
0.00540572
-2.04366e-06
0.00540594
-2.32072e-07
0.00540472
1.2081e-06
0.00540237
2.32737e-06
0.00539918
3.17687e-06
0.00539537
3.80234e-06
0.00539111
4.24551e-06
0.00538655
4.54346e-06
0.00538181
4.72984e-06
4.83486e-06
0.00537696
0.00817815
-0.00104309
0.00884801
-0.000977938
0.00947318
-0.000910755
0.010053
-0.000842641
0.0105874
-0.000774587
0.0110769
-0.000707471
0.0115225
-0.000642048
0.0119257
-0.00057895
0.0122881
-0.000518684
0.0126118
-0.000461644
0.0128991
-0.000408114
0.0131523
-0.000358282
0.0133739
-0.000312245
0.0135663
-0.000270026
0.013732
-0.000231584
0.0138736
-0.000196824
0.0139932
-0.000165607
0.0140933
-0.000137764
0.0141759
-0.000113099
0.0142431
-9.1402e-05
0.0142968
-7.24506e-05
0.0143386
-5.60209e-05
0.0143702
-4.18877e-05
0.014393
-2.98312e-05
0.0144084
-1.96379e-05
0.0144174
-1.11045e-05
0.0144212
-4.03862e-06
0.0144206
1.73788e-06
0.0144165
6.39134e-06
0.0144096
1.00781e-05
0.0144004
1.29442e-05
0.0143895
1.51239e-05
0.0143773
1.67403e-05
0.0143641
1.79058e-05
1.87225e-05
0.0143502
0.014444
-0.00195019
0.0152978
-0.00183147
0.0160967
-0.00170942
0.0168401
-0.00158585
0.0175281
-0.00146237
0.0181613
-0.00134045
0.0187408
-0.00122133
0.0192681
-0.00110609
0.0197452
-0.000995601
0.0201743
-0.000890557
0.0205578
-0.000791477
0.0208984
-0.000698722
0.0211988
-0.000612512
0.0214618
-0.000532937
0.0216903
-0.000459979
0.0218871
-0.000393526
0.022055
-0.000333388
0.0221966
-0.000279317
0.0223145
-0.000231014
0.0224113
-0.000188145
0.0224892
-0.000150354
0.0225505
-0.00011727
0.0225971
-8.85155e-05
0.022631
-6.37144e-05
0.0226539
-4.24974e-05
0.0226673
-2.45065e-05
0.0226726
-9.40043e-06
0.0226712
3.14361e-06
0.0226641
1.34322e-05
0.0226524
2.17566e-05
0.022637
2.83903e-05
0.0226185
3.35871e-05
0.0225976
3.75821e-05
0.0225749
4.05917e-05
4.28151e-05
0.0225508
0.0216334
-0.00289621
0.0225211
-0.00271904
0.02335
-0.00253811
0.0241201
-0.00235578
0.0248321
-0.0021742
0.0254871
-0.00199528
0.0260866
-0.00182067
0.0266324
-0.00165178
0.0271267
-0.00148976
0.0275718
-0.00133552
0.0279702
-0.00118977
0.0283246
-0.00105298
0.0286377
-0.000925457
0.0289122
-0.000807338
0.0291509
-0.000698613
0.0293566
-0.000599148
0.0295319
-0.000508706
0.0296796
-0.000426969
0.0298022
-0.000353547
0.0299021
-0.000288002
0.0299816
-0.00022986
0.030043
-0.000178623
0.0300883
-0.000133777
0.0301194
-9.481e-05
0.0301381
-6.121e-05
0.030146
-3.24795e-05
0.0301448
-8.14128e-06
0.0301356
1.2266e-05
0.0301198
2.9189e-05
0.0300985
4.30519e-05
0.0300727
5.42541e-05
0.0300431
6.31691e-05
0.0300105
7.01456e-05
0.0299755
7.55073e-05
7.95542e-05
0.0299388
0.0296014
-0.00376313
0.0304078
-0.00352525
0.0311542
-0.00328445
0.0318421
-0.00304355
0.0324731
-0.00280504
0.0330491
-0.00257114
0.0335723
-0.00234374
0.034045
-0.00212443
0.0344699
-0.0019145
0.0348494
-0.00171497
0.0351863
-0.00152658
0.0354833
-0.00134984
0.0357429
-0.00118505
0.035968
-0.00103231
0.036161
-0.000891573
0.0363245
-0.000762631
0.036461
-0.00064517
0.0365729
-0.000538779
0.0366623
-0.000442971
0.0367315
-0.000357199
0.0367826
-0.000280878
0.0368173
-0.000213393
0.0368377
-0.000154114
0.0368453
-0.000102409
0.0368417
-5.76498e-05
0.0368285
-1.92266e-05
0.0368068
1.34563e-05
0.0367781
4.0988e-05
0.0367434
6.39329e-05
0.0367036
8.2825e-05
0.0366596
9.81694e-05
0.0366123
0.000110442
0.0365624
0.000120088
0.0365104
0.000127525
0.000133142
0.0364568
0.0379011
-0.00446503
0.0385428
-0.00416687
0.0391265
-0.00386803
0.0396546
-0.00357158
0.0401298
-0.00328022
0.0405551
-0.0029963
0.0409332
-0.00272177
0.0412671
-0.00245828
0.0415597
-0.0022071
0.041814
-0.00196921
0.0420328
-0.00174529
0.0422188
-0.00153576
0.0423746
-0.00134082
0.0425028
-0.00116047
0.0426057
-0.00099452
0.0426858
-0.000842651
0.0427451
-0.000704423
0.0427856
-0.000579295
0.0428093
-0.000466657
0.042818
-0.00036584
0.0428132
-0.000276139
0.0427966
-0.000196824
0.0427697
-0.000127156
0.0427337
-6.6398e-05
0.0426898
-1.38321e-05
0.0426393
3.12627e-05
0.0425832
6.96009e-05
0.0425223
0.000101863
0.0424575
0.000128699
0.0423896
0.000150725
0.0423192
0.000168529
0.042247
0.000182663
0.0421734
0.00019365
0.042099
0.000201977
0.000208103
0.042024
0.0458782
-0.00493991
0.0462976
-0.00458618
0.0466647
-0.00423517
0.0469832
-0.00389001
0.0472564
-0.00355342
0.0474878
-0.0032277
0.0476808
-0.00291474
0.0478386
-0.00261607
0.0479643
-0.00233284
0.048061
-0.00206585
0.0481313
-0.00181564
0.048178
-0.00158246
0.0482035
-0.00136633
0.0482101
-0.00116706
0.0481999
-0.000984306
0.0481748
-0.000817584
0.0481367
-0.000666292
0.0480871
-0.00052974
0.0480277
-0.000407176
0.0479596
-0.000297801
0.0478842
-0.000200785
0.0478027
-0.000115291
0.047716
-4.04853e-05
0.0476251
2.44635e-05
0.0475309
8.03987e-05
0.047434
0.000128136
0.0473351
0.000168452
0.0472349
0.000202095
0.0471338
0.000229779
0.0470323
0.000252185
0.0469309
0.000269958
0.0468298
0.000283706
0.0467295
0.000294005
0.04663
0.000301392
0.000306372
0.0465318
0.0528051
-0.00514612
0.0529661
-0.00474719
0.053086
-0.00435511
0.0531688
-0.00397285
0.0532183
-0.00360296
0.0532381
-0.00324754
0.0532316
-0.00290825
0.0532019
-0.00258638
0.0531519
-0.00228285
0.0530842
-0.00199823
0.0530014
-0.00173282
0.0529055
-0.00148665
0.0527987
-0.00125952
0.0526827
-0.00105106
0.0525591
-0.000860721
0.0524293
-0.000687852
0.0522947
-0.000531692
0.0521563
-0.000391404
0.0520152
-0.000266106
0.0518723
-0.000154877
0.0517283
-5.67976e-05
0.0515839
2.90664e-05
0.0514397
0.000103665
0.0512962
0.000167931
0.0511538
0.000222755
0.051013
0.000269002
0.0508739
0.000307504
0.0507369
0.000339059
0.0506022
0.000364425
0.0504701
0.000384326
0.0503406
0.000399443
0.0502139
0.000410422
0.05009
0.000417868
0.049969
0.000422348
0.000424396
0.049851
0.0579957
-0.00506539
0.0578861
-0.00463759
0.0577517
-0.00422087
0.0575967
-0.00381788
0.0574245
-0.00343081
0.0572382
-0.00306141
0.0570409
-0.00271101
0.056835
-0.00238056
0.0566228
-0.00207068
0.0564061
-0.00178166
0.0561868
-0.00151353
0.0559662
-0.00126608
0.0557455
-0.00103891
0.0555258
-0.000831451
0.0553081
-0.000642992
0.0550929
-0.000472729
0.0548809
-0.00031977
0.0546726
-0.000183171
0.0544685
-6.19569e-05
0.0542687
4.48687e-05
0.0540735
0.000138325
0.0538831
0.000219421
0.0536976
0.000289134
0.0535171
0.000348423
0.0533416
0.000398219
0.0531712
0.000439417
0.0530058
0.000472877
0.0528454
0.00049942
0.05269
0.000519825
0.0525395
0.000534832
0.0523938
0.000545138
0.0522528
0.0005514
0.0521164
0.000554235
0.0519845
0.000554222
0.000551902
0.051857
0.0608986
-0.00470881
0.060534
-0.00427315
0.0601654
-0.00385228
0.0597957
-0.00344835
0.0594279
-0.00306308
0.0590641
-0.00269776
0.0587063
-0.00235332
0.058356
-0.00203034
0.0580143
-0.0017291
0.0576822
-0.0014496
0.0573602
-0.00119163
0.0570488
-0.000954763
0.0567482
-0.000738415
0.0564586
-0.000541866
0.0561798
-0.000364294
0.0559118
-0.000204787