/*--------------------------------*- C++ -*----------------------------------*\
| =========                 |                                                 |
| \\      /  F ield         | OpenFOAM: The Open Source CFD Toolbox           |
|  \\    /   O peration     | Version:  2406                                  |
|   \\  /    A nd           | Website:  www.openfoam.com                      |
|    \\/     M anipulation  |                                                 |
\*---------------------------------------------------------------------------*/
FoamFile
{
    version     2.0;
    format      ascii;
    arch        "LSB;label=32;scalar=64";
    class       volScalarField;
    location    "88";
    object      p;
}
// * * * * * * * * * * * * * * * * * * * * * * * * * * * * * * * * * * * * * //

dimensions      [0 2 -2 0 0 0 0];

internalField   nonuniform List<scalar> 
1900
(
-0.271686
-0.281055
-0.293492
-0.307092
-0.322244
-0.339296
-0.358251
-0.37926
-0.402423
-0.428285
-0.263498
-0.277398
-0.292486
-0.306547
-0.321572
-0.338484
-0.357083
-0.377149
-0.398415
-0.419559
-0.254845
-0.272465
-0.289995
-0.304135
-0.318379
-0.334382
-0.351619
-0.369224
-0.386118
-0.400118
-0.245374
-0.264507
-0.283409
-0.297627
-0.311089
-0.325923
-0.341476
-0.356601
-0.370308
-0.381315
-0.235511
-0.255187
-0.274654
-0.288767
-0.301457
-0.315104
-0.329102
-0.34232
-0.354041
-0.363595
-0.226681
-0.246379
-0.26561
-0.279214
-0.291161
-0.303829
-0.316636
-0.328554
-0.339105
-0.347983
-0.220457
-0.239631
-0.257888
-0.270701
-0.28206
-0.294065
-0.306086
-0.317242
-0.327228
-0.335923
-0.218113
-0.235747
-0.252384
-0.264531
-0.275662
-0.287312
-0.298874
-0.309668
-0.319482
-0.328248
-0.22054
-0.234535
-0.248797
-0.260746
-0.272231
-0.283951
-0.295442
-0.306244
-0.316176
-0.325146
-0.227011
-0.236663
-0.248472
-0.260079
-0.271702
-0.283429
-0.294908
-0.30579
-0.315868
-0.325011
-0.391184
-0.391606
-0.391953
-0.392045
-0.391895
-0.391527
-0.390947
-0.390149
-0.389123
-0.387856
-0.386334
-0.384549
-0.382488
-0.380144
-0.377507
-0.37457
-0.371324
-0.367762
-0.363876
-0.359658
-0.355098
-0.350188
-0.344919
-0.339281
-0.333265
-0.32686
-0.320058
-0.312851
-0.30523
-0.29719
-0.288728
-0.279842
-0.270534
-0.260811
-0.250684
-0.39071
-0.391149
-0.39145
-0.39149
-0.391319
-0.390958
-0.390399
-0.389629
-0.388631
-0.387391
-0.385898
-0.384138
-0.382102
-0.379782
-0.377168
-0.374254
-0.371031
-0.367492
-0.36363
-0.359435
-0.3549
-0.350016
-0.344774
-0.339166
-0.333181
-0.32681
-0.320045
-0.312878
-0.3053
-0.297306
-0.288893
-0.28006
-0.270807
-0.261141
-0.251072
-0.3904
-0.390918
-0.391219
-0.391224
-0.391044
-0.390698
-0.390167
-0.389429
-0.388465
-0.387258
-0.385795
-0.384064
-0.382055
-0.379761
-0.377173
-0.374284
-0.371087
-0.367574
-0.363738
-0.359572
-0.355067
-0.350215
-0.345008
-0.339437
-0.333492
-0.327165
-0.320446
-0.313327
-0.305801
-0.297862
-0.289505
-0.280729
-0.271532
-0.261922
-0.251908
-0.390729
-0.391316
-0.39163
-0.391618
-0.391436
-0.391102
-0.390589
-0.38987
-0.388923
-0.387731
-0.386281
-0.384563
-0.382566
-0.380283
-0.377707
-0.374832
-0.371649
-0.368152
-0.364335
-0.36019
-0.35571
-0.350886
-0.34571
-0.340173
-0.334265
-0.327978
-0.321303
-0.314229
-0.306749
-0.298856
-0.290544
-0.281811
-0.272657
-0.263088
-0.25311
-0.39208
-0.392634
-0.39288
-0.392799
-0.392573
-0.392207
-0.391665
-0.390918
-0.389944
-0.388727
-0.387254
-0.385514
-0.3835
-0.381202
-0.378615
-0.375731
-0.372544
-0.369047
-0.365234
-0.361097
-0.356629
-0.35182
-0.346663
-0.341149
-0.335266
-0.329006
-0.322357
-0.315311
-0.307859
-0.299994
-0.291709
-0.283002
-0.273871
-0.264321
-0.254363
-0.394828
-0.395106
-0.395059
-0.394746
-0.394351
-0.393849
-0.393191
-0.392343
-0.391281
-0.389987
-0.388447
-0.38665
-0.384585
-0.382246
-0.379623
-0.37671
-0.373499
-0.369984
-0.366157
-0.362012
-0.357538
-0.352728
-0.347573
-0.342062
-0.336186
-0.329936
-0.323299
-0.316265
-0.308825
-0.300971
-0.292697
-0.284
-0.274878
-0.265335
-0.255381
-0.399376
-0.398858
-0.398022
-0.397147
-0.396369
-0.395587
-0.394712
-0.393692
-0.392491
-0.391084
-0.389451
-0.387577
-0.385449
-0.383059
-0.380395
-0.377449
-0.374211
-0.370674
-0.36683
-0.362671
-0.358188
-0.35337
-0.348207
-0.342688
-0.336803
-0.33054
-0.323889
-0.316839
-0.309382
-0.30151
-0.293216
-0.284498
-0.275357
-0.265798
-0.255832
-0.40685
-0.403945
-0.401194
-0.399267
-0.397893
-0.396738
-0.395619
-0.394435
-0.393118
-0.391626
-0.389928
-0.388003
-0.385831
-0.383402
-0.380707
-0.377734
-0.374473
-0.370914
-0.367046
-0.362861
-0.358348
-0.353498
-0.3483
-0.342743
-0.336817
-0.33051
-0.323812
-0.316714
-0.309206
-0.301282
-0.29294
-0.284178
-0.275
-0.265415
-0.255439
-0.422332
-0.410715
-0.403393
-0.400121
-0.398221
-0.396727
-0.395436
-0.394186
-0.39284
-0.391333
-0.389628
-0.387697
-0.385522
-0.383087
-0.380376
-0.37738
-0.374088
-0.370491
-0.366579
-0.362344
-0.357775
-0.352861
-0.347593
-0.341959
-0.335951
-0.329558
-0.32277
-0.315582
-0.307985
-0.299978
-0.291561
-0.282738
-0.273517
-0.263913
-0.253947
-0.449697
-0.418315
-0.403313
-0.399316
-0.397381
-0.395607
-0.394194
-0.392998
-0.391734
-0.390274
-0.38859
-0.386666
-0.384483
-0.382024
-0.379277
-0.376232
-0.37288
-0.36921
-0.365215
-0.360884
-0.356208
-0.351178
-0.345785
-0.340019
-0.333874
-0.327342
-0.320418
-0.313099
-0.305382
-0.29727
-0.288769
-0.279889
-0.270646
-0.261059
-0.251157
-0.440007
-0.416371
-0.401121
-0.397548
-0.396167
-0.394293
-0.392636
-0.391344
-0.390057
-0.388563
-0.386829
-0.38485
-0.382602
-0.380065
-0.377225
-0.374073
-0.370597
-0.36679
-0.362644
-0.358151
-0.353304
-0.348093
-0.342515
-0.336562
-0.330232
-0.323523
-0.316434
-0.308967
-0.301128
-0.292924
-0.284367
-0.275476
-0.266271
-0.256782
-0.247039
-0.426382
-0.412473
-0.39988
-0.395532
-0.393929
-0.392065
-0.390243
-0.388775
-0.387385
-0.385811
-0.383982
-0.381893
-0.379525
-0.376854
-0.373864
-0.370544
-0.366887
-0.362886
-0.358535
-0.353831
-0.348767
-0.34334
-0.337547
-0.331388
-0.324865
-0.317982
-0.310746
-0.303165
-0.295249
-0.287014
-0.278479
-0.269666
-0.260604
-0.251326
-0.241866
-0.40585
-0.4014
-0.394596
-0.391047
-0.389503
-0.38797
-0.386293
-0.38476
-0.383275
-0.381621
-0.3797
-0.377498
-0.375
-0.372182
-0.369027
-0.365525
-0.361672
-0.357465
-0.352905
-0.347988
-0.342714
-0.337084
-0.3311
-0.324768
-0.318097
-0.311096
-0.30378
-0.296161
-0.288258
-0.28009
-0.271682
-0.263061
-0.254259
-0.245309
-0.236249
-0.38758
-0.388043
-0.385452
-0.383373
-0.382355
-0.381442
-0.380283
-0.379012
-0.377643
-0.376052
-0.374153
-0.371925
-0.36936
-0.366442
-0.363159
-0.359508
-0.355493
-0.351116
-0.346383
-0.341296
-0.33586
-0.330081
-0.323968
-0.317534
-0.310793
-0.30376
-0.296454
-0.288893
-0.281101
-0.2731
-0.264918
-0.256584
-0.248129
-0.239588
-0.230995
-0.370081
-0.373025
-0.373546
-0.37351
-0.373646
-0.37364
-0.373231
-0.372464
-0.371399
-0.370001
-0.368225
-0.366056
-0.363492
-0.360533
-0.357178
-0.353436
-0.349316
-0.344829
-0.339986
-0.334795
-0.329268
-0.323416
-0.317255
-0.310801
-0.304074
-0.297093
-0.289881
-0.282459
-0.274852
-0.267084
-0.259185
-0.251181
-0.243104
-0.234984
-0.22685
-0.354802
-0.359373
-0.362142
-0.363954
-0.365311
-0.366209
-0.366544
-0.366343
-0.36567
-0.364541
-0.36295
-0.360896
-0.358391
-0.355448
-0.352083
-0.348313
-0.344156
-0.339628
-0.334744
-0.329521
-0.323975
-0.318124
-0.311986
-0.305582
-0.298935
-0.292065
-0.284996
-0.277752
-0.270356
-0.262835
-0.255214
-0.247519
-0.239779
-0.232019
-0.224266
-0.343154
-0.348819
-0.353071
-0.356261
-0.358669
-0.360376
-0.361378
-0.361711
-0.361433
-0.360586
-0.359192
-0.357275
-0.354859
-0.351974
-0.348645
-0.344897
-0.340754
-0.336238
-0.331369
-0.326168
-0.320656
-0.314853
-0.308782
-0.302463
-0.29592
-0.289174
-0.28225
-0.27517
-0.267957
-0.260637
-0.253233
-0.245769
-0.23827
-0.23076
-0.22326
-0.335858
-0.342234
-0.34741
-0.351513
-0.354677
-0.356981
-0.358468
-0.35919
-0.359209
-0.358577
-0.357341
-0.355539
-0.353211
-0.350392
-0.347116
-0.343412
-0.339309
-0.334831
-0.330002
-0.324847
-0.319387
-0.313644
-0.307642
-0.301401
-0.294945
-0.288295
-0.281474
-0.274505
-0.267409
-0.260212
-0.252934
-0.245599
-0.238229
-0.230846
-0.223471
-0.333062
-0.33986
-0.345529
-0.350113
-0.353679
-0.356298
-0.358035
-0.358957
-0.359129
-0.358613
-0.357463
-0.355729
-0.353454
-0.350679
-0.34744
-0.343769
-0.339696
-0.335247
-0.330447
-0.325322
-0.319894
-0.314185
-0.308219
-0.302015
-0.295598
-0.288988
-0.282207
-0.275278
-0.268222
-0.261063
-0.253822
-0.246521
-0.239182
-0.231826
-0.224473
-0.333123
-0.340135
-0.346022
-0.350802
-0.354527
-0.357266
-0.359093
-0.360079
-0.360294
-0.359805
-0.358671
-0.356946
-0.354675
-0.351901
-0.348662
-0.344989
-0.340914
-0.336463
-0.331663
-0.326537
-0.321109
-0.3154
-0.309433
-0.30323
-0.296811
-0.290198
-0.283414
-0.27648
-0.269418
-0.26225
-0.254998
-0.247684
-0.240329
-0.232953
-0.225579
-0.240168
-0.229285
-0.218065
-0.206542
-0.194758
-0.182764
-0.170616
-0.158376
-0.146114
-0.1339
-0.240615
-0.229792
-0.21863
-0.207164
-0.195436
-0.183494
-0.171394
-0.159198
-0.146973
-0.134792
-0.241504
-0.230731
-0.219615
-0.208191
-0.196498
-0.184586
-0.172509
-0.160329
-0.148114
-0.135938
-0.242739
-0.231992
-0.220898
-0.209488
-0.197804
-0.185893
-0.173813
-0.161626
-0.149403
-0.137216
-0.244008
-0.233275
-0.222191
-0.21079
-0.199113
-0.187209
-0.175136
-0.162958
-0.150746
-0.138575
-0.245028
-0.234299
-0.223222
-0.211831
-0.200172
-0.188295
-0.17626
-0.164134
-0.151988
-0.1399
-0.245477
-0.234755
-0.223698
-0.212345
-0.200743
-0.188946
-0.177017
-0.165023
-0.153039
-0.141141
-0.245092
-0.234402
-0.223405
-0.212144
-0.20067
-0.18904
-0.177318
-0.165575
-0.153883
-0.142316
-0.243645
-0.23304
-0.222174
-0.211092
-0.199851
-0.188508
-0.17713
-0.165783
-0.154538
-0.143465
-0.240972
-0.230542
-0.219912
-0.209133
-0.19826
-0.187352
-0.176471
-0.165681
-0.155045
-0.144625
-0.237081
-0.226949
-0.216691
-0.206357
-0.195999
-0.185675
-0.175439
-0.165348
-0.155456
-0.145812
-0.232265
-0.222566
-0.212813
-0.203055
-0.193339
-0.183713
-0.174225
-0.16492
-0.15584
-0.147023
-0.227117
-0.217953
-0.208799
-0.199694
-0.190681
-0.181797
-0.17308
-0.164562
-0.156275
-0.148243
-0.222384
-0.213791
-0.205251
-0.196796
-0.188459
-0.180268
-0.172251
-0.16443
-0.156825
-0.149453
-0.218734
-0.210664
-0.202668
-0.194771
-0.186998
-0.17937
-0.171905
-0.164619
-0.157525
-0.150632
-0.216545
-0.208878
-0.201289
-0.193798
-0.186423
-0.17918
-0.172083
-0.165143
-0.158369
-0.151767
-0.215793
-0.208378
-0.201035
-0.19378
-0.186629
-0.179596
-0.172691
-0.165926
-0.159307
-0.152839
-0.216123
-0.208821
-0.201583
-0.194425
-0.18736
-0.180402
-0.173562
-0.166849
-0.160271
-0.153835
-0.217143
-0.209854
-0.202622
-0.195465
-0.188396
-0.181429
-0.174573
-0.167841
-0.161238
-0.154773
-0.218223
-0.210907
-0.203645
-0.196455
-0.189351
-0.182346
-0.175452
-0.168679
-0.162035
-0.155528
-0.121811
-0.109923
-0.0983127
-0.0870537
-0.0762162
-0.0658643
-0.0560554
-0.0468379
-0.0382504
-0.030322
-0.0230713
-0.0165039
-0.0106184
-0.00540606
-0.000847066
0.00308525
0.00642354
0.00920527
0.0114714
0.0132653
0.0146313
0.0156139
0.0162569
0.0166025
0.0166907
0.0165589
0.0162416
0.0157701
0.0151725
0.0144736
0.013695
0.0128555
0.0119706
0.0110533
0.0101143
-0.122729
-0.110861
-0.0992653
-0.0880156
-0.0771824
-0.0668306
-0.0570183
-0.0477932
-0.0391937
-0.0312506
-0.023983
-0.0173987
-0.0114958
-0.00626312
-0.00168128
0.00227634
0.00564237
0.00845415
0.0107525
0.0125805
0.0139823
0.0150022
0.0156835
0.016068
0.0161955
0.0161029
0.0158243
0.0153909
0.0148302
0.0141669
0.0134224
0.012615
0.0117602
0.0108711
0.00995799
-0.123875
-0.112002
-0.100398
-0.0891373
-0.0782914
-0.0679268
-0.0581008
-0.048862
-0.0402495
-0.032293
-0.0250109
-0.0184115
-0.0124924
-0.00724267
-0.00264251
0.00133496
0.00472266
0.00755822
0.00988265
0.0117392
0.0131719
0.0142251
0.0149419
0.0153641
0.0155308
0.0154789
0.0152421
0.0148509
0.0143328
0.0137119
0.0130092
0.0122428
0.0114279
0.0105771
0.00970076
-0.125141
-0.113258
-0.101645
-0.0903768
-0.0795265
-0.0691597
-0.0593346
-0.0501
-0.041495
-0.0335483
-0.0262775
-0.0196898
-0.0137821
-0.00854187
-0.00394856
2.57934e-05
0.00341496
0.00625728
0.00859427
0.0104694
0.011927
0.0130111
0.0137647
0.0142291
0.0144431
0.0144427
0.0142611
0.0139282
0.0134705
0.0129115
0.0122717
0.0115684
0.0108162
0.0100274
0.00921161
-0.126523
-0.114669
-0.103094
-0.0918718
-0.0810756
-0.0707702
-0.0610123
-0.0518495
-0.0433187
-0.0354465
-0.0282482
-0.0217286
-0.0158824
-0.0106952
-0.00614449
-0.00220089
0.00117047
0.00400857
0.00635525
0.0082539
0.00974843
0.0108822
0.0116973
0.0122337
0.0125291
0.0126183
0.0125327
0.0123011
0.0119486
0.0114974
0.0109668
0.0103729
0.00972953
0.00904796
0.00833729
-0.127948
-0.116211
-0.104767
-0.0936926
-0.0830556
-0.0729186
-0.0633351
-0.0543487
-0.0459925
-0.0382887
-0.0312488
-0.0248737
-0.0191547
-0.0140746
-0.0096086
-0.00572564
-0.00238994
0.000437812
0.00279912
0.00473654
0.00629262
0.00750904
0.00842581
0.0090808
0.00950923
0.00974347
0.00981279
0.00974341
0.00955841
0.00927795
0.00891934
0.00849727
0.008024
0.00750961
0.0069622
-0.129406
-0.117913
-0.106736
-0.0959458
-0.0856077
-0.0757777
-0.0665032
-0.0578216
-0.0497594
-0.0423327
-0.0355473
-0.029399
-0.023875
-0.0189547
-0.0146108
-0.0108111
-0.00751933
-0.00469681
-0.00230332
-0.000298381
0.00135796
0.0027043
0.00377735
0.00461142
0.00523816
0.00568634
0.00598182
0.0061475
0.00620346
0.00616705
0.0060531
0.00587411
0.00564048
0.00536068
0.00504157
-0.130949
-0.119855
-0.109103
-0.0987579
-0.0888745
-0.0795013
-0.0706765
-0.0624289
-0.0547765
-0.0477279
-0.0412817
-0.0354285
-0.0301508
-0.0254249
-0.0212221
-0.0175095
-0.0142518
-0.0114121
-0.00895286
-0.00683721
-0.00502927
-0.00349489
-0.00220209
-0.00112134
-0.000225753
0.000508862
0.00110396
0.00157839
0.00194848
0.00222823
0.00242948
0.00256216
0.00263445
0.00265306
0.0026234
-0.132632
-0.122104
-0.11194
-0.102194
-0.0929115
-0.0841286
-0.0758732
-0.0681633
-0.0610078
-0.0544068
-0.0483524
-0.0428297
-0.037818
-0.0332916
-0.0292213
-0.0255755
-0.0223211
-0.0194247
-0.0168533
-0.0145748
-0.0125589
-0.0107771
-0.00920309
-0.00781322
-0.00658606
-0.00550272
-0.0045466
-0.0037034
-0.00296082
-0.00230849
-0.00173773
-0.00124133
-0.000813368
-0.000448952
-0.000143824
-0.13448
-0.124663
-0.115221
-0.106196
-0.097619
-0.089515
-0.0818998
-0.0747811
-0.0681588
-0.0620256
-0.0563685
-0.0511688
-0.046404
-0.0420485
-0.0380746
-0.0344537
-0.0311569
-0.0281555
-0.0254224
-0.0229316
-0.020659
-0.0185825
-0.0166823
-0.0149406
-0.0133417
-0.0118722
-0.0105202
-0.00927599
-0.00813112
-0.00707868
-0.006113
-0.00522936
-0.00442381
-0.00369306
-0.00303444
-0.136463
-0.127449
-0.118803
-0.110554
-0.102721
-0.0953157
-0.088344
-0.0818048
-0.0756911
-0.0699906
-0.0646871
-0.0597609
-0.0551901
-0.0509511
-0.0470198
-0.0433721
-0.0399845
-0.0368345
-0.0339011
-0.0311649
-0.0286084
-0.0262157
-0.0239731
-0.0218686
-0.0198917
-0.0180337
-0.0162872
-0.0146462
-0.0131058
-0.0116618
-0.0103112
-0.00905179
-0.00788148
-0.00679808
-0.00579969
-0.1385
-0.1303
-0.122443
-0.114944
-0.107812
-0.101049
-0.0946542
-0.0886198
-0.0829351
-0.0775859
-0.0725555
-0.0678257
-0.0633773
-0.0591906
-0.0552463
-0.0515259
-0.0480117
-0.0446873
-0.0415381
-0.0385506
-0.0357131
-0.0330155
-0.0304491
-0.0280065
-0.0256817
-0.0234697
-0.0213665
-0.0193692
-0.0174752
-0.0156835
-0.0139935
-0.0124034
-0.0109116
-0.00951702
-0.00821882
-0.140487
-0.133023
-0.12586
-0.119006
-0.112462
-0.106223
-0.100285
-0.0946372
-0.0892682
-0.0841647
-0.079312
-0.074695
-0.0702986
-0.066108
-0.062109
-0.0582884
-0.054634
-0.0511351
-0.0477819
-0.044566
-0.0414805
-0.0385193
-0.0356776
-0.0329515
-0.0303378
-0.0278344
-0.0254395
-0.0231528
-0.0209749
-0.0189051
-0.0169418
-0.0150844
-0.0133331
-0.0116878
-0.0101483
-0.142324
-0.135446
-0.128823
-0.122456
-0.116343
-0.110477
-0.104852
-0.0994585
-0.0942864
-0.0893246
-0.0845621
-0.0799876
-0.0755901
-0.0713592
-0.0672855
-0.0633602
-0.0595754
-0.0559244
-0.0524013
-0.0490012
-0.0457202
-0.0425551
-0.0395035
-0.0365635
-0.033734
-0.0310146
-0.0284066
-0.0259102
-0.0235245
-0.0212491
-0.0190844
-0.0170312
-0.0150901
-0.0132614
-0.0115453
-0.143947
-0.137472
-0.13121
-0.125158
-0.119314
-0.113672
-0.108225
-0.102968
-0.0978922
-0.0929898
-0.0882527
-0.0836735
-0.0792444
-0.0749589
-0.0708104
-0.0667935
-0.062903
-0.0591351
-0.055486
-0.0519531
-0.048534
-0.0452272
-0.0420315
-0.0389466
-0.0359729
-0.0331116
-0.0303623
-0.0277246
-0.025199
-0.0227867
-0.0204887
-0.018306
-0.0162393
-0.0142891
-0.0124556
-0.145342
-0.139097
-0.133031
-0.127143
-0.121431
-0.115892
-0.110521
-0.105313
-0.100263
-0.0953658
-0.0906154
-0.0860068
-0.081535
-0.0771951
-0.072983
-0.0688949
-0.0649273
-0.0610776
-0.0573434
-0.0537229
-0.0502149
-0.0468183
-0.0435332
-0.0403602
-0.0372992
-0.03435
-0.0315129
-0.028789
-0.0261793
-0.0236851
-0.0213074
-0.0190471
-0.0169049
-0.0148816
-0.0129774
-0.146529
-0.140377
-0.134386
-0.128554
-0.122881
-0.117365
-0.112002
-0.106791
-0.101726
-0.0968045
-0.0920224
-0.0873755
-0.0828603
-0.0784729
-0.0742104
-0.0700696
-0.0660481
-0.0621434
-0.0583542
-0.0546785
-0.0511161
-0.0476662
-0.0443289
-0.0411036
-0.0379907
-0.0349905
-0.0321041
-0.0293322
-0.0266762
-0.0241367
-0.0217152
-0.0194122
-0.0172288
-0.0151654
-0.0132227
-0.147544
-0.141402
-0.135411
-0.129572
-0.123885
-0.118348
-0.112959
-0.107717
-0.102618
-0.0976604
-0.0928395
-0.0881528
-0.0835968
-0.0791687
-0.0748653
-0.0706843
-0.0666231
-0.06268
-0.0588531
-0.0551415
-0.0515441
-0.0480605
-0.0446901
-0.0414331
-0.0382896
-0.0352605
-0.0323462
-0.0295479
-0.0268663
-0.0243027
-0.0218577
-0.0195325
-0.0173276
-0.0152439
-0.0132815
-0.14845
-0.142273
-0.136244
-0.130365
-0.124637
-0.119057
-0.113626
-0.108341
-0.103199
-0.0981992
-0.0933369
-0.0886097
-0.0840146
-0.0795484
-0.0752086
-0.0709925
-0.0668979
-0.0629229
-0.0590658
-0.0553253
-0.0517005
-0.0481907
-0.0447957
-0.0415154
-0.0383502
-0.0353006
-0.0323673
-0.029551
-0.0268527
-0.0242733
-0.0218138
-0.019475
-0.0172576
-0.0151621
-0.0131891
-0.149161
-0.142941
-0.136869
-0.130947
-0.125176
-0.119555
-0.114083
-0.108758
-0.103578
-0.0985403
-0.0936421
-0.0888804
-0.0842522
-0.0797544
-0.0753844
-0.0711396
-0.0670176
-0.0630166
-0.0591348
-0.0553709
-0.051724
-0.0481934
-0.0447788
-0.0414802
-0.0382978
-0.0352321
-0.0322838
-0.0294536
-0.0267425
-0.0241513
-0.021681
-0.0193323
-0.017106
-0.0150027
-0.0130227
0.00916177
0.00820205
0.00723956
0.00627719
0.0053164
0.00435748
0.0033996
0.00244158
0.00148079
0.000503877
0.00902921
0.00809098
0.00714777
0.00620249
0.00525669
0.00431058
0.00336388
0.00241553
0.0014668
0.000478416
0.00880687
0.00790155
0.00698917
0.00607257
0.00515326
0.00423144
0.00330694
0.00237637
0.00145123
0.000445266
0.00837668
0.00752835
0.00667075
0.00580654
0.00493718
0.00406243
0.00318282
0.00228978
0.00141217
0.000378244
0.00760463
0.00685536
0.00609326
0.00532078
0.00453942
0.00374826
0.0029501
0.00212693
0.00133981
0.000256637
0.00638811
0.00579211
0.00517766
0.00454703
0.00390187
0.00324108
0.00257026
0.00186048
0.00121977
7.57617e-05
0.00468852
0.00430565
0.00389613
0.00346217
0.00300617
0.00252628
0.00203318
0.00148364
0.00104257
-0.000138653
0.00254984
0.00243606
0.00228517
0.00209911
0.00188006
0.00162649
0.00135281
0.00100696
0.000799657
-0.000341505
0.000105628
0.000302057
0.000447555
0.000543974
0.000594389
0.000597571
0.000571282
0.000459462
0.000491874
-0.000485958
-0.00244566
-0.00192463
-0.00146923
-0.0010774
-0.000745901
-0.000474975
-0.000247622
-0.000113545
0.000137509
-0.000541473
-0.00488469
-0.00405143
-0.00329805
-0.0026226
-0.00202197
-0.00149556
-0.00102925
-0.000658806
-0.000228432
-0.000502749
-0.00701608
-0.00590762
-0.00489189
-0.00396704
-0.00313027
-0.00238
-0.00170664
-0.00112792
-0.000561724
-0.000388949
-0.00871397
-0.0073841
-0.00615727
-0.00503175
-0.00400512
-0.00307481
-0.00223601
-0.00148851
-0.000823637
-0.000235609
-0.00994141
-0.00844913
-0.00706729
-0.00579431
-0.00462795
-0.00356527
-0.00260407
-0.00173202
-0.000992955
-8.27136e-05
-0.0107388
-0.00913812
-0.00765276
-0.0062811
-0.00502132
-0.00386985
-0.002826
-0.00187083
-0.00107148
3.60179e-05
-0.0111925
-0.00952635
-0.00797836
-0.00654717
-0.00523096
-0.00402652
-0.00293224
-0.00192978
-0.00107881
0.000100542
-0.0114004
-0.00969872
-0.00811662
-0.00665337
-0.0053071
-0.00407518
-0.00295522
-0.00193281
-0.00104059
0.000107417
-0.0114408
-0.00972131
-0.00812283
-0.00664419
-0.00528429
-0.00404082
-0.00291166
-0.00188738
-0.000969507
7.21495e-05
-0.0113385
-0.00961018
-0.00800367
-0.00651817
-0.00515256
-0.00390535
-0.00277522
-0.00175572
-0.000830289
4.38176e-05
-0.011166
-0.00943253
-0.00782175
-0.0063329
-0.00496496
-0.00371705
-0.00258906
-0.00157622
-0.00066114
6.00948e-05
)
;

boundaryField
{
    inlet
    {
        type            zeroGradient;
    }
    outlet
    {
        type            fixedValue;
        value           uniform 0;
    }
    upperWall
    {
        type            zeroGradient;
    }
    lowerWall
    {
        type            zeroGradient;
    }
    frontAndBack
    {
        type            empty;
    }
}


// ************************************************************************* //
