/*--------------------------------*- C++ -*----------------------------------*\
| =========                 |                                                 |
| \\      /  F ield         | OpenFOAM: The Open Source CFD Toolbox           |
|  \\    /   O peration     | Version:  2406                                  |
|   \\  /    A nd           | Website:  www.openfoam.com                      |
|    \\/     M anipulation  |                                                 |
\*---------------------------------------------------------------------------*/
FoamFile
{
    version     2.0;
    format      ascii;
    arch        "LSB;label=32;scalar=64";
    class       surfaceScalarField;
    location    "79";
    object      phi;
}
// * * * * * * * * * * * * * * * * * * * * * * * * * * * * * * * * * * * * * //

dimensions      [0 3 -1 0 0 0 0];

oriented        oriented;

internalField   nonuniform List<scalar> 
3880
(
0.00999088
-0.000240881
0.0102746
-0.000283688
0.0105051
-0.000230498
0.0106837
-0.000178602
0.0108224
-0.000138678
0.0109302
-0.000107847
0.0110146
-8.43559e-05
0.0110815
-6.69539e-05
0.0111357
-5.42019e-05
-4.47529e-05
0.0111805
0.0276305
-0.000121418
0.0275858
-0.000238938
0.0276078
-0.000252536
0.0276652
-0.000236007
0.0277401
-0.000213491
0.0278204
-0.00018823
0.0278991
-0.000163054
0.0279728
-0.000140561
0.0280401
-0.000121545
-0.000105693
0.028101
0.0436931
-6.44974e-05
0.0436142
-0.000160016
0.0435578
-0.000196216
0.0435244
-0.000202588
0.0435098
-0.000198873
0.0435109
-0.000189286
0.0435235
-0.000175657
0.0435436
-0.000160635
0.0435681
-0.000146059
-0.000132601
0.043595
0.057725
-3.95411e-05
0.0576719
-0.000106831
0.0576201
-0.000144475
0.0575772
-0.000159652
0.0575425
-0.00016421
0.057516
-0.000162783
0.0574972
-0.000156819
0.0574847
-0.00014814
0.0574771
-0.0001385
-0.000128869
0.0574734
0.0697365
-2.6048e-05
0.069703
-7.33103e-05
0.0696641
-0.000105611
0.0696272
-0.000122755
0.0695935
-0.000130508
0.0695634
-0.000132696
0.0695374
-0.000130766
0.0695152
-0.000125964
0.0694964
-0.000119666
-0.000112834
0.0694803
0.0797417
-1.77046e-05
0.0797193
-5.09123e-05
0.0796898
-7.61436e-05
0.0796588
-9.17273e-05
0.0796283
-0.000100062
0.0795993
-0.000103676
0.0795724
-0.000103826
0.0795478
-0.00010141
0.0795256
-9.74171e-05
-9.26564e-05
0.0795054
0.0877442
-1.1898e-05
0.0877278
-3.45676e-05
0.0877045
-5.28344e-05
0.087678
-6.5201e-05
0.0876505
-7.25106e-05
0.087623
-7.62066e-05
0.0875964
-7.72144e-05
0.0875712
-7.61819e-05
0.0875475
-7.37869e-05
-7.063e-05
0.0875255
0.0937455
-7.3896e-06
0.0937325
-2.15778e-05
0.0937131
-3.33922e-05
0.0936897
-4.18367e-05
0.0936643
-4.71428e-05
0.0936382
-5.00417e-05
0.0936121
-5.11101e-05
0.0935867
-5.07748e-05
0.0935623
-4.9463e-05
-4.75634e-05
0.0935393
0.0977462
-3.5505e-06
0.097735
-1.03922e-05
0.0977178
-1.61856e-05
0.0976964
-2.04469e-05
0.0976725
-2.32145e-05
0.0976472
-2.47867e-05
0.0976215
-2.54346e-05
0.0975961
-2.53704e-05
0.0975715
-2.48006e-05
-2.3914e-05
0.0975478
0.0997464
8.28585e-11
0.0997361
4.22407e-10
0.0997199
2.3305e-10
0.0996994
3.5027e-10
0.0996762
9.64957e-10
0.0996514
1.14185e-09
0.099626
6.47321e-10
0.0996006
2.25198e-10
0.0995758
5.04853e-10
1.17708e-09
0.0995519
0.0997464
3.55064e-06
0.0997361
1.03921e-05
0.0997199
1.61869e-05
0.0996994
2.04484e-05
0.0996762
2.32153e-05
0.0996514
2.47876e-05
0.099626
2.54364e-05
0.0996006
2.53724e-05
0.0995758
2.48022e-05
2.39154e-05
0.0995519
0.0977462
7.38987e-06
0.097735
2.15786e-05
0.0977178
3.33927e-05
0.0976964
4.18374e-05
0.0976725
4.71441e-05
0.0976472
5.00433e-05
0.0976215
5.11114e-05
0.0975961
5.07758e-05
0.0975715
4.94642e-05
4.75657e-05
0.0975478
0.0937455
1.18982e-05
0.0937325
3.45679e-05
0.0937131
5.28354e-05
0.0936897
6.52016e-05
0.0936643
7.25114e-05
0.0936382
7.62081e-05
0.0936121
7.72162e-05
0.0935867
7.61833e-05
0.0935623
7.37877e-05
7.06311e-05
0.0935393
0.0877442
1.77048e-05
0.0877278
5.09125e-05
0.0877045
7.61441e-05
0.087678
9.17284e-05
0.0876505
0.000100063
0.087623
0.000103677
0.0875964
0.000103828
0.0875712
0.000101412
0.0875475
9.74173e-05
9.26568e-05
0.0875255
0.0797417
2.60482e-05
0.0797193
7.33111e-05
0.0796898
0.000105611
0.0796588
0.000122755
0.0796283
0.00013051
0.0795993
0.000132698
0.0795724
0.000130767
0.0795478
0.000125965
0.0795256
0.000119666
0.000112834
0.0795054
0.0697365
3.95413e-05
0.069703
0.000106831
0.0696641
0.000144476
0.0696272
0.000159653
0.0695935
0.000164211
0.0695634
0.000162783
0.0695374
0.00015682
0.0695152
0.000148142
0.0694964
0.000138501
0.00012887
0.0694803
0.057725
6.44976e-05
0.0576719
0.000160017
0.0576201
0.000196216
0.0575772
0.000202589
0.0575425
0.000198874
0.057516
0.000189286
0.0574972
0.000175658
0.0574847
0.000160636
0.0574771
0.000146061
0.000132602
0.0574734
0.0436931
0.000121418
0.0436142
0.000238939
0.0435578
0.000252537
0.0435244
0.000236008
0.0435098
0.000213492
0.0435109
0.000188231
0.0435235
0.000163055
0.0435435
0.000140563
0.0435681
0.000121548
0.000105694
0.043595
0.0276305
0.000240881
0.0275858
0.000283688
0.0276078
0.000230499
0.0276652
0.000178604
0.0277401
0.000138679
0.0278204
0.000107847
0.0278991
8.43569e-05
0.0279727
6.69553e-05
0.0280401
5.42028e-05
4.47538e-05
0.028101
0.00999088
0.0102746
0.0105051
0.0106837
0.0108224
0.0109302
0.0110146
0.0110815
0.0111357
0.0111805
0.0112181
-3.75989e-05
0.0112501
-3.20676e-05
0.0112779
-2.77171e-05
0.0113021
-2.42448e-05
0.0113235
-2.14304e-05
0.0113426
-1.91097e-05
0.0113598
-1.71641e-05
0.0113753
-1.55129e-05
0.0113894
-1.41026e-05
0.0114023
-1.28951e-05
0.0114142
-1.18572e-05
0.0114251
-1.09581e-05
0.0114353
-1.01708e-05
0.0114448
-9.47287e-06
0.0114536
-8.84847e-06
0.0114619
-8.28677e-06
0.0114697
-7.78043e-06
0.011477
-7.32417e-06
0.0114839
-6.91298e-06
0.0114905
-6.54191e-06
0.0114967
-6.20583e-06
0.0115026
-5.89952e-06
0.0115082
-5.61842e-06
0.0115136
-5.35846e-06
0.0115187
-5.11669e-06
0.0115236
-4.89087e-06
0.0115282
-4.67957e-06
0.0115327
-4.48185e-06
0.011537
-4.297e-06
0.0115411
-4.12441e-06
0.0115451
-3.96337e-06
0.0115489
-3.81305e-06
0.0115526
-3.67255e-06
0.0115561
-3.54078e-06
-3.41683e-06
0.0115595
0.0281559
-9.24643e-05
0.0282052
-8.13951e-05
0.0282496
-7.21176e-05
0.0282897
-6.43295e-05
0.0283261
-5.77638e-05
0.0283591
-5.21828e-05
0.0283894
-4.73883e-05
0.0284171
-4.32325e-05
0.0284426
-3.96164e-05
0.0284662
-3.64692e-05
0.028488
-3.37285e-05
0.0285084
-3.13315e-05
0.0285275
-2.92171e-05
0.0285453
-2.73323e-05
0.0285621
-2.56358e-05
0.0285779
-2.40992e-05
0.0285928
-2.2704e-05
0.028607
-2.14373e-05
0.0286203
-2.02887e-05
0.028633
-1.9247e-05
0.0286451
-1.83001e-05
0.0286567
-1.74354e-05
0.0286677
-1.66404e-05
0.0286782
-1.59043e-05
0.0286883
-1.52183e-05
0.028698
-1.4576e-05
0.0287073
-1.39732e-05
0.0287162
-1.34073e-05
0.0287248
-1.28764e-05
0.0287331
-1.23791e-05
0.028741
-1.19138e-05
0.0287487
-1.14785e-05
0.0287561
-1.10707e-05
0.0287632
-1.06878e-05
-1.03271e-05
0.0287701
0.0436229
-0.000120389
0.0436509
-0.000109417
0.0436785
-9.96538e-05
0.0437052
-9.10395e-05
0.0437309
-8.34691e-05
0.0437555
-7.68016e-05
0.043779
-7.08919e-05
0.0438014
-6.5621e-05
0.0438227
-6.09115e-05
0.0438429
-5.67162e-05
0.0438622
-5.29905e-05
0.0438805
-4.96793e-05
0.043898
-4.67191e-05
0.0439148
-4.40472e-05
0.0439307
-4.16126e-05
0.043946
-3.93795e-05
0.0439606
-3.73265e-05
0.0439746
-3.54408e-05
0.0439881
-3.37127e-05
0.044001
-3.21314e-05
0.0440133
-3.06836e-05
0.0440253
-2.93533e-05
0.0440367
-2.81242e-05
0.0440478
-2.69805e-05
0.0440585
-2.59095e-05
0.0440688
-2.49014e-05
0.0440788
-2.395e-05
0.0440884
-2.30513e-05
0.0440978
-2.22033e-05
0.0441068
-2.14045e-05
0.0441155
-2.06531e-05
0.044124
-1.99469e-05
0.0441322
-1.92828e-05
0.0441402
-1.86572e-05
-1.80661e-05
0.0441479
0.0574726
-0.000119627
0.0574742
-0.000110936
0.0574774
-0.000102907
0.057482
-9.56092e-05
0.0574876
-8.90449e-05
0.0574939
-8.31481e-05
0.0575008
-7.78205e-05
0.0575082
-7.29755e-05
0.0575158
-6.8563e-05
0.0575237
-6.45636e-05
0.0575317
-6.09619e-05
0.0575397
-5.77257e-05
0.0575478
-5.48049e-05
0.0575559
-5.21422e-05
0.057564
-4.96872e-05
0.057572
-4.74053e-05
0.0575799
-4.5278e-05
0.0575878
-4.32982e-05
0.0575956
-4.14629e-05
0.0576032
-3.97672e-05
0.0576107
-3.82021e-05
0.0576181
-3.67539e-05
0.0576254
-3.54065e-05
0.0576326
-3.4144e-05
0.0576396
-3.29526e-05
0.0576465
-3.18223e-05
0.0576533
-3.07465e-05
0.05766
-2.97219e-05
0.0576665
-2.87472e-05
0.0576729
-2.7822e-05
0.0576792
-2.69456e-05
0.0576854
-2.61167e-05
0.0576915
-2.53328e-05
0.0576974
-2.45905e-05
-2.38857e-05
0.0577032
0.0694667
-0.000105948
0.069455
-9.92461e-05
0.069445
-9.28945e-05
0.0694364
-8.70194e-05
0.069429
-8.16778e-05
0.0694227
-7.68477e-05
0.0694174
-7.24613e-05
0.0694128
-6.84494e-05
0.069409
-6.47715e-05
0.0694059
-6.14185e-05
0.0694033
-5.83884e-05
0.0694013
-5.5665e-05
0.0693997
-5.32107e-05
0.0693985
-5.0975e-05
0.0693977
-4.89089e-05
0.0693973
-4.6977e-05
0.0693972
-4.5161e-05
0.0693973
-4.34562e-05
0.0693977
-4.18641e-05
0.0693984
-4.03856e-05
0.0693992
-3.90163e-05
0.0694002
-3.77463e-05
0.0694013
-3.65615e-05
0.0694026
-3.54467e-05
0.0694041
-3.43886e-05
0.0694056
-3.33771e-05
0.0694073
-3.24062e-05
0.069409
-3.14736e-05
0.0694108
-3.05791e-05
0.0694128
-2.97237e-05
0.0694147
-2.89082e-05
0.0694167
-2.81324e-05
0.0694188
-2.73948e-05
0.0694209
-2.66929e-05
-2.60232e-05
0.069423
0.079487
-8.76032e-05
0.0794703
-8.25167e-05
0.079455
-7.75784e-05
0.0794409
-7.29348e-05
0.0794279
-6.86742e-05
0.0794159
-6.48068e-05
0.0794047
-6.12882e-05
0.0793943
-5.80644e-05
0.0793846
-5.51018e-05
0.0793756
-5.23955e-05
0.0793672
-4.99515e-05
0.0793593
-4.77643e-05
0.0793519
-4.58081e-05
0.079345
-4.40406e-05
0.0793385
-4.24166e-05
0.0793324
-4.09007e-05
0.0793267
-3.94735e-05
0.0793214
-3.81297e-05
0.0793164
-3.68722e-05
0.0793117
-3.57049e-05
0.0793073
-3.46271e-05
0.0793032
-3.36321e-05
0.0792993
-3.27079e-05
0.0792957
-3.18406e-05
0.0792924
-3.10168e-05
0.0792892
-3.02266e-05
0.0792863
-2.94641e-05
0.0792835
-2.87273e-05
0.079281
-2.80166e-05
0.0792786
-2.73338e-05
0.0792763
-2.66807e-05
0.0792743
-2.60578e-05
0.0792723
-2.54645e-05
0.0792705
-2.48988e-05
-2.43577e-05
0.0792689
0.087505
-6.7106e-05
0.0874859
-6.34461e-05
0.0874682
-5.98139e-05
0.0874516
-5.6346e-05
0.0874361
-5.31339e-05
0.0874215
-5.02029e-05
0.0874077
-4.75287e-05
0.0873947
-4.50723e-05
0.0873824
-4.28087e-05
0.0873707
-4.07356e-05
0.0873596
-3.88619e-05
0.0873491
-3.7189e-05
0.087339
-3.57012e-05
0.0873293
-3.43674e-05
0.08732
-3.31506e-05
0.0873112
-3.20199e-05
0.0873026
-3.09566e-05
0.0872945
-2.9955e-05
0.0872866
-2.90176e-05
0.087279
-2.81491e-05
0.0872718
-2.73513e-05
0.0872648
-2.66201e-05
0.087258
-2.59467e-05
0.0872515
-2.53191e-05
0.0872452
-2.47257e-05
0.0872391
-2.4157e-05
0.0872333
-2.36075e-05
0.0872276
-2.3075e-05
0.0872221
-2.25601e-05
0.0872169
-2.20649e-05
0.0872118
-2.15911e-05
0.0872069
-2.114e-05
0.0872021
-2.07111e-05
0.0871975
-2.0303e-05
-1.99132e-05
0.0871931
0.0935175
-4.53487e-05
0.0934971
-4.29889e-05
0.0934779
-4.06057e-05
0.0934598
-3.83011e-05
0.0934428
-3.61492e-05
0.0934268
-3.4177e-05
0.0934116
-3.23726e-05
0.0933973
-3.07113e-05
0.0933836
-2.91758e-05
0.0933707
-2.77652e-05
0.0933583
-2.64872e-05
0.0933465
-2.53461e-05
0.0933351
-2.4334e-05
0.0933242
-2.34309e-05
0.0933136
-2.26115e-05
0.0933035
-2.18528e-05
0.0932936
-2.11402e-05
0.0932841
-2.04686e-05
0.093275
-1.98394e-05
0.0932661
-1.92569e-05
0.0932574
-1.87234e-05
0.0932491
-1.82373e-05
0.0932409
-1.7793e-05
0.093233
-1.73819e-05
0.0932253
-1.69955e-05
0.0932177
-1.66262e-05
0.0932104
-1.62694e-05
0.0932032
-1.59234e-05
0.0931963
-1.55886e-05
0.0931894
-1.52665e-05
0.0931828
-1.49588e-05
0.0931763
-1.46667e-05
0.09317
-1.43901e-05
0.0931638
-1.4128e-05
-1.38786e-05
0.0931578
0.0975253
-2.28481e-05
0.097504
-2.16933e-05
0.0974839
-2.05144e-05
0.097465
-1.93656e-05
0.0974471
-1.82868e-05
0.0974303
-1.72948e-05
0.0974143
-1.63855e-05
0.0973991
-1.55475e-05
0.0973847
-1.47721e-05
0.097371
-1.40583e-05
0.0973579
-1.34101e-05
0.0973454
-1.28302e-05
0.0973334
-1.23158e-05
0.0973218
-1.18577e-05
0.0973107
-1.14434e-05
0.0972999
-1.10611e-05
0.0972894
-1.07026e-05
0.0972793
-1.03647e-05
0.0972695
-1.00477e-05
0.09726
-9.75395e-06
0.0972508
-9.48495e-06
0.0972418
-9.24039e-06
0.097233
-9.01772e-06
0.0972244
-8.81281e-06
0.0972161
-8.62099e-06
0.0972079
-8.43829e-06
0.0971999
-8.26199e-06
0.097192
-8.09094e-06
0.0971844
-7.92526e-06
0.0971769
-7.7658e-06
0.0971695
-7.6136e-06
0.0971623
-7.46935e-06
0.0971552
-7.33318e-06
0.0971483
-7.20459e-06
-7.08265e-06
0.0971415
0.099529
1.3004e-09
0.0995074
4.95281e-10
0.0994869
-6.1777e-10
0.0994675
-8.53321e-10
0.0994492
6.10183e-10
0.0994319
2.8401e-09
0.0994155
3.78359e-09
0.0994
2.64829e-09
0.0993852
2.81428e-10
0.0993711
-1.79084e-09
0.0993577
-2.21074e-09
0.0993449
-8.07581e-10
0.0993326
1.51406e-09
0.0993207
3.5478e-09
0.0993093
4.33443e-09
0.0992982
3.72068e-09
0.0992875
2.18101e-09
0.0992771
5.15677e-10
0.0992671
-5.10825e-10
0.0992573
-5.98642e-10
0.0992478
2.08098e-10
0.0992386
1.48758e-09
0.0992296
2.74931e-09
0.0992208
3.64039e-09
0.0992122
3.96127e-09
0.0992037
3.8116e-09
0.0991955
3.3737e-09
0.0991874
2.91839e-09
0.0991794
2.66042e-09
0.0991716
2.69124e-09
0.099164
3.03378e-09
0.0991565
3.58509e-09
0.0991492
4.25491e-09
0.099142
4.92795e-09
5.53936e-09
0.0991349
0.099529
2.28497e-05
0.0995074
2.16942e-05
0.0994869
2.05139e-05
0.0994675
1.9365e-05
0.0994492
1.82883e-05
0.0994319
1.72992e-05
0.0994155
1.63914e-05
0.0994
1.55519e-05
0.0993852
1.47729e-05
0.0993711
1.4056e-05
0.0993577
1.34073e-05
0.0993449
1.28298e-05
0.0993326
1.23192e-05
0.0993207
1.18642e-05
0.0993093
1.1451e-05
0.0992982
1.10673e-05
0.0992875
1.0706e-05
0.0992771
1.03654e-05
0.0992671
1.00469e-05
0.0992573
9.75339e-06
0.0992478
9.48606e-06
0.0992386
9.24387e-06
0.0992296
9.02343e-06
0.0992208
8.81994e-06
0.0992122
8.6286e-06
0.0992037
8.4455e-06
0.0991955
8.26838e-06
0.0991874
8.09654e-06
0.0991794
7.93043e-06
0.0991716
7.77112e-06
0.099164
7.61959e-06
0.0991565
7.47643e-06
0.0991492
7.34154e-06
0.099142
7.21426e-06
7.09352e-06
0.0991349
0.0975253
4.53515e-05
0.097504
4.29904e-05
0.0974839
4.06049e-05
0.097465
3.82997e-05
0.0974471
3.61499e-05
0.0974303
3.4181e-05
0.0974143
3.23779e-05
0.0973991
3.0715e-05
0.0973847
2.91764e-05
0.097371
2.77636e-05
0.0973579
2.64859e-05
0.0973454
2.53472e-05
0.0973334
2.43382e-05
0.0973218
2.34371e-05
0.0973107
2.26176e-05
0.0972999
2.18572e-05
0.0972894
2.11422e-05
0.0972793
2.04686e-05
0.0972695
1.98389e-05
0.09726
1.92573e-05
0.0972508
1.87255e-05
0.0972418
1.82415e-05
0.097233
1.77988e-05
0.0972244
1.73886e-05
0.0972161
1.70022e-05
0.0972079
1.66325e-05
0.0971999
1.62751e-05
0.097192
1.59285e-05
0.0971844
1.55935e-05
0.0971769
1.52716e-05
0.0971695
1.49646e-05
0.0971623
1.46735e-05
0.0971553
1.4398e-05
0.0971483
1.41371e-05
1.38888e-05
0.0971415
0.0935175
6.71078e-05
0.0934971
6.3448e-05
0.0934779
5.98151e-05
0.0934598
5.63466e-05
0.0934428
5.31351e-05
0.0934268
5.02051e-05
0.0934116
4.75311e-05
0.0933973
4.50739e-05
0.0933836
4.28092e-05
0.0933707
4.0736e-05
0.0933583
3.88634e-05
0.0933465
3.71922e-05
0.0933351
3.57056e-05
0.0933242
3.43718e-05
0.0933136
3.31539e-05
0.0933035
3.20217e-05
0.0932936
3.09574e-05
0.0932841
2.99555e-05
0.093275
2.90188e-05
0.0932661
2.81516e-05
0.0932574
2.73549e-05
0.0932491
2.66247e-05
0.0932409
2.59517e-05
0.093233
2.53241e-05
0.0932253
2.47304e-05
0.0932177
2.41615e-05
0.0932104
2.36118e-05
0.0932032
2.30794e-05
0.0931963
2.25649e-05
0.0931895
2.20701e-05
0.0931828
2.15971e-05
0.0931763
2.11467e-05
0.09317
2.07187e-05
0.0931639
2.03114e-05
1.99224e-05
0.0931578
0.087505
8.76048e-05
0.0874859
8.25186e-05
0.0874682
7.75801e-05
0.0874516
7.29365e-05
0.0874361
6.86761e-05
0.0874214
6.48081e-05
0.0874077
6.12887e-05
0.0873947
5.80643e-05
0.0873824
5.51024e-05
0.0873707
5.23979e-05
0.0873597
4.99557e-05
0.0873491
4.7769e-05
0.087339
4.58117e-05
0.0873293
4.40422e-05
0.08732
4.24164e-05
0.0873112
4.09001e-05
0.0873026
3.94737e-05
0.0872945
3.81316e-05
0.0872866
3.68759e-05
0.087279
3.57097e-05
0.0872718
3.46321e-05
0.0872648
3.36365e-05
0.087258
3.27114e-05
0.0872515
3.18432e-05
0.0872452
3.1019e-05
0.0872391
3.02289e-05
0.0872333
2.9467e-05
0.0872276
2.8731e-05
0.0872222
2.80212e-05
0.0872169
2.73393e-05
0.0872118
2.66868e-05
0.0872069
2.60645e-05
0.0872021
2.54717e-05
0.0871975
2.49063e-05
2.43655e-05
0.0871931
0.079487
0.000105949
0.0794703
9.92475e-05
0.079455
9.28971e-05
0.0794409
8.70224e-05
0.0794279
8.16796e-05
0.0794159
7.68473e-05
0.0794047
7.24596e-05
0.0793943
6.84486e-05
0.0793846
6.47737e-05
0.0793756
6.14238e-05
0.0793672
5.83949e-05
0.0793593
5.56697e-05
0.0793519
5.3212e-05
0.079345
5.09731e-05
0.0793385
4.89059e-05
0.0793324
4.69752e-05
0.0793267
4.5162e-05
0.0793214
4.34603e-05
0.0793164
4.18702e-05
0.0793117
4.03919e-05
0.0793073
3.90214e-05
0.0793032
3.77494e-05
0.0792994
3.65627e-05
0.0792957
3.54468e-05
0.0792924
3.43884e-05
0.0792892
3.33776e-05
0.0792863
3.24081e-05
0.0792835
3.14769e-05
0.079281
3.05838e-05
0.0792786
2.97294e-05
0.0792763
2.89144e-05
0.0792743
2.81387e-05
0.0792723
2.7401e-05
0.0792706
2.66988e-05
2.60289e-05
0.0792689
0.0694667
0.000119627
0.069455
0.000110937
0.069445
0.00010291
0.0694364
9.56137e-05
0.069429
8.90471e-05
0.0694227
8.31462e-05
0.0694174
7.78168e-05
0.0694128
7.29744e-05
0.069409
6.85668e-05
0.0694059
6.45712e-05
0.0694033
6.09693e-05
0.0694013
5.77291e-05
0.0693997
5.48033e-05
0.0693985
5.21375e-05
0.0693977
4.96827e-05
0.0693973
4.74038e-05
0.0693972
4.52807e-05
0.0693973
4.33043e-05
0.0693977
4.14703e-05
0.0693984
3.97737e-05
0.0693992
3.82061e-05
0.0694002
3.6755e-05
0.0694013
3.54053e-05
0.0694026
3.41417e-05
0.0694041
3.29507e-05
0.0694056
3.18217e-05
0.0694073
3.07478e-05
0.069409
2.97252e-05
0.0694109
2.8752e-05
0.0694128
2.78276e-05
0.0694147
2.69514e-05
0.0694167
2.6122e-05
0.0694188
2.53374e-05
0.0694209
2.45942e-05
2.38888e-05
0.0694231
0.0574726
0.000120389
0.0574742
0.000109418
0.0574774
9.96572e-05
0.057482
9.10429e-05
0.0574876
8.34693e-05
0.0574939
7.67986e-05
0.0575008
7.08891e-05
0.0575082
6.56218e-05
0.0575159
6.09169e-05
0.0575237
5.67233e-05
0.0575317
5.29953e-05
0.0575397
4.96797e-05
0.0575478
4.67156e-05
0.0575559
4.40425e-05
0.057564
4.16096e-05
0.057572
3.93801e-05
0.0575799
3.73305e-05
0.0575878
3.54468e-05
0.0575956
3.37187e-05
0.0576032
3.21357e-05
0.0576107
3.06852e-05
0.0576181
2.93525e-05
0.0576254
2.81218e-05
0.0576326
2.69778e-05
0.0576396
2.59076e-05
0.0576465
2.49011e-05
0.0576533
2.39514e-05
0.05766
2.30544e-05
0.0576665
2.22073e-05
0.057673
2.14087e-05
0.0576793
2.06569e-05
0.0576854
1.99499e-05
0.0576915
1.92849e-05
0.0576974
1.86585e-05
1.80669e-05
0.0577032
0.0436229
9.24641e-05
0.0436509
8.13968e-05
0.0436785
7.21215e-05
0.0437052
6.43321e-05
0.0437309
5.77627e-05
0.0437555
5.21793e-05
0.043779
4.73864e-05
0.0438014
4.32349e-05
0.0438227
3.96216e-05
0.0438429
3.64739e-05
0.0438622
3.37299e-05
0.0438805
3.13294e-05
0.043898
2.92135e-05
0.0439148
2.73296e-05
0.0439307
2.56357e-05
0.043946
2.41018e-05
0.0439606
2.27082e-05
0.0439746
2.14416e-05
0.0439881
2.02915e-05
0.044001
1.92478e-05
0.0440133
1.82991e-05
0.0440253
1.74333e-05
0.0440367
1.66382e-05
0.0440478
1.59028e-05
0.0440585
1.5218e-05
0.0440688
1.4577e-05
0.0440788
1.39751e-05
0.0440885
1.34096e-05
0.0440978
1.28786e-05
0.0441068
1.23808e-05
0.0441156
1.19147e-05
0.044124
1.14787e-05
0.0441322
1.10704e-05
0.0441402
1.06873e-05
1.03266e-05
0.0441479
0.0281559
3.76005e-05
0.0282052
3.20695e-05
0.0282496
2.77182e-05
0.0282897
2.42442e-05
0.0283261
2.14287e-05
0.0283591
1.91086e-05
0.0283893
1.71648e-05
0.0284171
1.55152e-05
0.0284426
1.41051e-05
0.0284662
1.28962e-05
0.028488
1.18565e-05
0.0285084
1.09565e-05
0.0285275
1.01693e-05
0.0285453
9.47261e-06
0.0285621
8.84953e-06
0.0285779
8.28863e-06
0.0285928
7.78237e-06
0.028607
7.32544e-06
0.0286203
6.91331e-06
0.028633
6.54141e-06
0.0286451
6.2048e-06
0.0286567
5.8985e-06
0.0286677
5.61769e-06
0.0286782
5.35829e-06
0.0286883
5.11699e-06
0.028698
4.89151e-06
0.0287073
4.6803e-06
0.0287162
4.48243e-06
0.0287248
4.29727e-06
0.0287331
4.12431e-06
0.028741
3.96295e-06
0.0287487
3.81245e-06
0.0287561
3.67188e-06
0.0287632
3.54025e-06
3.41646e-06
0.0287701
0.0112181
0.0112501
0.0112779
0.0113021
0.0113235
0.0113426
0.0113598
0.0113753
0.0113894
0.0114023
0.0114142
0.0114251
0.0114353
0.0114448
0.0114536
0.0114619
0.0114697
0.011477
0.0114839
0.0114905
0.0114967
0.0115026
0.0115082
0.0115136
0.0115187
0.0115236
0.0115282
0.0115327
0.011537
0.0115412
0.0115451
0.0115489
0.0115526
0.0115561
0.0115596
0.0115628
-3.29967e-06
0.011566
-3.18859e-06
0.0115691
-3.0829e-06
0.0115721
-2.98216e-06
0.011575
-2.88602e-06
0.0115778
-2.79429e-06
0.0115805
-2.7068e-06
0.0115831
-2.62344e-06
0.0115856
-2.54408e-06
-2.46858e-06
0.0115881
0.0287768
-9.98578e-06
0.0287833
-9.6617e-06
0.0287896
-9.35302e-06
0.0287956
-9.05832e-06
0.0288015
-8.77667e-06
0.0288072
-8.50743e-06
0.0288128
-8.25019e-06
0.0288182
-8.00464e-06
0.0288234
-7.77043e-06
-7.5472e-06
0.0288285
0.0441554
-1.75055e-05
0.0441627
-1.69718e-05
0.0441699
-1.64622e-05
0.0441768
-1.59742e-05
0.0441835
-1.55065e-05
0.04419
-1.5058e-05
0.0441964
-1.4628e-05
0.0442026
-1.42162e-05
0.0442087
-1.38223e-05
-1.34456e-05
0.0442146
0.0577089
-2.32144e-05
0.0577145
-2.25725e-05
0.05772
-2.19568e-05
0.0577254
-2.13647e-05
0.0577307
-2.07945e-05
0.0577359
-2.02452e-05
0.057741
-1.97162e-05
0.057746
-1.92071e-05
0.0577508
-1.87178e-05
-1.82478e-05
0.0577556
0.0694252
-2.5382e-05
0.0694274
-2.47658e-05
0.0694296
-2.41715e-05
0.0694318
-2.35969e-05
0.0694341
-2.30404e-05
0.0694363
-2.25011e-05
0.0694386
-2.19789e-05
0.0694409
-2.14736e-05
0.0694431
-2.09853e-05
-2.05139e-05
0.0694454
0.0792673
-2.38381e-05
0.0792659
-2.33366e-05
0.0792646
-2.28507e-05
0.0792634
-2.23785e-05
0.0792622
-2.19187e-05
0.0792612
-2.14709e-05
0.0792603
-2.10351e-05
0.0792594
-2.06113e-05
0.0792586
-2.02e-05
-1.98011e-05
0.0792579
0.0871888
-1.95387e-05
0.0871846
-1.9177e-05
0.0871806
-1.88257e-05
0.0871767
-1.84832e-05
0.0871729
-1.81486e-05
0.0871693
-1.78217e-05
0.0871657
-1.75025e-05
0.0871623
-1.71912e-05
0.087159
-1.68883e-05
-1.65939e-05
0.0871558
0.0931519
-1.36396e-05
0.0931462
-1.34091e-05
0.0931405
-1.31851e-05
0.093135
-1.29666e-05
0.0931296
-1.27528e-05
0.0931243
-1.25436e-05
0.0931192
-1.23391e-05
0.0931141
-1.21396e-05
0.0931092
-1.19453e-05
-1.17564e-05
0.0931043
0.0971349
-6.96618e-06
0.0971283
-6.85399e-06
0.0971219
-6.74512e-06
0.0971156
-6.63889e-06
0.0971093
-6.53494e-06
0.0971032
-6.43318e-06
0.0970972
-6.33369e-06
0.0970913
-6.23663e-06
0.0970855
-6.14216e-06
-6.05037e-06
0.0970798
0.099128
6.06394e-09
0.0991211
6.49643e-09
0.0991143
6.87466e-09
0.0991077
7.21532e-09
0.0991012
7.55747e-09
0.0990947
7.91124e-09
0.0990884
8.29109e-09
0.0990821
8.70274e-09
0.099076
9.1444e-09
9.62654e-09
0.0990699
0.099128
6.97807e-06
0.0991211
6.86675e-06
0.0991143
6.75862e-06
0.0991077
6.65306e-06
0.0991012
6.54977e-06
0.0990947
6.44869e-06
0.0990884
6.34993e-06
0.0990821
6.25367e-06
0.099076
6.16008e-06
6.06923e-06
0.0990699
0.0971349
1.36509e-05
0.0971283
1.34211e-05
0.0971219
1.31979e-05
0.0971156
1.298e-05
0.0971093
1.27668e-05
0.0971032
1.25582e-05
0.0970972
1.23543e-05
0.0970913
1.21555e-05
0.0970855
1.19621e-05
1.17741e-05
0.0970798
0.0931519
1.95487e-05
0.0931462
1.91876e-05
0.0931405
1.88369e-05
0.093135
1.84949e-05
0.0931296
1.81609e-05
0.0931243
1.78345e-05
0.0931192
1.7516e-05
0.0931141
1.72055e-05
0.0931092
1.69035e-05
1.661e-05
0.0931043
0.0871888
2.38462e-05
0.0871846
2.3345e-05
0.0871806
2.28595e-05
0.0871767
2.23877e-05
0.087173
2.19285e-05
0.0871693
2.14814e-05
0.0871658
2.10464e-05
0.0871624
2.06235e-05
0.087159
2.02131e-05
1.98152e-05
0.0871558
0.0792674
2.53877e-05
0.0792659
2.47715e-05
0.0792646
2.41776e-05
0.0792634
2.36034e-05
0.0792623
2.30476e-05
0.0792612
2.25093e-05
0.0792603
2.19879e-05
0.0792594
2.14836e-05
0.0792586
2.09963e-05
2.05258e-05
0.0792579
0.0694252
2.32171e-05
0.0694274
2.25753e-05
0.0694296
2.196e-05
0.0694319
2.13687e-05
0.0694341
2.07995e-05
0.0694364
2.02512e-05
0.0694386
1.97232e-05
0.0694409
1.9215e-05
0.0694432
1.87263e-05
1.82569e-05
0.0694454
0.0577089
1.75062e-05
0.0577145
1.69729e-05
0.05772
1.64638e-05
0.0577254
1.59766e-05
0.0577307
1.55098e-05
0.0577359
1.5062e-05
0.057741
1.46327e-05
0.057746
1.42214e-05
0.0577509
1.38277e-05
1.34512e-05
0.0577557
0.0441555
9.98573e-06
0.0441628
9.66218e-06
0.0441699
9.35407e-06
0.0441768
9.05986e-06
0.0441835
8.77858e-06
0.0441901
8.50953e-06
0.0441965
8.25236e-06
0.0442027
8.00676e-06
0.0442087
7.7725e-06
7.54919e-06
0.0442146
0.0287768
3.29958e-06
0.0287833
3.1887e-06
0.0287896
3.08319e-06
0.0287956
2.98252e-06
0.0288015
2.8864e-06
0.0288073
2.79461e-06
0.0288128
2.70705e-06
0.0288182
2.6236e-06
0.0288234
2.5442e-06
2.46868e-06
0.0288285
0.0115629
0.011566
0.0115691
0.0115721
0.011575
0.0115778
0.0115805
0.0115831
0.0115857
0.0115881
0.0115905
-2.39672e-06
0.0115928
-2.32832e-06
0.0115951
-2.26309e-06
0.0115973
-2.20082e-06
0.0115994
-2.1412e-06
0.0116015
-2.08406e-06
0.0116036
-2.02914e-06
0.0116055
-1.97631e-06
0.0116075
-1.9254e-06
0.0116093
-1.87633e-06
0.0116112
-1.829e-06
0.0116129
-1.78338e-06
0.0116147
-1.73938e-06
0.0116164
-1.69699e-06
0.011618
-1.65614e-06
0.0116197
-1.61679e-06
0.0116212
-1.57886e-06
0.0116228
-1.54232e-06
0.0116243
-1.50706e-06
0.0116258
-1.47305e-06
0.0116272
-1.44019e-06
0.0116286
-1.40844e-06
0.01163
-1.3777e-06
0.0116313
-1.34796e-06
0.0116326
-1.31914e-06
0.0116339
-1.29123e-06
0.0116352
-1.26417e-06
0.0116364
-1.23796e-06
0.0116376
-1.21256e-06
0.0116388
-1.18799e-06
0.01164
-1.16421e-06
0.0116411
-1.14125e-06
0.0116423
-1.11908e-06
0.0116434
-1.09776e-06
-1.07727e-06
0.0116444
0.0288334
-7.3344e-06
0.0288382
-7.13149e-06
0.0288429
-6.93775e-06
0.0288474
-6.75248e-06
0.0288519
-6.57497e-06
0.0288562
-6.40456e-06
0.0288604
-6.24066e-06
0.0288645
-6.08279e-06
0.0288685
-5.93055e-06
0.0288724
-5.78365e-06
0.0288762
-5.64184e-06
0.0288799
-5.50497e-06
0.0288836
-5.37286e-06
0.0288871
-5.24541e-06
0.0288906
-5.12246e-06
0.028894
-5.00389e-06
0.0288973
-4.88948e-06
0.0289005
-4.7791e-06
0.0289037
-4.67252e-06
0.0289068
-4.56955e-06
0.0289098
-4.46998e-06
0.0289128
-4.37363e-06
0.0289157
-4.28031e-06
0.0289185
-4.18989e-06
0.0289213
-4.1022e-06
0.028924
-4.01715e-06
0.0289267
-3.93463e-06
0.0289293
-3.85459e-06
0.0289319
-3.77695e-06
0.0289344
-3.7017e-06
0.0289368
-3.62878e-06
0.0289393
-3.55823e-06
0.0289416
-3.49002e-06
0.028944
-3.42424e-06
-3.36092e-06
0.0289462
0.0442203
-1.30855e-05
0.0442259
-1.27412e-05
0.0442314
-1.24117e-05
0.0442368
-1.2096e-05
0.044242
-1.17928e-05
0.0442471
-1.15013e-05
0.0442521
-1.12204e-05
0.0442569
-1.09493e-05
0.0442617
-1.06875e-05
0.0442663
-1.04345e-05
0.0442709
-1.01898e-05
0.0442753
-9.95317e-06
0.0442797
-9.7244e-06
0.0442839
-9.50326e-06
0.0442881
-9.28954e-06
0.0442922
-9.083e-06
0.0442962
-8.88339e-06
0.0443001
-8.69041e-06
0.0443039
-8.50375e-06
0.0443077
-8.32311e-06
0.0443113
-8.14817e-06
0.0443149
-7.97863e-06
0.0443185
-7.8142e-06
0.0443219
-7.65464e-06
0.0443253
-7.49972e-06
0.0443287
-7.34926e-06
0.0443319
-7.2031e-06
0.0443351
-7.06112e-06
0.0443383
-6.92322e-06
0.0443414
-6.78934e-06
0.0443444
-6.65943e-06
0.0443474
-6.53349e-06
0.0443503
-6.41152e-06
0.0443532
-6.2936e-06
-6.17984e-06
0.044356
0.0577604
-1.77967e-05
0.057765
-1.73637e-05
0.0577695
-1.69478e-05
0.057774
-1.65478e-05
0.0577783
-1.61626e-05
0.0577826
-1.57911e-05
0.0577868
-1.54322e-05
0.057791
-1.50849e-05
0.057795
-1.47486e-05
0.057799
-1.44227e-05
0.0578029
-1.41066e-05
0.0578068
-1.38001e-05
0.0578106
-1.3503e-05
0.0578143
-1.32149e-05
0.0578179
-1.29357e-05
0.0578215
-1.26651e-05
0.057825
-1.24029e-05
0.0578285
-1.21487e-05
0.0578319
-1.19022e-05
0.0578352
-1.16631e-05
0.0578385
-1.1431e-05
0.0578417
-1.12056e-05
0.0578449
-1.09866e-05
0.057848
-1.07736e-05
0.0578511
-1.05664e-05
0.0578541
-1.03648e-05
0.0578571
-1.01686e-05
0.05786
-9.97766e-06
0.0578628
-9.79183e-06
0.0578657
-9.61105e-06
0.0578684
-9.43526e-06
0.0578712
-9.26447e-06
0.0578739
-9.09871e-06
0.0578765
-8.93808e-06
-8.78275e-06
0.0578791
0.0694477
-2.00592e-05
0.0694499
-1.96207e-05
0.0694522
-1.91976e-05
0.0694544
-1.8789e-05
0.0694566
-1.83939e-05
0.0694589
-1.80114e-05
0.0694611
-1.76405e-05
0.0694633
-1.72803e-05
0.0694654
-1.69302e-05
0.0694676
-1.65897e-05
0.0694698
-1.62583e-05
0.0694719
-1.59357e-05
0.069474
-1.56219e-05
0.0694761
-1.53165e-05
0.0694782
-1.50194e-05
0.0694803
-1.47304e-05
0.0694823
-1.44494e-05
0.0694843
-1.41761e-05
0.0694863
-1.39102e-05
0.0694883
-1.36515e-05
0.0694903
-1.33996e-05
0.0694922
-1.31543e-05
0.0694942
-1.29152e-05
0.0694961
-1.26822e-05
0.069498
-1.24549e-05
0.0694998
-1.22331e-05
0.0695017
-1.20168e-05
0.0695035
-1.18057e-05
0.0695053
-1.15997e-05
0.0695071
-1.13989e-05
0.0695089
-1.12031e-05
0.0695106
-1.10123e-05
0.0695124
-1.08267e-05
0.0695141
-1.06464e-05
-1.04716e-05
0.0695158
0.0792573
-1.94147e-05
0.0792567
-1.90404e-05
0.0792562
-1.86778e-05
0.0792557
-1.83263e-05
0.0792553
-1.79849e-05
0.0792549
-1.7653e-05
0.0792546
-1.73299e-05
0.0792543
-1.70148e-05
0.0792541
-1.67074e-05
0.0792539
-1.64072e-05
0.0792538
-1.61139e-05
0.0792537
-1.58274e-05
0.0792536
-1.55474e-05
0.0792536
-1.5274e-05
0.0792536
-1.5007e-05
0.0792536
-1.47462e-05
0.0792536
-1.44917e-05
0.0792537
-1.42432e-05
0.0792538
-1.40005e-05
0.0792539
-1.37636e-05
0.079254
-1.35321e-05
0.0792542
-1.33059e-05
0.0792543
-1.30848e-05
0.0792545
-1.28685e-05
0.0792547
-1.2657e-05
0.0792549
-1.245e-05
0.0792552
-1.22474e-05
0.0792554
-1.20492e-05
0.0792557
-1.18552e-05
0.0792559
-1.16655e-05
0.0792562
-1.148e-05
0.0792565
-1.12988e-05
0.0792568
-1.1122e-05
0.0792571
-1.09498e-05
-1.07824e-05
0.0792574
0.0871527
-1.6308e-05
0.0871497
-1.60303e-05
0.0871468
-1.57606e-05
0.0871439
-1.54983e-05
0.0871412
-1.52428e-05
0.0871385
-1.49936e-05
0.087136
-1.47502e-05
0.0871335
-1.45121e-05
0.087131
-1.4279e-05
0.0871287
-1.40506e-05
0.0871264
-1.38267e-05
0.0871242
-1.36072e-05
0.087122
-1.33921e-05
0.0871199
-1.31812e-05
0.0871179
-1.29746e-05
0.0871159
-1.27722e-05
0.087114
-1.25738e-05
0.0871121
-1.23795e-05
0.0871103
-1.21892e-05
0.0871085
-1.20026e-05
0.0871068
-1.18197e-05
0.0871052