/*--------------------------------*- C++ -*----------------------------------*\
| =========                 |                                                 |
| \\      /  F ield         | OpenFOAM: The Open Source CFD Toolbox           |
|  \\    /   O peration     | Version:  2406                                  |
|   \\  /    A nd           | Website:  www.openfoam.com                      |
|    \\/     M anipulation  |                                                 |
\*---------------------------------------------------------------------------*/
FoamFile
{
    version     2.0;
    format      ascii;
    arch        "LSB;label=32;scalar=64";
    class       volScalarField;
    location    "94";
    object      p;
}
// * * * * * * * * * * * * * * * * * * * * * * * * * * * * * * * * * * * * * //

dimensions      [0 2 -2 0 0 0 0];

internalField   nonuniform List<scalar> 
2000
(
1.85661
1.8557
1.85173
1.8453
1.83714
1.82744
1.81631
1.80397
1.79062
1.77643
1.87011
1.86159
1.85335
1.84605
1.83776
1.82776
1.81634
1.80384
1.79043
1.77621
1.88391
1.86761
1.85381
1.84506
1.83666
1.82641
1.81469
1.80212
1.78882
1.77476
1.89549
1.87518
1.85733
1.84668
1.83755
1.82668
1.81434
1.80135
1.78787
1.77378
1.90523
1.88293
1.86205
1.84909
1.83867
1.82694
1.81388
1.80036
1.7866
1.7724
1.91326
1.88982
1.86686
1.85197
1.84029
1.82772
1.814
1.79997
1.78587
1.77147
1.91965
1.89552
1.8712
1.85487
1.84207
1.8287
1.81434
1.79978
1.78529
1.77065
1.92444
1.89988
1.87471
1.85736
1.84368
1.82963
1.81474
1.79976
1.78496
1.77011
1.92763
1.90283
1.87714
1.85916
1.8449
1.83037
1.8151
1.79982
1.78478
1.76976
1.92923
1.90431
1.87838
1.8601
1.84554
1.83077
1.8153
1.79986
1.7847
1.7696
1.92923
1.90431
1.87838
1.8601
1.84554
1.83077
1.8153
1.79986
1.7847
1.7696
1.92763
1.90283
1.87714
1.85916
1.8449
1.83037
1.8151
1.79982
1.78478
1.76976
1.92444
1.89988
1.87471
1.85736
1.84368
1.82964
1.81474
1.79976
1.78495
1.7701
1.91965
1.89552
1.8712
1.85487
1.84207
1.8287
1.81434
1.79978
1.78529
1.77065
1.91326
1.88982
1.86686
1.85197
1.84029
1.82772
1.81401
1.79997
1.78586
1.77147
1.90523
1.88293
1.86205
1.84909
1.83867
1.82694
1.81388
1.80036
1.7866
1.77239
1.89549
1.87518
1.85733
1.84668
1.83755
1.82668
1.81435
1.80135
1.78787
1.77377
1.88392
1.86761
1.85381
1.84506
1.83666
1.82641
1.81469
1.80212
1.78882
1.77476
1.87011
1.86159
1.85335
1.84605
1.83776
1.82777
1.81634
1.80384
1.79043
1.77621
1.85661
1.8557
1.85174
1.8453
1.83714
1.82744
1.81632
1.80397
1.79062
1.77643
1.76153
1.746
1.72996
1.71348
1.69662
1.67944
1.66198
1.64428
1.62636
1.60827
1.59001
1.57161
1.55308
1.53443
1.51568
1.49684
1.47791
1.4589
1.43982
1.42067
1.40146
1.38219
1.36286
1.34348
1.32405
1.30458
1.28506
1.2655
1.2459
1.22626
1.20658
1.18687
1.16712
1.14734
1.12754
1.76127
1.74574
1.72969
1.71322
1.69637
1.6792
1.66175
1.64406
1.62616
1.60807
1.58983
1.57144
1.55292
1.53429
1.51555
1.49672
1.47779
1.45879
1.43972
1.42058
1.40137
1.3821
1.36278
1.34341
1.32399
1.30452
1.285
1.26544
1.24584
1.2262
1.20653
1.18682
1.16708
1.1473
1.1275
1.76
1.74461
1.72871
1.71236
1.69563
1.67856
1.66121
1.6436
1.62576
1.60774
1.58954
1.57119
1.5527
1.5341
1.51538
1.49657
1.47766
1.45867
1.43961
1.42048
1.40128
1.38202
1.36271
1.34334
1.32392
1.30445
1.28494
1.26538
1.24579
1.22615
1.20648
1.18677
1.16703
1.14726
1.12745
1.75901
1.74363
1.72776
1.71146
1.69479
1.67779
1.6605
1.64295
1.62517
1.6072
1.58905
1.57074
1.55229
1.53372
1.51504
1.49625
1.47737
1.45841
1.43937
1.42025
1.40107
1.38183
1.36253
1.34317
1.32376
1.3043
1.2848
1.26525
1.24566
1.22603
1.20637
1.18667
1.16693
1.14717
1.12737
1.75761
1.74226
1.72643
1.71021
1.69364
1.67675
1.65956
1.6421
1.62441
1.60651
1.58844
1.5702
1.55181
1.53328
1.51464
1.49589
1.47705
1.45811
1.4391
1.42001
1.40085
1.38163
1.36234
1.34299
1.32359
1.30415
1.28465
1.26511
1.24553
1.22591
1.20625
1.18656
1.16683
1.14706
1.12727
1.7566
1.74122
1.7254
1.70921
1.6927
1.67587
1.65874
1.64135
1.62372
1.60589
1.58787
1.56968
1.55134
1.53286
1.51425
1.49553
1.47671
1.4578
1.43881
1.41975
1.40061
1.3814
1.36213
1.3428
1.32341
1.30397
1.28448
1.26495
1.24538
1.22576
1.20611
1.18643
1.1667
1.14695
1.12716
1.75564
1.7402
1.72436
1.7082
1.69172
1.67495
1.65788
1.64055
1.62298
1.60521
1.58726
1.56914
1.55085
1.53241
1.51384
1.49516
1.47637
1.45749
1.43853
1.41949
1.40037
1.38119
1.36193
1.34262
1.32324
1.30381
1.28433
1.26481
1.24524
1.22563
1.20599
1.18631
1.1666
1.14684
1.12706
1.75497
1.73946
1.72361
1.70745
1.691
1.67426
1.65724
1.63995
1.62243
1.60471
1.58681
1.56873
1.55048
1.53208
1.51354
1.49488
1.47611
1.45725
1.43831
1.41928
1.40019
1.38102
1.36178
1.34247
1.3231
1.30368
1.28421
1.26469
1.24512
1.22552
1.20589
1.18621
1.1665
1.14676
1.12698
1.75452
1.73895
1.72307
1.7069
1.69046
1.67374
1.65674
1.63949
1.622
1.60432
1.58645
1.56841
1.55019
1.53181
1.51329
1.49465
1.4759
1.45705
1.43813
1.41912
1.40004
1.38088
1.36165
1.34236
1.323
1.30358
1.28411
1.2646
1.24504
1.22544
1.20581
1.18614
1.16643
1.14669
1.12692
1.75429
1.73869
1.7228
1.70663
1.6902
1.67349
1.6565
1.63926
1.6218
1.60413
1.58628
1.56825
1.55005
1.53169
1.51318
1.49454
1.4758
1.45696
1.43804
1.41905
1.39997
1.38082
1.3616
1.34231
1.32295
1.30353
1.28406
1.26455
1.24499
1.2254
1.20577
1.1861
1.1664
1.14666
1.12689
1.75429
1.73869
1.7228
1.70663
1.69019
1.67348
1.6565
1.63926
1.6218
1.60413
1.58628
1.56825
1.55005
1.53168
1.51318
1.49454
1.4758
1.45696
1.43805
1.41905
1.39997
1.38082
1.3616
1.34231
1.32295
1.30353
1.28406
1.26455
1.24499
1.2254
1.20577
1.1861
1.1664
1.14666
1.12689
1.75452
1.73895
1.72307
1.7069
1.69046
1.67374
1.65674
1.63949
1.62201
1.60432
1.58645
1.56841
1.55019
1.53181
1.51329
1.49465
1.4759
1.45706
1.43813
1.41912
1.40004
1.38088
1.36165
1.34236
1.323
1.30358
1.28411
1.2646
1.24504
1.22544
1.20581
1.18614
1.16643
1.14669
1.12692
1.75497
1.73946
1.72361
1.70745
1.691
1.67425
1.65723
1.63995
1.62244
1.60472
1.58681
1.56873
1.55048
1.53208
1.51354
1.49488
1.47611
1.45726
1.43831
1.41929
1.40019
1.38102
1.36177
1.34247
1.3231
1.30368
1.28421
1.26469
1.24513
1.22553
1.20589
1.18621
1.1665
1.14676
1.12698
1.75564
1.7402
1.72437
1.70819
1.69172
1.67494
1.65788
1.64055
1.62299
1.60522
1.58726
1.56913
1.55084
1.53241
1.51384
1.49516
1.47638
1.4575
1.43854
1.41949
1.40037
1.38118
1.36193
1.34261
1.32324
1.30381
1.28434
1.26481
1.24525
1.22564
1.206
1.18631
1.1666
1.14684
1.12706
1.7566
1.74122
1.7254
1.70921
1.69269
1.67586
1.65874
1.64136
1.62373
1.60589
1.58787
1.56968
1.55133
1.53285
1.51425
1.49553
1.47672
1.45781
1.43882
1.41975
1.40061
1.3814
1.36213
1.3428
1.32341
1.30397
1.28449
1.26496
1.24539
1.22577
1.20612
1.18643
1.16671
1.14695
1.12716
1.75761
1.74226
1.72644
1.71021
1.69363
1.67674
1.65956
1.64211
1.62442
1.60652
1.58844
1.57019
1.5518
1.53328
1.51464
1.4959
1.47705
1.45812
1.43911
1.42001
1.40085
1.38163
1.36234
1.34299
1.3236
1.30415
1.28465
1.26512
1.24553
1.22591
1.20625
1.18656
1.16683
1.14706
1.12727
1.75901
1.74364
1.72776
1.71146
1.69479
1.67779
1.6605
1.64295
1.62518
1.6072
1.58905
1.57074
1.55229
1.53372
1.51504
1.49626
1.47738
1.45841
1.43937
1.42026
1.40108
1.38183
1.36253
1.34317
1.32376
1.30431
1.2848
1.26526
1.24567
1.22604
1.20637
1.18667
1.16694
1.14717
1.12737
1.76
1.74461
1.72871
1.71236
1.69563
1.67856
1.66121
1.6436
1.62576
1.60774
1.58954
1.57119
1.5527
1.5341
1.51538
1.49657
1.47766
1.45868
1.43961
1.42048
1.40128
1.38202
1.36271
1.34334
1.32392
1.30445
1.28494
1.26539
1.24579
1.22615
1.20648
1.18678
1.16703
1.14726
1.12746
1.76127
1.74574
1.72969
1.71322
1.69637
1.6792
1.66175
1.64406
1.62616
1.60808
1.58983
1.57144
1.55292
1.53429
1.51555
1.49672
1.4778
1.4588
1.43972
1.42058
1.40137
1.38211
1.36279
1.34341
1.32399
1.30452
1.285
1.26544
1.24584
1.22621
1.20653
1.18682
1.16708
1.14731
1.1275
1.76153
1.74601
1.72997
1.71348
1.69662
1.67944
1.66198
1.64428
1.62637
1.60827
1.59001
1.57161
1.55308
1.53443
1.51569
1.49684
1.47791
1.4589
1.43982
1.42067
1.40146
1.38219
1.36286
1.34349
1.32406
1.30458
1.28506
1.2655
1.2459
1.22626
1.20658
1.18687
1.16713
1.14735
1.12754
1.1077
1.08783
1.06794
1.04802
1.02807
1.0081
0.988105
0.968087
0.948047
0.927985
1.10766
1.0878
1.0679
1.04798
1.02804
1.00807
0.988074
0.968057
0.948017
0.927956
1.10762
1.08776
1.06786
1.04795
1.028
1.00803
0.988039
0.968023
0.947984
0.927924
1.10754
1.08768
1.06779
1.04787
1.02793
1.00797
0.987975
0.967961
0.947926
0.927868
1.10744
1.08759
1.0677
1.04779
1.02785
1.00789
0.987898
0.967887
0.947854
0.927799
1.10734
1.08748
1.0676
1.04769
1.02776
1.0078
0.987813
0.967806
0.947776
0.927724
1.10724
1.08739
1.06752
1.04761
1.02768
1.00772
0.987738
0.967733
0.947705
0.927656
1.10716
1.08732
1.06744
1.04754
1.02761
1.00765
0.987672
0.967669
0.947644
0.927596
1.10711
1.08726
1.06739
1.04749
1.02756
1.00761
0.987627
0.967624
0.9476
0.927554
1.10708
1.08724
1.06737
1.04746
1.02754
1.00758
0.987602
0.9676
0.947576
0.927531
1.10708
1.08724
1.06737
1.04747
1.02754
1.00758
0.987602
0.9676
0.947576
0.927531
1.10711
1.08727
1.06739
1.04749
1.02756
1.00761
0.987628
0.967625
0.947601
0.927555
1.10716
1.08732
1.06744
1.04754
1.02761
1.00766
0.987676
0.967672
0.947646
0.927599
1.10724
1.0874
1.06752
1.04761
1.02768
1.00773
0.987743
0.967738
0.94771
0.92766
1.10734
1.08748
1.0676
1.0477
1.02776
1.0078
0.98782
0.967813
0.947782
0.92773
1.10744
1.08759
1.0677
1.04779
1.02785
1.00789
0.987905
0.967894
0.947861
0.927805
1.10754
1.08768
1.06779
1.04788
1.02794
1.00797
0.987981
0.967967
0.947932
0.927874
1.10762
1.08776
1.06787
1.04795
1.02801
1.00804
0.988044
0.968028
0.94799
0.92793
1.10766
1.0878
1.06791
1.04799
1.02804
1.00807
0.988079
0.968062
0.948023
0.927962
1.1077
1.08784
1.06794
1.04802
1.02808
1.0081
0.98811
0.968092
0.948052
0.92799
0.907902
0.887799
0.867677
0.847536
0.827376
0.807199
0.787004
0.766793
0.746565
0.726321
0.706061
0.685787
0.665498
0.645195
0.624878
0.604547
0.584203
0.563847
0.543478
0.523097
0.502705
0.4823
0.461884
0.441457
0.421019
0.400571
0.380112
0.359643
0.339164
0.318675
0.298177
0.277669
0.257153
0.236627
0.216093
0.907875
0.887773
0.867651
0.847511
0.827352
0.807176
0.786981
0.76677
0.746543
0.726299
0.706041
0.685767
0.665478
0.645175
0.624859
0.604528
0.584185
0.563829
0.543461
0.52308
0.502688
0.482284
0.461868
0.441441
0.421004
0.400555
0.380097
0.359628
0.339149
0.318661
0.298163
0.277656
0.257139
0.236614
0.21608
0.907843
0.887743
0.867622
0.847483
0.827325
0.807149
0.786956
0.766745
0.746518
0.726275
0.706017
0.685744
0.665456
0.645153
0.624837
0.604508
0.584165
0.56381
0.543442
0.523062
0.50267
0.482266
0.461851
0.441425
0.420987
0.400539
0.380081
0.359613
0.339134
0.318646
0.298149
0.277642
0.257126
0.236601
0.216068
0.90779
0.887691
0.867573
0.847435
0.827279
0.807105
0.786913
0.766704
0.746478
0.726237
0.705979
0.685707
0.66542
0.645119
0.624804
0.604476
0.584134
0.56378
0.543413
0.523033
0.502642
0.482239
0.461825
0.441399
0.420962
0.400515
0.380057
0.35959
0.339112
0.318624
0.298128
0.277622
0.257106
0.236582
0.21605
0.907723
0.887627
0.867511
0.847375
0.827221
0.807048
0.786858
0.766651
0.746427
0.726186
0.705931
0.68566
0.665374
0.645075
0.624761
0.604434
0.584093
0.56374
0.543374
0.522996
0.502605
0.482203
0.46179
0.441365
0.420929
0.400483
0.380026
0.359559
0.339082
0.318596
0.2981
0.277595
0.25708
0.236557
0.216026
0.907651
0.887557
0.867443
0.84731
0.827158
0.806987
0.786799
0.766593
0.746371
0.726132
0.705878
0.685609
0.665325
0.645026
0.624714
0.604388
0.584049
0.563697
0.543332
0.522955
0.502566
0.482164
0.461752
0.441328
0.420893
0.400448
0.379992
0.359526
0.33905
0.318564
0.298069
0.277565
0.257052
0.23653
0.216
0.907585
0.887494
0.867382
0.847251
0.827101
0.806932
0.786745
0.766541
0.74632
0.726083
0.70583
0.685562
0.665279
0.644982
0.624671
0.604346
0.584008
0.563657
0.543293
0.522917
0.502529
0.482129
0.461717
0.441294
0.42086
0.400415
0.37996
0.359495
0.33902
0.318535
0.298041
0.277538
0.257026
0.236506
0.215977
0.907528
0.887439
0.867329
0.8472
0.827052
0.806885
0.7867
0.766497
0.746277
0.726041
0.705789
0.685522
0.66524
0.644944
0.624634
0.60431
0.583973
0.563623
0.54326
0.522885
0.502498
0.482098
0.461688
0.441265
0.420832
0.400388
0.379934
0.35947
0.338995
0.318511
0.298018
0.277516
0.257005
0.236485
0.215957
0.907487
0.8874
0.867292
0.847165
0.827018
0.806853
0.786669
0.766467
0.746248
0.726013
0.705761
0.685495
0.665214
0.644918
0.624608
0.604285
0.583949
0.563599
0.543237
0.522863
0.502476
0.482077
0.461667
0.441246
0.420813
0.40037
0.379916
0.359452
0.338978
0.318495
0.298002
0.2775
0.25699
0.236471
0.215944
0.907465
0.887379
0.867273
0.847147
0.827001
0.806836
0.786653
0.766452
0.746233
0.725998
0.705747
0.685481
0.665199
0.644904
0.624595
0.604272
0.583936
0.563587
0.543225
0.522851
0.502465
0.482067
0.461657
0.441236
0.420804
0.400361
0.379907
0.359444
0.33897
0.318487
0.297994
0.277493
0.256982
0.236464
0.215937
0.907466
0.88738
0.867273
0.847147
0.827002
0.806837
0.786654
0.766453
0.746234
0.725999
0.705748
0.685482
0.6652
0.644905
0.624595
0.604272
0.583936
0.563587
0.543226
0.522852
0.502466
0.482068
0.461658
0.441237
0.420805
0.400362
0.379909
0.359445
0.338971
0.318488
0.297995
0.277494
0.256983
0.236465
0.215938
0.907488
0.887401
0.867294
0.847167
0.827021
0.806855
0.786672
0.76647
0.746251
0.726016
0.705764
0.685498
0.665216
0.64492
0.62461
0.604287
0.583951
0.563602
0.54324
0.522865
0.502479
0.482081
0.461671
0.44125
0.420817
0.400374
0.37992
0.359456
0.338982
0.318498
0.298005
0.277503
0.256993
0.236474
0.215947
0.90753
0.887441
0.867332
0.847203
0.827055
0.806888
0.786704
0.766501
0.746282
0.726046
0.705794
0.685527
0.665245
0.644949
0.624638
0.604314
0.583977
0.563627
0.543265
0.522889
0.502502
0.482103
0.461693
0.441271
0.420838
0.400394
0.37994
0.359476
0.339001
0.318517
0.298024
0.277521
0.25701
0.23649
0.215962
0.907589
0.887497
0.867386
0.847254
0.827104
0.806936
0.786749
0.766546
0.746325
0.726089
0.705836
0.685568
0.665286
0.644988
0.624677
0.604352
0.584014
0.563663
0.543299
0.522923
0.502535
0.482135
0.461723
0.441301
0.420867
0.400423
0.379968
0.359503
0.339028
0.318543
0.298049
0.277545
0.257033
0.236512
0.215983
0.907656
0.887562
0.867447
0.847314
0.827162
0.806991
0.786803
0.766598
0.746377
0.726139
0.705885
0.685616
0.665332
0.645034
0.624722
0.604396
0.584057
0.563704
0.543339
0.522962
0.502573
0.482172
0.461759
0.441336
0.420901
0.400456
0.38
0.359534
0.339058
0.318573
0.298078
0.277574
0.25706
0.236538
0.216008
0.907729
0.887632
0.867516
0.84738
0.827225
0.807053
0.786863
0.766656
0.746433
0.726193
0.705938
0.685668
0.665383
0.645083
0.62477
0.604442
0.584102
0.563748
0.543382
0.523004
0.502613
0.482211
0.461798
0.441373
0.420938
0.400491
0.380035
0.359568
0.339091
0.318605
0.298109
0.277604
0.257089
0.236566
0.216034
0.907796
0.887697
0.867578
0.847441
0.827285
0.80711
0.786919
0.76671
0.746485
0.726244
0.705987
0.685715
0.665429
0.645128
0.624813
0.604485
0.584143
0.563789
0.543421
0.523042
0.502651
0.482248
0.461833
0.441408
0.420971
0.400524
0.380066
0.359599
0.339121
0.318634
0.298137
0.277631
0.257115
0.236591
0.216058
0.90785
0.887749
0.867629
0.847489
0.827331
0.807155
0.786962
0.766752
0.746525
0.726283
0.706024
0.685751
0.665464
0.645162
0.624846
0.604517
0.584174
0.563819
0.543451
0.523071
0.502679
0.482275
0.46186
0.441434
0.420996
0.400549
0.38009
0.359622
0.339144
0.318655
0.298158
0.277651
0.257135
0.23661
0.216076
0.907881
0.887779
0.867658
0.847518
0.827359
0.807182
0.786988
0.766777
0.74655
0.726306
0.706048
0.685774
0.665486
0.645183
0.624867
0.604537
0.584194
0.563838
0.54347
0.52309
0.502697
0.482293
0.461877
0.44145
0.421013
0.400564
0.380106
0.359637
0.339158
0.31867
0.298172
0.277664
0.257148
0.236623
0.216088
0.907908
0.887806
0.867684
0.847543
0.827383
0.807206
0.787011
0.766799
0.746572
0.726328
0.706069
0.685794
0.665506
0.645203
0.624886
0.604556
0.584212
0.563856
0.543487
0.523107
0.502714
0.482309
0.461893
0.441466
0.421028
0.40058
0.380121
0.359652
0.339173
0.318684
0.298186
0.277678
0.257161
0.236636
0.216101
0.195551
0.174999
0.15444
0.133872
0.113297
0.0927133
0.0721212
0.051524
0.0309111
0.0103233
0.195538
0.174987
0.154428
0.13386
0.113285
0.0927016
0.0721082
0.0515124
0.0308849
0.0103389
0.195526
0.174976
0.154417
0.13385
0.113275
0.0926925
0.0720982
0.0515042
0.0308646
0.0103566
0.195509
0.174959
0.154402
0.133836
0.113263
0.0926823
0.0720912
0.0514989
0.0308718
0.0103415
0.195486
0.174938
0.154383
0.133819
0.113249
0.0926714
0.0720868
0.0514975
0.0308986
0.0103016
0.195462
0.174916
0.154362
0.133802
0.113235
0.0926616
0.0720846
0.0514993
0.030926
0.0102625
0.19544
0.174896
0.154344
0.133787
0.113223
0.0926541
0.0720838
0.0515013
0.030947
0.0102352
0.195422
0.174879
0.15433
0.133775
0.113214
0.0926487
0.0720833
0.0515038
0.0309612
0.0102182
0.19541
0.174868
0.15432
0.133767
0.113209
0.0926455
0.0720836
0.0515056
0.0309706
0.010208
0.195404
0.174863
0.154316
0.133763
0.113206
0.0926443
0.072084
0.0515069
0.0309756
0.010203
0.195404
0.174864
0.154317
0.133764
0.113207
0.092645
0.0720848
0.0515076
0.0309762
0.0102029
0.195412
0.174871
0.154323
0.133769
0.113211
0.0926477
0.0720857
0.0515074
0.030973
0.0102075
0.195427
0.174884
0.154334
0.133779
0.113218
0.0926522
0.0720866
0.0515067
0.0309645
0.0102175
0.195446
0.174902
0.15435
0.133792
0.113228
0.0926585
0.0720879
0.0515048
0.0309511
0.0102343
0.195469
0.174923
0.154369
0.133808
0.113241
0.0926666
0.0720891
0.051503
0.0309303
0.0102615
0.195494
0.174946
0.15439
0.133826
0.113255
0.0926765
0.0720914
0.0515013
0.0309024
0.0103007
0.195517
0.174967
0.154409
0.133843
0.113269
0.0926874
0.0720957
0.0515022
0.0308752
0.0103409
0.195534
0.174983
0.154424
0.133857
0.113281
0.0926975
0.0721023
0.0515073
0.030867
0.0103564
0.195546
0.174994
0.154435
0.133867
0.11329
0.0927064
0.0721121
0.0515153
0.0308869
0.0103392
0.195558
0.175007
0.154447
0.133879
0.113302
0.0927179
0.072125
0.0515267
0.0309128
0.0103238
)
;

boundaryField
{
    inlet
    {
        type            zeroGradient;
    }
    outlet
    {
        type            fixedValue;
        value           uniform 0;
    }
    upperWall
    {
        type            zeroGradient;
    }
    lowerWall
    {
        type            zeroGradient;
    }
    frontAndBack
    {
        type            empty;
    }
}


// ************************************************************************* //
