/*--------------------------------*- C++ -*----------------------------------*\
| =========                 |                                                 |
| \\      /  F ield         | OpenFOAM: The Open Source CFD Toolbox           |
|  \\    /   O peration     | Version:  2406                                  |
|   \\  /    A nd           | Website:  www.openfoam.com                      |
|    \\/     M anipulation  |                                                 |
\*---------------------------------------------------------------------------*/
FoamFile
{
    version     2.0;
    format      ascii;
    arch        "LSB;label=32;scalar=64";
    class       surfaceScalarField;
    location    "41";
    object      phi;
}
// * * * * * * * * * * * * * * * * * * * * * * * * * * * * * * * * * * * * * //

dimensions      [0 3 -1 0 0 0 0];

oriented        oriented;

internalField   nonuniform List<scalar> 
3470
(
0.019417
-0.000416976
0.0199837
-0.000566707
0.0205326
-0.000548929
0.0210909
-0.000558206
0.021707
-0.00061607
0.0224258
-0.000718809
0.0233115
-0.000885699
0.024475
-0.00116352
0.0261402
-0.00166515
-0.00326381
0.0294039
0.0508871
-0.000304077
0.0510196
-0.00069919
0.0513833
-0.000912574
0.051922
-0.00109686
0.0526256
-0.00131962
0.0535106
-0.00160379
0.0546102
-0.00198521
0.0559778
-0.0025312
0.0576547
-0.00334215
-0.00466592
0.0590568
0.0749582
-0.000262308
0.0749697
-0.000710685
0.0751211
-0.00106397
0.07542
-0.00139572
0.0758656
-0.0017651
0.0764628
-0.00220101
0.0772131
-0.00273548
0.0780983
-0.00341641
0.0790514
-0.00429531
-0.00543469
0.0798201
0.0909808
-0.000243083
0.0909558
-0.000685733
0.0909868
-0.00109502
0.0910957
-0.00150459
0.0912826
-0.00195199
0.0915437
-0.00246201
0.0918668
-0.00305857
0.0922202
-0.0037699
0.0925442
-0.00461928
-0.00561616
0.0927256
0.0989702
-0.000213304
0.0988973
-0.000612802
0.0988199
-0.00101766
0.0987586
-0.00144326
0.098711
-0.00190433
0.0986661
-0.00241708
0.0986062
-0.00299868
0.0985005
-0.00366429
0.0983025
-0.00442129
-0.00526261
0.097949
0.0989468
-0.000160152
0.0988081
-0.000474087
0.0986203
-0.000829917
0.0983998
-0.00122268
0.0981395
-0.00164402
0.0978248
-0.0021023
0.097436
-0.00260996
0.0969453
-0.00317362
0.0963161
-0.00379207
-0.00445415
0.0955076
0.0909117
-7.18453e-05
0.0906941
-0.000256504
0.0904014
-0.000537212
0.0900427
-0.000863947
0.0896046
-0.00120586
0.0890707
-0.00156844
0.0884215
-0.00196072
0.0876312
-0.00238341
0.0866705
-0.00283134
-0.00329425
0.0855106
0.0748485
7.96547e-05
0.0745573
3.46542e-05
0.0741993
-0.00017921
0.0737635
-0.000428052
0.0732277
-0.000670094
0.0725739
-0.00091458
0.0717812
-0.00116794
0.0708256
-0.00142791
0.0696842
-0.00168998
-0.0019483
0.0683382
0.0507584
0.000321282
0.0505235
0.000269472
0.050271
7.33005e-05
0.0499314
-8.8412e-05
0.0494738
-0.000212433
0.0488816
-0.00032232
0.0481395
-0.000425815
0.0472341
-0.000522574
0.0461562
-0.000612091
-0.000693939
0.0449018
0.0193213
0.0195907
0.0196641
0.0195757
0.0193632
0.0190409
0.0186151
0.0180925
0.0174804
0.0167865
-7.56569e-05
7.56503e-05
-0.00032477
0.000249111
-0.000678879
0.000354104
-0.00107481
0.000395921
-0.00148182
0.00040701
-0.00188869
0.000406864
-0.00229246
0.000403763
-0.00269243
0.000399969
-0.0030875
0.000395079
-0.00347502
0.000387522
-0.00385019
0.000375181
-0.00420572
0.000355538
-0.00453149
0.000325779
-0.00481435
0.000282874
-0.00503805
0.00022372
-0.00518345
0.000145419
-0.00522896
4.55321e-05
-0.00515119
-7.7744e-05
-0.00492638
-0.000224786
-0.00453148
-0.000394869
-0.00394517
-0.000586271
-0.0031492
-0.00079593
-0.0021294
-0.00101976
-0.000876284
-0.00125306
0.000615046
-0.00149128
0.00234328
-0.00172818
0.00430003
-0.0019567
0.00646993
-0.00216986
0.00882936
-0.00235938
0.0113441
-0.00251473
0.0139668
-0.00262264
0.0166335
-0.00266665
0.0192614
-0.00262792
0.0217487
-0.00248733
-0.00223154
0.0239802
-0.000295686
0.000371343
-0.000938842
0.000892248
-0.00176546
0.00118071
-0.00266096
0.00129141
-0.00356324
0.00130927
-0.00444396
0.00128757
-0.00529093
0.00125074
-0.00609727
0.00120631
-0.0068558
0.00115362
-0.00755656
0.0010883
-0.00818565
0.00100429
-0.0087247
0.000894616
-0.00915078
0.000751894
-0.00943671
0.000568844
-0.00955184
0.000338895
-0.00946336
5.69835e-05
-0.00913756
-0.000280214
-0.00854227
-0.000672977
-0.00764789
-0.00111909
-0.00642898
-0.0016137
-0.00486554
-0.00214963
-0.00294403
-0.00271734
-0.000656974
-0.0033067
0.00199646
-0.00390638
0.0050083
-0.004503
0.0083643
-0.00508408
0.0120446
-0.00563693
0.0160226
-0.00614778
0.0202639
-0.00660062
0.0247245
-0.00697525
0.0293472
-0.00724528
0.0340572
-0.00737655
0.0387571
-0.00732794
0.0433236
-0.00705393
-0.0065175
0.0476095
-0.000486945
0.000858273
-0.00143227
0.00183758
-0.00256747
0.0023159
-0.00374379
0.00246771
-0.00488508
0.00245054
-0.00595477
0.00235726
-0.00693468
0.00223065
-0.00781289
0.00208453
-0.0085775
0.00191824
-0.00921379
0.00172461
-0.00970309
0.00149362
-0.0100226
0.00121415
-0.0101458
0.000875174
-0.0100437
0.000466773
-0.00968619
-1.86181e-05
-0.00904416
-0.000585011
-0.00809151
-0.00123282
-0.00680528
-0.00195915
-0.00516753
-0.00275677
-0.00316622
-0.00361494
-0.000795251
-0.00452052
0.00194584
-0.00545835
0.00505018
-0.00641096
0.00850471
-0.00736081
0.0122926
-0.00829083
0.0163933
-0.00918466
0.020783
-0.0100265
0.0254353
-0.0108
0.0303202
-0.0114856
0.0354028
-0.0120577
0.0406385
-0.012481
0.0459683
-0.0127063
0.0513106
-0.0126703
0.0565519
-0.0122953
-0.0115113
0.0615457
-0.000617131
0.00147543
-0.0017335
0.00295396
-0.00298949
0.00357189
-0.00421333
0.00369155
-0.00532781
0.00356501
-0.00629851
0.00332796
-0.00710876
0.00304091
-0.00774741
0.00272319
-0.00820309
0.00237395
-0.00846197
0.00198351
-0.00850711
0.00153878
-0.00831884
0.00102591
-0.00787582
0.000432187
-0.00715659
-0.000252423
-0.00614193
-0.00103325
-0.00481541
-0.00191149
-0.00316388
-0.00288431
-0.00117877
-0.00394421
0.00114362
-0.00507911
0.00380162
-0.00627289
0.00678738
-0.00750623
0.0100876
-0.00875851
0.013685
-0.0100083
0.0175593
-0.011235
0.0216881
-0.0124196
0.0260489
-0.0135454
0.0306198
-0.0145974
0.0353807
-0.0155609
0.0403135
-0.0164183
0.0454006
-0.0171447
0.0506209
-0.0177012
0.055942
-0.0180274
0.0613076
-0.018036
0.0666149
-0.0176026
-0.0166101
0.0717136
-0.000688761
0.00216419
-0.00182354
0.00408879
-0.00298141
0.00472979
-0.0039959
0.00470604
-0.00480931
0.00437842
-0.00540281
0.00392147
-0.0057703
0.00340842
-0.00590817
0.00286106
-0.00581115
0.00227694
-0.00547126
0.00164364
-0.00487824
0.000945788
-0.00402042
0.000168129
-0.00288632
-0.000701886
-0.00146659
-0.00167213
0.000245898
-0.00274572
0.00225537
-0.00392095
0.00456173
-0.00519064
0.00715986
-0.00654232
0.0100397
-0.0079589
0.0131862
-0.00941939
0.0165802
-0.0109002
0.0201988
-0.0123771
0.0240167
-0.0138262
0.0280078
-0.015226
0.032147
-0.0165587
0.036412
-0.0178104
0.0407859
-0.0189713
0.045259
-0.0200339
0.0498303
-0.0209895
0.0545078
-0.0218222
0.059306
-0.0224993
0.0642378
-0.022959
0.0692929
-0.0230911
0.0743955
-0.0227052
-0.021615
0.0794005
-0.000711271
0.00287551
-0.00169046
0.00506807
-0.00248969
0.00552904
-0.00300573
0.0052221
-0.00323482
0.00460751
-0.00318913
0.0038758
-0.00287996
0.00309926
-0.00231474
0.00229586
-0.00149648
0.00145869
-0.000424292
0.000571473
0.000904713
-0.00038319
0.00249379
-0.00142092
0.0043444
-0.00255248
0.00645543
-0.00378316
0.00882253
-0.00511281
0.0114372
-0.00653557
0.0142863
-0.00803975
0.0173522
-0.00960825
0.0206127
-0.0112194
0.0240414
-0.0128481
0.027609
-0.0144678
0.0312841
-0.0160522
0.0350352
-0.0175772
0.0388323
-0.0190231
0.0426496
-0.0203759
0.0464678
-0.0216286
0.0502774
-0.0227809
0.0540821
-0.0238387
0.0579028
-0.0248101
0.0617806
-0.0256999
0.065778
-0.0264965
0.069977
-0.0271579
0.0744538
-0.0275677
0.0792407
-0.027492
-0.0266638
0.0842897
-0.000673246
0.00354881
-0.00125056
0.00564547
-0.00134044
0.00561899
-0.00101078
0.00489246
-0.000354925
0.00395167
0.000576241
0.00294466
0.00175641
0.00191912
0.00317104
0.000881268
0.00481278
-0.000183023
0.00667962
-0.00129534
0.00877042
-0.00247396
0.0110806
-0.00373112
0.0136023
-0.00507415
0.016324
-0.00650486
0.0192302
-0.00801895
0.0223006
-0.00960602
0.0255106
-0.0112497
0.0288311
-0.0129287
0.0322293
-0.0146176
0.0356701
-0.0162888
0.0391166
-0.0179144
0.0425327
-0.0194683
0.045884
-0.0209285
0.0491404
-0.0222795
0.0522784
-0.0235139
0.0552842
-0.0246343
0.0581576
-0.0256542
0.0609173
-0.0265983
0.063608
-0.0275009
0.0663098
-0.0284017
0.0691465
-0.0293332
0.0722943
-0.0303056
0.0759653
-0.0312389
0.0804566
-0.0319834
-0.0322688
0.0860616
-0.000479014
0.00402788
-0.000126369
0.00529296
0.00104378
0.00444891
0.00264335
0.00329291
0.004483
0.00211204
0.00650208
0.00092561
0.00868117
-0.000259929
0.0110145
-0.00145198
0.0135022
-0.00267074
0.0161421
-0.00393518
0.0189275
-0.00525941
0.0218482
-0.0066518
0.0248894
-0.00811527
0.0280314
-0.00964686
0.0312499
-0.0112375
0.0345161
-0.0128722
0.0377969
-0.0145305
0.0410562
-0.016188
0.0442556
-0.0178171
0.0473564
-0.0193896
0.0503203
-0.0208783
0.0531115
-0.0222595
0.0556982
-0.0235153
0.0580547
-0.024636
0.0601631
-0.0256223
0.0620163
-0.0264875
0.0636221
-0.0272601
0.0650101
-0.0279863
0.0662424
-0.0287332
0.0674332
-0.0295926
0.0687804
-0.0306804
0.0706017
-0.0321271
0.0733705
-0.0340079
0.0777635
-0.0363767
-0.0387203
0.0842147
0.000515107
0.00351283
0.00308748
0.00272065
0.00625084
0.00128558
0.00946242
8.13352e-05
0.0126291
-0.00105466
0.015765
-0.00221019
0.0188945
-0.00338948
0.0220361
-0.00459352
0.0252007
-0.00583526
0.0283927
-0.0071272
0.0316093
-0.00847599
0.0348402
-0.00988272
0.0380685
-0.0113436
0.0412714
-0.0128497
0.0444208
-0.0143869
0.0474846
-0.015936
0.0504279
-0.0174738
0.0532137
-0.0189738
0.0558049
-0.0204083
0.0581655
-0.0217502
0.0602621
-0.0229748
0.062065
-0.0240624
0.06355
-0.0250002
0.064699
-0.0257851
0.065502
-0.0264253
0.0659581
-0.0269436
0.0660783
-0.0273804
0.0658908
-0.0277988
0.065451
-0.0282935
0.0648657
-0.0290073
0.0643476
-0.0301623
0.064331
-0.0321107
0.0657379
-0.0354149
0.0699472
-0.0405862
-0.0448384
0.0760652
0.00693571
-0.00342288
0.0127902
-0.00313383
0.0176808
-0.00360494
0.0220484
-0.00428631
0.0260534
-0.00505965
0.0297935
-0.00595028
0.0333461
-0.00694202
0.036764
-0.00801146
0.0400765
-0.00914774
0.0432954
-0.0103461
0.0464206
-0.0116012
0.0494426
-0.0129047
0.0523443
-0.0142452
0.0551024
-0.0156078
0.0576892
-0.0169738
0.0600741
-0.0183209
0.0622246
-0.0196242
0.0641081
-0.0208573
0.0656936
-0.0219938
0.0669525
-0.0230091
0.0678604
-0.0238827
0.0683976
-0.0245996
0.0685503
-0.0251529
0.0683108
-0.0255456
0.0676779
-0.0257923
0.0666561
-0.0259218
0.0652555
-0.0259799
0.0634914
-0.0260347
0.0613844
-0.0261865
0.058965
-0.0265879
0.0562917
-0.027489
0.0535194
-0.0293385
0.0511775
-0.0330731
0.0508432
-0.0402519
-0.0491191
0.0551239
0.0316474
-0.00566632
0.0350899
-0.00657628
0.0385466
-0.00706168
0.0419059
-0.00764556
0.0451629
-0.0083167
0.048285
-0.00907237
0.0512631
-0.00992006
0.0541022
-0.0108505
0.0568037
-0.0118493
0.0593617
-0.0129041
0.0617638
-0.0140033
0.0639928
-0.0151336
0.0660269
-0.0162793
0.067841
-0.0174219
0.0694075
-0.0185403
0.070698
-0.0196114
0.0716845
-0.0206107
0.0723408
-0.0215136
0.0726438
-0.0222968
0.0725748
-0.0229402
0.0721205
-0.0234283
0.0712733
-0.0237524
0.0700319
-0.0239116
0.0684007
-0.0239144
0.0663887
-0.0237803
0.0640071
-0.0235403
0.0612661
-0.0232389
0.0581684
-0.022937
0.0546991
-0.0227172
0.0508051
-0.0226939
0.0463496
-0.0230337
0.0410018
-0.0239907
0.0338945
-0.0259658
0.0226725
-0.02903
-0.0264466
0.0597593
-0.00636877
0.0608395
-0.00765646
0.0622977
-0.0085199
0.0639453
-0.00929317
0.0656964
-0.0100677
0.0674762
-0.0108522
0.0692203
-0.0116641
0.0708838
-0.0125141
0.072434
-0.0133995
0.0738417
-0.0143118
0.0750788
-0.0152404
0.0761174
-0.0161722
0.0769296
-0.0170915
0.0774877
-0.01798
0.0777648
-0.0188174
0.0777355
-0.0195822
0.0773777
-0.0202529
0.0766732
-0.020809
0.0756088
-0.0212324
0.0741776
-0.021509
0.0723794
-0.0216301
0.0702205
-0.0215935
0.0677138
-0.0214049
0.064877
-0.0210777
0.0617306
-0.020634
0.0582946
-0.0201043
0.0545828
-0.019527
0.0505949
-0.0189492
0.0463042
-0.0184265
0.041635
-0.0180246
0.0364236
-0.0178223
0.0303414
-0.0179085
0.0227086
-0.018333
0.012196
-0.0185172
-0.0142506
0.0802236
-0.00677221
0.080556
-0.00798884
0.0809929
-0.00895672
0.0815024
-0.00980269
0.0820451
-0.0106105
0.0825878
-0.0113949
0.0830888
-0.0121651
0.0835066
-0.0129318
0.0838045
-0.0136974
0.0839497
-0.014457
0.0839112
-0.0152018
0.0836595
-0.0159205
0.0831674
-0.0165994
0.0824099
-0.0172225
0.0813652
-0.0177727
0.0800156
-0.0182326
0.0783484
-0.0185857
0.0763568
-0.0188174
0.074041
-0.0189166
0.0714083
-0.0188763
0.0684735
-0.0186952
0.0652578
-0.0183779
0.0617882
-0.0179353
0.058095
-0.0173845
0.0542089
-0.0167479
0.0501573
-0.0160527
0.0459589
-0.0153286
0.0416162
-0.0146066
0.0371058
-0.0139161
0.0323632
-0.013282
0.0272615
-0.0127205
0.0215817
-0.0122288
0.0149798
-0.011731
0.00716943
-0.0107069
-0.00708114
0.0926672
-0.0067137
0.092447
-0.00776861
0.0921767
-0.00868638
0.09187
-0.00949604
0.0915061
-0.0102466
0.0910659
-0.0109547
0.0905261
-0.0116254
0.0898591
-0.0122647
0.089037
-0.0128754
0.0880344
-0.0134543
0.0868272
-0.0139945
0.0853936
-0.0144869
0.0837147
-0.0149205
0.0817753
-0.0152831
0.0795647
-0.0155622
0.077078
-0.0157459
0.0743164
-0.0158242
0.0712883
-0.0157893
0.068009
-0.0156373
0.0645012
-0.0153685
0.0607937
-0.0149878
0.0569205
-0.0145047
0.0529186
-0.0139334
0.0488256
-0.0132915
0.0446769
-0.0125993
0.0405018
-0.0118777
0.0363197
-0.0111466
0.0321348
-0.0104217
0.02793
-0.00971129
0.0236593
-0.00901127
0.0192407
-0.00830198
0.0145559
-0.00754387
0.0094796
-0.00665478
0.00413003
-0.00535731
-0.00295112
0.0973882
-0.00615289
0.0966391
-0.00701945
0.0957544
-0.00780166
0.0947528
-0.00849448
0.0936259
-0.00911967
0.0923614
-0.00969021
0.0909461
-0.0102101
0.0893638
-0.0106824
0.0875973
-0.0111089
0.0856315
-0.0114884
0.0834533
-0.0118163
0.0810528
-0.0120865
0.0784241
-0.0122918
0.0755658
-0.0124248
0.0724821
-0.0124784
0.0691832
-0.012447
0.0656855
-0.0123265
0.062012
-0.0121158
0.0581914
-0.0118167
0.0542575
-0.0114346
0.0502475
-0.0109778
0.0462006
-0.0104578
0.0421555
-0.00988828
0.0381483
-0.00928435
0.0342102
-0.00866119
0.0303649
-0.00803248
0.0266267
-0.00740833
0.0229971
-0.00679223
0.0194631
-0.0061773
0.0159944
-0.00554259
0.0125451
-0.00485265
0.00906533
-0.00406413
0.00554586
-0.00313531
0.00220235
-0.00201389
-0.000748781
0.094489
-0.00513423
0.0932605
-0.00579095
0.0918451
-0.00638616
0.0902578
-0.00690722
0.0884994
-0.00736131
0.086566
-0.00775676
0.0844533
-0.00809744
0.0821569
-0.00838588
0.0796722
-0.00862422
0.0769967
-0.00881296
0.0741312
-0.00895069
0.0710796
-0.00903485
0.0678503
-0.00906247
0.0644563
-0.00903075
0.0609155
-0.0089376
0.0572506
-0.00878212
0.0534892
-0.00856507
0.0496627
-0.00828918
0.0458052
-0.00795924
0.0419526
-0.00758205
0.038141
-0.0071661
0.0344043
-0.00672113
0.0307735
-0.0062575
0.0272746
-0.00578545
0.0239275
-0.00531413
0.0207454
-0.00485038
0.0177338
-0.00439682
0.0148907
-0.00394917
0.0122062
-0.00349276
0.00966385
-0.0030003
0.00724615
-0.00243496
0.00494703
-0.00176505
0.00280492
-0.000993308
0.000997943
-0.000206989
0.000249151
0.0841312
-0.00375488
0.0825293
-0.00418901
0.0807169
-0.00457371
0.0787082
-0.00489849
0.0765123
-0.00516544
0.074136
-0.00538048
0.0715867
-0.00554808
0.0688725
-0.00567167
0.0660026
-0.0057543
0.0629879
-0.00579819
0.0598416
-0.00580437
0.0565798
-0.00577304
0.0532215
-0.00570422
0.0497889
-0.0055981
0.0463067
-0.00545543
0.0428023
-0.00527771
0.0393047
-0.00506742
0.0358436
-0.0048281
0.0324486
-0.00456425
0.0291477
-0.00428119
0.0259664
-0.00398478
0.0229264
-0.0036811
0.0200449
-0.00337604
0.0173343
-0.00307494
0.0148021
-0.00278198
0.012451
-0.00249935
0.01028
-0.0022258
0.0082851
-0.00195434
0.00646188
-0.00166958
0.00480821
-0.00134663
0.00332922
-0.000955992
0.00204445
-0.000480321
0.000998817
5.22642e-05
0.000281448
0.000510297
0.000530588
0.0667774
-0.00219401
0.0650035
-0.00241509
0.0630302
-0.00260032
0.0608763
-0.00274467
0.0585611
-0.00285025
0.0561028
-0.00292215
0.0535196
-0.00296495
0.0508302
-0.00298222
0.0480529
-0.00297697
0.0452063
-0.00295154
0.0423094
-0.00290748
0.0393822
-0.00284579
0.0364453
-0.0027673
0.0335201
-0.00267291
0.0306284
-0.00256376
0.027792
-0.00244132
0.025032
-0.00230746
0.0223683
-0.00216436
0.0198185
-0.00201454
0.017398
-0.00186065
0.0151186
-0.00170542
0.0129889
-0.00155145
0.011014
-0.00140111
0.00919533
-0.00125637
0.00753185
-0.00111855
0.00602031
-0.000987871
0.00465691
-0.000862444
0.0034393
-0.000736765
0.00236965
-0.000599951
0.00145839
-0.000435367
0.000726894
-0.000224492
0.000206346
4.0214e-05
-7.22521e-05
0.000330796
-0.000104349
0.000542324
0.000426231
0.0434742
-0.000766337
0.0418852
-0.000826088
0.0401552
-0.000870228
0.0383086
-0.000898127
0.0363702
-0.000911823
0.0343623
-0.000914336
0.0323055
-0.000908148
0.0302183
-0.000894969
0.0281174
-0.000876061
0.0260182
-0.000852334
0.0239351
-0.000824363
0.0218819
-0.000792506
0.0198716
-0.000757082
0.0179172
-0.000718452
0.0160305
-0.000677065
0.0142226
-0.000633437
0.0125033
-0.000588169
0.0108808
-0.000541909
0.00936159
-0.000495343
0.00795008
-0.000449146
0.00664861
-0.000403967
0.00545751
-0.000360384
0.00437526
-0.000318901
0.00339875
-0.000279896
0.00252373
-0.000243583
0.00174574
-0.000209921
0.00106132
-0.000178064
0.000470309
-0.000145782
-2.0769e-05
-0.000108882
-0.000395383
-6.07456e-05
-0.000625828
5.96208e-06
-0.000679581
9.39538e-05
-0.000540072
0.000191244
-0.000249079
0.000251286
0.000177146
0.0160202
0.0151941
0.0143239
0.0134257
0.0125139
0.0115996
0.0106914
0.00979644
0.00892039
0.00806806
0.0072437
0.0064512
0.00569411
0.00497566
0.00429859
0.00366515
0.00307698
0.00253507
0.00203973
0.00159058
0.00118661
0.000826221
0.000507315
0.000227413
-1.61756e-05
-0.000226102
-0.00040417
-0.000549954
-0.000658835
-0.000719579
-0.000713616
-0.000619664
-0.000428427
-0.000177146
0.0258398
-0.00185967
0.0272326
-0.00139286
0.0281105
-0.000877832
0.0284801
-0.00036962
0.0283897
9.05078e-05
0.0279131
0.000476652
0.0271342
0.000778905
0.0261344
0.000999747
0.0249865
0.00114791
0.00123505
0.0237515
0.0514533
-0.00570359
0.0547073
-0.00464689
0.0572757
-0.00344617
0.0591275
-0.00222127
0.0602788
-0.00106074
0.0607679
-1.2272e-05
0.0606518
0.000895059
0.0600074
0.00164414
0.0589202
0.00223508
0.00267993
0.0574754
0.0661133
-0.0102712
0.0700874
-0.008621
0.0733783
-0.00673704
0.0759749
-0.00481773
0.0779024
-0.00298813
0.0792018
-0.00131164
0.0799199
0.000176899
0.0801033
0.00146077
0.0798019
0.0025365
0.0034138
0.079068
0.0763778
-0.0149354
0.0803944
-0.0126375
0.0836936
-0.0100362
0.0863131
-0.00743717
0.0883117
-0.00498675
0.0897499
-0.00274981
0.0906946
-0.000767909
0.0912093
0.000946014
0.0913404
0.00240537
0.00363166
0.0911225
0.0839556
-0.0194904
0.0877406
-0.0164224
0.090715
-0.0130105
0.0929715
-0.0096936
0.0946014
-0.00661667
0.0957032
-0.00385171
0.0963844
-0.00144916
0.0967376
0.000592639
0.0968258
0.0023172
0.00377461
0.0966827
0.088826
-0.0240266
0.0922457
-0.019842
0.0945841
-0.015349
0.0960374
-0.0111468
0.0967964
-0.00737571
0.0970784
-0.00413375
0.0970795
-0.00145037
0.0969275
0.000744539
0.0966832
0.00256129
0.00409904
0.0963587
0.0906581
-0.0286233
0.0930395
-0.0222235
0.0936971
-0.0160067
0.0932427
-0.0106925
0.0922154
-0.00634837
0.0910687
-0.00298716
0.0900671
-0.000448838
0.0893006
0.00151082
0.0887579
0.00310401
0.00450177
0.0883551
0.0872959
-0.0317048
0.0859281
-0.0208559
0.0825666
-0.0126453
0.0787897
-0.00691566
0.0754926
-0.00305135
0.0730718
-0.000566391
0.0715638
0.00105895
0.0708501
0.00222452
0.0707426
0.00321132
0.0043288
0.0709154
0.0711757
-0.0268153
0.061774
-0.0114544
0.0535325
-0.0044039
0.0478203
-0.00120354
0.044514
0.000254823
0.0430475
0.000899982
0.0428741
0.00123227
0.0436102
0.00148814
0.0449879
0.00183343
0.00292376
0.0463928
0.0283086
0.0168541
0.0124502
0.0112466
0.0115014
0.0124014
0.0136336
0.0151217
0.0169551
0.0198787
0.0224781
0.00127344
0.0212041
0.00127404
0.0199577
0.00124646
0.018758
0.00119968
0.0176161
0.00114191
0.0165366
0.00107958
0.0155197
0.0010169
0.0145635
0.000956308
0.0136644
0.000899153
0.0128185
0.000846075
0.0120214
0.000797172
0.0112694
0.000752196
0.0105588
0.000710732
0.00988662
0.000672311
0.00925029
0.000636471
0.00864765
0.000602783
0.00807692
0.000570869
0.00753664
0.000540415
0.00702561
0.000511159
0.00654284
0.000482894
0.00608749
0.000455463
0.00565884
0.000428756
0.00525622
0.000402707
0.004879
0.000377295
0.00452654
0.000352528
0.00419816
0.000328445
0.0038931
0.000305102
0.00361058
0.000282565
0.0033497
0.000260903
0.00310953
0.000240188
0.00288904
0.000220484
0.00268718
0.000201856
0.0025028
0.000184355
0.00233474
0.000168036
0.000152946
0.00218176
0.0557541
0.00299474
0.0538322
0.00319605
0.0517777
0.00330101
0.0496485
0.00332891
0.0474904
0.00330005
0.0453376
0.00323246
0.0432146
0.00314006
0.0411379
0.00303308
0.0391182
0.00291903
0.0371614
0.00280311
0.0352702
0.00268861
0.0334454
0.00257729
0.0316864
0.00246996
0.0299922
0.00236677
0.0283615
0.00226747
0.0267929
0.0021716
0.0252855
0.00207859
0.0238383
0.00198787
0.0224507
0.00189892
0.0211226
0.00181129
0.0198536
0.00172463
0.0186439
0.00163871
0.0174934
0.00155341
0.0164021
0.00146876
0.0153698
0.00138487
0.0143965
0.00130196
0.0134813
0.00122032
0.0126237
0.00114031
0.0118223
0.00106229
0.0110759
0.000986648
0.0103826
0.00091377
0.00974037
0.000844019
0.00914692
0.000777739
0.00859962
0.000715247
0.000656843
0.00809564
0.0779559
0.00410689
0.0765227
0.00462922
0.0748271
0.00499665
0.072924
0.00523206
0.0708614
0.0053627
0.0686803
0.00541362
0.0664155
0.00540489
0.0640961
0.00535258
0.0617456
0.00526965
0.0593828
0.00516611
0.0570224
0.00504913
0.0546762
0.00492366
0.0523534
0.00479296
0.0500614
0.00465906
0.047806
0.00452308
0.0455923
0.00438547
0.0434248
0.0042463
0.0413076
0.00410537
0.0392443
0.00396239
0.0372388
0.00381705
0.0352945
0.00366911
0.0334149
0.00351846
0.0316033
0.00336516
0.0298628
0.00320946
0.0281959
0.00305182
0.0266051
0.00289287
0.0250921
0.00273341
0.0236581
0.00257439
0.0223036
0.00241679
0.0210286
0.00226168
0.0198322
0.00211013
0.018713
0.00196317
0.0176689
0.0018218
0.0166971
0.00168697
0.00155954
0.0157943
0.0905861
0.0046433
0.089765
0.00545041
0.0886955
0.00606611
0.0874101
0.00651754
0.0859345
0.00683835
0.0842911
0.00705698
0.0825012
0.00719481
0.0805845
0.00726933
0.0785591
0.00729512
0.0764417
0.00728362
0.0742477
0.00724328
0.0719912
0.00718029
0.0696852
0.00709913
0.0673415
0.00700291
0.0649711
0.00689364
0.0625842
0.00677251
0.0601906
0.00664012
0.0577995
0.0064967
0.0554198
0.00634225
0.0530604
0.00617666
0.0507298
0.00599989
0.0484364
0.005812
0.0461884
0.00561332
0.0439935
0.00540441
0.0418593
0.00518617
0.0397924
0.00495983
0.037799
0.00472688
0.0358843
0.0044891
0.0340527
0.00424843
0.0323074
0.00400696
0.0306507
0.00376684
0.0290836
0.00353023
0.0276061
0.00329923
0.0262171
0.00307586
0.00286202
0.0249145
0.0963314
0.00499466
0.0958012
0.00598058
0.095123
0.00674424
0.0943139
0.00732668
0.0933782
0.00777396
0.0923174
0.00811774
0.0911329
0.00837928
0.0898263
0.00857594
0.0883998
0.00872165
0.0868569
0.00882651
0.0852027
0.00889759
0.083443
0.00894005
0.0815846
0.00895756
0.0796351
0.00895254
0.0776024
0.00892644
0.0754951
0.00887993
0.0733222
0.00881313
0.0710933
0.00872578
0.0688183
0.00861739
0.0665077
0.00848741
0.0641724
0.00833534
0.0618236
0.00816091
0.0594729
0.00796417
0.0571318
0.00774559
0.0548119
0.00750617
0.0525244
0.00724739
0.0502801
0.00697126
0.0480889
0.00668027
0.0459601
0.00637731
0.0439014
0.00606561
0.0419196
0.00574858
0.04002
0.00542979
0.0382064
0.0051128
0.036481
0.00480112
0.00449813
0.0348448
0.0959535
0.00539983
0.0954976
0.00643641
0.0950242
0.00721767
0.0945347
0.00781609
0.094014
0.00829454
0.0934469
0.00868475
0.0928194
0.00900678
0.0921177
0.00927756
0.0913301
0.00950914
0.0904478
0.00970878
0.0894644
0.00988107
0.0883753
0.0100291
0.0871783
0.0101547
0.0858723
0.0102586
0.0844579
0.0103408
0.0829372
0.0104007
0.0813136
0.0104369
0.0795916
0.0104479
0.0777773
0.0104318
0.0758779
0.0103869
0.073902
0.0103113
0.0718594
0.0102036
0.0697611
0.0100626
0.0676189
0.00988791
0.0654454
0.00967977
0.0632536
0.00943915
0.0610571
0.00916786
0.0588689
0.0088685
0.0567018
0.00854439
0.0545679
0.00819948
0.0524783
0.00783824
0.0504425
0.00746551
0.048469
0.00708633
0.0465642
0.00670581
0.00632901
0.0447333
0.0880142
0.00574067
0.0877651
0.00668541
0.0876368
0.00734591
0.0875972
0.00785559
0.0876047
0.00828696
0.0876274
0.00866183
0.0876379
0.0089962
0.0876116
0.00930376
0.087529
0.00959161
0.087375
0.0098626
0.0871378
0.0101182
0.0868076
0.0103592
0.0863766
0.0105855
0.0858387
0.0107964
0.0851891
0.0109904
0.0844242
0.0111655
0.0835418
0.0113193
0.082541
0.0114487
0.0814223
0.0115505
0.0801878
0.0116214
0.0788412
0.0116579
0.0773879
0.0116569
0.0758349
0.0116156
0.0741909
0.0115319
0.0724662
0.0114045
0.0706723
0.0112331
0.0688219
0.0110183
0.0669285
0.010762
0.0650058
0.0104671
0.0630678
0.0101375
0.061128
0.00977806
0.0591992
0.00939433
0.0572931
0.0089924
0.0554202
0.00857871
0.00815983
0.0535893
0.0711619
0.00549406
0.0716133
0.00623389
0.0722837
0.00667541
0.0730883
0.0070508
0.0739628
0.00741231
0.074861
0.00776347
0.075744
0.00811297
0.0765829
0.00846463
0.0773582
0.00881609
0.0780563
0.00916431
0.078667
0.00950742
0.079182
0.00984399
0.0795949
0.0101725
0.0798998
0.0104914
0.0800917
0.0107985
0.0801657
0.0110914
0.0801178
0.0113671
0.0799444
0.0116221
0.0796427
0.0118522
0.079211
0.0120531
0.0786488
0.0122202
0.0779569
0.0123488
0.0771378
0.0124347
0.0761959
0.0124739
0.0751371
0.0124634
0.0739692
0.012401
0.0727019
0.0122857
0.0713459
0.012118
0.0699136
0.0118995
0.0684178
0.0116333
0.0668721
0.0113238
0.0652899
0.0109765
0.0636844
0.0105979
0.0620682
0.0101949
0.00977535
0.0604527
0.0475387
0.00434799
0.0491253
0.00464705
0.0510035
0.00479711
0.0529917
0.00506235
0.0550006
0.0054032
0.0569691
0.00579465
0.058859
0.00622283
0.0606521
0.00667127
0.0623408
0.00712717
0.0639214
0.00758347
0.0653922
0.00803647
0.0667521
0.00848391
0.0680001
0.00892428
0.0691349
0.00935638
0.0701544
0.00977884
0.0710558
0.0101898
0.071836
0.0105867
0.0724917
0.0109663
0.0730191
0.0113246
0.073415
0.0116571
0.0736765
0.0119587
0.0738013
0.012224
0.0737884
0.0124476
0.073638
0.0126243
0.0733519
0.0127495
0.0729336
0.0128193
0.0723883
0.012831
0.0717231
0.0127832
0.0709466
0.012676
0.0700689
0.0125111
0.0691011
0.0122917
0.0680552
0.0120225
0.0669435
0.0117096
0.0657784
0.0113601
0.0109819
0.0645719
0.0224268
0.00179971
0.0257559
0.0013177
0.0290513
0.00150149
0.0321969
0.00191643
0.0351768
0.002423
0.0379782
0.00299289
0.0406106
0.00359018
0.0430918
0.00418972
0.0454371
0.00478158
0.0476575
0.00536281
0.0497613
0.00593237
0.0517548
0.00649015
0.053642
0.00703679
0.0554251
0.00757305
0.0571044
0.00809926
0.058679
0.00861495
0.0601468
0.00911871
0.0615047
0.00960825
0.0627488
0.0100803
0.063875
0.0105308
0.0648787
0.0109549
0.0657555
0.011347
0.0665017
0.0117014
0.0671141
0.0120119
0.0675908
0.0122729
0.0679311
0.0124791
0.0681359
0.0126263
0.0682079
0.0127113
0.0681513
0.0127327
0.067972
0.0126904
0.0676776
0.0125863
0.0672766
0.0124236
0.0667787
0.0122076
0.0661944
0.0119445
0.0116421
0.0655342
0.0047461
-0.00294648
0.00905634
-0.00299289
0.0127691
-0.00221164
0.0161168
-0.00143164
0.019193
-0.000653561
0.0220582
0.000127311
0.024761
0.000887071
0.0273363
0.00161404
0.0298075
0.00231006
0.0321899
0.00298005
0.0344938
0.00362817
0.0367256
0.00425801
0.0388891
0.00487298
0.0409858
0.00547608
0.0430154
0.00606936
0.0449762
0.00665381
0.0468654
0.00722928
0.0486789
0.00779453
0.0504117
0.00834725
0.0520584
0.00888404
0.0536126
0.00940053
0.055068
0.00989148
0.0564183
0.010351
0.0576575
0.0107727
0.0587801
0.0111502
0.0597818
0.0114774
0.0606593
0.0117488
0.0614108
0.01196
0.0620359
0.0121077
0.0625361
0.0121904
0.0629143
0.0122082
0.063175
0.0121631
0.0633241
0.0120587
0.0633684
0.0119004
0.0116948
0.0633159
0.000369662
-0.00331634
0.00212135
-0.00474498
0.0043136
-0.00440429
0.00655695
-0.00367541
0.00876495
-0.00286198
0.0109302
-0.00203838
0.0130609
-0.00124406
0.015168
-0.000493442
0.0172601
0.000217541
0.0193424
0.0008974
0.0214171
0.00155316
0.0234846
0.00219009
0.0255443
0.00281295
0.0275941
0.00342591
0.0296311
0.004032
0.0316515
0.0046331
0.0336505
0.00522995
0.0356226
0.00582217
0.0375614
0.00640821
0.0394598
0.00698539
0.0413102
0.0075499
0.0431047
0.00809693
0.0448347
0.00862086
0.046492
0.00911539
0.0480684
0.00957388
0.0495562
0.00998966
0.0509487
0.0103565
0.05224
0.0106688
0.0534256
0.0109223
0.0545023
0.0111139
0.0554685
0.0112422
0.0563242
0.0113076
0.0570709
0.0113122
0.0577115
0.01126
0.0111565
0.05825
-0.000392426
-0.00292407
-0.00026739
-0.00487051
0.000408841
-0.005081
0.00138257
-0.00464963
0.0025177
-0.0039976
0.00376226
-0.00328343
0.0050925
-0.00257479
0.00649483
-0.00189627
0.00796226
-0.00125037
0.00949136
-0.000632166
0.0110797
-3.55796e-05
0.0127234
0.00054589
0.014418
0.00111799
0.0161585
0.00168503
0.0179399
0.00225019
0.019757
0.00281566
0.0216039
0.00338264
0.0234745
0.00395129
0.0253617
0.00452069
0.0272581
0.00508873
0.0291556
0.00565217
0.0310456
0.00620678
0.032919
0.00674745
0.0347661
0.00726827
0.0365772
0.00776274
0.0383428
0.00822412
0.0400536
0.00864586
0.0417007
0.00902191
0.0432761
0.00934704
0.0447731
0.00961717
0.046186
0.00982962
0.0475105
0.00998337
0.0487439
0.0100791
0.049885
0.0101192
0.0101079
0.0509339
-0.000562643
-0.00236167
-0.00114131
-0.00429236
-0.00141214
-0.0048107
-0.00140095
-0.00466136
-0.00117008
-0.00422901
-0.00076079
-0.00369326
-0.000200351
-0.00313579
0.000491862
-0.00258905
0.0013027
-0.00206177
0.00222314
-0.00155313
0.00324614
-0.00105909
0.00436612
-0.000574561
0.0055782
-9.45418e-05
0.00687726
0.000385536
0.00825791
0.000869126
0.00971491
0.00135827
0.0112429
0.00185424
0.0128363
0.0023576
0.0144888
0.00286792
0.0161938
0.00338355
0.017944
0.00390176
0.0197318
0.0044189
0.0215485
0.0049307
0.0233848
0.0054319
0.0252311
0.00591651
0.0270773
0.00637812
0.0289129
0.00681038
0.0307279
0.00720725