/*--------------------------------*- C++ -*----------------------------------*\
| =========                 |                                                 |
| \\      /  F ield         | OpenFOAM: The Open Source CFD Toolbox           |
|  \\    /   O peration     | Version:  2406                                  |
|   \\  /    A nd           | Website:  www.openfoam.com                      |
|    \\/     M anipulation  |                                                 |
\*---------------------------------------------------------------------------*/
FoamFile
{
    version     2.0;
    format      ascii;
    arch        "LSB;label=32;scalar=64";
    class       volVectorField;
    location    "41";
    object      U;
}
// * * * * * * * * * * * * * * * * * * * * * * * * * * * * * * * * * * * * * //

dimensions      [0 1 -1 0 0 0 0];

internalField   nonuniform List<vector> 
1800
(
(0.190376 -0.00246087 0)
(0.196518 -0.00326175 0)
(0.202609 -0.00262168 0)
(0.208086 -0.00226034 0)
(0.213811 -0.00232547 0)
(0.220379 -0.00267266 0)
(0.228268 -0.00336403 0)
(0.238121 -0.00466613 0)
(0.251989 -0.00784709 0)
(0.266542 -0.0254912 0)
(0.50687 -0.00354303 0)
(0.508192 -0.00728321 0)
(0.511796 -0.00853947 0)
(0.516299 -0.00933614 0)
(0.52231 -0.0105451 0)
(0.530179 -0.0123756 0)
(0.540044 -0.0151156 0)
(0.552177 -0.0193856 0)
(0.567184 -0.0261449 0)
(0.582892 -0.0390745 0)
(0.747649 -0.00276367 0)
(0.748498 -0.00700594 0)
(0.750436 -0.0100447 0)
(0.752601 -0.0128102 0)
(0.756031 -0.0159238 0)
(0.761183 -0.0196745 0)
(0.767956 -0.0244143 0)
(0.776153 -0.0307364 0)
(0.785448 -0.0394279 0)
(0.79457 -0.0518481 0)
(0.908013 -0.00243783 0)
(0.908691 -0.0069084 0)
(0.909847 -0.0108862 0)
(0.910504 -0.0147823 0)
(0.911675 -0.0190346 0)
(0.913854 -0.0239322 0)
(0.916859 -0.0297698 0)
(0.92034 -0.0369295 0)
(0.923857 -0.045783 0)
(0.926649 -0.0565719 0)
(0.988114 -0.00220907 0)
(0.988459 -0.00650204 0)
(0.988837 -0.0106961 0)
(0.988146 -0.0150053 0)
(0.987306 -0.0196806 0)
(0.98679 -0.0249348 0)
(0.986372 -0.0309776 0)
(0.985659 -0.0380193 0)
(0.984248 -0.0461957 0)
(0.981634 -0.0554705 0)
(0.988062 -0.00182157 0)
(0.987993 -0.00550406 0)
(0.987514 -0.00939418 0)
(0.985482 -0.0135724 0)
(0.982791 -0.0180905 0)
(0.979875 -0.0230643 0)
(0.976473 -0.0286338 0)
(0.972188 -0.0349016 0)
(0.966673 -0.0418869 0)
(0.95957 -0.0494794 0)
(0.90786 -0.00115993 0)
(0.907317 -0.00381113 0)
(0.905961 -0.00702679 0)
(0.902685 -0.010646 0)
(0.898419 -0.0145207 0)
(0.893539 -0.018701 0)
(0.887742 -0.0232814 0)
(0.880647 -0.0282948 0)
(0.871957 -0.0336997 0)
(0.86141 -0.0393752 0)
(0.747405 -1.57578e-05 0)
(0.746324 -0.0012477 0)
(0.744305 -0.00365813 0)
(0.740285 -0.00650303 0)
(0.735178 -0.00942654 0)
(0.729241 -0.012478 0)
(0.722123 -0.0157331 0)
(0.713466 -0.0191795 0)
(0.703028 -0.0227529 0)
(0.690624 -0.0263559 0)
(0.506589 0.00179064 0)
(0.505574 0.00221171 0)
(0.504373 0.00034038 0)
(0.501433 -0.00194424 0)
(0.497291 -0.00399769 0)
(0.492064 -0.00590079 0)
(0.48547 -0.00775035 0)
(0.477276 -0.0095464 0)
(0.467374 -0.0112627 0)
(0.455715 -0.0128685 0)
(0.190117 0.00180291 0)
(0.194383 0.00175297 0)
(0.196691 0.000542507 0)
(0.196551 -0.000301372 0)
(0.194922 -0.000773969 0)
(0.192223 -0.0011257 0)
(0.188488 -0.00143334 0)
(0.183743 -0.00168803 0)
(0.178057 -0.00188696 0)
(0.171512 -0.00204029 0)
(-9.48599e-05 8.0405e-05 0)
(-0.00176726 0.000525354 0)
(-0.00486235 0.000805005 0)
(-0.0087103 0.000907368 0)
(-0.0127775 0.0009408 0)
(-0.0168661 0.000957636 0)
(-0.0209257 0.000976696 0)
(-0.0249483 0.00100243 0)
(-0.0289293 0.00103377 0)
(-0.032852 0.00106691 0)
(-0.0366803 0.00109654 0)
(-0.0403542 0.00111563 0)
(-0.043787 0.00111597 0)
(-0.0468625 0.00108786 0)
(-0.049433 0.0010203 0)
(-0.0513206 0.000901795 0)
(-0.0523204 0.0007211 0)
(-0.0522034 0.000469949 0)
(-0.0507316 0.000142457 0)
(-0.0476694 -0.000264897 0)
(-0.0427917 -0.000752739 0)
(-0.0358979 -0.00131669 0)
(-0.0268244 -0.00194768 0)
(-0.0154566 -0.00263556 0)
(-0.001734 -0.00335986 0)
(0.0143611 -0.00408141 0)
(0.0327947 -0.00477182 0)
(0.0534537 -0.0054121 0)
(0.0761418 -0.00596931 0)
(0.100574 -0.00639871 0)
(0.126351 -0.00664375 0)
(0.152921 -0.0066359 0)
(0.179559 -0.00630014 0)
(0.20534 -0.00556776 0)
(0.22917 -0.00440629 0)
(-0.00070891 0.00188395 0)
(-0.00566477 0.00502022 0)
(-0.0132176 0.00690085 0)
(-0.0220537 0.00768014 0)
(-0.0311587 0.00788502 0)
(-0.0401208 0.00786067 0)
(-0.0487809 0.00776378 0)
(-0.057064 0.00764096 0)
(-0.0649092 0.0074865 0)
(-0.0722352 0.0072721 0)
(-0.0789245 0.00695863 0)
(-0.0848161 0.00650016 0)
(-0.089703 0.00584541 0)
(-0.0933328 0.00494043 0)
(-0.0954135 0.00373165 0)
(-0.0956232 0.00217101 0)
(-0.0936206 0.000222992 0)
(-0.0890775 -0.00213265 0)
(-0.0816801 -0.00489418 0)
(-0.0711474 -0.00803973 0)
(-0.05725 -0.0115285 0)
(-0.0398187 -0.0153012 0)
(-0.0187575 -0.0192878 0)
(0.00595472 -0.0234047 0)
(0.034287 -0.0275539 0)
(0.0661472 -0.031629 0)
(0.101366 -0.0355269 0)
(0.139709 -0.0391424 0)
(0.180873 -0.0423453 0)
(0.224473 -0.0449718 0)
(0.270012 -0.0468134 0)
(0.31684 -0.0476085 0)
(0.364109 -0.0470544 0)
(0.410723 -0.0448357 0)
(0.455325 -0.0407178 0)
(-0.00127384 0.00584379 0)
(-0.00900188 0.0131147 0)
(-0.0197066 0.0169607 0)
(-0.031567 0.0183785 0)
(-0.0433031 0.0185152 0)
(-0.0544202 0.0180854 0)
(-0.064701 0.0174219 0)
(-0.0740188 0.0166309 0)
(-0.0822651 0.0157053 0)
(-0.0893114 0.0145863 0)
(-0.094992 0.0131913 0)
(-0.0990985 0.0114264 0)
(-0.101382 0.00919483 0)
(-0.101562 0.00640405 0)
(-0.0993359 0.00297677 0)
(-0.0943932 -0.00113757 0)
(-0.0864702 -0.00596464 0)
(-0.0753119 -0.0114938 0)
(-0.0607092 -0.0176789 0)
(-0.0425099 -0.0244417 0)
(-0.0206253 -0.0316808 0)
(0.00496294 -0.0392721 0)
(0.0342153 -0.0470748 0)
(0.0670405 -0.0549378 0)
(0.103291 -0.0627037 0)
(0.142778 -0.0702236 0)
(0.185277 -0.0773492 0)
(0.230539 -0.0839188 0)
(0.278285 -0.0897422 0)
(0.328194 -0.0945758 0)
(0.37988 -0.0980966 0)
(0.432837 -0.0998768 0)
(0.486382 -0.0993915 0)
(0.539558 -0.0960451 0)
(0.591075 -0.0893469 0)
(-0.00168644 0.0114892 0)
(-0.0112292 0.0237466 0)
(-0.0234784 0.0293834 0)
(-0.0362138 0.0309412 0)
(-0.0480511 0.0304159 0)
(-0.0585326 0.0289443 0)
(-0.0674664 0.0270458 0)
(-0.0747364 0.0248885 0)
(-0.0802392 0.0224646 0)
(-0.0838519 0.0196874 0)
(-0.0854201 0.0164378 0)
(-0.0847588 0.0125861 0)
(-0.0816589 0.00800906 0)
(-0.0758982 0.00260257 0)
(-0.0672615 -0.00370049 0)
(-0.055585 -0.0109253 0)
(-0.0407087 -0.0190575 0)
(-0.0225191 -0.0280493 0)
(-0.00095406 -0.0378047 0)
(0.0239839 -0.0481893 0)
(0.0522402 -0.0590387 0)
(0.0837133 -0.0701713 0)
(0.11825 -0.0813889 0)
(0.15566 -0.0924972 0)
(0.195726 -0.103311 0)
(0.238223 -0.113657 0)
(0.282925 -0.12337 0)
(0.329622 -0.132281 0)
(0.378122 -0.140189 0)
(0.428251 -0.146824 0)
(0.479824 -0.151795 0)
(0.53259 -0.154533 0)
(0.586148 -0.154274 0)
(0.639734 -0.150021 0)
(0.692124 -0.140869 0)
(-0.0019942 0.0181376 0)
(-0.0122962 0.0353654 0)
(-0.024182 0.0419884 0)
(-0.0353444 0.0427502 0)
(-0.0445823 0.0406943 0)
(-0.0516388 0.0373912 0)
(-0.0564505 0.0335253 0)
(-0.058987 0.02931 0)
(-0.0592093 0.0247319 0)
(-0.0570511 0.0196812 0)
(-0.0524187 0.0140161 0)
(-0.0451978 0.00759189 0)
(-0.035264 0.000279231 0)
(-0.0225092 -0.00801629 0)
(-0.00684784 -0.0173377 0)
(0.01178 -0.0276829 0)
(0.033385 -0.0390034 0)
(0.0579402 -0.0512001 0)
(0.0853734 -0.0641279 0)
(0.115559 -0.0776024 0)
(0.148324 -0.0914075 0)
(0.183452 -0.105314 0)
(0.220701 -0.119093 0)
(0.259811 -0.132526 0)
(0.30052 -0.145422 0)
(0.342588 -0.15762 0)
(0.385814 -0.168985 0)
(0.430061 -0.17939 0)
(0.475271 -0.188685 0)
(0.52148 -0.196642 0)
(0.568806 -0.202875 0)
(0.617392 -0.206741 0)
(0.667338 -0.207246 0)
(0.718226 -0.202824 0)
(0.769128 -0.191914 0)
(-0.00225939 0.0252691 0)
(-0.0122658 0.0463745 0)
(-0.0214877 0.0524257 0)
(-0.0282117 0.0511079 0)
(-0.0319321 0.0465724 0)
(-0.0328139 0.0407218 0)
(-0.0310126 0.0343248 0)
(-0.026629 0.0275955 0)
(-0.0197129 0.0204937 0)
(-0.0102688 0.0128817 0)
(0.00173235 0.00459451 0)
(0.0163247 -0.00452613 0)
(0.0335309 -0.0146029 0)
(0.0533526 -0.025702 0)
(0.0757672 -0.0378408 0)
(0.100713 -0.0509857 0)
(0.128082 -0.0650454 0)
(0.157719 -0.0798695 0)
(0.189423 -0.0952627 0)
(0.222948 -0.110992 0)
(0.258013 -0.126804 0)
(0.29431 -0.14244 0)
(0.331522 -0.157656 0)
(0.369335 -0.172239 0)
(0.407465 -0.186024 0)
(0.445682 -0.198897 0)
(0.483834 -0.210801 0)
(0.521883 -0.221711 0)
(0.559944 -0.231605 0)
(0.598317 -0.240389 0)
(0.637516 -0.247785 0)
(0.67825 -0.253192 0)
(0.721448 -0.25541 0)
(0.767408 -0.252281 0)
(0.816824 -0.24159 0)
(-0.00249932 0.0327933 0)
(-0.0107433 0.0549892 0)
(-0.0140589 0.0578314 0)
(-0.0126873 0.0529534 0)
(-0.00760634 0.0452149 0)
(0.000424004 0.036462 0)
(0.0110376 0.0273672 0)
(0.0240411 0.0180701 0)
(0.0393384 0.00846351 0)
(0.0568806 -0.00164246 0)
(0.0766796 -0.0124347 0)
(0.0987063 -0.0240577 0)
(0.122895 -0.0366039 0)
(0.149151 -0.05011 0)
(0.177342 -0.0645545 0)
(0.207289 -0.0798569 0)
(0.238769 -0.0958761 0)
(0.271508 -0.112418 0)
(0.305196 -0.129243 0)
(0.339489 -0.146087 0)
(0.374024 -0.16267 0)
(0.408431 -0.178725 0)
(0.442352 -0.194019 0)
(0.475461 -0.208369 0)
(0.507484 -0.221663 0)
(0.538229 -0.233875 0)
(0.567616 -0.245068 0)
(0.595725 -0.255387 0)
(0.622852 -0.26503 0)
(0.6496 -0.274187 0)
(0.67694 -0.282877 0)
(0.706366 -0.290761 0)
(0.739886 -0.296458 0)
(0.779406 -0.297383 0)
(0.830044 -0.290395 0)
(-0.00255932 0.0408003 0)
(-0.0051449 0.0582974 0)
(0.00309532 0.0540885 0)
(0.0175759 0.044545 0)
(0.035061 0.0336194 0)
(0.0544589 0.0222999 0)
(0.0754943 0.0109311 0)
(0.0980647 -0.000501806 0)
(0.122177 -0.0121898 0)
(0.147833 -0.0243453 0)
(0.174983 -0.0371321 0)
(0.203549 -0.0506583 0)
(0.233407 -0.0649771 0)
(0.264383 -0.080086 0)
(0.296259 -0.0959202 0)
(0.328767 -0.112353 0)
(0.361597 -0.129199 0)
(0.394398 -0.146226 0)
(0.426796 -0.163167 0)
(0.458401 -0.179737 0)
(0.488822 -0.195656 0)
(0.517686 -0.210671 0)
(0.544651 -0.224579 0)
(0.569426 -0.237249 0)
(0.591787 -0.248648 0)
(0.611605 -0.258856 0)
(0.628876 -0.268087 0)
(0.643772 -0.276702 0)
(0.656721 -0.285217 0)
(0.668564 -0.294299 0)
(0.680717 -0.304672 0)
(0.69575 -0.316936 0)
(0.716988 -0.330588 0)
(0.750785 -0.343797 0)
(0.805733 -0.350458 0)
(0.0026899 0.0409528 0)
(0.0164019 0.0473115 0)
(0.0452325 0.0347407 0)
(0.0782028 0.0215284 0)
(0.11048 0.0089111 0)
(0.141954 -0.00360495 0)
(0.173221 -0.0160761 0)
(0.204576 -0.0285676 0)
(0.236104 -0.0412878 0)
(0.267886 -0.0544402 0)
(0.299946 -0.0681514 0)
(0.332223 -0.0824797 0)
(0.364576 -0.0974264 0)
(0.396802 -0.112936 0)
(0.428644 -0.128895 0)
(0.4598 -0.145133 0)
(0.489932 -0.161429 0)
(0.518676 -0.177526 0)
(0.545659 -0.193146 0)
(0.570511 -0.208005 0)
(0.59288 -0.221842 0)
(0.612447 -0.234435 0)
(0.628941 -0.245628 0)
(0.642148 -0.255357 0)
(0.651927 -0.263666 0)
(0.65822 -0.27074 0)
(0.661075 -0.276934 0)
(0.660683 -0.282812 0)
(0.657441 -0.289218 0)
(0.652131 -0.297385 0)
(0.646175 -0.309116 0)
(0.642767 -0.327027 0)
(0.646577 -0.354663 0)
(0.673346 -0.395963 0)
(0.721177 -0.442752 0)
(0.0587321 0.00448318 0)
(0.10206 0.000564232 0)
(0.150969 -0.010037 0)
(0.198835 -0.0204482 0)
(0.241309 -0.0303935 0)
(0.279766 -0.0408071 0)
(0.316002 -0.0518597 0)
(0.350797 -0.0634506 0)
(0.384435 -0.0755625 0)
(0.417081 -0.0882328 0)
(0.448813 -0.101474 0)
(0.479587 -0.115253 0)
(0.509263 -0.129492 0)
(0.537633 -0.144068 0)
(0.564437 -0.158816 0)
(0.589379 -0.173524 0)
(0.612141 -0.187949 0)
(0.632395 -0.201822 0)
(0.64982 -0.214869 0)
(0.664112 -0.226826 0)
(0.675004 -0.237464 0)
(0.682272 -0.246605 0)
(0.685748 -0.254149 0)
(0.685325 -0.260094 0)
(0.680959 -0.264555 0)
(0.67267 -0.267796 0)
(0.660539 -0.270258 0)
(0.6447 -0.272617 0)
(0.625345 -0.275887 0)
(0.602761 -0.281615 0)
(0.577393 -0.292316 0)
(0.550611 -0.312313 0)
(0.525186 -0.349948 0)
(0.518737 -0.417976 0)
(0.501941 -0.504714 0)
(0.310934 -0.0544668 0)
(0.336708 -0.0591914 0)
(0.366766 -0.061169 0)
(0.401665 -0.0651985 0)
(0.435725 -0.0710968 0)
(0.467656 -0.0785137 0)
(0.498034 -0.0872145 0)
(0.527122 -0.0969481 0)
(0.554867 -0.107507 0)
(0.581195 -0.118747 0)
(0.60603 -0.130549 0)
(0.629238 -0.142787 0)
(0.65062 -0.155311 0)
(0.669934 -0.167944 0)
(0.686911 -0.180478 0)
(0.701271 -0.19268 0)
(0.712726 -0.204296 0)
(0.721005 -0.215064 0)
(0.725856 -0.224732 0)
(0.727069 -0.23307 0)
(0.72448 -0.239893 0)
(0.717982 -0.24508 0)
(0.707533 -0.24859 0)
(0.69315 -0.250478 0)
(0.674904 -0.250918 0)
(0.652906 -0.250211 0)
(0.627275 -0.248821 0)
(0.598097 -0.247407 0)
(0.565349 -0.246908 0)
(0.52877 -0.248701 0)
(0.487568 -0.254949 0)
(0.439989 -0.269336 0)
(0.381512 -0.299047 0)
(0.301369 -0.35225 0)
(0.12878 -0.357588 0)
(0.59593 -0.0589769 0)
(0.603881 -0.0724069 0)
(0.614702 -0.0807603 0)
(0.630334 -0.0879799 0)
(0.648016 -0.0953165 0)
(0.665942 -0.102991 0)
(0.683616 -0.111183 0)
(0.70073 -0.119981 0)
(0.716895 -0.129339 0)
(0.731767 -0.13915 0)
(0.745063 -0.149293 0)
(0.756514 -0.159626 0)
(0.765843 -0.169985 0)
(0.772769 -0.18018 0)
(0.777013 -0.189995 0)
(0.778313 -0.199203 0)
(0.77643 -0.207566 0)
(0.771159 -0.214852 0)
(0.762341 -0.220849 0)
(0.749873 -0.225381 0)
(0.733718 -0.228325 0)
(0.713907 -0.229622 0)
(0.690537 -0.229295 0)
(0.663765 -0.227458 0)
(0.633792 -0.22432 0)
(0.60083 -0.220195 0)
(0.565064 -0.215507 0)
(0.526587 -0.210805 0)
(0.485304 -0.20679 0)
(0.440775 -0.204372 0)
(0.39193 -0.204767 0)
(0.336661 -0.209614 0)
(0.270403 -0.220727 0)
(0.185094 -0.233763 0)
(0.0537719 -0.199836 0)
(0.801154 -0.0669134 0)
(0.80459 -0.0795014 0)
(0.807637 -0.0890955 0)
(0.812132 -0.0975143 0)
(0.817626 -0.105655 0)
(0.823248 -0.113691 0)
(0.828545 -0.121744 0)
(0.833211 -0.12993 0)
(0.836882 -0.138267 0)
(0.839189 -0.146695 0)
(0.839804 -0.155118 0)
(0.838428 -0.163415 0)
(0.834778 -0.171436 0)
(0.828592 -0.179009 0)
(0.819633 -0.185942 0)
(0.807701 -0.192038 0)
(0.792642 -0.197099 0)
(0.774357 -0.200948 0)
(0.752811 -0.203434 0)
(0.728041 -0.20445 0)
(0.700156 -0.203946 0)
(0.66934 -0.201935 0)
(0.635838 -0.198504 0)
(0.599941 -0.193811 0)
(0.561964 -0.188085 0)
(0.522209 -0.181623 0)
(0.480922 -0.174774 0)
(0.438229 -0.167932 0)
(0.394057 -0.161527 0)
(0.348014 -0.156001 0)
(0.29921 -0.151795 0)
(0.246045 -0.14924 0)
(0.185555 -0.147925 0)
(0.115121 -0.141897 0)
(0.0273629 -0.101848 0)
(0.927568 -0.0685827 0)
(0.926151 -0.0798299 0)
(0.923373 -0.0894729 0)
(0.920295 -0.0980351 0)
(0.917 -0.106054 0)
(0.913089 -0.11371 0)
(0.908252 -0.121084 0)
(0.902269 -0.12825 0)
(0.89489 -0.135235 0)
(0.885838 -0.142004 0)
(0.874853 -0.148482 0)
(0.861705 -0.154565 0)
(0.846188 -0.160128 0)
(0.828131 -0.165029 0)
(0.807402 -0.169115 0)
(0.78392 -0.172237 0)
(0.757667 -0.174259 0)
(0.728688 -0.175069 0)
(0.697103 -0.174593 0)
(0.663102 -0.1728 0)
(0.626944 -0.169711 0)
(0.588949 -0.165405 0)
(0.549475 -0.160015 0)
(0.508903 -0.153722 0)
(0.467608 -0.146751 0)
(0.425921 -0.139348 0)
(0.384097 -0.131767 0)
(0.342269 -0.124244 0)
(0.30039 -0.11696 0)
(0.258167 -0.110002 0)
(0.214987 -0.103314 0)
(0.16984 -0.0965977 0)
(0.121203 -0.0889077 0)
(0.0691412 -0.0762466 0)
(0.01397 -0.0463707 0)
(0.97721 -0.0653975 0)
(0.970677 -0.0750142 0)
(0.962382 -0.0836473 0)
(0.952844 -0.0913429 0)
(0.942205 -0.0983806 0)
(0.930299 -0.104906 0)
(0.916941 -0.110972 0)
(0.901986 -0.116617 0)
(0.885281 -0.121859 0)
(0.866662 -0.126676 0)
(0.845978 -0.131013 0)
(0.823108 -0.134791 0)
(0.797973 -0.137917 0)
(0.770535 -0.140291 0)
(0.740807 -0.141813 0)
(0.70886 -0.142396 0)
(0.674827 -0.14197 0)
(0.638905 -0.140496 0)
(0.601356 -0.137969 0)
(0.562493 -0.134422 0)
(0.522675 -0.129932 0)
(0.482289 -0.124614 0)
(0.441731 -0.118615 0)
(0.401381 -0.112109 0)
(0.361582 -0.105278 0)
(0.322613 -0.0983006 0)
(0.284671 -0.0913255 0)
(0.247841 -0.0844438 0)
(0.212073 -0.0776491 0)
(0.177157 -0.0707935 0)
(0.142711 -0.0635628 0)
(0.108194 -0.0554859 0)
(0.0730499 -0.0458948 0)
(0.0383659 -0.0333415 0)
(0.00653922 -0.0158185 0)
(0.950514 -0.0573643 0)
(0.939302 -0.065007 0)
(0.926036 -0.0719624 0)
(0.910965 -0.0781334 0)
(0.89422 -0.0836255 0)
(0.875773 -0.0885269 0)
(0.855556 -0.0928744 0)
(0.833519 -0.0966921 0)
(0.809622 -0.099997 0)
(0.783829 -0.102783 0)
(0.756123 -0.105023 0)
(0.726524 -0.106672 0)
(0.695094 -0.107681 0)
(0.661938 -0.108001 0)
(0.627213 -0.107587 0)
(0.59112 -0.106412 0)
(0.553914 -0.104466 0)
(0.515891 -0.101764 0)
(0.477381 -0.0983481 0)
(0.438739 -0.0942871 0)
(0.400328 -0.089675 0)
(0.362502 -0.0846254 0)
(0.325591 -0.0792649 0)
(0.289883 -0.0737238 0)
(0.255609 -0.0681248 0)
(0.222938 -0.0625678 0)
(0.191963 -0.0571101 0)
(0.162702 -0.0517364 0)
(0.135094 -0.0463217 0)
(0.109007 -0.0406001 0)
(0.0842569 -0.0341805 0)
(0.0606716 -0.0266639 0)
(0.0382602 -0.0178878 0)
(0.0181774 -0.00829286 0)
(0.00245108 -0.000689453 0)
(0.848761 -0.0450999 0)
(0.833871 -0.0505587 0)
(0.816775 -0.0554694 0)
(0.797627 -0.0597176 0)
(0.776571 -0.0633289 0)
(0.75369 -0.0663585 0)
(0.729043 -0.0688442 0)
(0.702704 -0.070816 0)
(0.67476 -0.0723008 0)
(0.645309 -0.0733145 0)
(0.61447 -0.0738588 0)
(0.582387 -0.073926 0)
(0.549235 -0.0735059 0)
(0.515221 -0.0725907 0)
(0.480581 -0.0711795 0)
(0.445576 -0.0692822 0)
(0.410491 -0.0669222 0)
(0.375622 -0.0641381 0)
(0.341268 -0.0609834 0)
(0.30772 -0.0575244 0)
(0.275249 -0.0538373 0)
(0.244091 -0.0500034 0)
(0.214445 -0.0461043 0)
(0.186459 -0.0422157 0)
(0.160232 -0.0383999 0)
(0.135813 -0.0346955 0)
(0.113207 -0.0311003 0)
(0.0923874 -0.0275454 0)
(0.073305 -0.0238639 0)
(0.0559204 -0.0197759 0)
(0.0402413 -0.0149345 0)
(0.0263706 -0.0091018 0)
(0.014583 -0.00250406 0)
(0.00561083 0.00353482 0)
(0.000305664 0.00502533 0)
(0.676112 -0.0298501 0)
(0.659434 -0.0330597 0)
(0.640664 -0.0358258 0)
(0.619977 -0.0380749 0)
(0.597579 -0.0398221 0)
(0.573663 -0.0411175 0)
(0.54841 -0.0420081 0)
(0.522002 -0.0425346 0)
(0.494624 -0.0427331 0)
(0.466459 -0.0426316 0)
(0.437694 -0.0422481 0)
(0.408523 -0.0415933 0)
(0.37915 -0.0406756 0)
(0.349784 -0.039505 0)
(0.320644 -0.0380953 0)
(0.291949 -0.0364658 0)
(0.263915 -0.0346422 0)
(0.236748 -0.0326561 0)
(0.210638 -0.0305443 0)
(0.185752 -0.0283471 0)
(0.162225 -0.0261063 0)
(0.140161 -0.0238627 0)
(0.119628 -0.021654 0)
(0.100659 -0.0195121 0)
(0.0832537 -0.0174592 0)
(0.0673874 -0.0155014 0)
(0.0530207 -0.0136159 0)
(0.0401165 -0.0117317 0)
(0.0286659 -0.00970728 0)
(0.0187256 -0.00732547 0)
(0.0104575 -0.00434523 0)
(0.00414051 -0.000663157 0)
(0.000108661 0.00337686 0)
(-0.00143483 0.00646751 0)
(-0.000717333 0.00536459 0)
(0.442295 -0.0143163 0)
(0.427182 -0.0155411 0)
(0.410536 -0.0164862 0)
(0.392592 -0.0171365 0)
(0.373607 -0.0175222 0)
(0.353822 -0.0176906 0)
(0.333451 -0.0176827 0)
(0.312689 -0.0175292 0)
(0.291709 -0.0172538 0)
(0.270673 -0.0168737 0)
(0.249727 -0.0163998 0)
(0.229012 -0.0158395 0)
(0.208661 -0.0151994 0)
(0.188807 -0.0144865 0)
(0.169571 -0.0137099 0)
(0.151071 -0.0128798 0)
(0.133411 -0.0120082 0)
(0.116683 -0.0111084 0)
(0.100959 -0.0101946 0)
(0.0862957 -0.0092812 0)
(0.0727256 -0.00838199 0)
(0.0602626 -0.00750961 0)
(0.0489001 -0.00667498 0)
(0.0386141 -0.00588629 0)
(0.0293664 -0.00514795 0)
(0.0211109 -0.00445727 0)
(0.0138036 -0.00379829 0)
(0.00742019 -0.00313044 0)
(0.00198409 -0.00237627 0)
(-0.00239456 -0.00141876 0)
(-0.005484 -0.000131567 0)
(-0.00694782 0.00152439 0)
(-0.0064866 0.00332314 0)
(-0.0042399 0.00446804 0)
(-0.00103781 0.00322627 0)
(0.164191 -0.00215301 0)
(0.156202 -0.00221918 0)
(0.147688 -0.00223189 0)
(0.138814 -0.00219534 0)
(0.129736 -0.00212447 0)
(0.120583 -0.00203507 0)
(0.111452 -0.00193722 0)
(0.102421 -0.00183575 0)
(0.0935533 -0.00173249 0)
(0.0849001 -0.00162737 0)
(0.0765063 -0.00151942 0)
(0.0684123 -0.00140795 0)
(0.0606552 -0.00129327 0)
(0.0532691 -0.0011766 0)
(0.046284 -0.00105959 0)
(0.039725 -0.000943984 0)
(0.0336119 -0.000831363 0)
(0.0279579 -0.000723117 0)
(0.0227697 -0.000620335 0)
(0.0180468 -0.000523903 0)
(0.0137824 -0.000434467 0)
(0.00996322 -0.000352557 0)
(0.00657064 -0.000278529 0)
(0.00358143 -0.000212609 0)
(0.000968924 -0.000154672 0)
(-0.00129469 -0.000104017 0)
(-0.00323348 -5.8436e-05 0)
(-0.00485777 -1.21444e-05 0)
(-0.00614675 4.71142e-05 0)
(-0.00702381 0.000139591 0)
(-0.00733378 0.000290337 0)
(-0.0068506 0.000516184 0)
(-0.00538768 0.000795329 0)
(-0.00312268 0.000985885 0)
(-0.000748609 0.00075586 0)
(0.249864 -0.00285119 0)
(0.26632 -0.00104432 0)
(0.277775 0.000772199 0)
(0.284012 0.00236134 0)
(0.285323 0.00358744 0)
(0.282312 0.00440245 0)
(0.27586 0.00482065 0)
(0.266806 0.00491671 0)
(0.255924 0.00478437 0)
(0.243887 0.00450935 0)
(0.496348 -0.0346478 0)
(0.532181 -0.0269286 0)
(0.561523 -0.018284 0)
(0.583703 -0.00957633 0)
(0.598669 -0.00146772 0)
(0.606819 0.00563953 0)
(0.608528 0.0114992 0)
(0.60453 0.016034 0)
(0.595666 0.0193093 0)
(0.582803 0.0214727 0)
(0.639294 -0.0790576 0)
(0.682394 -0.0656102 0)
(0.718959 -0.0502828 0)
(0.748444 -0.0345552 0)
(0.770998 -0.0194881 0)
(0.787011 -0.0056867 0)
(0.797033 0.00651251 0)
(0.80143 0.0168935 0)
(0.800707 0.0254076 0)
(0.795395 0.0321315 0)
(0.74145 -0.126155 0)
(0.78536 -0.106571 0)
(0.822181 -0.0844094 0)
(0.851707 -0.061956 0)
(0.874616 -0.0405408 0)
(0.891642 -0.0208528 0)
(0.903408 -0.00329715 0)
(0.910581 0.0119645 0)
(0.913696 0.0249457 0)
(0.913173 0.0357673 0)
(0.817732 -0.172545 0)
(0.860312 -0.145856 0)
(0.894402 -0.11618 0)
(0.920269 -0.0869185 0)
(0.939329 -0.0594871 0)
(0.952741 -0.0345419 0)
(0.961444 -0.0125061 0)
(0.966401 0.00653395 0)
(0.968454 0.0227845 0)
(0.968098 0.0365416 0)
(0.866467 -0.217819 0)
(0.908279 -0.182741 0)
(0.937379 -0.144318 0)
(0.955381 -0.107343 0)
(0.965599 -0.0733459 0)
(0.970353 -0.0431742 0)
(0.971429 -0.0172816 0)
(0.970388 0.0045291 0)
(0.968248 0.0228777 0)
(0.965383 0.0384026 0)
(0.885407 -0.260699 0)
(0.92454 -0.213925 0)
(0.938987 -0.164062 0)
(0.93709 -0.117387 0)
(0.927961 -0.0760913 0)
(0.916448 -0.0414819 0)
(0.905344 -0.0135879 0)
(0.896279 0.00877405 0)
(0.889715 0.0270962 0)
(0.885209 0.04267 0)
(0.865245 -0.30215 0)
(0.877786 -0.228512 0)
(0.847889 -0.158649 0)
(0.806253 -0.10036 0)
(0.769361 -0.0550715 0)
(0.740912 -0.0219443 0)
(0.721276 0.00184095 0)
(0.710231 0.0193938 0)
(0.706493 0.0333978 0)
(0.707552 0.0463598 0)
(0.760197 -0.337506 0)
(0.679821 -0.199084 0)
(0.572524 -0.101205 0)
(0.498351 -0.0411372 0)
(0.456348 -0.00719521 0)
(0.4345 0.0103471 0)
(0.427102 0.0193525 0)
(0.430426 0.0249977 0)
(0.441414 0.0302694 0)
(0.455929 0.0389012 0)
(0.442628 -0.261949 0)
(0.239304 -0.0616827 0)
(0.126196 0.00303688 0)
(0.108603 0.0121398 0)
(0.112085 0.0111651 0)
(0.118879 0.00921219 0)
(0.129338 0.00778541 0)
(0.142892 0.00735097 0)
(0.159432 0.00892096 0)
(0.176265 0.0212379 0)
(0.231246 0.00415725 0)
(0.218432 0.00377193 0)
(0.205773 0.00338277 0)
(0.193503 0.00301239 0)
(0.181771 0.00267731 0)
(0.170652 0.00238501 0)
(0.160167 0.00213464 0)
(0.150303 0.00192149 0)
(0.141031 0.00174024 0)
(0.132312 0.0015857 0)
(0.124103 0.00145284 0)
(0.116364 0.0013371 0)
(0.109057 0.00123472 0)
(0.102148 0.00114278 0)
(0.0956101 0.00105907 0)
(0.0894188 0.000981961 0)
(0.0835549 0.000910247 0)
(0.0780023 0.000843048 0)
(0.0727477 0.000779691 0)
(0.0677802 0.000719664 0)
(0.0630909 0.00066259 0)
(0.0586719 0.000608242 0)
(0.0545165 0.000556522 0)
(0.0506184 0.00050744 0)
(0.046971 0.000461058 0)
(0.043568 0.00041746 0)
(0.0404021 0.000376686 0)
(0.0374657 0.000338755 0)
(0.0347504 0.00030362 0)
(0.0322471 0.000271232 0)
(0.029946 0.000241489 0)
(0.0278366 0.000214326 0)
(0.0259079 0.000189642 0)
(0.0241484 0.000167399 0)
(0.022546 0.000147521 0)
(0.56678 0.0227003 0)
(0.548386 0.0231637 0)
(0.528345 0.0230276 0)
(0.507293 0.0224566 0)
(0.485752 0.0216071 0)
(0.46412 0.0206074 0)
(0.442687 0.0195483 0)
(0.421652 0.0184892 0)
(0.401148 0.017467 0)
(0.381252 0.0165021 0)
(0.362006 0.0156025 0)
(0.343425 0.014768 0)
(0.325507 0.0139937 0)
(0.308243 0.0132728 0)
(0.291621 0.0125976 0)
(0.275626 0.0119605 0)
(0.260248 0.0113547 0)
(0.245476 0.0107742 0)
(0.231303 0.0102141 0)
(0.217725 0.00967047 0)
(0.204739 0.00914038 0)
(0.192345 0.00862189 0)
(0.180543 0.00811395 0)
(0.169334 0.0076163 0)
(0.158716 0.00712933 0)
(0.148689 0.00665397 0)
(0.139247 0.00619151 0)
(0.130385 0.00574346 0)
(0.122093 0.00531144 0)
(0.114358 0.00489709 0)
(0.107163 0.00450204 0)
(0.100491 0.00412774 0)
(0.0943181 0.00377559 0)
(0.0886208 0.00344679 0)
(0.0833714 0.00314254 0)
(0.78603 0.0372012 0)
(0.773162 0.0407696 0)
(0.757373 0.0430156 0)
(0.739242 0.0441627 0)
(0.719295 0.0444588 0)
(0.697978 0.0441315 0)
(0.675666 0.0433659 0)
(0.652677 0.0423072 0)
(0.629272 0.0410681 0)
(0.605662 0.0397316 0)
(0.582013 0.0383545 0)
(0.558454 0.0369731 0)
(0.535088 0.0356084 0)
(0.511996 0.034271 0)
(0.489245 0.032964 0)
(0.466888 0.0316858 0)
(0.444971 0.030432 0)
(0.423537 0.0291971 0)
(0.402625 0.0279756 0)
(0.382272 0.0267622 0)
(0.362514 0.025553 0)
(0.343386 0.0243453 0)
(0.324922 0.0231383 0)
(0.307153 0.0219327 0)
(0.29011 0.0207307 0)
(0.273816 0.0195361 0)
(0.258293 0.0183537 0)
(0.243555 0.0171892 0)
(0.229612 0.0160486 0)
(0.216465 0.0149383 0)
(0.20411 0.0138643 0)
(0.192536 0.0128328 0)
(0.181725 0.0118494 0)
(0.171653 0.0109194 0)
(0.162288 0.0100478 0)
(0.90933 0.0445637 0)
(0.902466 0.0514457 0)
(0.892924 0.0565612 0)
(0.881061 0.0601516 0)
(0.867185 0.0625066 0)
(0.851534 0.0638893 0)
(0.834315 0.0645138 0)
(0.815732 0.064557 0)
(0.795975 0.0641659 0)
(0.77522 0.0634564 0)
(0.753626 0.0625152 0)
(0.73134 0.0614054 0)
(0.708496 0.0601721 0)
(0.685219 0.0588459 0)
(0.661622 0.0574464 0)
(0.63781 0.055985 0)
(0.613884 0.0544673 0)
(0.589937 0.0528948 0)
(0.566061 0.0512671 0)
(0.542343 0.0495829 0)
(0.518872 0.0478412 0)
(0.495731 0.0460421 0)
(0.473004 0.0441876 0)
(0.45077 0.0422822 0)
(0.429107 0.0403327 0)
(0.408084 0.0383483 0)
(0.387768 0.0363406 0)
(0.368216 0.0343225 0)
(0.349475 0.0323086 0)
(0.331583 0.0303138 0)
(0.314568 0.0283534 0)
(0.298447 0.0264424 0)
(0.283225 0.0245954 0)
(0.268897 0.0228258 0)
(0.255445 0.0211465 0)
(0.965585 0.0480132 0)
(0.961128 0.0572783 0)
(0.955014 0.0644814 0)
(0.947521 0.0699461 0)
(0.938779 0.0740425 0)
(0.928798 0.0770615 0)
(0.917569 0.0792172 0)
(0.905104 0.0806853 0)
(0.891429 0.0816112 0)
(0.876572 0.082107 0)
(0.860574 0.0822556 0)
(0.843489 0.0821182 0)
(0.825381 0.0817392 0)
(0.806322 0.0811504 0)
(0.786389 0.0803728 0)
(0.765667 0.0794194 0)
(0.744243 0.0782973 0)
(0.722209 0.0770096 0)
(0.699664 0.0755565 0)
(0.676709 0.0739375 0)
(0.653452 0.0721521 0)
(0.630003 0.0702013 0)
(0.606476 0.0680888 0)
(0.582988 0.0658216 0)
(0.559654 0.0634108 0)
(0.536589 0.0608711 0)
(0.513903 0.0582213 0)
(0.491702 0.0554837 0)
(0.47008 0.0526831 0)
(0.449124 0.0498464 0)
(0.428906 0.0470016 0)
(0.409488 0.044177 0)
(0.390914 0.0414006 0)
(0.373214 0.0386993 0)
(0.356406 0.0360985 0)
(0.961771 0.0514251 0)
(0.95744 0.0619083 0)
(0.952702 0.0700142 0)
(0.947841 0.0762616 0)
(0.942825 0.0811684 0)
(0.937444 0.0850673 0)
(0.931508 0.0881758 0)
(0.924885 0.0906659 0)
(0.917462 0.0926707 0)
(0.909135 0.0942832 0)
(0.899822 0.0955661 0)
(0.88947 0.0965626 0)
(0.878045 0.0973013 0)
(0.865529 0.0977986 0)
(0.851924 0.0980622 0)
(0.837242 0.0980925 0)
(0.821509 0.0978853 0)
(0.804768 0.0974327 0)
(0.78707 0.0967252 0)
(0.768482 0.0957523 0)
(0.749083 0.0945047 0)
(0.728965 0.0929756 0)
(0.708232 0.0911622 0)
(0.686998 0.0890666 0)
(0.665386 0.086697 0)
(0.643526 0.084068 0)
(0.621551 0.0812009 0)
(0.599594 0.0781232 0)
(0.577787 0.0748678 0)
(0.556253 0.0714721 0)
(0.535109 0.067977 0)
(0.514459 0.0644253 0)
(0.494393 0.0608608 0)
(0.474986 0.0573268 0)
(0.456297 0.0538654 0)
(0.881764 0.0558624 0)
(0.87884 0.0661396 0)
(0.8768 0.073765 0)
(0.87593 0.0796259 0)
(0.875892 0.0843784 0)
(0.876165 0.0883451 0)
(0.876395 0.0917309 0)
(0.876357 0.0946957 0)
(0.875853 0.0973442 0)
(0.87471 0.099736 0)
(0.872785 0.101906 0)
(0.869972 0.103876 0)
(0.866186 0.105656 0)
(0.861356 0.107244 0)
(0.855428 0.108633 0)
(0.848361 0.109805 0)
(0.840128 0.110743 0)
(0.830712 0.11142 0)
(0.820112 0.111813 0)
(0.80834 0.111894 0)
(0.795424 0.111636 0)
(0.781409 0.111018 0)
(0.766358 0.110021 0)
(0.750349 0.108632 0)
(0.733477 0.106849 0)
(0.715853 0.104674 0)
(0.697598 0.102124 0)
(0.678845 0.0992225 0)
(0.659729 0.0960022 0)
(0.640391 0.0925051 0)
(0.620968 0.0887797 0)
(0.601594 0.0848797 0)
(0.582391 0.0808623 0)
(0.563471 0.0767867 0)
(0.544932 0.072712 0)
(0.7104 0.0583948 0)
(0.71381 0.0669451 0)
(0.719017 0.0726523 0)
(0.726418 0.0771309 0)
(0.735085 0.0810727 0)
(0.744125 0.0846495 0)
(0.753099 0.0879924 0)
(0.761755 0.0912069 0)
(0.769871 0.0943321 0)
(0.777274 0.0973703 0)
(0.783844 0.100318 0)
(0.789493 0.103171 0)
(0.794151 0.105921 0)
(0.797755 0.108554 0)
(0.800251 0.11105 0)
(0.80159 0.113384 0)
(0.801729 0.115526 0)
(0.80063 0.11744 0)
(0.798261 0.119089 0)
(0.794598 0.120431 0)
(0.789629 0.121424 0)
(0.783355 0.122028 0)
(0.775792 0.122207 0)
(0.766974 0.121929 0)
(0.756952 0.121174 0)
(0.745797 0.119928 0)
(0.733595 0.118192 0)
(0.720449 0.115976 0)
(0.706475 0.113307 0)
(0.691801 0.11022 0)
(0.676559 0.106763 0)
(0.660886 0.102994 0)
(0.644915 0.0989776 0)
(0.628776 0.0947824 0)
(0.612589 0.0904816 0)
(0.470627 0.0507406 0)
(0.483483 0.0574583 0)
(0.49975 0.0609654 0)
(0.519436 0.0639951 0)
(0.539966 0.0672205 0)
(0.560025 0.0706386 0)
(0.57934 0.0742507 0)
(0.597785 0.0780327 0)
(0.615223 0.0819156 0)
(0.63158 0.0858332 0)
(0.64684 0.0897422 0)
(0.660999 0.0936151 0)
(0.674046 0.0974314 0)
(0.685967 0.101172 0)
(0.696743 0.104817 0)
(0.706353 0.108341 0)
(0.714768 0.111714 0)
(0.721956 0.1149 0)
(0.727881 0.117856 0)
(0.732507 0.120534 0)
(0.735801 0.122886 0)
(0.737737 0.124859 0)
(0.738299 0.126403 0)
(0.73748 0.12747 0)
(0.73529 0.128022 0)
(0.731757 0.128027 0)
(0.726923 0.127466 0)
(0.720851 0.126335 0)
(0.713619 0.124643 0)
(0.705321 0.122415 0)
(0.696064 0.11969 0)
(0.685964 0.116521 0)
(0.675144 0.11297 0)
(0.663729 0.109112 0)
(0.65184 0.105025 0)
(0.215346 0.0367306 0)
(0.242425 0.0360171 0)
(0.273052 0.0356806 0)
(0.306069 0.0376435 0)
(0.337332 0.0410902 0)
(0.366214 0.0454396 0)
(0.393287 0.0503155 0)
(0.41884 0.0554379 0)
(0.442966 0.0606356 0)
(0.465772 0.0658233 0)
(0.487372 0.07096 0)