/*--------------------------------*- C++ -*----------------------------------*\
| =========                 |                                                 |
| \\      /  F ield         | OpenFOAM: The Open Source CFD Toolbox           |
|  \\    /   O peration     | Version:  2406                                  |
|   \\  /    A nd           | Website:  www.openfoam.com                      |
|    \\/     M anipulation  |                                                 |
\*---------------------------------------------------------------------------*/
FoamFile
{
    version     2.0;
    format      ascii;
    arch        "LSB;label=32;scalar=64";
    class       surfaceScalarField;
    location    "44";
    object      phi;
}
// * * * * * * * * * * * * * * * * * * * * * * * * * * * * * * * * * * * * * //

dimensions      [0 3 -1 0 0 0 0];

oriented        oriented;

internalField   nonuniform List<scalar> 
3796
(
0.00997444
-0.000224426
0.0102311
-0.00025669
0.0104317
-0.000200502
0.0105822
-0.000150557
0.0106968
-0.000114535
0.0107844
-8.75646e-05
0.0108518
-6.73954e-05
0.0109047
-5.28416e-05
0.0109472
-4.25501e-05
0.0109824
-3.51932e-05
0.0110121
-2.96935e-05
0.0110375
-2.54119e-05
0.0110596
-2.20308e-05
0.0110791
-1.94777e-05
0.0110968
-1.76184e-05
0.0111132
-1.63847e-05
0.0111288
-1.55931e-05
0.011144
-1.52331e-05
0.0111592
-1.52393e-05
0.011175
-1.57446e-05
0.0111918
-1.68091e-05
0.0112105
-1.86704e-05
0.011232
-2.14712e-05
0.0112576
-2.55697e-05
0.0112889
-3.12417e-05
0.011328
-3.90764e-05
0.0113777
-4.96328e-05
0.0114416
-6.39272e-05
0.0115248
-8.3073e-05
0.0116336
-0.000108844
0.011777
-0.000143366
0.0119668
-0.000189759
0.0122188
-0.000251975
0.0125543
-0.000335509
0.0130018
-0.000447456
0.0135991
-0.000597242
0.0143959
-0.00079678
0.0154567
-0.00106081
0.0168632
-0.00140636
0.0187146
-0.00185135
0.0211256
-0.00241099
0.0242172
-0.00309142
0.0280974
-0.00388
0.0328246
-0.00472714
0.0383689
-0.00554399
0.0445176
-0.00614885
-0.0063571
0.0508747
0.0276416
-0.000116004
0.0276096
-0.00022471
0.0276411
-0.000231955
0.0277024
-0.000211809
0.027776
-0.000188092
0.0278516
-0.000163173
0.0279235
-0.000139262
0.0279892
-0.000118477
0.0280481
-0.000101429
0.0281007
-8.77502e-05
0.0281477
-7.67002e-05
0.0281899
-6.76064e-05
0.028228
-6.00811e-05
0.0282626
-5.40157e-05
0.0282944
-4.93262e-05
0.028324
-4.59328e-05
0.0283521
-4.36755e-05
0.0283793
-4.24952e-05
0.0284065
-4.23837e-05
0.0284342
-4.35042e-05
0.0284635
-4.60987e-05
0.0284955
-5.05784e-05
0.0285315
-5.74381e-05
0.0285734
-6.74041e-05
0.0286236
-8.13558e-05
0.0286851
-0.000100566
0.0287622
-0.000126631
0.0288602
-0.000161812
0.0289862
-0.000209021
0.0291496
-0.000272271
0.0293631
-0.000356802
0.0296431
-0.000469681
0.0300113
-0.000620165
0.0304963
-0.000820485
0.0311354
-0.00108649
0.0319767
-0.00143849
0.0330818
-0.00190185
0.0345284
-0.00250722
0.0364117
-0.00328957
0.0388459
-0.00428548
0.0419617
-0.0055267
0.0459007
-0.00703021
0.0507992
-0.00877834
0.0567626
-0.0106902
0.0638259
-0.0126076
0.0718083
-0.0141311
-0.0149194
0.0803705
0.0436955
-6.14983e-05
0.0436221
-0.000151239
0.043573
-0.000182912
0.0435476
-0.000186332
0.0435406
-0.000181078
0.0435482
-0.000170734
0.0435659
-0.000156949
0.0435896
-0.000142191
0.0436165
-0.000128267
0.0436447
-0.000115943
0.0436732
-0.00010521
0.0437014
-9.57817e-05
0.0437289
-8.75216e-05
0.0437554
-8.05113e-05
0.0437811
-7.49266e-05
0.043806
-7.08182e-05
0.0438305
-6.81802e-05
0.043855
-6.69853e-05
0.04388
-6.7322e-05
0.0439059
-6.94323e-05
0.0439335
-7.37362e-05
0.0439638
-8.08437e-05
0.043998
-9.15853e-05
0.0440377
-0.000107035
0.044085
-0.000128644
0.0441428
-0.000158288
0.0442147
-0.000198524
0.0443057
-0.0002527
0.0444221
-0.000325351
0.0445723
-0.000422448
0.0447675
-0.00055197
0.0450223
-0.000724415
0.0453558
-0.000953628
0.0457929
-0.00125766
0.0463664
-0.00165991
0.0471182
-0.00219025
0.0481026
-0.00288616
0.0493888
-0.00379338
0.0510647
-0.00496548
0.0532408
-0.00646155
0.0560527
-0.00833857
0.0596643
-0.0106417
0.0642579
-0.0133718
0.070037
-0.0164695
0.0771754
-0.0197455
0.0856253
-0.0225811
-0.0247182
0.0954242
0.0577259
-3.74353e-05
0.0576753
-0.000100536
0.0576271
-0.000134719
0.0575882
-0.000147411
0.0575578
-0.000150724
0.0575359
-0.00014873
0.0575215
-0.000142599
0.0575134
-0.000134042
0.05751
-0.000124834
0.0575102
-0.000116085
0.0575131
-0.000108121
0.0575181
-0.000100849
0.0575249
-9.42273e-05
0.0575328
-8.84535e-05
0.0575418
-8.38346e-05
0.0575516
-8.05964e-05
0.0575623
-7.88527e-05
0.057574
-7.86703e-05
0.0575869
-8.02104e-05
0.0576013
-8.37891e-05
0.0576175
-8.99491e-05
0.0576361
-9.94598e-05
0.0576579
-0.000113374
0.057684
-0.000133061
0.0577157
-0.000160333
0.057755
-0.000197558
0.0578045
-0.000247897
0.0578673
-0.000315526
0.0579481
-0.000406028
0.0580524
-0.000526788
0.0581881
-0.000687621
0.0583652
-0.000901455
0.0585969
-0.00118533
0.0589008
-0.00156152
0.0592999
-0.00205905
0.0598251
-0.00271535
0.0605172
-0.00357827
0.0614318
-0.004708
0.062645
-0.00617861
0.0642619
-0.00807856
0.0664291
-0.0105059
0.0693505
-0.0135631
0.0732892
-0.0173106
0.0786025
-0.0217822
0.085634
-0.0267771
0.0947094
-0.0316561
-0.0372801
0.107272
0.0697371
-2.44868e-05
0.0697052
-6.86438e-05
0.0696687
-9.82654e-05
0.0696346
-0.000113258
0.0696038
-0.0001199
0.0695767
-0.000121632
0.0695537
-0.000119544
0.0695345
-0.000114804
0.0695186
-0.000108872
0.0695053
-0.000102864
0.0694944
-9.72332e-05
0.0694856
-9.19918e-05
0.0694785
-8.7124e-05
0.0694729
-8.28516e-05
0.0694686
-7.95052e-05
0.0694655
-7.74104e-05
0.0694634
-7.67472e-05
0.0694624
-7.76644e-05
0.0694626
-8.03473e-05
0.069464
-8.5157e-05
0.0694667
-9.26621e-05
0.0694709
-0.000103714
0.069477
-0.000119441
0.0694853
-0.00014137
0.0694965
-0.000171448
0.0695113
-0.000212298
0.0695307
-0.000267313
0.0695563
-0.000341064
0.0695899
-0.000439555
0.0696339
-0.000570819
0.0696918
-0.000745447
0.0697679
-0.000977504
0.0698681
-0.00128551
0.0700005
-0.0016939
0.0701762
-0.00223477
0.0704111
-0.00295022
0.0707281
-0.00389529
0.071162
-0.00514185
0.0717666
-0.0067833
0.0726287
-0.00894076
0.0738914
-0.0117686
0.0757916
-0.0154635
0.0787204
-0.0202392
0.0832867
-0.0263487
0.0902663
-0.0337561
0.100717
-0.0421064
-0.0542645
0.117701
0.0797421
-1.65533e-05
0.0797209
-4.74859e-05
0.0796934
-7.07281e-05
0.0796647
-8.45565e-05
0.0796367
-9.19106e-05
0.0796102
-9.51224e-05
0.0795858
-9.51018e-05
0.0795637
-9.26715e-05
0.0795438
-8.8946e-05
0.0795259
-8.4887e-05
0.0795096
-8.09568e-05
0.0794948
-7.72283e-05
0.0794814
-7.37256e-05
0.0794692
-7.06355e-05
0.079458
-6.8291e-05
0.0794477
-6.70153e-05
0.079438
-6.70434e-05
0.0794289
-6.85522e-05
0.0794204
-7.17459e-05
0.0794122
-7.69735e-05
0.0794043
-8.47794e-05
0.0793966
-9.59734e-05
0.0793888
-0.000111657
0.0793807
-0.000133296
0.0793721
-0.00016281
0.0793626
-0.000202718
0.0793516
-0.000256348
0.0793387
-0.000328102
0.079323
-0.000423826
0.0793035
-0.000551289
0.0792789
-0.000720796
0.0792474
-0.000946039
0.0792071
-0.00124516
0.0791555
-0.00164225
0.07909
-0.00216929
0.0790087
-0.00286893
0.0789116
-0.00379814
0.0788034
-0.00503367
0.0786999
-0.00667981
0.0786393
-0.00888026
0.0787077
-0.0118373
0.0790854
-0.015841
0.0801736
-0.0213275
0.0827602
-0.0289347
0.0886038
-0.0395994
0.100364
-0.0538668
-0.0735823
0.119682
0.0877445
-1.1088e-05
0.0877292
-3.21543e-05
0.0877075
-4.90172e-05
0.087683
-6.00568e-05
0.0876577
-6.6576e-05
0.0876325
-6.99553e-05
0.0876083
-7.08205e-05
0.0875854
-6.97427e-05
0.087564
-6.75288e-05
0.0875441
-6.49104e-05
0.0875254
-6.22812e-05
0.0875078
-5.97342e-05
0.0874914
-5.73122e-05
0.087476
-5.51708e-05
0.0874613
-5.35885e-05
0.0874472
-5.28504e-05
0.0874334
-5.3188e-05
0.0874197
-5.47727e-05
0.0874057
-5.78048e-05
0.0873913
-6.25756e-05
0.0873761
-6.95595e-05
0.0873596
-7.94346e-05
0.0873411
-9.31554e-05
0.0873198
-0.000111974
0.0872946
-0.000137555
0.0872639
-0.000172064
0.087226
-0.000218377
0.0871782
-0.000280281
0.0871172
-0.000362821
0.0870386
-0.000472688
0.0869366
-0.0006188
0.0868036
-0.000813006
0.0866296
-0.00107112
0.0864017
-0.00141425
0.0861031
-0.00187071
0.0857128
-0.00247867
0.0852047
-0.00329004
0.0845472
-0.00437619
0.0837041
-0.0058367
0.0826366
-0.00781295
0.0813111
-0.0105119
0.0797102
-0.0142402
0.0778834
-0.0195005
0.0760195
-0.0270708
0.0751604
-0.0387403
0.078832
-0.0575382
-0.0909379
0.0961875
0.0937458
-6.87227e-06
0.0937337
-2.00298e-05
0.0937156
-3.09519e-05
0.0936941
-3.85184e-05
0.0936708
-4.32787e-05
0.0936468
-4.59666e-05
0.093623
-4.6935e-05
0.0935998
-4.65513e-05
0.0935777
-4.53449e-05
0.0935566
-4.38044e-05
0.0935365
-4.2204e-05
0.0935173
-4.06277e-05
0.0934991
-3.91155e-05
0.0934818
-3.77804e-05
0.093465
-3.68162e-05
0.0934487
-3.64331e-05
0.0934323
-3.68082e-05
0.0934157
-3.80825e-05
0.0933983
-4.04093e-05
0.0933797
-4.40094e-05
0.0933594
-4.92236e-05
0.0933365
-5.655e-05
0.09331
-6.66782e-05
0.0932786
-8.05292e-05
0.0932404
-9.93163e-05
0.093193
-0.000124632
0.0931332
-0.000158579
0.0930569
-0.000203934
0.0929585
-0.000264394
0.0928307
-0.000344868
0.0926638
-0.000451904
0.0924451
-0.000594235
0.0921575
-0.000783544
0.0917788
-0.00103551
0.0912794
-0.0013713
0.0906204
-0.0018197
0.0897506
-0.00242024
0.0886022
-0.00322786
0.0870856
-0.00432014
0.0850806
-0.00580802
0.0824223
-0.00785377
0.0788755
-0.0106935
0.0740633
-0.0146884
0.0673149
-0.0203224
0.0570227
-0.0284481
0.0394636
-0.0399798
-0.0514744
0.0977464
-3.30574e-06
0.097736
-9.62952e-06
0.0977201
-1.49917e-05
0.0977004
-1.88188e-05
0.0976784
-2.13126e-05
0.0976553
-2.27832e-05
0.0976318
-2.33772e-05
0.0976085
-2.32809e-05
0.097586
-2.276e-05
0.0975642
-2.20543e-05
0.0975433
-2.13015e-05
0.0975232
-2.05509e-05
0.0975039
-1.9829e-05
0.0974853
-1.91948e-05
0.0974673
-1.87451e-05
0.0974495
-1.85893e-05
0.0974316
-1.88216e-05
0.0974131
-1.9523e-05
0.0973934
-2.07779e-05
0.0973721
-2.27065e-05
0.0973484
-2.5488e-05
0.0973212
-2.93844e-05
0.0972893
-3.47576e-05
0.0972509
-4.20927e-05
0.0972036
-5.20292e-05
0.0971444
-6.54089e-05
0.0970692
-8.33407e-05
0.0969726
-0.000107295
0.0968474
-0.00013922
0.0966843
-0.000181717
0.0964707
-0.000238248
0.0961899
-0.000313443
0.0958199
-0.000413507
0.0953312
-0.000546794
0.0946845
-0.000724619
0.0938272
-0.000962441
0.0926886
-0.00128159
0.0911725
-0.00171184
0.0891476
-0.00229534
0.0864318
-0.0030923
0.0827678
-0.00418992
0.0777872
-0.00571299
0.0709419
-0.00784325
0.0614343
-0.0108148
0.0479407
-0.0149553
0.0282893
-0.0203289
-0.0231853
0.0997467
7.94628e-10
0.0997371
9.70533e-10
0.0997221
1.50245e-09
0.0997033
-3.17283e-09
0.099682
-6.52761e-09
0.0996592
-1.40996e-09
0.0996359
4.81423e-09
0.0996127
9.67518e-10
0.0995899
-9.98397e-09
0.0995679
-1.58402e-08
0.0995465
-1.18735e-08
0.099526
-5.4532e-09
0.0995061
-4.9293e-09
0.099487
-1.20821e-08
0.0994683
-2.15193e-08
0.0994498
-2.72829e-08
0.0994311
-2.73839e-08
0.0994116
-2.3409e-08
0.0993908
-1.91226e-08
0.0993681
-1.77857e-08
0.0993427
-2.068e-08
0.0993133
-2.83579e-08
0.0992786
-3.87587e-08
0.0992366
-5.09003e-08
0.0991847
-6.241e-08
0.0991194
-7.2868e-08
0.0990361
-8.15433e-08
0.0989289
-8.87344e-08
0.0987898
-9.52637e-08
0.0986082
-1.0201e-07
0.0983701
-1.10177e-07
0.0980568
-1.20487e-07
0.0976434
-1.33492e-07
0.0970968
-1.49327e-07
0.0963723
-1.68363e-07
0.0954101
-1.90318e-07
0.0941287
-2.16805e-07
0.0924171
-2.47825e-07
0.0901219
-2.84543e-07
0.0870299
-3.24809e-07
0.0828402
-3.53006e-07
0.0771273
-3.66621e-07
0.0692844
-3.19557e-07
0.0584694
-4.89883e-07
0.0435144
-3.74973e-07
0.0231853
-6.98658e-07
-2.51953e-07
0.0997467
3.30398e-06
0.0997371
9.63288e-06
0.0997221
1.49969e-05
0.0997033
1.88152e-05
0.099682
2.13008e-05
0.0996592
2.27787e-05
0.0996359
2.33846e-05
0.0996127
2.32825e-05
0.0995899
2.27425e-05
0.0995679
2.20262e-05
0.0995465
2.12798e-05
0.099526
2.05392e-05
0.0995061
1.98158e-05
0.099487
1.91674e-05
0.0994683
1.87016e-05
0.0994498
1.85373e-05
0.0994311
1.8772e-05
0.0994116
1.94812e-05
0.0993908
2.07432e-05
0.0993681
2.26719e-05
0.0993427
2.5445e-05
0.0993133
2.93254e-05
0.0992786
3.46775e-05
0.0992366
4.19903e-05
0.0991846
5.19056e-05
0.0991193
6.52666e-05
0.0990361
8.31829e-05
0.0989289
0.000107123
0.0987898
0.000139036
0.0986082
0.000181519
0.0983701
0.000238033
0.0980567
0.000313206
0.0976434
0.000413244
0.0970967
0.000546499
0.0963723
0.000724287
0.09541
0.000962065
0.0941286
0.00128116
0.092417
0.00171135
0.0901218
0.00229478
0.0870298
0.00309168
0.08284
0.00418925
0.0771273
0.00571231
0.069284
0.00784246
0.0584694
0.0108143
0.0435141
0.0149541
0.023185
0.0203278
0.0231847
0.0977464
6.87371e-06
0.097736
2.00325e-05
0.0977201
3.09571e-05
0.0977004
3.85148e-05
0.0976784
4.32689e-05
0.0976553
4.59646e-05
0.0976318
4.69432e-05
0.0976086
4.65536e-05
0.097586
4.53291e-05
0.0975642
4.37783e-05
0.0975433
4.21829e-05
0.0975232
4.06142e-05
0.0975039
3.91004e-05
0.0974853
3.77549e-05
0.0974673
3.67796e-05
0.0974495
3.63917e-05
0.0974316
3.67675e-05
0.097413
3.80455e-05
0.0973934
4.03735e-05
0.0973721
4.39701e-05
0.0973483
4.91749e-05
0.0973212
5.64878e-05
0.0972893
6.65995e-05
0.0972508
8.04335e-05
0.0972036
9.92034e-05
0.0971444
0.000124504
0.0970692
0.000158435
0.0969725
0.000203778
0.0968474
0.000264222
0.0966842
0.000344681
0.0964706
0.000451698
0.0961898
0.000594007
0.0958198
0.000783288
0.095331
0.00103523
0.0946843
0.00137098
0.0938271
0.00181934
0.0926884
0.00241983
0.0911723
0.0032274
0.0891474
0.00431961
0.0864316
0.00580742
0.0827676
0.00785311
0.077787
0.0106928
0.0709417
0.0146878
0.0614339
0.0203216
0.0479405
0.0284475
0.0282893
0.0399787
0.0514737
0.0937458
1.10874e-05
0.0937337
3.21584e-05
0.0937156
4.90237e-05
0.0936941
6.00564e-05
0.0936708
6.65698e-05
0.0936468
6.99534e-05
0.093623
7.0827e-05
0.0935998
6.97484e-05
0.0935777
6.75219e-05
0.0935565
6.48944e-05
0.0935364
6.22626e-05
0.0935173
5.97152e-05
0.0934991
5.72886e-05
0.0934818
5.51438e-05
0.093465
5.35602e-05
0.0934487
5.28249e-05
0.0934323
5.31623e-05
0.0934156
5.47447e-05
0.0933982
5.77682e-05
0.0933797
6.25298e-05
0.0933593
6.95015e-05
0.0933364
7.93677e-05
0.09331
9.30778e-05
0.0932785
0.000111889
0.0932403
0.000137459
0.0931929
0.00017196
0.0931331
0.00021826
0.0930568
0.000280151
0.0929584
0.000362673
0.0928305
0.000472521
0.0926637
0.000618609
0.0924449
0.000812793
0.0921573
0.00107088
0.0917786
0.00141398
0.0912791
0.00187041
0.0906201
0.00247833
0.0897503
0.00328966
0.0886019
0.00437576
0.0870852
0.00583623
0.0850802
0.0078124
0.082422
0.0105113
0.0788752
0.0142396
0.0740629
0.0194998
0.0673145
0.0270702
0.0570221
0.0387396
0.0394628
0.0575374
0.0909367
0.0877445
1.65538e-05
0.0877292
4.74899e-05
0.0877075
7.07345e-05
0.087683
8.45587e-05
0.0876577
9.19083e-05
0.0876326
9.51213e-05
0.0876083
9.51068e-05
0.0875854
9.26788e-05
0.087564
8.89483e-05
0.087544
8.48803e-05
0.0875253
8.09411e-05
0.0875078
7.72058e-05
0.0874914
7.37008e-05
0.087476
7.06173e-05
0.0874613
6.82811e-05
0.0874472
6.70079e-05
0.0874334
6.703e-05
0.0874196
6.85224e-05
0.0874057
7.17007e-05
0.0873913
7.69129e-05
0.087376
8.47129e-05
0.0873595
9.59044e-05
0.087341
0.000111591
0.0873197
0.00013323
0.0872944
0.000162743
0.0872638
0.000202645
0.0872258
0.000256264
0.087178
0.000328
0.087117
0.000423705
0.0870384
0.000551143
0.0869364
0.000720628
0.0868034
0.000945843
0.0866294
0.00124494
0.0864014
0.001642
0.0861027
0.00216902
0.0857124
0.00286863
0.0852043
0.00379781
0.0845467
0.0050333
0.0837035
0.00667941
0.0826361
0.00887981
0.0813107
0.0118367
0.0797098
0.0158405
0.0778829
0.0213268
0.0760187
0.0289341
0.0751597
0.0395986
0.0788312
0.0538661
0.0735816
0.096186
0.0797421
2.44855e-05
0.0797209
6.86523e-05
0.0796934
9.82756e-05
0.0796647
0.000113267
0.0796367
0.000119906
0.0796102
0.000121629
0.0795859
0.000119541
0.0795638
0.000114807
0.0795438
0.000108878
0.0795258
0.000102863
0.0795095
9.72177e-05
0.0794948
9.19662e-05
0.0794814
8.71093e-05
0.0794692
8.2854e-05
0.079458
7.95257e-05
0.0794476
7.74259e-05
0.079438
7.67428e-05
0.0794289
7.76293e-05
0.0794203
8.02863e-05
0.0794121
8.50817e-05
0.0794042
9.2588e-05
0.0793965
0.000103649
0.0793887
0.000119393
0.0793806
0.00014133
0.0793719
0.000171418
0.0793624
0.000212258
0.0793514
0.000267264
0.0793385
0.000340991
0.0793228
0.000439462
0.0793033
0.000570696
0.0792786
0.000745303
0.0792472
0.000977333
0.0792068
0.00128532
0.0791551
0.00169369
0.0790896
0.00223454
0.0790083
0.00294996
0.078911
0.00389502
0.0788028
0.00514155
0.0786992
0.00678298
0.0786387
0.0089404
0.0787073
0.0117682
0.0790849
0.0154629
0.0801731
0.0202386
0.0827596
0.0263479
0.0886027
0.0337556
0.100363
0.0421061
0.0542641
0.11968
0.0697371
3.7432e-05
0.0697052
0.000100545
0.0696687
0.000134731
0.0696346
0.000147431
0.0696038
0.000150742
0.0695767
0.000148733
0.0695537
0.000142596
0.0695345
0.000134044
0.0695185
0.000124841
0.0695053
0.000116081
0.0694944
0.000108097
0.0694855
0.000100822
0.0694785
9.42233e-05
0.0694729
8.84814e-05
0.0694686
8.3877e-05
0.0694654
8.06269e-05
0.0694634
7.88474e-05
0.0694624
7.86294e-05
0.0694625
8.01409e-05
0.0694639
8.37145e-05
0.0694666
8.98815e-05
0.0694708
9.94141e-05
0.0694768
0.000113347
0.0694851
0.000133052
0.0694963
0.000160327
0.0695111
0.000197551
0.0695305
0.000247872
0.0695561
0.000315485
0.0695896
0.000405959
0.0696337
0.000526699
0.0696915
0.000687504
0.0697675
0.000901322
0.0698677
0.00118517
0.07
0.00156135
0.0701757
0.00205886
0.0704105
0.00271516
0.0707275
0.00357807
0.0711613
0.0047078
0.0717659
0.00617839
0.072628
0.00807832
0.0738907
0.0105056
0.075791
0.0135627
0.0787196
0.0173102
0.0832858
0.0217819
0.0902651
0.0267766
0.100716
0.0316557
0.0372801
0.1177
0.0577259
6.14971e-05
0.0576752
0.000151248
0.0576271
0.000182923
0.0575882
0.000186353
0.0575579
0.000181093
0.0575359
0.000170739
0.0575216
0.000156949
0.0575134
0.000142202
0.05751
0.000128286
0.0575101
0.00011594
0.057513
0.000105187
0.0575181
9.57649e-05
0.0575248
8.75363e-05
0.0575328
8.05605e-05
0.0575418
7.49756e-05
0.0575516
7.08424e-05
0.0575623
6.81635e-05
0.057574
6.69324e-05
0.0575869
6.72571e-05
0.0576012
6.93686e-05
0.0576174
7.36956e-05
0.057636
8.08256e-05
0.0576577
9.1589e-05
0.0576838
0.000107053
0.0577155
0.000128662
0.0577548
0.000158301
0.0578043
0.000198518
0.0578671
0.000252678
0.0579478
0.000325306
0.0580522
0.000422385
0.0581878
0.000551888
0.0583648
0.000724319
0.0585965
0.00095352
0.0589003
0.00125755
0.0592994
0.00165979
0.0598245
0.00219013
0.0605165
0.00288603
0.0614311
0.00379327
0.0626442
0.00496539
0.0642612
0.00646147
0.0664284
0.00833848
0.0693498
0.0106416
0.0732886
0.0133716
0.0786016
0.0164691
0.0856331
0.0197452
0.0947083
0.0225807
0.0247176
0.107271
0.0436955
0.000116007
0.043622
0.000224722
0.043573
0.000231976
0.0435476
0.000211841
0.0435406
0.000188112
0.0435482
0.000163173
0.0435659
0.000139259
0.0435896
0.000118485
0.0436165
0.000101438
0.0436447
8.77413e-05
0.0436732
7.66858e-05
0.0437014
6.76113e-05
0.0437289
6.01262e-05
0.0437554
5.40711e-05
0.0437811
4.93755e-05
0.043806
4.59383e-05
0.0438305
4.36516e-05
0.043855
4.24407e-05
0.0438799
4.23334e-05
0.0439058
4.34614e-05
0.0439334
4.60872e-05
0.0439636
5.05829e-05
0.0439978
5.74726e-05
0.0440375
6.74372e-05
0.0440848
8.14036e-05
0.0441426
0.000100591
0.0442146
0.000126657
0.0443055
0.000161804
0.0444218
0.000209009
0.044572
0.000272228
0.0447672
0.000356757
0.0450219
0.000469617
0.0453553
0.000620105
0.0457925
0.000820419
0.0463659
0.00108643
0.0471176
0.00143843
0.0481019
0.00190182
0.0493881
0.00250721
0.051064
0.00328959
0.0532402
0.00428553
0.0560521
0.00552676
0.0596637
0.0070302
0.0642574
0.00877825
0.0700365
0.0106901
0.0771747
0.0126071
0.0856244
0.0141307
0.0149191
0.095423
0.0276416
0.000224425
0.0276096
0.000256693
0.0276411
0.000200524
0.0277024
0.000150588
0.027776
0.000114539
0.0278517
8.75597e-05
0.0279236
6.74117e-05
0.0279892
5.28624e-05
0.0280481
4.25527e-05
0.0281006
3.51697e-05
0.0281477
2.96822e-05
0.0281899
2.54272e-05
0.028228
2.20858e-05
0.0282626
1.95245e-05
0.0282944
1.76578e-05
0.028324
1.63746e-05
0.028352
1.5573e-05
0.0283793
1.51843e-05
0.0284064
1.52129e-05
0.0284341
1.57172e-05
0.0284634
1.68201e-05
0.0284953
1.868e-05
0.0285313
2.15159e-05
0.0285732
2.5597e-05
0.0286234
3.12952e-05
0.028685
3.90953e-05
0.0287621
4.9672e-05
0.02886
6.39246e-05
0.028986
8.30891e-05
0.0291494
0.000108819
0.0293628
0.000143362
0.0296427
0.000189726
0.0300109
0.000251965
0.0304958
0.000335482
0.0311349
0.000447452
0.0319761
0.000597236
0.0330813
0.000796799
0.0345277
0.00106085
0.036411
0.00140645
0.0388453
0.00185148
0.0419613
0.0024111
0.0459003
0.0030915
0.0507988
0.00387996
0.056762
0.00472705
0.063825
0.00554399
0.071807
0.00614883
0.00635686
0.0803692
0.00997443
0.0102311
0.0104317
0.0105823
0.0106968
0.0107844
0.0108518
0.0109047
0.0109472
0.0109824
0.0110121
0.0110375
0.0110596
0.0110791
0.0110968
0.0111132
0.0111288
0.0111439
0.0111591
0.0111749
0.0111917
0.0112104
0.0112319
0.0112575
0.0112888
0.011328
0.0113776
0.0114416
0.0115247
0.0116335
0.0117769
0.0119666
0.0122186
0.0125541
0.0130015
0.0135988
0.0143956
0.0154565
0.016863
0.0187145
0.0211257
0.0242173
0.0280973
0.0328244
0.0383683
0.0445171
0.0508741
0.0567788
-0.005904
0.0614329
-0.00465392
0.0643709
-0.00293773
0.0655455
-0.00117421
0.0650814
0.000464317
0.00187511
0.0632066
0.0887495
-0.014283
0.0960236
-0.0119277
0.101763
-0.00867645
0.105957
-0.0053675
0.108718
-0.00229609
0.000451625
0.110141
0.10527
-0.0241283
0.113675
-0.0203329
0.12029
-0.0152905
0.125158
-0.0102349
0.128402
-0.00554038
-0.00147733
0.130332
0.11998
-0.0368362
0.129555
-0.0299081
0.135998
-0.0217327
0.13977
-0.0140069
0.141506
-0.00727559
-0.00196634
0.141995
0.131544
-0.0506789
0.137397
-0.0357605
0.138113
-0.0224483
0.136267
-0.0121604
0.133717
-0.00472561
0.000297728
0.131453
0.119912
-0.0509086
0.108892
-0.0247401
0.0962905
-0.00984645
0.0865936
-0.00246368
0.0805498
0.00131861
0.00327278
0.0775746
0.0452789
0.0205391
0.0106926
0.00822912
0.00954763
0.0128204
0.045278
0.050908
0.0205377
0.0247401
0.0106908
0.00984692
0.00822685
0.00246384
0.00954484
-0.00131818
-0.00327309
0.0128177
0.11991
0.0506786
0.108889
0.0357608
0.0962874
0.0224487
0.0865901
0.012161
0.0805457
0.00472618
-0.000296951
0.0775691
0.131542
0.0368361
0.137395
0.0299081
0.13811
0.0217332
0.136264
0.0140077
0.133713
0.00727684
0.00196811
0.131448
0.119979
0.0241282
0.129554
0.020333
0.135996
0.0152911
0.139767
0.010236
0.141503
0.00554136
0.00147849
0.141993
0.105268
0.0142828
0.113674
0.0119279
0.120288
0.00867688
0.125156
0.005368
0.128402
0.00229631
-0.000451406
0.130332
0.0887484
0.00590399
0.0960227
0.00465399
0.101762
0.00293799
0.105956
0.00117453
0.108717
-0.000464257
-0.00187507
0.110141
0.0567783
0.0614326
0.0643708
0.0655456
0.0650814
0.0632065
0.0602522
0.0029547
0.0565723
0.00368013
0.0524694
0.00410312
0.0481729
0.00429685
0.0438529
0.00432028
0.0396371
0.00421612
0.0356178
0.00401962
0.0318577
0.0037605
0.0283961
0.0034619
0.0252553
0.00314115
0.0224437
0.00281188
0.0199587
0.00248528
0.0177886
0.00217036
0.0159148
0.0018739
0.0143145
0.00160046
0.0129622
0.00135237
0.0118322
0.00113011
0.0108995
0.000932659
0.0101414
0.000758129
0.0095371
0.000604226
0.00906829
0.000468741
0.00871851
0.000349691
0.00847296
0.000245464
0.00831818
0.000154694
0.00824184
7.62705e-05
0.00823257
9.19578e-06
0.00827993
-4.74177e-05
0.00837438
-9.45039e-05
0.00850723
-0.000132894
0.00867087
-0.000163694
0.00885877
-0.000187953
0.009065
-0.000206282
0.00928402
-0.000219062
0.00951088
-0.00022692
0.00974149
-0.00023066
0.00997245
-0.000231009
0.0102009
-0.000228519
0.0104245
-0.00022368
0.0106414
-0.000216919
0.01085
-0.000208671
0.0110493
-0.000199316
0.0112385
-0.000189237
0.0114172
-0.000178669
0.0115852
-0.000168047
0.0117425
-0.000157286
0.0118882
-0.000145792
-0.000142415
0.110319
0.00277777
0.109383
0.00461631
0.10747
0.00601615
0.104705
0.00706209
0.101214
0.00781176
0.0971252
0.00830517
0.0925658
0.00857948
0.087659
0.00866775
0.0825253
0.00859599
0.0772818
0.00838508
0.0720399
0.00805409
0.0669032
0.00762229
0.0619641
0.00710976
0.0573008
0.00653732
0.0529754
0.00592608
0.0490313
0.00529652
0.045494
0.00466746
0.0423716
0.00405509
0.0396573
0.00347228
0.0373331
0.00292838
0.0353723
0.00242936
0.0337436
0.00197825
0.0324133
0.00157569
0.0313472
0.00122059
0.0305127
0.00091066
0.0298789
0.000642841
0.0294176
0.000413766
0.0291033
0.000219797
0.0289132
5.70893e-05
0.0288272
-7.77873e-05
0.0288266
-0.000187447
0.0288946
-0.000274412
0.0290168
-0.000341318
0.0291809
-0.000391092
0.0293766
-0.000426518
0.0295953
-0.000449765
0.0298294
-0.000462654
0.0300724
-0.000466817
0.0303192
-0.000463748
0.0305653
-0.000454862
0.0308073
-0.000441412
0.0310426
-0.00042458
0.0312691
-0.000405201
0.031486
-0.000384953
0.0316909
-0.000362245
0.0318926
-0.000347455
-0.00030189
0.131323
0.0017864
0.131621
0.00431823
0.131319
0.00631884
0.130439
0.00794214
0.128995
0.00925675
0.126996
0.0103035
0.12446
0.0111163
0.121411
0.0117172
0.11789
0.0121166
0.113957
0.0123186
0.109684
0.012327
0.105159
0.0121482
0.100475
0.0117936
0.0957322
0.0112802
0.0910272
0.0106312
0.0864494
0.00987432
0.0820765
0.00904024
0.0779714
0.00816011
0.0741801
0.00726347
0.0707319
0.00637646
0.0676404
0.00552072
0.0649056
0.00471284
0.0625167
0.00396441
0.0604547
0.00328247
0.058695
0.00267023
0.0572099
0.00212783
0.0559703
0.0016532
0.0549473
0.00124266
0.0541127
0.000891587
0.05344
0.000594848
0.0529054
0.000346999
0.0524883
0.000142638
0.0521705
-2.36197e-05
0.0519357
-0.000156384
0.0517687
-0.000259571
0.051656
-0.00033721
0.0515864
-0.000393135
0.0515503
-0.000430764
0.0515397
-0.0004532
0.051548
-0.000463271
0.0515699
-0.000463366
0.051601
-0.000455678
0.0516376
-0.000441817
0.0516775
-0.000424888
0.0517172
-0.000401993
0.0517637
-0.000393975
-0.00032621
0.141903
0.00187814
0.141567
0.0046546
0.141063
0.00682339
0.140395
0.00860989
0.139552
0.0101006
0.1385
0.0113555
0.1372
0.012416
0.135618
0.0132996
0.133729
0.0140064
0.13152
0.0145277
0.128994
0.0148524
0.126172
0.0149706
0.123088
0.0148776
0.119791
0.0145768
0.116342
0.014081
0.112804
0.0134117
0.109246
0.0125981
0.105732
0.0116738
0.102321
0.0106748
0.0990609
0.00963641
0.0959904
0.00859113
0.0931362
0.00756687
0.0905143
0.00658616
0.0881308
0.00566584
0.0859836
0.00481732
0.0840641
0.00404723
0.082359
0.00335813
0.0808521
0.00274946
0.0795253
0.00221828
0.07836
0.00176005
0.0773378
0.00136915
0.0764408
0.00103946
0.0756524
0.000764714
0.0749574
0.000538586
0.0743428
0.000354926
0.0737974
0.000208127
0.0733112
9.3018e-05
0.0728756
4.7848e-06
0.0724831
-6.07714e-05
0.072127
-0.000107217
0.0718014
-0.0001378
0.0715012
-0.00015556
0.0712223
-0.000162888
0.0709609
-0.000163504
0.0707141
-0.000155257
0.070479
-0.000158831
-0.000106682
0.129949
0.00338191
0.129201
0.00540285
0.128943
0.00708177
0.129007
0.00854542
0.129253
0.00985537
0.129547
0.0110617
0.129784
0.0121786
0.129888
0.0131956
0.129803
0.0140919
0.129488
0.014842
0.128922
0.0154189
0.128094
0.0157987
0.127008
0.0159639
0.125677
0.015907
0.124127
0.015631
0.122389
0.01515
0.1205
0.0144871
0.118501
0.0136728
0.116433
0.012742
0.114338
0.0117316
0.112251
0.0106775
0.110206
0.00961258
0.108226
0.00856537
0.106333
0.00755896
0.104539
0.00661089
0.102853
0.0057333
0.101278
0.00493352
0.0998123
0.00421479
0.0984535
0.00357705
0.0971957
0.00301778
0.096032
0.00253268
0.0949552
0.00211626
0.0939574
0.00176241
0.0930312
0.00146473
0.0921693
0.00121675
0.0913651
0.0010123
0.0906124
0.000845591
0.0899059
0.000711323
0.0892404
0.000604663
0.0886119
0.000521259
0.0880167
0.000457338
0.0874515
0.000409584
0.0869134
0.000375204
0.0863986
0.000351303
0.0859065
0.000336856
0.0854229
0.000324712
0.000331254
0.077607
0.0033495
0.0797661
0.00324386
0.0828996
0.00394834
0.0865031
0.00494203
0.0902221
0.00613631
0.0938473
0.00743649
0.0972663
0.0087596
0.100412
0.0100495
0.103242
0.0112627
0.105727
0.0123562
0.107859
0.0132878
0.109636
0.0140218
0.111067
0.0145324
0.112167
0.0148063
0.112956
0.0148423
0.113455
0.0146509
0.11369
0.0142525
0.113687
0.0136753
0.113476
0.0129527
0.113087
0.012121
0.112548
0.0112161
0.111889
0.0102721
0.111135
0.00931925
0.11031
0.00838322
0.109437
0.00748445
0.108532
0.00663821
0.10761
0.00585492
0.106684
0.00514071
0.105763
0.00449816
0.104854
0.00392697
0.103962
0.0034247
0.103091
0.00298738
0.102243
0.00261007
0.10142
0.00228727
0.100624
0.00201323
0.0998538
0.0017823
0.0991103
0.00158905
0.0983932
0.00142843
0.097702
0.00129582
0.0970361
0.00118708
0.0963949
0.00109856
0.0957773
0.00102718
0.0951823
0.000970095
0.0946074
0.000926236
0.0940541
0.000890157
0.0935038
0.00087495
0.000827371
0.0198588
-0.00368886
0.0264833
-0.00338077
0.0327301
-0.00229855
0.0385965
-0.000924518
0.0441622
0.000570422
0.0494926
0.00210606
0.0546167
0.00363546
0.0595307
0.00513546
0.0642129
0.00658058
0.0686382
0.0079309
0.0727847
0.00914122
0.0766359
0.0101704
0.0801804
0.0109878
0.0834113
0.0115752
0.0863256
0.0119278
0.088924
0.0120524
0.0912109
0.0119656
0.0931944
0.0116918
0.0948858
0.0112614
0.0962997
0.0107072
0.0974535
0.0100624
0.0983669
0.00935878
0.0990614
0.00862483
0.0995594
0.00788527
0.0998836
0.00716032
0.100056
0.00646567
0.100099
0.0058127
0.10003
0.00520891
0.0998701
0.00465847
0.0996342
0.00416286
0.0993375
0.0037214
0.098993
0.0033319
0.0986119
0.00299109
0.0982042
0.00269502
0.097778
0.00243942
0.0973404
0.0022199
0.0968972
0.00203221
0.0964533
0.00187231
0.0960126
0.00173649
0.0955783
0.0016214
0.0951527
0.00152409
0.0947377
0.00144221
0.0943345
0.00137329
0.0939427
0.00131806
0.0935649
0.00126797
0.0931875
0.0012523
0.001164
0.00175792
-0.00544703
0.00450581
-0.00612901
0.00710426
-0.00489735
0.00978982
-0.00361053
0.0127058
-0.00234597
0.0159097
-0.00109815
0.0194122
0.000132713
0.0231808
0.00136688
0.0271599
0.00260144
0.0312914
0.00379944
0.0355148
0.00491764
0.0397713
0.00591378
0.0440033
0.00675561
0.0481559
0.00742255
0.0521786
0.00790509
0.0560263
0.00820481
0.0596609
0.00833112
0.0630533
0.00829972
0.066182
0.00813298
0.0690334
0.00785604
0.071602
0.00749413
0.0738895
0.0070716
0.0759038
0.00661085
0.0776579
0.00613147
0.0791686
0.0056498
0.0804557
0.00517887
0.0815401
0.00472848
0.0824436
0.00430552
0.0831879
0.00391435
0.0837937
0.00355718
0.0842805
0.00323462
0.0846665
0.00294597
0.084968
0.00268965
0.0851996
0.00246348
0.0853741
0.00226492