/*--------------------------------*- C++ -*----------------------------------*\
| =========                 |                                                 |
| \\      /  F ield         | OpenFOAM: The Open Source CFD Toolbox           |
|  \\    /   O peration     | Version:  2406                                  |
|   \\  /    A nd           | Website:  www.openfoam.com                      |
|    \\/     M anipulation  |                                                 |
\*---------------------------------------------------------------------------*/
FoamFile
{
    version     2.0;
    format      ascii;
    arch        "LSB;label=32;scalar=64";
    class       volScalarField;
    location    "80";
    object      p;
}
// * * * * * * * * * * * * * * * * * * * * * * * * * * * * * * * * * * * * * //

dimensions      [0 2 -2 0 0 0 0];

internalField   nonuniform List<scalar> 
2000
(
0.104633
0.105049
0.104973
0.104506
0.103862
0.103113
0.102284
0.101398
0.100473
0.0995198
0.105808
0.105458
0.105034
0.104499
0.103838
0.103076
0.102245
0.101363
0.100444
0.099495
0.106609
0.105714
0.104989
0.104425
0.103784
0.103023
0.102191
0.101315
0.100404
0.0994615
0.107168
0.106033
0.105077
0.104426
0.103762
0.102983
0.102135
0.101257
0.10035
0.0994145
0.107611
0.106366
0.105238
0.104475
0.103766
0.10296
0.102092
0.101203
0.100296
0.0993627
0.107961
0.106655
0.105412
0.104554
0.103794
0.102959
0.102069
0.101165
0.10025
0.0993161
0.10823
0.106889
0.105572
0.104643
0.103837
0.102973
0.102059
0.101139
0.100216
0.0992779
0.108427
0.107065
0.105702
0.104724
0.103881
0.102991
0.102058
0.101124
0.100192
0.0992496
0.108556
0.107182
0.105793
0.104784
0.103916
0.103008
0.102061
0.101116
0.100178
0.0992312
0.108619
0.107241
0.105839
0.104816
0.103935
0.103017
0.102063
0.101113
0.100171
0.0992222
0.108619
0.107241
0.105839
0.104816
0.103935
0.103017
0.102063
0.101113
0.100171
0.0992222
0.108556
0.107182
0.105793
0.104784
0.103916
0.103008
0.102061
0.101116
0.100178
0.0992312
0.108427
0.107065
0.105702
0.104724
0.103881
0.102991
0.102058
0.101124
0.100192
0.0992496
0.10823
0.106889
0.105572
0.104643
0.103837
0.102973
0.102059
0.101139
0.100216
0.0992779
0.107961
0.106655
0.105412
0.104554
0.103794
0.102959
0.102069
0.101165
0.10025
0.0993161
0.107611
0.106366
0.105238
0.104475
0.103766
0.10296
0.102092
0.101203
0.100296
0.0993627
0.107168
0.106033
0.105077
0.104426
0.103762
0.102983
0.102135
0.101257
0.10035
0.0994145
0.106609
0.105714
0.104989
0.104425
0.103784
0.103023
0.102191
0.101315
0.100404
0.0994615
0.105808
0.105458
0.105034
0.104499
0.103838
0.103076
0.102245
0.101363
0.100444
0.0994951
0.104633
0.105049
0.104973
0.104506
0.103862
0.103113
0.102284
0.101398
0.100473
0.0995199
0.098545
0.0975533
0.0965481
0.0955319
0.0945064
0.0934729
0.0924327
0.0913865
0.0903352
0.0892792
0.088219
0.0871551
0.0860878
0.0850173
0.083944
0.082868
0.0817895
0.0807088
0.079626
0.0785412
0.0774545
0.0763661
0.075276
0.0741844
0.0730913
0.0719968
0.070901
0.0698039
0.0687056
0.0676062
0.0665056
0.0654041
0.0643016
0.0631981
0.0620937
0.0985241
0.0975355
0.0965328
0.0955185
0.0944947
0.0934626
0.0924235
0.0913783
0.0903277
0.0892723
0.0882128
0.0871494
0.0860825
0.0850124
0.0839394
0.0828637
0.0817855
0.080705
0.0796224
0.0785378
0.0774513
0.0763631
0.0752732
0.0741817
0.0730887
0.0719943
0.0708986
0.0698016
0.0687034
0.067604
0.0665036
0.0654021
0.0642997
0.0631963
0.062092
0.0984954
0.0975108
0.0965117
0.0955005
0.094479
0.0934488
0.0924114
0.0913676
0.0903182
0.0892639
0.0882052
0.0871426
0.0860763
0.0850068
0.0839343
0.082859
0.0817812
0.080701
0.0796187
0.0785343
0.077448
0.07636
0.0752703
0.074179
0.0730861
0.0719918
0.0708962
0.0697993
0.0687012
0.067602
0.0665017
0.0654003
0.0642979
0.0631946
0.0620903
0.0984538
0.0974744
0.0964803
0.0954735
0.0944557
0.0934284
0.0923933
0.0913518
0.0903045
0.089252
0.0881948
0.0871333
0.0860679
0.0849992
0.0839273
0.0828527
0.0817754
0.0806958
0.079614
0.07853
0.0774441
0.0763564
0.0752669
0.0741758
0.0730831
0.071989
0.0708936
0.0697968
0.0686989
0.0675998
0.0664996
0.0653983
0.064296
0.0631928
0.0620887
0.0984056
0.0974304
0.096441
0.095439
0.0944252
0.0934012
0.092369
0.0913301
0.0902854
0.0892354
0.0881803
0.0871204
0.0860564
0.0849886
0.0839176
0.0828438
0.0817674
0.0806886
0.0796075
0.0785242
0.0774388
0.0763514
0.0752623
0.0741714
0.073079
0.0719852
0.0708899
0.0697934
0.0686957
0.0675968
0.0664968
0.0653957
0.0642936
0.0631905
0.0620864
0.0983599
0.0973871
0.0964012
0.0954031
0.094393
0.0933722
0.0923426
0.0913062
0.0902642
0.0892168
0.088164
0.0871061
0.0860434
0.0849767
0.0839066
0.0828336
0.081758
0.0806801
0.0795999
0.0785174
0.0774326
0.0763458
0.075257
0.0741664
0.0730742
0.0719806
0.0708856
0.0697894
0.0686919
0.0675933
0.0664935
0.0653927
0.0642907
0.0631878
0.0620839
0.0983208
0.0973488
0.0963652
0.0953702
0.0943632
0.0933449
0.0923176
0.0912834
0.0902436
0.0891987
0.0881482
0.0870921
0.0860308
0.0849651
0.0838958
0.0828235
0.0817487
0.0806716
0.0795923
0.0785105
0.0774265
0.0763402
0.0752517
0.0741614
0.0730695
0.071976
0.0708812
0.0697852
0.068688
0.0675897
0.0664902
0.0653896
0.0642878
0.0631851
0.0620813
0.0982906
0.0973184
0.096336
0.0953432
0.0943386
0.0933224
0.0922967
0.0912641
0.0902262
0.0891831
0.0881346
0.0870802
0.0860202
0.0849553
0.0838866
0.0828148
0.0817407
0.0806643
0.0795856
0.0785046
0.0774212
0.0763353
0.0752473
0.0741572
0.0730654
0.071972
0.0708774
0.0697815
0.0686846
0.0675865
0.0664872
0.0653868
0.0642853
0.0631827
0.062079
0.0982702
0.0972974
0.0963157
0.0953243
0.0943211
0.0933063
0.0922817
0.0912502
0.0902135
0.0891718
0.0881247
0.0870715
0.0860125
0.0849483
0.08388
0.0828086
0.0817348
0.0806589
0.0795807
0.0785003
0.0774173
0.0763318
0.075244
0.0741541
0.0730624
0.0719691
0.0708746
0.0697789
0.068682
0.0675841
0.066485
0.0653848
0.0642834
0.0631809
0.0620773
0.0982599
0.0972867
0.0963053
0.0953145
0.0943121
0.0932979
0.0922739
0.0912429
0.0902068
0.0891659
0.0881195
0.087067
0.0860084
0.0849446
0.0838765
0.0828053
0.0817317
0.080656
0.0795782
0.078498
0.0774152
0.07633
0.0752423
0.0741525
0.0730609
0.0719676
0.0708731
0.0697775
0.0686807
0.0675828
0.0664839
0.0653837
0.0642824
0.06318
0.0620765
0.0982599
0.0972868
0.0963053
0.0953145
0.0943121
0.0932979
0.0922739
0.0912429
0.0902068
0.0891659
0.0881195
0.087067
0.0860084
0.0849446
0.0838765
0.0828054
0.0817318
0.080656
0.0795782
0.0784979
0.0774152
0.07633
0.0752423
0.0741525
0.0730609
0.0719677
0.0708731
0.0697775
0.0686807
0.0675828
0.0664839
0.0653837
0.0642824
0.06318
0.0620764
0.0982702
0.0972975
0.0963157
0.0953242
0.0943211
0.0933062
0.0922817
0.0912503
0.0902135
0.0891718
0.0881246
0.0870715
0.0860124
0.0849482
0.08388
0.0828087
0.0817349
0.0806589
0.0795807
0.0785002
0.0774172
0.0763318
0.075244
0.0741541
0.0730624
0.0719692
0.0708746
0.0697789
0.068682
0.0675841
0.066485
0.0653848
0.0642834
0.0631809
0.0620773
0.0982907
0.0973184
0.096336
0.0953431
0.0943385
0.0933223
0.0922968
0.0912642
0.0902263
0.0891831
0.0881345
0.0870801
0.0860201
0.0849553
0.0838866
0.0828149
0.0817408
0.0806643
0.0795856
0.0785046
0.0774211
0.0763353
0.0752472
0.0741571
0.0730653
0.071972
0.0708774
0.0697816
0.0686846
0.0675865
0.0664872
0.0653868
0.0642853
0.0631826
0.0620789
0.0983209
0.0973489
0.0963652
0.0953701
0.0943631
0.0933449
0.0923177
0.0912835
0.0902437
0.0891986
0.088148
0.0870919
0.0860307
0.0849651
0.0838958
0.0828236
0.0817488
0.0806717
0.0795923
0.0785105
0.0774264
0.0763401
0.0752517
0.0741614
0.0730694
0.071976
0.0708812
0.0697852
0.068688
0.0675897
0.0664901
0.0653895
0.0642878
0.063185
0.0620812
0.09836
0.0973872
0.0964012
0.095403
0.0943929
0.0933722
0.0923427
0.0913064
0.0902643
0.0892167
0.0881639
0.0871059
0.0860433
0.0849767
0.0839066
0.0828337
0.0817581
0.0806802
0.0795999
0.0785173
0.0774325
0.0763457
0.0752569
0.0741664
0.0730742
0.0719806
0.0708856
0.0697894
0.0686919
0.0675933
0.0664935
0.0653926
0.0642907
0.0631877
0.0620838
0.0984057
0.0974305
0.096441
0.0954388
0.0944251
0.0934012
0.0923691
0.0913302
0.0902854
0.0892353
0.0881802
0.0871204
0.0860563
0.0849886
0.0839177
0.0828439
0.0817674
0.0806886
0.0796074
0.0785241
0.0774387
0.0763514
0.0752622
0.0741714
0.073079
0.0719851
0.0708899
0.0697934
0.0686957
0.0675968
0.0664968
0.0653957
0.0642935
0.0631904
0.0620864
0.0984538
0.0974745
0.0964803
0.0954735
0.0944556
0.0934284
0.0923934
0.0913518
0.0903044
0.0892519
0.0881947
0.0871332
0.0860679
0.0849992
0.0839273
0.0828527
0.0817754
0.0806958
0.0796139
0.07853
0.0774441
0.0763563
0.0752669
0.0741757
0.0730831
0.071989
0.0708936
0.0697968
0.0686989
0.0675997
0.0664995
0.0653983
0.064296
0.0631928
0.0620886
0.0984954
0.0975109
0.0965117
0.0955004
0.094479
0.0934489
0.0924114
0.0913676
0.0903182
0.0892639
0.0882052
0.0871426
0.0860763
0.0850068
0.0839343
0.082859
0.0817811
0.080701
0.0796186
0.0785343
0.077448
0.07636
0.0752703
0.0741789
0.0730861
0.0719918
0.0708962
0.0697993
0.0687012
0.067602
0.0665016
0.0654002
0.0642979
0.0631945
0.0620903
0.0985241
0.0975355
0.0965328
0.0955185
0.0944947
0.0934626
0.0924235
0.0913783
0.0903277
0.0892723
0.0882128
0.0871494
0.0860825
0.0850124
0.0839394
0.0828637
0.0817855
0.080705
0.0796224
0.0785378
0.0774513
0.0763631
0.0752732
0.0741817
0.0730887
0.0719943
0.0708985
0.0698015
0.0687033
0.067604
0.0665036
0.0654021
0.0642996
0.0631962
0.0620919
0.0985451
0.0975533
0.0965481
0.0955319
0.0945063
0.0934729
0.0924327
0.0913865
0.0903352
0.0892792
0.088219
0.0871551
0.0860878
0.0850173
0.083944
0.082868
0.0817895
0.0807088
0.079626
0.0785412
0.0774545
0.0763661
0.075276
0.0741844
0.0730913
0.0719968
0.0709009
0.0698038
0.0687055
0.0676061
0.0665056
0.0654041
0.0643015
0.0631981
0.0620937
0.0609885
0.0598824
0.0587755
0.0576678
0.0565594
0.0554503
0.0543404
0.05323
0.0521189
0.0510071
0.0609868
0.0598807
0.0587739
0.0576663
0.0565579
0.0554488
0.0543391
0.0532286
0.0521176
0.0510059
0.0609852
0.0598792
0.0587725
0.0576649
0.0565566
0.0554475
0.0543378
0.0532274
0.0521164
0.0510047
0.0609836
0.0598777
0.058771
0.0576635
0.0565552
0.0554462
0.0543365
0.0532262
0.0521152
0.0510036
0.0609815
0.0598757
0.058769
0.0576616
0.0565534
0.0554445
0.0543349
0.0532246
0.0521137
0.0510022
0.060979
0.0598733
0.0587668
0.0576594
0.0565513
0.0554425
0.054333
0.0532228
0.052112
0.0510005
0.0609765
0.0598709
0.0587644
0.0576571
0.0565491
0.0554404
0.0543309
0.0532208
0.0521101
0.0509987
0.0609743
0.0598687
0.0587623
0.0576551
0.0565471
0.0554384
0.0543291
0.0532191
0.0521085
0.0509972
0.0609727
0.0598672
0.0587608
0.0576536
0.0565456
0.055437
0.0543277
0.0532178
0.0521072
0.050996
0.0609719
0.0598664
0.05876
0.0576528
0.0565449
0.0554363
0.054327
0.0532171
0.0521065
0.0509954
0.0609719
0.0598663
0.0587599
0.0576528
0.0565449
0.0554363
0.054327
0.0532171
0.0521065
0.0509954
0.0609727
0.0598671
0.0587607
0.0576536
0.0565456
0.055437
0.0543277
0.0532178
0.0521072
0.050996
0.0609743
0.0598687
0.0587623
0.057655
0.0565471
0.0554384
0.0543291
0.0532191
0.0521084
0.0509971
0.0609765
0.0598708
0.0587643
0.0576571
0.0565491
0.0554403
0.0543309
0.0532208
0.0521101
0.0509987
0.060979
0.0598733
0.0587667
0.0576594
0.0565513
0.0554424
0.0543329
0.0532227
0.0521119
0.0510004
0.0609814
0.0598756
0.058769
0.0576616
0.0565534
0.0554445
0.0543348
0.0532246
0.0521136
0.0510021
0.0609836
0.0598776
0.0587709
0.0576634
0.0565551
0.0554461
0.0543365
0.0532261
0.0521151
0.0510035
0.0609852
0.0598792
0.0587724
0.0576648
0.0565565
0.0554474
0.0543377
0.0532273
0.0521163
0.0510046
0.0609867
0.0598807
0.0587738
0.0576662
0.0565578
0.0554488
0.054339
0.0532285
0.0521175
0.0510058
0.0609884
0.0598823
0.0587754
0.0576677
0.0565593
0.0554502
0.0543404
0.0532299
0.0521188
0.0510071
0.0498948
0.0487819
0.0476685
0.0465545
0.04544
0.044325
0.0432095
0.0420935
0.0409771
0.0398602
0.0387429
0.0376251
0.036507
0.0353885
0.0342696
0.0331503
0.0320306
0.0309106
0.0297903
0.0286696
0.0275486
0.0264272
0.0253056
0.0241837
0.0230614
0.0219389
0.0208161
0.019693
0.0185697
0.0174461
0.0163222
0.0151981
0.0140738
0.0129492
0.0118243
0.0498936
0.0487807
0.0476673
0.0465534
0.0454389
0.0443239
0.0432084
0.0420925
0.0409761
0.0398592
0.0387419
0.0376242
0.0365061
0.0353876
0.0342687
0.0331494
0.0320298
0.0309098
0.0297895
0.0286688
0.0275478
0.0264265
0.0253049
0.024183
0.0230608
0.0219383
0.0208155
0.0196924
0.0185691
0.0174455
0.0163216
0.0151976
0.0140732
0.0129486
0.0118238
0.0498925
0.0487796
0.0476663
0.0465523
0.0454379
0.0443229
0.0432075
0.0420916
0.0409752
0.0398584
0.0387411
0.0376234
0.0365053
0.0353868
0.034268
0.0331487
0.0320291
0.0309091
0.0297888
0.0286682
0.0275472
0.0264259
0.0253043
0.0241824
0.0230602
0.0219377
0.0208149
0.0196919
0.0185686
0.017445
0.0163211
0.0151971
0.0140727
0.0129482
0.0118234
0.0498914
0.0487786
0.0476653
0.0465514
0.045437
0.0443221
0.0432066
0.0420907
0.0409744
0.0398576
0.0387403
0.0376227
0.0365046
0.0353861
0.0342673
0.0331481
0.0320285
0.0309085
0.0297882
0.0286676
0.0275466
0.0264254
0.0253038
0.0241819
0.0230597
0.0219372
0.0208144
0.0196914
0.0185681
0.0174445
0.0163207
0.0151966
0.0140723
0.0129478
0.011823
0.04989
0.0487773
0.047664
0.0465502
0.0454358
0.0443209
0.0432056
0.0420897
0.0409734
0.0398566
0.0387394
0.0376218
0.0365037
0.0353853
0.0342665
0.0331472
0.0320277
0.0309078
0.0297875
0.0286669
0.0275459
0.0264247
0.0253031
0.0241812
0.0230591
0.0219366
0.0208139
0.0196908
0.0185676
0.017444
0.0163202
0.0151961
0.0140718
0.0129473
0.0118225
0.0498884
0.0487758
0.0476626
0.0465488
0.0454345
0.0443196
0.0432043
0.0420885
0.0409722
0.0398555
0.0387383
0.0376207
0.0365027
0.0353843
0.0342655
0.0331463
0.0320268
0.0309069
0.0297866
0.0286661
0.0275451
0.0264239
0.0253024
0.0241805
0.0230584
0.0219359
0.0208132
0.0196902
0.0185669
0.0174434
0.0163196
0.0151956
0.0140713
0.0129468
0.011822
0.0498868
0.0487742
0.047661
0.0465473
0.045433
0.0443183
0.043203
0.0420872
0.0409709
0.0398542
0.0387371
0.0376195
0.0365016
0.0353832
0.0342644
0.0331453
0.0320258
0.0309059
0.0297857
0.0286652
0.0275443
0.0264231
0.0253016
0.0241797
0.0230576
0.0219352
0.0208125
0.0196895
0.0185662
0.0174427
0.0163189
0.0151949
0.0140707
0.0129462
0.0118215
0.0498853
0.0487728
0.0476597
0.046546
0.0454318
0.044317
0.0432018
0.042086
0.0409698
0.0398531
0.038736
0.0376185
0.0365005
0.0353822
0.0342635
0.0331444
0.0320249
0.0309051
0.0297849
0.0286644
0.0275435
0.0264223
0.0253008
0.024179
0.0230569
0.0219345
0.0208118
0.0196888
0.0185656
0.0174421
0.0163183
0.0151943
0.0140701
0.0129456
0.0118209
0.0498842
0.0487717
0.0476587
0.046545
0.0454308
0.0443161
0.0432008
0.0420851
0.0409689
0.0398523
0.0387352
0.0376177
0.0364998
0.0353815
0.0342628
0.0331437
0.0320242
0.0309044
0.0297843
0.0286638
0.0275429
0.0264217
0.0253002
0.0241784
0.0230563
0.0219339
0.0208113
0.0196883
0.0185651
0.0174416
0.0163179
0.0151939
0.0140697
0.0129452
0.0118205
0.0498836
0.0487711
0.0476581
0.0465445
0.0454303
0.0443156
0.0432004
0.0420846
0.0409684
0.0398518
0.0387347
0.0376172
0.0364993
0.035381
0.0342624
0.0331433
0.0320239
0.0309041
0.0297839
0.0286634
0.0275426
0.0264214
0.0252999
0.0241781
0.023056
0.0219336
0.020811
0.019688
0.0185648
0.0174413
0.0163176
0.0151936
0.0140694
0.012945
0.0118203
0.0498836
0.0487711
0.0476581
0.0465445
0.0454303
0.0443156
0.0432003
0.0420846
0.0409684
0.0398518
0.0387347
0.0376172
0.0364993
0.035381
0.0342624
0.0331433
0.0320239
0.0309041
0.0297839
0.0286634
0.0275426
0.0264214
0.0252999
0.0241781
0.023056
0.0219336
0.0208109
0.019688
0.0185648
0.0174413
0.0163176
0.0151936
0.0140694
0.0129449
0.0118203
0.0498841
0.0487717
0.0476586
0.046545
0.0454308
0.044316
0.0432008
0.0420851
0.0409689
0.0398522
0.0387351
0.0376176
0.0364997
0.0353814
0.0342627
0.0331437
0.0320242
0.0309044
0.0297842
0.0286637
0.0275429
0.0264217
0.0253002
0.0241784
0.0230563
0.0219339
0.0208112
0.0196882
0.018565
0.0174415
0.0163178
0.0151938
0.0140696
0.0129451
0.0118205
0.0498852
0.0487727
0.0476596
0.0465459
0.0454317
0.044317
0.0432017
0.0420859
0.0409697
0.039853
0.0387359
0.0376184
0.0365005
0.0353822
0.0342634
0.0331443
0.0320249
0.030905
0.0297848
0.0286643
0.0275434
0.0264222
0.0253007
0.0241789
0.0230568
0.0219344
0.0208117
0.0196887
0.0185655
0.017442
0.0163182
0.0151942
0.01407
0.0129455
0.0118208
0.0498867
0.0487741
0.047661
0.0465472
0.045433
0.0443182
0.0432029
0.0420871
0.0409709
0.0398542
0.038737
0.0376195
0.0365015
0.0353831
0.0342644
0.0331452
0.0320257
0.0309059
0.0297856
0.0286651
0.0275442
0.026423
0.0253014
0.0241796
0.0230575
0.021935
0.0208123
0.0196894
0.0185661
0.0174426
0.0163188
0.0151948
0.0140705
0.0129461
0.0118213
0.0498884
0.0487757
0.0476625
0.0465487
0.0454344
0.0443195
0.0432042
0.0420884
0.0409721
0.0398554
0.0387382
0.0376206
0.0365026
0.0353842
0.0342654
0.0331462
0.0320267
0.0309068
0.0297865
0.0286659
0.027545
0.0264238
0.0253022
0.0241804
0.0230582
0.0219358
0.020813
0.01969
0.0185668
0.0174432
0.0163194
0.0151954
0.0140711
0.0129466
0.0118219
0.0498899
0.0487772
0.0476639
0.0465501
0.0454357
0.0443208
0.0432055
0.0420896
0.0409733
0.0398565
0.0387393
0.0376217
0.0365036
0.0353852
0.0342663
0.0331471
0.0320276
0.0309076
0.0297874
0.0286667
0.0275458
0.0264245
0.025303
0.0241811
0.0230589
0.0219364
0.0208137
0.0196907
0.0185674
0.0174438
0.01632
0.015196
0.0140717
0.0129471
0.0118224
0.0498913
0.0487785
0.0476652
0.0465513
0.0454369
0.044322
0.0432065
0.0420906
0.0409743
0.0398575
0.0387402
0.0376226
0.0365045
0.035386
0.0342672
0.0331479
0.0320283
0.0309084
0.0297881
0.0286674
0.0275465
0.0264252
0.0253036
0.0241817
0.0230595
0.021937
0.0208143
0.0196912
0.0185679
0.0174444
0.0163205
0.0151965
0.0140721
0.0129476
0.0118228
0.0498924
0.0487796
0.0476662
0.0465523
0.0454378
0.0443228
0.0432074
0.0420915
0.0409751
0.0398583
0.038741
0.0376233
0.0365052
0.0353867
0.0342678
0.0331486
0.032029
0.030909
0.0297887
0.028668
0.027547
0.0264258
0.0253041
0.0241822
0.02306
0.0219375
0.0208148
0.0196917
0.0185684
0.0174448
0.016321
0.0151969
0.0140725
0.012948
0.0118232
0.0498935
0.0487806
0.0476672
0.0465533
0.0454388
0.0443238
0.0432083
0.0420924
0.040976
0.0398591
0.0387418
0.0376241
0.036506
0.0353875
0.0342686
0.0331493
0.0320297
0.0309097
0.0297894
0.0286687
0.0275477
0.0264264
0.0253048
0.0241828
0.0230606
0.0219381
0.0208153
0.0196922
0.0185689
0.0174453
0.0163215
0.0151974
0.014073
0.0129485
0.0118236
0.0498947
0.0487818
0.0476684
0.0465544
0.0454399
0.0443249
0.0432094
0.0420934
0.0409769
0.0398601
0.0387428
0.037625
0.0365069
0.0353883
0.0342694
0.0331501
0.0320305
0.0309105
0.0297901
0.0286694
0.0275484
0.0264271
0.0253055
0.0241835
0.0230613
0.0219388
0.020816
0.0196929
0.0185695
0.0174459
0.0163221
0.015198
0.0140736
0.012949
0.0118242
0.0106993
0.00957401
0.00844851
0.00732279
0.00619686
0.00507072
0.00394436
0.00281781
0.001691
0.000564229
0.0106988
0.0095735
0.00844801
0.0073223
0.00619638
0.00507025
0.00394389
0.00281742
0.00169049
0.000564268
0.0106983
0.00957306
0.00844758
0.00732189
0.00619598
0.00506987
0.00394352
0.00281712
0.00169001
0.000564517
0.010698
0.00957271
0.00844725
0.00732158
0.0061957
0.00506962
0.00394329
0.00281693
0.00168975
0.000564604
0.0106975
0.00957231
0.00844688
0.00732124
0.0061954
0.00506935
0.00394308
0.00281674
0.00168966
0.000564275
0.010697
0.00957185
0.00844646
0.00732086
0.00619506
0.00506908
0.00394288
0.0028166
0.00168977
0.00056353
0.0106965
0.00957136
0.008446
0.00732045
0.00619471
0.00506879
0.00394271
0.00281645
0.00169005
0.000562484
0.010696
0.0095709
0.00844558
0.00732007
0.00619439
0.00506853
0.00394256
0.00281636
0.00169041
0.000561388
0.0106956
0.00957054
0.00844524
0.00731977
0.00619413
0.00506833
0.00394246
0.00281629
0.00169074
0.000560499
0.0106954
0.00957033
0.00844505
0.00731959
0.00619398
0.00506821
0.0039424
0.00281625
0.00169093
0.000560014
0.0106954
0.00957031
0.00844503
0.00731957
0.00619396
0.00506819
0.00394238
0.00281625
0.00169091
0.000560043
0.0106956
0.00957047
0.00844518
0.00731971
0.00619407
0.00506828
0.00394242
0.00281626
0.00169072
0.000560578
0.0106959
0.0095708
0.00844548
0.00731997
0.0061943
0.00506845
0.0039425
0.00281633
0.00169037
0.000561508
0.0106964
0.00957124
0.00844588
0.00732033
0.0061946
0.00506869
0.00394263
0.00281641
0.00168999
0.000562625
0.0106969
0.00957171
0.00844631
0.00732072
0.00619493
0.00506897
0.00394279
0.00281654
0.00168971
0.000563671
0.0106974
0.00957215
0.00844673
0.00732109
0.00619526
0.00506924
0.00394298
0.00281669
0.00168959
0.000564396
0.0106978
0.00957255
0.0084471
0.00732144
0.00619557
0.0050695
0.0039432
0.00281686
0.00168969
0.000564693
0.0106982
0.0095729
0.00844743
0.00732175
0.00619586
0.00506977
0.00394342
0.00281706
0.00168995
0.000564568
0.0106986
0.00957335
0.00844786
0.00732217
0.00619626
0.00507014
0.00394381
0.00281736
0.00169044
0.00056428
0.0106991
0.00957387
0.00844837
0.00732266
0.00619675
0.00507062
0.00394428
0.00281775
0.00169096
0.000564225
)
;

boundaryField
{
    inlet
    {
        type            zeroGradient;
    }
    outlet
    {
        type            fixedValue;
        value           uniform 0;
    }
    upperWall
    {
        type            zeroGradient;
    }
    lowerWall
    {
        type            zeroGradient;
    }
    frontAndBack
    {
        type            empty;
    }
}


// ************************************************************************* //
