/*--------------------------------*- C++ -*----------------------------------*\
| =========                 |                                                 |
| \\      /  F ield         | OpenFOAM: The Open Source CFD Toolbox           |
|  \\    /   O peration     | Version:  2406                                  |
|   \\  /    A nd           | Website:  www.openfoam.com                      |
|    \\/     M anipulation  |                                                 |
\*---------------------------------------------------------------------------*/
FoamFile
{
    version     2.0;
    format      ascii;
    arch        "LSB;label=32;scalar=64";
    class       volVectorField;
    location    "80";
    object      U;
}
// * * * * * * * * * * * * * * * * * * * * * * * * * * * * * * * * * * * * * //

dimensions      [0 1 -1 0 0 0 0];

internalField   nonuniform List<vector> 
2000
(
(0.0992799 -0.00136374 0)
(0.101226 -0.00165395 0)
(0.103273 -0.00110558 0)
(0.105103 -0.000669297 0)
(0.106455 -0.000428908 0)
(0.107445 -0.000285719 0)
(0.108204 -0.000193799 0)
(0.108797 -0.00013707 0)
(0.109268 -0.000102781 0)
(0.109649 -8.09113e-05 0)
(0.276572 -0.00161162 0)
(0.276051 -0.00285644 0)
(0.276171 -0.00274179 0)
(0.276661 -0.00229054 0)
(0.277359 -0.00186069 0)
(0.278127 -0.00149146 0)
(0.278876 -0.00118602 0)
(0.279566 -0.000948086 0)
(0.280186 -0.000769559 0)
(0.280739 -0.000635677 0)
(0.436822 -0.000852199 0)
(0.436423 -0.0018142 0)
(0.436023 -0.00207812 0)
(0.435595 -0.00205175 0)
(0.43538 -0.00194251 0)
(0.435392 -0.00178726 0)
(0.43554 -0.00160336 0)
(0.435756 -0.001418 0)
(0.436011 -0.00124896 0)
(0.436286 -0.00110081 0)
(0.576991 -0.00046798 0)
(0.576841 -0.00117316 0)
(0.576593 -0.00152753 0)
(0.57612 -0.00164863 0)
(0.575698 -0.00166373 0)
(0.575428 -0.00161886 0)
(0.575262 -0.00153126 0)
(0.575156 -0.00142173 0)
(0.575097 -0.00130823 0)
(0.57508 -0.00119947 0)
(0.697078 -0.000297263 0)
(0.697041 -0.000806792 0)
(0.696943 -0.00112856 0)
(0.696581 -0.00128203 0)
(0.696183 -0.00133989 0)
(0.695875 -0.00134331 0)
(0.695636 -0.00130734 0)
(0.695431 -0.0012456 0)
(0.695253 -0.00117224 0)
(0.695106 -0.00109637 0)
(0.797131 -0.000200082 0)
(0.797145 -0.000561327 0)
(0.797133 -0.000820517 0)
(0.796859 -0.000969659 0)
(0.79651 -0.00104364 0)
(0.796216 -0.00107052 0)
(0.79597 -0.00106265 0)
(0.795745 -0.00102967 0)
(0.795534 -0.000982354 0)
(0.795343 -0.000928996 0)
(0.877164 -0.000135707 0)
(0.877201 -0.000387445 0)
(0.877236 -0.000582841 0)
(0.877021 -0.000709094 0)
(0.876714 -0.000780547 0)
(0.876439 -0.000814092 0)
(0.876199 -0.000819247 0)
(0.875971 -0.000803166 0)
(0.87575 -0.000773615 0)
(0.875542 -0.000737118 0)
(0.937184 -8.84173e-05 0)
(0.937234 -0.000254921 0)
(0.937293 -0.000390158 0)
(0.937116 -0.000483731 0)
(0.936839 -0.000540842 0)
(0.93658 -0.00057081 0)
(0.936348 -0.000580069 0)
(0.93612 -0.000573544 0)
(0.935895 -0.000556385 0)
(0.935679 -0.000533126 0)
(0.977197 -5.01339e-05 0)
(0.977251 -0.000145283 0)
(0.977324 -0.000224492 0)
(0.977168 -0.000281483 0)
(0.97691 -0.000317867 0)
(0.976663 -0.00033814 0)
(0.976436 -0.000345859 0)
(0.97621 -0.000343874 0)
(0.975983 -0.000335132 0)
(0.975763 -0.000322296 0)
(0.997203 -1.6266e-05 0)
(0.997259 -4.72381e-05 0)
(0.997337 -7.33058e-05 0)
(0.997192 -9.24037e-05 0)
(0.996943 -0.000104857 0)
(0.996702 -0.000111981 0)
(0.996478 -0.0001149 0)
(0.996253 -0.000114544 0)
(0.996025 -0.000111879 0)
(0.995804 -0.000107784 0)
(0.997203 1.62686e-05 0)
(0.997259 4.72444e-05 0)
(0.997337 7.33188e-05 0)
(0.997192 9.24226e-05 0)
(0.996943 0.000104878 0)
(0.996702 0.000112004 0)
(0.996478 0.000114923 0)
(0.996253 0.000114567 0)
(0.996025 0.000111907 0)
(0.995804 0.000107817 0)
(0.977197 5.01368e-05 0)
(0.977251 0.000145289 0)
(0.977324 0.000224504 0)
(0.977168 0.000281502 0)
(0.97691 0.000317888 0)
(0.976663 0.000338159 0)
(0.976436 0.000345877 0)
(0.97621 0.000343892 0)
(0.975983 0.000335156 0)
(0.975763 0.000322329 0)
(0.937184 8.84205e-05 0)
(0.937234 0.000254929 0)
(0.937293 0.000390173 0)
(0.937116 0.000483748 0)
(0.936839 0.00054086 0)
(0.93658 0.000570831 0)
(0.936348 0.000580093 0)
(0.93612 0.000573565 0)
(0.935895 0.000556405 0)
(0.935679 0.00053315 0)
(0.877164 0.00013571 0)
(0.877201 0.00038745 0)
(0.877236 0.00058285 0)
(0.877021 0.000709107 0)
(0.876714 0.000780564 0)
(0.876439 0.000814115 0)
(0.8762 0.000819273 0)
(0.875971 0.000803191 0)
(0.87575 0.000773638 0)
(0.875542 0.000737143 0)
(0.797131 0.000200085 0)
(0.797145 0.000561334 0)
(0.797133 0.000820529 0)
(0.796859 0.000969671 0)
(0.79651 0.00104366 0)
(0.796216 0.00107055 0)
(0.79597 0.00106268 0)
(0.795745 0.00102969 0)
(0.795534 0.000982367 0)
(0.795343 0.000929008 0)
(0.697078 0.000297266 0)
(0.697041 0.000806799 0)
(0.696943 0.00112857 0)
(0.696581 0.00128204 0)
(0.696183 0.00133991 0)
(0.695875 0.00134333 0)
(0.695636 0.00130736 0)
(0.695431 0.00124563 0)
(0.695253 0.00117226 0)
(0.695105 0.00109639 0)
(0.576991 0.000467984 0)
(0.576841 0.00117317 0)
(0.576593 0.00152754 0)
(0.57612 0.00164864 0)
(0.575698 0.00166374 0)
(0.575428 0.00161888 0)
(0.575262 0.00153127 0)
(0.575156 0.00142175 0)
(0.575097 0.00130825 0)
(0.57508 0.00119948 0)
(0.436822 0.000852202 0)
(0.436423 0.00181421 0)
(0.436023 0.00207813 0)
(0.435595 0.00205177 0)
(0.43538 0.00194253 0)
(0.435392 0.00178727 0)
(0.43554 0.00160338 0)
(0.435756 0.00141803 0)
(0.43601 0.00124898 0)
(0.436286 0.00110082 0)
(0.276572 0.00161162 0)
(0.276051 0.00285645 0)
(0.276171 0.0027418 0)
(0.276661 0.00229055 0)
(0.277359 0.00186071 0)
(0.278127 0.00149148 0)
(0.278876 0.00118604 0)
(0.279566 0.000948114 0)
(0.280186 0.000769583 0)
(0.280739 0.00063569 0)
(0.0992799 0.00136375 0)
(0.101226 0.00165396 0)
(0.103273 0.00110559 0)
(0.105103 0.000669309 0)
(0.106455 0.000428916 0)
(0.107445 0.000285728 0)
(0.108204 0.000193811 0)
(0.108797 0.000137074 0)
(0.109268 0.00010278 0)
(0.109649 8.09205e-05 0)
(0.109966 -6.58877e-05 0)
(0.110232 -5.50715e-05 0)
(0.110461 -4.70266e-05 0)
(0.110659 -4.08288e-05 0)
(0.110832 -3.59004e-05 0)
(0.110986 -3.18939e-05 0)
(0.111124 -2.85805e-05 0)
(0.111247 -2.57909e-05 0)
(0.111359 -2.3404e-05 0)
(0.111461 -2.13486e-05 0)
(0.111554 -1.95833e-05 0)
(0.111639 -1.80729e-05 0)
(0.111718 -1.67758e-05 0)
(0.111792 -1.56421e-05 0)
(0.111861 -1.46266e-05 0)
(0.111925 -1.36978e-05 0)
(0.111985 -1.28405e-05 0)
(0.112041 -1.20542e-05 0)
(0.112094 -1.13429e-05 0)
(0.112144 -1.07088e-05 0)
(0.112192 -1.01481e-05 0)
(0.112237 -9.64958e-06 0)
(0.112279 -9.19943e-06 0)
(0.11232 -8.78281e-06 0)
(0.112359 -8.38894e-06 0)
(0.112396 -8.01153e-06 0)
(0.112432 -7.64916e-06 0)
(0.112466 -7.3039e-06 0)
(0.112498 -6.979e-06 0)
(0.112529 -6.67753e-06 0)
(0.112559 -6.40088e-06 0)
(0.112588 -6.14825e-06 0)
(0.112615 -5.91735e-06 0)
(0.112642 -5.7042e-06 0)
(0.112667 -5.50506e-06 0)
(0.28123 -0.00053346 0)
(0.281666 -0.000454022 0)
(0.282054 -0.000391469 0)
(0.282401 -0.00034161 0)
(0.282713 -0.000301278 0)
(0.282994 -0.000268088 0)
(0.283249 -0.00024033 0)
(0.283482 -0.00021685 0)
(0.283695 -0.000196871 0)
(0.28389 -0.000179808 0)
(0.284071 -0.000165165 0)
(0.284238 -0.000152492 0)
(0.284393 -0.000141402 0)
(0.284539 -0.000131591 0)
(0.284675 -0.000122836 0)
(0.284803 -0.000114978 0)
(0.284924 -0.000107906 0)
(0.285037 -0.000101531 0)
(0.285144 -9.57792e-05 0)
(0.285246 -9.05798e-05 0)
(0.285342 -8.58655e-05 0)
(0.285434 -8.15709e-05 0)
(0.285522 -7.76347e-05 0)
(0.285605 -7.40037e-05 0)
(0.285685 -7.06328e-05 0)
(0.285762 -6.74883e-05 0)
(0.285835 -6.45455e-05 0)
(0.285905 -6.17878e-05 0)
(0.285972 -5.92048e-05 0)
(0.286037 -5.67877e-05 0)
(0.286099 -5.45293e-05 0)
(0.286159 -5.24202e-05 0)
(0.286217 -5.04498e-05 0)
(0.286273 -4.86053e-05 0)
(0.286326 -4.68732e-05 0)
(0.436567 -0.000972348 0)
(0.436845 -0.000861551 0)
(0.437113 -0.00076663 0)
(0.437369 -0.000685727 0)
(0.437613 -0.000616776 0)
(0.437843 -0.000557669 0)
(0.43806 -0.000506575 0)
(0.438265 -0.000462136 0)
(0.438458 -0.000423408 0)
(0.43864 -0.000389668 0)
(0.438811 -0.000360253 0)
(0.438973 -0.000334494 0)
(0.439127 -0.000311743 0)
(0.439272 -0.000291448 0)
(0.439411 -0.000273192 0)
(0.439542 -0.000256682 0)
(0.439667 -0.000241716 0)
(0.439787 -0.000228144 0)
(0.439901 -0.000215834 0)
(0.44001 -0.000204656 0)
(0.440114 -0.000194478 0)
(0.440214 -0.000185168 0)
(0.44031 -0.000176606 0)
(0.440402 -0.000168684 0)
(0.440491 -0.000161316 0)
(0.440576 -0.000154432 0)
(0.440659 -0.000147983 0)
(0.440738 -0.000141932 0)
(0.440815 -0.000136251 0)
(0.440888 -0.000130922 0)
(0.44096 -0.000125923 0)
(0.441029 -0.000121237 0)
(0.441095 -0.000116842 0)
(0.44116 -0.000112713 0)
(0.441223 -0.000108826 0)
(0.575094 -0.00109804 0)
(0.57513 -0.00100479 0)
(0.575183 -0.000920252 0)
(0.575247 -0.000844605 0)
(0.57532 -0.000777373 0)
(0.575398 -0.000717543 0)
(0.57548 -0.000663981 0)
(0.575564 -0.000615823 0)
(0.575649 -0.000572557 0)
(0.575735 -0.000533858 0)
(0.57582 -0.000499377 0)
(0.575905 -0.000468629 0)
(0.575988 -0.000441031 0)
(0.57607 -0.00041602 0)
(0.576151 -0.000393151 0)
(0.576231 -0.000372129 0)
(0.576309 -0.000352785 0)
(0.576385 -0.000335015 0)
(0.57646 -0.000318728 0)
(0.576532 -0.000303814 0)
(0.576603 -0.000290132 0)
(0.576673 -0.000277529 0)
(0.57674 -0.000265852 0)
(0.576806 -0.000254964 0)
(0.576871 -0.000244757 0)
(0.576934 -0.000235151 0)
(0.576996 -0.000226093 0)
(0.577056 -0.000217545 0)
(0.577114 -0.000209484 0)
(0.577171 -0.000201886 0)
(0.577227 -0.000194732 0)
(0.577282 -0.000187994 0)
(0.577335 -0.000181646 0)
(0.577387 -0.000175653 0)
(0.577437 -0.000169984 0)
(0.694985 -0.00102203 0)
(0.694885 -0.000951041 0)
(0.694803 -0.000884733 0)
(0.694736 -0.000824035 0)
(0.694681 -0.000769171 0)
(0.694636 -0.000719662 0)
(0.694601 -0.000674701 0)
(0.694574 -0.000633628 0)
(0.694553 -0.000596128 0)
(0.694539 -0.000562105 0)
(0.694529 -0.000531447 0)
(0.694524 -0.000503873 0)
(0.694523 -0.000478927 0)
(0.694525 -0.000456101 0)
(0.694531 -0.000434967 0)
(0.694539 -0.00041525 0)
(0.69455 -0.000396827 0)
(0.694562 -0.000379665 0)
(0.694577 -0.000363754 0)
(0.694592 -0.000349053 0)
(0.694609 -0.00033547 0)
(0.694627 -0.000322872 0)
(0.694647 -0.000311111 0)
(0.694667 -0.000300047 0)
(0.694687 -0.000289568 0)
(0.694709 -0.0002796 0)
(0.694731 -0.000270102 0)
(0.694753 -0.000261054 0)
(0.694776 -0.000252452 0)
(0.694799 -0.000244289 0)
(0.694822 -0.000236556 0)
(0.694845 -0.000229234 0)
(0.694868 -0.000222297 0)
(0.694892 -0.000215712 0)
(0.694915 -0.000209444 0)
(0.795173 -0.000874068 0)
(0.79502 -0.00081988 0)
(0.794881 -0.000768099 0)
(0.794755 -0.000719997 0)
(0.794639 -0.000676177 0)
(0.794533 -0.000636502 0)
(0.794436 -0.000600396 0)
(0.794347 -0.000567306 0)
(0.794265 -0.000536973 0)
(0.79419 -0.000509374 0)
(0.794121 -0.000484505 0)
(0.794057 -0.000462209 0)
(0.793997 -0.000442129 0)
(0.793943 -0.00042381 0)
(0.793892 -0.000406834 0)
(0.793846 -0.000390917 0)
(0.793803 -0.00037593 0)
(0.793763 -0.000361858 0)
(0.793727 -0.000348733 0)
(0.793693 -0.000336563 0)
(0.793662 -0.000325305 0)
(0.793634 -0.000314856 0)
(0.793608 -0.000305085 0)
(0.793584 -0.000295852 0)
(0.793562 -0.000287046 0)
(0.793542 -0.00027859 0)
(0.793523 -0.000270449 0)
(0.793506 -0.000262617 0)
(0.793491 -0.000255106 0)
(0.793477 -0.00024793 0)
(0.793465 -0.000241095 0)
(0.793453 -0.000234596 0)
(0.793443 -0.000228412 0)
(0.793434 -0.000222515 0)
(0.793426 -0.000216872 0)
(0.875352 -0.000697646 0)
(0.875176 -0.000657446 0)
(0.875012 -0.000618172 0)
(0.87486 -0.000581143 0)
(0.874718 -0.000547123 0)
(0.874585 -0.000516214 0)
(0.87446 -0.000488058 0)
(0.874343 -0.00046222 0)
(0.874233 -0.000438492 0)
(0.874129 -0.000416879 0)
(0.87403 -0.000397435 0)
(0.873937 -0.000380098 0)
(0.873849 -0.000364619 0)
(0.873764 -0.000350627 0)
(0.873684 -0.000337747 0)
(0.873607 -0.000325702 0)
(0.873534 -0.000314351 0)
(0.873464 -0.000303671 0)
(0.873397 -0.000293698 0)
(0.873334 -0.000284465 0)
(0.873273 -0.000275961 0)
(0.873214 -0.000268118 0)
(0.873159 -0.000260826 0)
(0.873105 -0.000253959 0)
(0.873054 -0.000247405 0)
(0.873004 -0.000241085 0)
(0.872957 -0.00023496 0)
(0.872912 -0.000229026 0)
(0.872868 -0.000223299 0)
(0.872826 -0.000217802 0)
(0.872786 -0.000212553 0)
(0.872747 -0.000207555 0)
(0.87271 -0.000202798 0)
(0.872675 -0.000198256 0)
(0.872641 -0.000193901 0)
(0.935477 -0.000506758 0)
(0.935288 -0.000479107 0)
(0.935111 -0.000451552 0)
(0.934945 -0.00042522 0)
(0.93479 -0.00040082 0)
(0.934643 -0.000378552 0)
(0.934505 -0.000358221 0)
(0.934374 -0.000339521 0)
(0.93425 -0.000322297 0)
(0.934132 -0.000306567 0)
(0.93402 -0.000292408 0)
(0.933913 -0.000279819 0)
(0.933811 -0.000268648 0)
(0.933713 -0.000258631 0)
(0.933619 -0.000249478 0)
(0.933528 -0.000240954 0)
(0.93344 -0.000232933 0)
(0.933356 -0.000225383 0)
(0.933274 -0.000218333 0)
(0.933196 -0.000211821 0)
(0.93312 -0.000205855 0)
(0.933046 -0.000200397 0)
(0.932975 -0.000195369 0)
(0.932906 -0.000190673 0)
(0.932838 -0.000186212 0)
(0.932773 -0.000181915 0)
(0.932709 -0.000177742 0)
(0.932648 -0.000173683 0)
(0.932588 -0.000169751 0)
(0.932529 -0.000165971 0)
(0.932473 -0.000162361 0)
(0.932417 -0.00015893 0)
(0.932364 -0.000155674 0)
(0.932311 -0.000152575 0)
(0.932261 -0.000149607 0)
(0.975555 -0.000307213 0)
(0.975359 -0.000291059 0)
(0.975174 -0.000274738 0)
(0.975 -0.000258994 0)
(0.974836 -0.000244313 0)
(0.974681 -0.000230859 0)
(0.974535 -0.000218546 0)
(0.974397 -0.000207198 0)
(0.974265 -0.000196718 0)
(0.974141 -0.00018712 0)
(0.974022 -0.000178464 0)
(0.973908 -0.000170771 0)
(0.9738 -0.000163965 0)
(0.973695 -0.000157894 0)
(0.973595 -0.000152374 0)
(0.973497 -0.000147253 0)
(0.973403 -0.00014244 0)
(0.973312 -0.000137906 0)
(0.973224 -0.000133669 0)
(0.973139 -0.000129756 0)
(0.973056 -0.00012618 0)
(0.972975 -0.000122927 0)
(0.972897 -0.000119954 0)
(0.972821 -0.000117198 0)
(0.972746 -0.000114597 0)
(0.972673 -0.000112099 0)
(0.972602 -0.000109675 0)
(0.972532 -0.000107314 0)
(0.972464 -0.000105023 0)
(0.972398 -0.000102818 0)
(0.972333 -0.000100713 0)
(0.972269 -9.87171e-05 0)
(0.972207 -9.683e-05 0)
(0.972146 -9.50416e-05 0)
(0.972087 -9.33358e-05 0)
(0.995592 -0.000102883 0)
(0.995393 -9.75819e-05 0)
(0.995204 -9.21901e-05 0)
(0.995026 -8.69594e-05 0)
(0.994858 -8.20561e-05 0)
(0.9947 -7.75483e-05 0)
(0.99455 -7.34212e-05 0)
(0.994408 -6.96216e-05 0)
(0.994273 -6.61125e-05 0)
(0.994145 -6.28919e-05 0)
(0.994023 -5.99768e-05 0)
(0.993907 -5.73772e-05 0)
(0.993796 -5.50763e-05 0)
(0.993688 -5.30292e-05 0)
(0.993585 -5.11778e-05 0)
(0.993485 -4.94686e-05 0)
(0.993388 -4.78664e-05 0)
(0.993294 -4.63569e-05 0)
(0.993204 -4.49423e-05 0)
(0.993116 -4.36315e-05 0)
(0.99303 -4.24307e-05 0)
(0.992947 -4.13381e-05 0)
(0.992866 -4.03421e-05 0)
(0.992787 -3.94242e-05 0)
(0.99271 -3.85636e-05 0)
(0.992634 -3.77421e-05 0)
(0.99256 -3.69472e-05 0)
(0.992487 -3.61734e-05 0)
(0.992416 -3.54212e-05 0)
(0.992346 -3.4695e-05 0)
(0.992278 -3.40001e-05 0)
(0.992212 -3.33401e-05 0)
(0.992146 -3.2716e-05 0)
(0.992082 -3.21253e-05 0)
(0.992019 -3.15632e-05 0)
(0.995592 0.000102913 0)
(0.995393 9.75933e-05 0)
(0.995204 9.21827e-05 0)
(0.995026 8.69555e-05 0)
(0.994858 8.20832e-05 0)
(0.9947 7.76122e-05 0)
(0.99455 7.34991e-05 0)
(0.994408 6.96795e-05 0)
(0.994273 6.6132e-05 0)
(0.994145 6.28827e-05 0)
(0.994023 5.99671e-05 0)
(0.993907 5.73942e-05 0)
(0.993796 5.51308e-05 0)
(0.993688 5.31131e-05 0)
(0.993585 5.12711e-05 0)
(0.993485 4.95511e-05 0)
(0.993388 4.79262e-05 0)
(0.993294 4.63941e-05 0)
(0.993204 4.49672e-05 0)
(0.993116 4.36589e-05 0)
(0.99303 4.24743e-05 0)
(0.992947 4.1406e-05 0)
(0.992866 4.04348e-05 0)
(0.992787 3.95362e-05 0)
(0.99271 3.86857e-05 0)
(0.992634 3.78651e-05 0)
(0.99256 3.70648e-05 0)
(0.992487 3.62837e-05 0)
(0.992416 3.55268e-05 0)
(0.992346 3.48015e-05 0)
(0.992278 3.41142e-05 0)
(0.992212 3.3468e-05 0)
(0.992146 3.2862e-05 0)
(0.992082 3.22915e-05 0)
(0.992019 3.17494e-05 0)
(0.975555 0.000307247 0)
(0.975359 0.00029108 0)
(0.975174 0.000274743 0)
(0.975 0.000259001 0)
(0.974836 0.000244343 0)
(0.974681 0.000230917 0)
(0.974535 0.000218611 0)
(0.974397 0.000207242 0)
(0.974265 0.000196728 0)
(0.974141 0.00018711 0)
(0.974022 0.000178461 0)
(0.973909 0.000170796 0)
(0.9738 0.000164025 0)
(0.973695 0.000157977 0)
(0.973595 0.000152462 0)
(0.973497 0.000147328 0)
(0.973403 0.000142493 0)
(0.973312 0.000137941 0)
(0.973224 0.000133695 0)
(0.973139 0.000129787 0)
(0.973056 0.000126228 0)
(0.972975 0.000122996 0)
(0.972897 0.000120043 0)
(0.972821 0.000117302 0)
(0.972746 0.000114709 0)
(0.972673 0.000112212 0)
(0.972602 0.000109785 0)
(0.972532 0.00010742 0)
(0.972464 0.000105127 0)
(0.972398 0.000102925 0)
(0.972333 0.000100828 0)
(0.972269 9.88453e-05 0)
(0.972207 9.69739e-05 0)
(0.972147 9.52026e-05 0)
(0.972087 9.35138e-05 0)
(0.935477 0.000506786 0)
(0.935288 0.000479127 0)
(0.935111 0.00045156 0)
(0.934945 0.000425229 0)
(0.93479 0.000400847 0)
(0.934643 0.000378598 0)
(0.934504 0.000358267 0)
(0.934374 0.000339552 0)
(0.93425 0.000322309 0)
(0.934132 0.000306574 0)
(0.93402 0.000292427 0)
(0.933913 0.00027986 0)
(0.933811 0.00026871 0)
(0.933713 0.000258702 0)
(0.933619 0.000249545 0)
(0.933528 0.000241009 0)
(0.93344 0.000232974 0)
(0.933356 0.000225417 0)
(0.933274 0.000218369 0)
(0.933196 0.000211866 0)
(0.93312 0.000205913 0)
(0.933046 0.000200469 0)
(0.932975 0.000195452 0)
(0.932906 0.000190762 0)
(0.932838 0.000186304 0)
(0.932773 0.000182007 0)
(0.932709 0.000177835 0)
(0.932648 0.000173778 0)
(0.932588 0.000169852 0)
(0.932529 0.000166079 0)
(0.932473 0.000162478 0)
(0.932418 0.000159058 0)
(0.932364 0.000155813 0)
(0.932312 0.000152726 0)
(0.932261 0.00014977 0)
(0.875352 0.000697671 0)
(0.875176 0.000657466 0)
(0.875012 0.000618187 0)
(0.87486 0.000581163 0)
(0.874718 0.000547151 0)
(0.874585 0.000516247 0)
(0.87446 0.000488084 0)
(0.874343 0.000462238 0)
(0.874233 0.00043851 0)
(0.874129 0.000416907 0)
(0.87403 0.000397477 0)
(0.873937 0.000380151 0)
(0.873849 0.000364672 0)
(0.873764 0.000350671 0)
(0.873684 0.00033778 0)
(0.873607 0.000325728 0)
(0.873534 0.000314379 0)
(0.873464 0.000303709 0)
(0.873397 0.00029375 0)
(0.873334 0.000284531 0)
(0.873273 0.000276034 0)
(0.873215 0.000268192 0)
(0.873159 0.000260896 0)
(0.873105 0.000254024 0)
(0.873054 0.000247467 0)
(0.873004 0.00024115 0)
(0.872957 0.000235032 0)
(0.872912 0.000229108 0)
(0.872868 0.000223393 0)
(0.872826 0.000217908 0)
(0.872786 0.000212669 0)
(0.872748 0.00020768 0)
(0.872711 0.000202928 0)
(0.872675 0.000198393 0)
(0.872641 0.000194043 0)
(0.795173 0.000874083 0)
(0.79502 0.000819902 0)
(0.794881 0.00076813 0)
(0.794755 0.000720033 0)
(0.794639 0.000676206 0)
(0.794533 0.000636515 0)
(0.794436 0.000600396 0)
(0.794347 0.00056731 0)
(0.794265 0.000537001 0)
(0.79419 0.000509428 0)
(0.794121 0.000484572 0)
(0.794057 0.000462267 0)
(0.793997 0.000442163 0)
(0.793943 0.00042382 0)
(0.793892 0.000406832 0)
(0.793846 0.000390921 0)
(0.793803 0.000375955 0)
(0.793763 0.000361911 0)
(0.793727 0.000348808 0)
(0.793693 0.000336647 0)
(0.793662 0.000325385 0)
(0.793634 0.000314922 0)
(0.793608 0.000305134 0)
(0.793584 0.000295889 0)
(0.793562 0.000287079 0)
(0.793542 0.000278629 0)
(0.793523 0.000270501 0)
(0.793507 0.000262687 0)
(0.793491 0.000255193 0)
(0.793477 0.000248031 0)
(0.793465 0.000241205 0)
(0.793454 0.00023471 0)
(0.793443 0.000228527 0)
(0.793434 0.00022263 0)
(0.793426 0.000216986 0)
(0.694985 0.00102204 0)
(0.694886 0.000951064 0)
(0.694803 0.000884773 0)
(0.694736 0.000824078 0)
(0.694681 0.000769192 0)
(0.694636 0.000719652 0)
(0.694601 0.00067468 0)
(0.694574 0.00063363 0)
(0.694553 0.000596172 0)
(0.694539 0.00056218 0)
(0.694529 0.000531523 0)
(0.694524 0.000503921 0)
(0.694523 0.000478935 0)
(0.694525 0.00045608 0)
(0.694531 0.000434943 0)
(0.694539 0.000415249 0)
(0.69455 0.000396861 0)
(0.694562 0.000379732 0)
(0.694577 0.000363839 0)
(0.694592 0.000349136 0)
(0.694609 0.000335537 0)
(0.694628 0.000322916 0)
(0.694647 0.000311134 0)
(0.694667 0.000300058 0)
(0.694688 0.00028958 0)
(0.694709 0.000279623 0)
(0.694731 0.000270143 0)
(0.694753 0.000261115 0)
(0.694776 0.000252529 0)
(0.694799 0.000244377 0)
(0.694822 0.00023665 0)
(0.694845 0.000229328 0)
(0.694869 0.000222388 0)
(0.694892 0.000215798 0)
(0.694916 0.000209527 0)
(0.575094 0.00109806 0)
(0.57513 0.00100482 0)
(0.575183 0.000920302 0)
(0.575247 0.000844645 0)
(0.57532 0.000777374 0)
(0.575398 0.000717512 0)
(0.57548 0.000663957 0)
(0.575564 0.000615841 0)
(0.575649 0.000572621 0)
(0.575735 0.000533939 0)
(0.57582 0.000499436 0)
(0.575905 0.000468645 0)
(0.575988 0.000441009 0)
(0.57607 0.000415985 0)
(0.576152 0.000393132 0)
(0.576231 0.000372145 0)
(0.576309 0.000352835 0)
(0.576385 0.000335086 0)
(0.57646 0.000318801 0)
(0.576533 0.000303872 0)
(0.576603 0.000290168 0)
(0.576673 0.000277545 0)
(0.57674 0.000265854 0)
(0.576807 0.000254964 0)
(0.576871 0.000244764 0)
(0.576934 0.000235172 0)
(0.576996 0.000226129 0)
(0.577056 0.000217596 0)
(0.577114 0.000209545 0)
(0.577172 0.000201952 0)
(0.577227 0.000194798 0)
(0.577282 0.000188057 0)
(0.577335 0.000181703 0)
(0.577387 0.000175706 0)
(0.577438 0.000170034 0)
(0.436567 0.000972362 0)
(0.436845 0.000861588 0)
(0.437113 0.000766679 0)
(0.437369 0.000685752 0)
(0.437613 0.000616759 0)
(0.437843 0.000557633 0)
(0.43806 0.000506565 0)
(0.438265 0.000462173 0)
(0.438458 0.000423474 0)
(0.43864 0.000389726 0)
(0.438811 0.000360275 0)
(0.438973 0.000334477 0)
(0.439127 0.000311708 0)
(0.439272 0.000291424 0)
(0.439411 0.000273197 0)
(0.439542 0.000256717 0)
(0.439668 0.000241769 0)
(0.439787 0.000228197 0)
(0.439901 0.000215874 0)
(0.44001 0.000204677 0)
(0.440114 0.000194482 0)
(0.440214 0.000185164 0)
(0.44031 0.000176601 0)
(0.440402 0.000168687 0)
(0.440491 0.000161329 0)
(0.440576 0.000154456 0)
(0.440659 0.000148014 0)
(0.440738 0.000141967 0)
(0.440815 0.000136287 0)
(0.440889 0.000130956 0)
(0.44096 0.000125954 0)
(0.441029 0.000121264 0)
(0.441096 0.000116866 0)
(0.44116 0.000112736 0)
(0.441223 0.00010885 0)
(0.28123 0.000533477 0)
(0.281666 0.000454057 0)
(0.282054 0.000391504 0)
(0.282401 0.000341615 0)
(0.282713 0.000301255 0)
(0.282994 0.000268066 0)
(0.283249 0.000240336 0)
(0.283482 0.000216885 0)
(0.283695 0.000196911 0)
(0.28389 0.000179829 0)
(0.284071 0.000165159 0)
(0.284238 0.000152471 0)
(0.284394 0.000141385 0)
(0.284539 0.000131591 0)
(0.284675 0.000122854 0)
(0.284803 0.000115007 0)
(0.284924 0.000107933 0)
(0.285037 0.00010155 0)
(0.285144 9.57871e-05 0)
(0.285246 9.05797e-05 0)
(0.285343 8.58625e-05 0)
(0.285434 8.15695e-05 0)
(0.285522 7.76382e-05 0)
(0.285605 7.4012e-05 0)
(0.285685 7.06449e-05 0)
(0.285762 6.75015e-05 0)
(0.285835 6.45581e-05 0)
(0.285905 6.17985e-05 0)
(0.285973 5.92132e-05 0)
(0.286037 5.67943e-05 0)
(0.2861 5.4535e-05 0)
(0.286159 5.2426e-05 0)
(0.286217 5.04567e-05 0)
(0.286273 4.86136e-05 0)
(0.286327 4.68834e-05 0)
(0.109966 6.59075e-05 0)
(0.110232 5.5082e-05 0)
(0.110461 4.70174e-05 0)
(0.110659 4.08136e-05 0)
(0.110832 3.58979e-05 0)
(0.110986 3.19078e-05 0)
(0.111124 2.8598e-05 0)
(0.111247 2.57975e-05 0)
(0.111359 2.33969e-05 0)
(0.111461 2.13352e-05 0)
(0.111554 1.95741e-05 0)
(0.111639 1.80742e-05 0)
(0.111718 1.67862e-05 0)
(0.111792 1.56566e-05 0)
(0.111861 1.46389e-05 0)
(0.111925 1.37038e-05 0)
(0.111985 1.28397e-05 0)
(0.112041 1.20485e-05 0)
(0.112094 1.13354e-05 0)
(0.112144 1.07027e-05 0)
(0.112192 1.0145e-05 0)
(0.112237 9.65069e-06 0)
(0.11228 9.20373e-06 0)
(0.11232 8.78931e-06 0)
(0.112359 8.39571e-06 0)
(0.112396 8.01721e-06 0)
(0.112432 7.65252e-06 0)
(0.112466 7.30458e-06 0)
(0.112498 6.97704e-06 0)
(0.112529 6.67378e-06 0)
(0.112559 6.39609e-06 0)
(0.112588 6.14376e-06 0)
(0.112615 5.91373e-06 0)
(0.112642 5.70239e-06 0)
(0.112667 5.50491e-06 0)
(0.112692 -5.316e-06 0)
(0.112716 -5.13452e-06 0)
(0.112739 -4.95879e-06 0)
(0.112761 -4.78841e-06 0)
(0.112783 -4.62353e-06 0)
(0.112803 -4.465e-06 0)
(0.112823 -4.31363e-06 0)
(0.112843 -4.17025e-06 0)
(0.112862 -4.0351e-06 0)
(0.11288 -3.90831e-06 0)
(0.286378 -4.524e-05 0)
(0.286428 -4.3693e-05 0)
(0.286477 -4.22221e-05 0)
(0.286524 -4.0819e-05 0)
(0.286569 -3.94781e-05 0)
(0.286613 -3.81961e-05 0)
(0.286656 -3.6971e-05 0)
(0.286697 -3.5802e-05 0)
(0.286737 -3.46879e-05 0)
(0.286776 -3.36279e-05 0)
(0.441283 -0.000105154 0)
(0.441342 -0.000101675 0)
(0.441399 -9.83663e-05 0)
(0.441454 -9.52113e-05 0)
(0.441508 -9.21964e-05 0)
(0.441561 -8.93123e-05 0)
(0.441611 -8.65528e-05 0)
(0.441661 -8.3914e-05 0)
(0.441709 -8.13927e-05 0)
(0.441755 -7.89862e-05 0)
(0.577487 -0.000164604 0)
(0.577535 -0.000159485 0)
(0.577583 -0.000154599 0)
(0.577629 -0.000149926 0)
(0.577674 -0.000145449 0)
(0.577718 -0.000141157 0)
(0.577761 -0.000137042 0)
(0.577803 -0.000133097 0)
(0.577845 -0.000129318 0)
(0.577885 -0.000125701 0)
(0.694939 -0.000203459 0)
(0.694962 -0.000197727 0)
(0.694985 -0.000192222 0)
(0.695008 -0.000186927 0)
(0.695031 -0.000181827 0)
(0.695054 -0.000176916 0)
(0.695077 -0.000172186 0)
(0.6951 -0.000167635 0)
(0.695122 -0.00016326 0)
(0.695144 -0.000159055 0)
(0.793418 -0.000211449 0)
(0.793412 -0.000206218 0)
(0.793406 -0.000201157 0)
(0.793401 -0.000196253 0)
(0.793397 -0.000191497 0)
(0.793393 -0.000186888 0)
(0.79339 -0.000182426 0)
(0.793388 -0.000178111 0)
(0.793386 -0.000173944 0)
(0.793384 -0.000169923 0)
(0.872608 -0.000189699 0)
(0.872576 -0.000185624 0)
(0.872545 -0.000181655 0)
(0.872516 -0.000177782 0)
(0.872488 -0.000174001 0)
(0.872461 -0.000170313 0)
(0.872434 -0.000166724 0)
(0.872409 -0.000163238 0)
(0.872385 -0.000159857 0)
(0.872361 -0.000156584 0)
(0.932211 -0.000146744 0)
(0.932163 -0.000143961 0)
(0.932116 -0.00014124 0)
(0.93207 -0.000138571 0)
(0.932025 -0.000135952 0)
(0.931981 -0.000133386 0)
(0.931939 -0.000130878 0)
(0.931897 -0.000128434 0)
(0.931856 -0.00012606 0)
(0.931817 -0.000123756 0)
(0.972029 -9.16938e-05 0)
(0.971971 -9.00985e-05 0)
(0.971915 -8.85369e-05 0)
(0.97186 -8.70016e-05 0)
(0.971806 -8.54906e-05 0)
(0.971753 -8.40059e-05 0)
(0.971701 -8.25517e-05 0)
(0.97165 -8.11327e-05 0)
(0.9716 -7.97523e-05 0)
(0.971551 -7.8412e-05 0)
(0.991957 -3.10237e-05 0)
(0.991896 -3.05007e-05 0)
(0.991836 -2.99895e-05 0)
(0.991777 -2.9487e-05 0)
(0.99172 -2.89921e-05 0)
(0.991663 -2.85052e-05 0)
(0.991607 -2.80277e-05 0)
(0.991552 -2.75609e-05 0)
(0.991498 -2.71061e-05 0)
(0.991445 -2.66639e-05 0)
(0.991957 3.12281e-05 0)
(0.991896 3.0721e-05 0)
(0.991836 3.02232e-05 0)
(0.991777 2.97324e-05 0)
(0.99172 2.92483e-05 0)
(0.991663 2.87722e-05 0)
(0.991607 2.83061e-05 0)
(0.991552 2.78523e-05 0)
(0.991498 2.74123e-05 0)
(0.991445 2.69868e-05 0)
(0.972029 9.18876e-05 0)
(0.971971 9.03067e-05 0)
(0.971915 8.8758e-05 0)
(0.97186 8.72345e-05 0)
(0.971806 8.57347e-05 0)
(0.971753 8.42615e-05 0)
(0.971701 8.28195e-05 0)
(0.971651 8.14138e-05 0)
(0.971601 8.00483e-05 0)
(0.971552 7.87245e-05 0)
(0.932211 0.000146919 0)
(0.932163 0.000144147 0)
(0.932116 0.000141437 0)
(0.93207 0.00013878 0)
(0.932025 0.000136173 0)
(0.931981 0.000133619 0)
(0.931939 0.000131125 0)
(0.931897 0.000128695 0)
(0.931857 0.000126336 0)
(0.931817 0.000124047 0)
(0.872608 0.000189847 0)
(0.872576 0.00018578 0)
(0.872546 0.000181821 0)
(0.872516 0.000177958 0)
(0.872488 0.00017419 0)
(0.872461 0.000170515 0)
(0.872435 0.00016694 0)
(0.872409 0.000163468 0)
(0.872385 0.000160103 0)
(0.872362 0.000156844 0)
(0.793419 0.000211565 0)
(0.793412 0.000206339 0)
(0.793407 0.000201285 0)
(0.793402 0.000196391 0)
(0.793397 0.000191648 0)
(0.793394 0.000187053 0)
(0.793391 0.000182605 0)
(0.793388 0.000178305 0)
(0.793387 0.000174152 0)
(0.793385 0.000170143 0)
(0.694939 0.000203541 0)
(0.694962 0.000197812 0)
(0.694986 0.000192313 0)
(0.695009 0.000187027 0)
(0.695032 0.000181939 0)
(0.695055 0.000177041 0)
(0.695078 0.000172324 0)
(0.6951 0.000167786 0)
(0.695123 0.000163422 0)
(0.695145 0.000159227 0)
(0.577487 0.000164655 0)
(0.577536 0.000159538 0)
(0.577583 0.000154659 0)
(0.577629 0.000149993 0)
(0.577674 0.000145526 0)
(0.577719 0.000141244 0)
(0.577762 0.000137137 0)
(0.577804 0.000133201 0)
(0.577845 0.00012943 0)
(0.577886 0.000125818 0)
(0.441283 0.000105181 0)
(0.441342 0.000101705 0)
(0.441399 9.84016e-05 0)
(0.441455 9.52511e-05 0)
(0.441509 9.22413e-05 0)
(0.441561 8.93612e-05 0)
(0.441612 8.66059e-05 0)
(0.441661 8.39699e-05 0)
(0.441709 8.14519e-05 0)
(0.441756 7.90475e-05 0)
(0.286378 4.52515e-05 0)
(0.286429 4.3706e-05 0)
(0.286477 4.22357e-05 0)
(0.286524 4.08334e-05 0)
(0.28657 3.94928e-05 0)
(0.286614 3.82114e-05 0)
(0.286656 3.69868e-05 0)
(0.286698 3.58187e-05 0)
(0.286738 3.47057e-05 0)
(0.286777 3.36474e-05 0)
(0.112692 5.31767e-06 0)
(0.112716 5.13721e-06 0)
(0.112739 4.96219e-06 0)
(0.112761 4.79157e-06 0)
(0.112783 4.62621e-06 0)
(0.112803 4.4666e-06 0)
(0.112824 4.31432e-06 0)
(0.112843 4.16985e-06 0)
(0.112862 4.03423e-06 0)
(0.11288 3.90701e-06 0)
(0.112898 -3.78924e-06 0)
(0.112915 -3.67733e-06 0)
(0.112932 -3.57144e-06 0)
(0.112948 -3.4708e-06 0)
(0.112963 -3.37429e-06 0)
(0.112979 -3.28138e-06 0)
(0.112994 -3.19133e-06 0)
(0.113008 -3.10401e-06 0)
(0.113022 -3.01912e-06 0)
(0.113036 -2.93685e-06 0)
(0.113049 -2.85713e-06 0)
(0.113062 -2.78029e-06 0)
(0.113075 -2.70628e-06 0)
(0.113087 -2.63534e-06 0)
(0.113099 -2.56732e-06 0)
(0.113111 -2.50232e-06 0)
(0.113123 -2.44002e-06 0)
(0.113134 -2.38044e-06 0)
(0.113145 -2.32316e-06 0)
(0.113155 -2.26813e-06 0)
(0.113166 -2.21495e-06 0)
(0.113176 -2.16362e-06 0)
(0.113186 -2.11378e-06 0)
(0.113195 -2.06551e-06 0)
(0.113205 -2.01853e-06 0)
(0.113214 -1.97302e-06 0)
(0.113223 -1.92875e-06 0)
(0.113232 -1.88594e-06 0)
(0.113241 -1.84441e-06 0)
(0.113249 -1.80441e-06 0)
(0.113258 -1.76575e-06 0)
(0.113266 -1.7287e-06 0)
(0.113274 -1.69306e-06 0)
(0.113281 -1.65913e-06 0)
(0.113289 -1.62674e-06 0)
(0.286814 -3.262e-05 0)
(0.286851 -3.16618e-05 0)
(0.286886 -3.07498e-05 0)
(0.286921 -2.98804e-05 0)
(0.286955 -2.90496e-05 0)
(0.286988 -2.82535e-05 0)
(0.28702 -2.74886e-05 0)
(0.287051 -2.6752e-05 0)
(0.287081 -2.60415e-05 0)
(0.287111 -2.53555e-05 0)
(0.287139 -2.46929e-05 0)
(0.287167 -2.40531e-05 0)
(0.287195 -2.34357e-05 0)
(0.287221 -2.28405e-05 0)
(0.287247 -2.2267e-05 0)
(0.287273 -2.17149e-05 0)
(0.287298 -2.11833e-05 0)
(0.287322 -2.06716e-05 0)