/*--------------------------------*- C++ -*----------------------------------*\
| =========                 |                                                 |
| \\      /  F ield         | OpenFOAM: The Open Source CFD Toolbox           |
|  \\    /   O peration     | Version:  2406                                  |
|   \\  /    A nd           | Website:  www.openfoam.com                      |
|    \\/     M anipulation  |                                                 |
\*---------------------------------------------------------------------------*/
FoamFile
{
    version     2.0;
    format      ascii;
    arch        "LSB;label=32;scalar=64";
    class       surfaceScalarField;
    location    "108";
    object      phi;
}
// * * * * * * * * * * * * * * * * * * * * * * * * * * * * * * * * * * * * * //

dimensions      [0 3 -1 0 0 0 0];

oriented        oriented;

internalField   nonuniform List<scalar> 
3698
(
0.00999088
-0.000240858
0.0102745
-0.000283582
0.0105048
-0.000230296
0.0106832
-0.0001783
0.0108215
-0.000138284
0.0109289
-0.00010737
0.0110127
-8.3788e-05
0.0110791
-6.62807e-05
0.0111325
-5.3407e-05
0.0111764
-4.38173e-05
0.0112129
-3.64976e-05
0.0112437
-3.07693e-05
0.0112699
-2.61723e-05
0.0112924
-2.23816e-05
0.0113116
-1.9154e-05
0.0113279
-1.63089e-05
0.0113417
-1.36979e-05
0.0113529
-1.11953e-05
0.0113617
-8.67454e-06
0.0113677
-6.0062e-06
0.0113708
-3.03425e-06
0.0113704
4.29452e-07
0.0113659
4.59058e-06
0.0113563
9.68334e-06
0.0113403
1.60438e-05
0.0113163
2.41072e-05
0.011282
3.4438e-05
0.0112343
4.77476e-05
0.0111694
6.49465e-05
0.0110824
8.71709e-05
0.0109666
0.000115836
0.0108141
0.000152649
0.0106146
0.000199626
0.0103556
0.000259021
0.0100226
0.000333191
0.0095984
0.000424276
0.00906484
0.000533667
0.00840384
0.000661121
0.00760043
0.000803533
0.00664729
0.000953279
0.00555097
0.00109647
0.00433998
0.00121117
0.00307358
0.00126656
0.00185238
0.00122138
0.000826639
0.00102596
0.000202471
0.00062448
0.000202535
0.0276305
-0.000121327
0.0275856
-0.000238637
0.0276074
-0.00025202
0.0276644
-0.000235264
0.0277387
-0.000212518
0.0278185
-0.000187031
0.0278964
-0.000161609
0.027969
-0.000138838
0.0280352
-0.000119505
0.0280947
-0.000103281
0.0281479
-8.96168e-05
0.0281952
-7.80358e-05
0.0282372
-6.81327e-05
0.0282745
-5.95428e-05
0.0283073
-5.19421e-05
0.0283362
-4.50428e-05
0.0283611
-3.85839e-05
0.0283823
-3.23098e-05
0.0283997
-2.59553e-05
0.028413
-1.92254e-05
0.0284218
-1.17807e-05
0.0284256
-3.2134e-06
0.0284233
6.98302e-06
0.0284136
1.94537e-05
0.0283948
3.50218e-05
0.0283643
5.47572e-05
0.0283188
8.00434e-05
0.028254
0.000112673
0.0281641
0.000154956
0.0280416
0.000209859
0.0278765
0.000281158
0.0276557
0.000373606
0.0273624
0.00049309
0.0269748
0.000646744
0.0264653
0.000842928
0.0257988
0.00109097
0.0249322
0.00140044
0.0238138
0.00177965
0.0223847
0.00223291
0.0205822
0.00275595
0.0183501
0.00332893
0.0156555
0.00390602
0.0125186
0.0044037
0.00905484
0.00468554
0.00550637
0.00457489
0.00226296
0.00386832
0.00246565
0.043693
-6.43402e-05
0.043614
-0.000159531
0.0435574
-0.000195395
0.0435236
-0.000201418
0.0435085
-0.000197336
0.0435089
-0.000187375
0.0435207
-0.000173344
0.0435397
-0.000157868
0.0435631
-0.000142773
0.0435885
-0.000128712
0.0436148
-0.000115793
0.0436408
-0.000103994
0.0436659
-9.32285e-05
0.0436898
-8.33471e-05
0.0437121
-7.41504e-05
0.0437325
-6.54148e-05
0.0437509
-5.68948e-05
0.0437669
-4.83148e-05
0.0437804
-3.93513e-05
0.0437909
-2.96177e-05
0.0437978
-1.86393e-05
0.0438005
-5.82435e-06
0.043798
9.58189e-06
0.043789
2.8553e-05
0.0437717
5.23564e-05
0.0437439
8.26426e-05
0.0437025
0.000121568
0.0436433
0.000171946
0.043561
0.000237447
0.0434481
0.000322844
0.0432951
0.000434321
0.043089
0.000579837
0.0428126
0.000769557
0.0424432
0.00101631
0.0419502
0.00133604
0.0412933
0.00174807
0.0404187
0.0022751
0.0392563
0.00294223
0.0377147
0.00377463
0.0356787
0.00479215
0.0330082
0.00599961
0.0295464
0.00736803
0.0251415
0.00880876
0.0197029
0.0101243
0.0132796
0.0109985
0.00621289
0.0109356
0.00867858
0.057725
-3.93256e-05
0.0576717
-0.000106183
0.0576197
-0.000143387
0.0575765
-0.000158106
0.0575414
-0.000162179
0.0575143
-0.000160247
0.0574947
-0.000153746
0.0574813
-0.000144465
0.0574728
-0.000134136
0.0574678
-0.000123703
0.0574656
-0.000113529
0.0574654
-0.000103753
0.0574666
-9.44219e-05
0.0574688
-8.54948e-05
0.0574716
-7.68517e-05
0.0574745
-6.83158e-05
0.0574773
-5.96644e-05
0.0574797
-5.06203e-05
0.0574812
-4.08366e-05
0.0574815
-2.98757e-05
0.0574802
-1.71832e-05
0.0574764
-2.04952e-06
0.0574697
1.64434e-05
0.0574588
3.94963e-05
0.0574425
6.86817e-05
0.0574192
0.000106064
0.0573865
0.000154358
0.0573414
0.000217134
0.0572798
0.000299086
0.0571964
0.00040639
0.0570837
0.00054715
0.0569316
0.000731984
0.0567265
0.000974756
0.0564495
0.00129348
0.0560742
0.00171144
0.055564
0.00225841
0.0548672
0.00297202
0.0539107
0.00389879
0.052591
0.00509447
0.0507613
0.00662194
0.0482154
0.00854565
0.0446707
0.0109129
0.0397509
0.0137287
0.0330097
0.0168657
0.0239814
0.0200272
0.0124184
0.0224987
0.0210973
0.0697365
-2.57855e-05
0.0697029
-7.25302e-05
0.0696638
-0.000104301
0.0696266
-0.000120901
0.0695926
-0.000128077
0.069562
-0.000129656
0.0695354
-0.000127081
0.0695125
-0.000121568
0.0694929
-0.000114455
0.0694759
-0.00010668
0.0694611
-9.87063e-05
0.0694482
-9.07449e-05
0.0694367
-8.28953e-05
0.0694264
-7.51671e-05
0.0694171
-6.7482e-05
0.0694085
-5.96915e-05
0.0694004
-5.15865e-05
0.0693928
-4.28929e-05
0.0693852
-3.32553e-05
0.0693776
-2.22161e-05
0.0693697
-9.18613e-06
0.0693611
6.59634e-06
0.0693515
2.61247e-05
0.0693403
5.07018e-05
0.069327
8.20433e-05
0.0693108
0.000122411
0.0692904
0.000174795
0.0692645
0.000243148
0.0692309
0.000332708
0.069187
0.000450424
0.0691287
0.000605516
0.0690506
0.00081024
0.0689445
0.00108088
0.068799
0.00143912
0.0685967
0.00191379
0.068312
0.00254326
0.0679055
0.00337858
0.0673171
0.00448733
0.0664528
0.0059588
0.065166
0.00790884
0.0632244
0.0104874
0.0602651
0.0138722
0.0557075
0.0182864
0.0486927
0.0238806
0.0378311
0.0308887
0.0215455
0.0387852
0.0426428
0.0797416
-1.7407e-05
0.0797192
-5.00294e-05
0.0796896
-7.46662e-05
0.0796583
-8.96414e-05
0.0796276
-9.73295e-05
0.0795983
-0.000100261
0.0795709
-9.9695e-05
0.0795459
-9.6499e-05
0.0795231
-9.16185e-05
0.0795023
-8.5836e-05
0.0794832
-7.96137e-05
0.0794657
-7.31872e-05
0.0794495
-6.6675e-05
0.0794345
-6.01111e-05
0.0794205
-5.34477e-05
0.0794074
-4.6565e-05
0.0793951
-3.92789e-05
0.0793836
-3.13375e-05
0.0793728
-2.24072e-05
0.0793627
-1.20518e-05
0.0793533
2.95152e-07
0.0793446
1.5371e-05
0.0793366
3.41405e-05
0.0793295
5.7873e-05
0.0793234
8.82446e-05
0.0793184
0.000127473
0.0793147
0.0001785
0.0793127
0.000245234
0.0793126
0.000332885
0.0793147
0.000448412
0.0793192
0.000601141
0.0793259
0.000803609
0.0793341
0.00107273
0.0793419
0.00143145
0.0793447
0.00191103
0.0793337
0.00255434
0.0792918
0.00342063
0.0791869
0.0045923
0.0789603
0.00618545
0.0785057
0.00836346
0.0776283
0.0113649
0.0759835
0.0155171
0.0729134
0.0213565
0.0673658
0.0294283
0.0570281
0.041227
0.0390188
0.0567946
0.0816618
0.0877442
-1.15758e-05
0.0877278
-3.36169e-05
0.0877044
-5.12439e-05
0.0876778
-6.29575e-05
0.08765
-6.95805e-05
0.0876224
-7.25533e-05
0.0875955
-7.28064e-05
0.08757
-7.09631e-05
0.0875461
-6.76582e-05
0.0875237
-6.34655e-05
0.0875029
-5.877e-05
0.0874836
-5.37845e-05
0.0874655
-4.86185e-05
0.0874488
-4.331e-05
0.0874332
-3.78306e-05
0.0874188
-3.20892e-05
0.0874055
-2.59369e-05
0.0873933
-1.91641e-05
0.0873825
-1.14885e-05
0.087373
-2.53789e-06
0.0873652
8.17421e-06
0.0873593
2.12834e-05
0.0873559
3.76238e-05
0.0873555
5.8295e-05
0.087359
8.47522e-05
0.0873677
0.000118926
0.0873828
0.000163384
0.0874066
0.000221551
0.0874415
0.000298014
0.0874911
0.000398935
0.0875597
0.000532637
0.0876529
0.000710413
0.0877781
0.000947686
0.0879439
0.00126568
0.0881612
0.00169387
0.088442
0.00227361
0.088799
0.00306369
0.0892426
0.00414875
0.0897749
0.00565325
0.0903766
0.00776179
0.0909788
0.0107628
0.0914064
0.0150895
0.0912094
0.0215535
0.0893561
0.0312817
0.0825598
0.0480233
0.0635254
0.0758294
0.145187
0.0937455
-7.05465e-06
0.0937325
-2.05893e-05
0.093713
-3.17411e-05
0.0936896
-3.95124e-05
0.0936642
-4.41167e-05
0.0936379
-4.6281e-05
0.0936118
-4.65884e-05
0.0935863
-4.54474e-05
0.0935619
-4.32485e-05
0.0935388
-4.03576e-05
0.0935171
-3.70408e-05
0.0934968
-3.34544e-05
0.0934779
-2.96795e-05
0.0934604
-2.57449e-05
0.0934442
-2.1633e-05
0.0934295
-1.72806e-05
0.0934161
-1.25814e-05
0.0934044
-7.38317e-06
0.0933944
-1.47958e-06
0.0933865
5.40257e-06
0.0933811
1.36212e-05
0.0933788
2.3645e-05
0.0933804
3.60891e-05
0.093387
5.17656e-05
0.0934
7.17503e-05
0.0934216
9.74723e-05
0.0934542
0.000130836
0.0935014
0.000174388
0.0935679
0.00023155
0.09366
0.000306939
0.0937859
0.000406824
0.0939566
0.000539773
0.0941868
0.000717588
0.0944959
0.000956686
0.0949096
0.00128017
0.0954624
0.00172097
0.0961993
0.00232678
0.0971802
0.0031679
0.0984837
0.00434988
0.100211
0.00603488
0.102497
0.00847679
0.1055
0.0120861
0.10952
0.0175336
0.114914
0.0258874
0.123991
0.0389466
0.143846
0.0559744
0.0871855
0.201847
0.0977462
-3.21206e-06
0.097735
-9.39645e-06
0.0977178
-1.45247e-05
0.0976965
-1.81118e-05
0.0976726
-2.01858e-05
0.0976473
-2.10411e-05
0.0976217
-2.09503e-05
0.0975964
-2.0114e-05
0.0975719
-1.87168e-05
0.0975485
-1.69331e-05
0.0975264
-1.48952e-05
0.0975057
-1.26827e-05
0.0974864
-1.03361e-05
0.0974685
-7.868e-06
0.0974522
-5.26672e-06
0.0974375
-2.49682e-06
0.0974244
5.007e-07
0.0974133
3.80957e-06
0.0974043
7.54273e-06
0.0973979
1.1849e-05
0.0973946
1.69228e-05
0.0973953
2.30177e-05
0.097401
3.04663e-05
0.0974131
3.9706e-05
0.0974336
5.1316e-05
0.097465
6.60644e-05
0.097511
8.49754e-05
0.097576
0.000109419
0.0976664
0.000141238
0.0977905
0.000182924
0.0979595
0.000237871
0.0981886
0.000310734
0.0984983
0.000407962
0.0989165
0.00053858
0.0994813
0.000715386
0.100246
0.000956805
0.101283
0.00128978
0.102696
0.00175454
0.104634
0.00241178
0.107313
0.00335619
0.11106
0.00472929
0.116385
0.00676195
0.124193
0.00972565
0.13603
0.0140503
0.155103
0.0198731
0.185168
0.0259092
0.0389157
0.233438
0.0997465
3.32019e-07
0.0997361
9.7613e-07
0.09972
1.62593e-06
0.0996996
2.28208e-06
0.0996765
2.94734e-06
0.0996519
3.62478e-06
0.0996267
4.31787e-06
0.0996016
5.0307e-06
0.0995771
5.76787e-06
0.0995537
6.53437e-06
0.0995315
7.33557e-06
0.0995106
8.17738e-06
0.0994913
9.06612e-06
0.0994734
1.00086e-05
0.0994572
1.10121e-05
0.0994426
1.20845e-05
0.0994299
1.32346e-05
0.0994193
1.44716e-05
0.0994111
1.58058e-05
0.0994057
1.72481e-05
0.0994039
1.88107e-05
0.0994065
2.05073e-05
0.0994146
2.23529e-05
0.09943
2.43644e-05
0.0994548
2.65612e-05
0.099492
2.89655e-05
0.0995454
3.16037e-05
0.0996204
3.45074e-05
0.099724
3.77151e-05
0.0998657
4.12753e-05
0.100058
4.52504e-05
0.100319
4.97229e-05
0.100673
5.48053e-05
0.101151
6.06543e-05
0.101799
6.7495e-05
0.10268
7.56585e-05
0.103884
8.56469e-05
0.10554
9.82395e-05
0.107838
0.000114688
0.111057
0.000137058
0.115617
0.000168848
0.122163
0.000216301
0.131599
0.000289635
0.145239
0.000410256
0.164514
0.000598507
0.189485
0.000937801
0.00141125
0.226989
0.0997465
3.86848e-06
0.0997362
1.13248e-05
0.0997201
1.77369e-05
0.0996998
2.26202e-05
0.0996767
2.6008e-05
0.0996522
2.82008e-05
0.0996271
2.94781e-05
0.0996021
3.00486e-05
0.0995778
3.0106e-05
0.0995545
2.98345e-05
0.0995325
2.9377e-05
0.0995119
2.8825e-05
0.0994927
2.82311e-05
0.0994752
2.76216e-05
0.0994592
2.69991e-05
0.099445
2.63439e-05
0.0994327
2.5614e-05
0.0994224
2.47441e-05
0.0994146
2.36412e-05
0.0994097
2.21783e-05
0.0994084
2.01848e-05
0.0994115
1.74337e-05
0.0994203
1.3622e-05
0.0994364
8.34526e-06
0.0994619
1.06179e-06
0.0994999
-8.95325e-06
0.0995543
-2.26732e-05
0.0996302
-4.14076e-05
0.0997349
-6.69256e-05
0.0998779
-0.000101628
0.100072
-0.000148791
0.100335
-0.000212918
0.10069
-0.000300249
0.10117
-0.000419527
0.101821
-0.000583146
0.102706
-0.000808944
0.103914
-0.00112299
0.105577
-0.00156419
0.107883
-0.00219115
0.111115
-0.00309525
0.115696
-0.00441238
0.122277
-0.00636416
0.131771
-0.00920418
0.145509
-0.0133284
0.164931
-0.0188233
0.190062
-0.0241939
-0.0364069
0.22788
0.0977462
7.6866e-06
0.0977351
2.24468e-05
0.097718
3.4835e-05
0.0976968
4.3854e-05
0.0976731
4.97222e-05
0.0976482
5.31722e-05
0.0976229
5.47937e-05
0.097598
5.5003e-05
0.0975739
5.41997e-05
0.097551
5.27588e-05
0.0975295
5.0957e-05
0.0975094
4.89615e-05
0.0974908
4.68656e-05
0.0974737
4.4711e-05
0.0974583
4.24937e-05
0.0974445
4.01658e-05
0.0974325
3.76373e-05
0.0974225
3.47732e-05
0.0974148
3.13865e-05
0.0974098
2.72243e-05
0.0974081
2.19516e-05
0.0974105
1.51247e-05
0.097418
6.15599e-06
0.0974321
-5.73645e-06
0.0974548
-2.15935e-05
0.0974887
-4.28052e-05
0.0975374
-7.12302e-05
0.0976054
-0.000109363
0.0976991
-0.000160561
0.0978269
-0.000229367
0.0980001
-0.000321954
0.0982341
-0.00044677
0.0985493
-0.000615461
0.0989741
-0.000844239
0.099547
-0.00115592
0.100321
-0.00158307
0.101371
-0.00217284
0.102802
-0.00299479
0.104764
-0.00415342
0.107478
-0.0058095
0.111281
-0.00821492
0.116695
-0.0117783
0.124658
-0.0171671
0.136778
-0.0254481
0.156372
-0.0384182
0.187363
-0.0551849
-0.0862817
0.237237
0.0937455
1.21683e-05
0.0937327
3.5357e-05
0.0937134
5.41421e-05
0.0936902
6.70235e-05
0.0936652
7.48278e-05
0.0936394
7.90004e-05
0.0936137
8.04783e-05
0.0935889
7.98921e-05
0.0935652
7.78851e-05
0.093543
7.50397e-05
0.0935222
7.17508e-05
0.0935029
6.82413e-05
0.0934852
6.46326e-05
0.093469
6.09741e-05
0.0934543
5.72507e-05
0.0934411
5.33848e-05
0.0934295
4.92432e-05
0.0934197
4.46317e-05
0.0934119
3.92862e-05
0.0934063
3.28526e-05
0.0934034
2.48657e-05
0.0934039
1.47114e-05
0.0934085
1.58115e-06
0.0934184
-1.55991e-05
0.0934351
-3.82535e-05
0.0934607
-6.82804e-05
0.0934977
-0.000108209
0.0935498
-0.000161425
0.0936218
-0.000232465
0.09372
-0.000327439
0.0938527
-0.000454606
0.0940312
-0.000625187
0.0942703
-0.000854519
0.0945899
-0.00116373
0.0950162
-0.00158217
0.0955843
-0.00215108
0.0963406
-0.00292914
0.0973468
-0.00400093
0.0986845
-0.00549104
0.10046
-0.00758458
0.102816
-0.0105717
0.105927
-0.014889
0.110121
-0.0213604
0.115801
-0.0311281
0.125434
-0.0480514
0.146489
-0.0762403
-0.147465
0.207672
0.0877442
1.79439e-05
0.087728
5.16074e-05
0.0877049
7.72943e-05
0.0876786
9.33266e-05
0.0876514
0.000102081
0.0876243
0.000106094
0.0875982
0.000106629
0.0875736
0.000104561
0.0875507
0.000100843
0.0875295
9.6266e-05
0.08751
9.13003e-05
0.087492
8.61918e-05
0.0874756
8.10682e-05
0.0874607
7.59755e-05
0.0874471
7.08764e-05
0.0874349
6.56647e-05
0.087424
6.01685e-05
0.0874145
5.41515e-05
0.0874065
4.72939e-05
0.0874003
3.91776e-05
0.0873959
2.92521e-05
0.0873939
1.68009e-05
0.0873946
8.7794e-07
0.0873989
-1.97619e-05
0.0874074
-4.67727e-05
0.0874216
-8.23447e-05
0.0874428
-0.000129394
0.0874733
-0.000191799
0.0875156
-0.000274742
0.0875734
-0.000385151
0.0876512
-0.000532327
0.0877549
-0.000728782
0.0878919
-0.000991425
0.0880714
-0.0013432
0.0883048
-0.00181542
0.0886048
-0.00245107
0.0889854
-0.00330965
0.0894586
-0.00447406
0.0900289
-0.00606135
0.090681
-0.00823661
0.0913512
-0.0112419
0.0918724
-0.0154101
0.0918035
-0.0212915
0.0901197
-0.0294442
0.0834915
-0.0414232
0.0645098
-0.0572582
-0.0829553
0.0797417
2.62528e-05
0.0797194
7.39034e-05
0.0796902
0.000106588
0.0796594
0.000124106
0.0796293
0.000132203
0.0796008
0.000134713
0.0795743
0.000133082
0.0795504
0.000128533
0.0795289
0.000122412
0.0795095
0.000115663
0.0794921
0.000108757
0.0794764
0.000101914
0.0794623
9.52417e-05
0.0794495
8.87593e-05
0.0794381
8.23986e-05
0.0794277
7.60219e-05
0.0794185
6.9431e-05
0.0794104
6.23644e-05
0.0794032
5.4479e-05
0.0793971
4.53313e-05
0.0793921
3.43457e-05
0.0793882
2.07761e-05
0.0793855
3.64458e-06
0.0793841
-1.83335e-05
0.0793842
-4.68567e-05
0.0793861
-8.41691e-05
0.0793901
-0.000133243
0.0793964
-0.000198017
0.0794054
-0.000283719
0.0794176
-0.000397289
0.0794334
-0.000547956
0.0794527
-0.000747995
0.0794751
-0.00101375
0.0794989
-0.00136698
0.0795203
-0.0018367
0.0795309
-0.00246157
0.0795144
-0.00329311
0.0794401
-0.00439969
0.0792507
-0.00587189
0.0788418
-0.00782765
0.0780203
-0.0104204
0.0764433
-0.013833
0.0734497
-0.0182979
0.0679816
-0.023976
0.0576835
-0.0311248
0.0396486
-0.039223
-0.0433066
0.0697366
3.97087e-05
0.0697032
0.000107312
0.0696645
0.000145269
0.0696279
0.000160738
0.0695946
0.000165558
0.069565
0.000164375
0.0695395
0.000158631
0.0695179
0.00015012
0.0694998
0.000140579
0.0694846
0.000130959
0.0694717
0.00012163
0.069461
0.000112735
0.0694519
0.000104332
0.0694443
9.63849e-05
0.069438
8.8785e-05
0.0694327
8.13601e-05
0.0694283
7.39007e-05
0.0694246
6.61345e-05
0.0694214
5.77298e-05
0.0694185
4.82538e-05
0.0694157
3.71688e-05
0.0694128
2.37689e-05
0.0694094
7.15356e-06
0.069405
-1.38718e-05
0.0693991
-4.08603e-05
0.0693908
-7.58752e-05
0.0693793
-0.000121615
0.069363
-0.000181654
0.0693401
-0.000260684
0.0693078
-0.000364902
0.0692623
-0.000502433
0.0691984
-0.00068396
0.0691082
-0.000923427
0.0689803
-0.00123901
0.0687979
-0.00165422
0.0685356
-0.0021992
0.0681547
-0.00291213
0.0675955
-0.00384037
0.0667646
-0.00504091
0.0655155
-0.00657847
0.0636153
-0.00852007
0.0606987
-0.0109164
0.0561779
-0.013777
0.0491799
-0.0169778
0.0382793
-0.0202241
0.0218491
-0.0227923
-0.0214574
0.0577251
6.46267e-05
0.0576721
0.000160382
0.0576206
0.000196812
0.057578
0.000203393
0.0575437
0.000199858
0.0575177
0.000190441
0.0574994
0.000176952
0.0574875
0.000162026
0.0574807
0.000147489
0.0574777
0.000134002
0.0574777
0.000121677
0.05748
0.000110498
0.057484
0.000100382
0.0574892
9.11898e-05
0.0574953
8.27221e-05
0.057502
7.47678e-05
0.0575088
6.70809e-05
0.0575156
5.94001e-05
0.057522
5.1401e-05
0.0575276
4.27128e-05
0.057532
3.28584e-05
0.0575346
2.12616e-05
0.0575346
7.16352e-06
0.0575313
-1.03916e-05
0.0575231
-3.26763e-05
0.0575087
-6.13253e-05
0.0574857
-9.85072e-05
0.0574511
-0.000147028
0.0574011
-0.000210585
0.0573303
-0.000293962
0.0572314
-0.000403402
0.0570944
-0.000546917
0.0569059
-0.000734798
0.056647
-0.000980018
0.0562917
-0.00129877
0.0558033
-0.00171073
0.0551303
-0.00223909
0.0541997
-0.00290963
0.0529073
-0.00374848
0.0511056
-0.00477666
0.0485861
-0.00600044
0.045062
-0.00739221
0.0401495
-0.0088643
0.03339
-0.0102182
0.0242998
-0.0111335
0.0126118
-0.0111039
-0.00884549
0.0436931
0.000121504
0.0436144
0.000239183
0.0435583
0.000252929
0.0435252
0.000236517
0.043511
0.000214102
0.0435126
0.000188936
0.0435258
0.000163832
0.0435465
0.000141377
0.0435716
0.000122365
0.0435992
0.000106468
0.0436278
9.3142e-05
0.0436565
8.19115e-05
0.0436845
7.23784e-05
0.0437116
6.41775e-05
0.0437374
5.69928e-05
0.0437617
5.05355e-05
0.0437843
4.45534e-05
0.043805
3.87894e-05
0.0438234
3.29884e-05
0.0438394
2.68538e-05
0.0438523
2.00561e-05
0.0438614
1.21812e-05
0.0438659
2.73383e-06
0.0438646
-8.93728e-06
0.0438556
-2.36489e-05
0.0438369
-4.24771e-05
0.0438053
-6.67997e-05
0.0437568
-9.84272e-05
0.043686
-0.000139677
0.0435857
-0.000193552
0.0434463
-0.000263858
0.0432549
-0.000355425
0.0429945
-0.000474219
0.0426421
-0.000627516
0.0421673
-0.000823849
0.0415294
-0.00107281
0.0406747
-0.00138428
0.0395322
-0.00176699
0.0380096
-0.00222574
0.0359898
-0.00275674
0.03333
-0.00334054
0.0298693
-0.00393128
0.0254498
-0.00444467
0.019974
-0.00474213
0.0134845
-0.0046435
0.0063215
-0.00394029
-0.00252386
0.0276306
0.000240926
0.027586
0.000283812
0.0276083
0.000230681
0.0276661
0.000178822
0.0277413
0.00013893
0.0278221
0.00010813
0.0279014
8.46601e-05
0.0279755
6.72633e-05
0.0280434
5.45005e-05
0.0281049
4.50232e-05
0.0281603
3.78197e-05
0.0282101
3.22121e-05
0.0282548
2.77426e-05
0.0282949
2.40867e-05
0.028331
2.10038e-05
0.0283633
1.83131e-05
0.028392
1.5869e-05
0.0284173
1.35459e-05
0.0284392
1.12208e-05
0.0284573
8.76565e-06
0.0284714
6.03242e-06
0.0284809
2.83973e-06
0.0284847
-1.04207e-06
0.0284817
-5.86654e-06
0.0284701
-1.19463e-05
0.0284475
-1.97116e-05
0.0284105
-2.97287e-05
0.0283549
-4.27198e-05
0.028275
-5.96047e-05
0.0281631
-8.15391e-05
0.0280093
-0.00010996
0.0278006
-0.000146613
0.0275201
-0.000193556
0.0271458
-0.000253112
0.0266498
-0.000327716
0.0259967
-0.00041961
0.0251428
-0.000530298
0.0240356
-0.000659656
0.0226146
-0.000804666
0.0208157
-0.000957716
0.0185802
-0.00110478
0.0158726
-0.00122356
0.0127108
-0.00128263
0.00920885
-0.00123985
0.00561058
-0.0010447
0.00231106
-0.000640186
-0.000212708
0.00999094
0.0102748
0.0105055
0.0106843
0.0108232
0.0109314
0.011016
0.0110833
0.0111378
0.0111829
0.0112207
0.0112529
0.0112807
0.0113048
0.0113258
0.0113442
0.01136
0.0113736
0.0113848
0.0113936
0.0113997
0.0114025
0.0114015
0.0113957
0.0113838
0.0113641
0.0113344
0.0112917
0.0112321
0.0111506
0.0110407
0.0108941
0.0107006
0.0104475
0.0101198
0.00970022
0.00916995
0.00851032
0.00770569
0.00674801
0.00564327
0.00441976
0.00313717
0.00189739
0.000852799
0.000212708
0.147602
0.0542456
0.120247
0.027355
0.103343
0.0169038
0.0921378
0.0112054
0.0845204
0.0076182
0.0055797
0.0789411
0.253889
0.033795
0.260091
0.0211527
0.260832
0.0161625
0.258166
0.013872
0.253606
0.0121785
0.0117656
0.24742
0.25844
0.00234388
0.275823
0.00377015
0.286629
0.00535636
0.293521
0.00697978
0.296926
0.00877449
0.0109177
0.297773
0.25938
-0.0291561
0.276508
-0.0133586
0.287175
-0.00531004
0.294421
-0.000265802
0.298769
0.00442631
0.00861755
0.301069
0.259016
-0.0509346
0.267693
-0.0220364
0.27293
-0.0105463
0.276215
-0.00355069
0.278448
0.0021937
0.00709341
0.279972
0.156738
0.134701
0.124155
0.120604
0.122798
0.129892
-0.000223007
0.000223343
-0.000661395
0.000439199
-0.00115574
0.000495127
-0.00162862
0.00047363
-0.00206016
0.000432276
-0.00244677
0.000387321
-0.00278972
0.000343653
-0.00309273
0.000303692
-0.00336097
0.000268923
-0.00360008
0.000239773
-0.00381489
0.000215476
-0.00400838
0.000194144
-0.00418096
0.000173242
-0.00433059
0.000150284
-0.00445349
0.000123548
-0.00454534
9.24811e-05
-0.00460247
5.77519e-05
-0.00462283
2.09722e-05
-0.0046065
-1.5729e-05
-0.00455547
-5.04272e-05
-0.004473
-8.18853e-05
-0.00436319
-0.000109226
-0.00423114
-0.000131475
-0.00408279
-0.0001478
-0.00392432
-0.00015793
-0.00376213
-0.000161671
-0.00360224
-0.000159366
-0.00345007
-0.000151648
-0.00331016
-0.00013942
-0.00318579
-0.000123958
-0.00307865
-0.000106853
-0.00298872
-8.9819e-05
-0.00291395
-7.48011e-05
-0.00285063
-6.35877e-05
-0.00279299
-5.80703e-05
-0.00273263
-6.11234e-05
-0.00265759
-7.58955e-05
-0.00255326
-0.00010548
-0.00240286
-0.000151485
-0.00219081
-0.000213627
-0.00190027
-0.000291229
-0.00151188
-0.000388447
-0.00100658
-0.000506109
-0.000395737
-0.000614822
0.000251023
-0.000656605
0.000901209
-0.000662568
-0.000802125
-0.000761874
0.000986021
-0.00193365
0.00161285
-0.00313712
0.00170036
-0.00424649
0.00158468
-0.00523292
0.00142031
-0.00609734
0.00125328
-0.0068503
0.00109811
-0.00750586
0.000960713
-0.00807889
0.000843353
-0.0085829
0.000745163
-0.00902826
0.000662183
-0.00942077
0.000588002
-0.00976131
0.000515123
-0.0100465
0.000436826
-0.0102706
0.000348898
-0.0104275
0.000250733
-0.0105136
0.000145085
-0.0105284
3.69836e-05
-0.010475
-6.79603e-05
-0.0103593
-0.000164922
-0.0101894
-0.000250623
-0.00997463
-0.000322827
-0.00972546
-0.000379536
-0.00945321
-0.000418991
-0.00916984
-0.000440263
-0.00888722
-0.000443279
-0.0086163
-0.000429261
-0.00836675
-0.000400219
-0.00814638
-0.000358897
-0.00796067
-0.000308988
-0.00781217
-0.000254966
-0.00770024
-0.000201709
-0.00762099
-0.000154404
-0.00756706
-0.000118297
-0.0075277
-9.87823e-05
-0.00748852
-0.000102151
-0.00743114
-0.000135702
-0.00733242
-0.000206889
-0.00716676
-0.000320539
-0.00690922
-0.000474313
-0.00654027
-0.00066273
-0.00604375
-0.000886048
-0.00540629
-0.00114757
-0.00462531
-0.00140965
-0.0037344
-0.0015703
-0.00276676
-0.00164366
-0.00166289
-0.00137731
0.0023641
-0.0032366
0.00347381
-0.00499112
0.00345645
-0.00653488
0.00312993
-0.00787029
0.00275715
-0.0090198
0.00240416
-0.01001
0.00208966
-0.0108669
0.00181888
-0.0116137
0.00159132
-0.0122694
0.00140204
-0.0128478
0.00124177
-0.0133565
0.00109789
-0.0137969
0.000956659
-0.0141652
0.000806265
-0.0144549
0.000639803
-0.0146601
0.000457003
-0.0147777
0.00026378
-0.0148093
6.95682e-05
-0.0147603
-0.000115871
-0.0146395
-0.000284634
-0.0144577
-0.000431373
-0.0142268
-0.000552706
-0.0139599
-0.000645545
-0.0136709
-0.000707018
-0.0133747
-0.000735521
-0.0130861
-0.000731044
-0.0128188
-0.000695721
-0.012585
-0.000633294
-0.0123943
-0.000548895
-0.0122536
-0.000449219
-0.0121663
-0.000342079
-0.0121323
-0.000235869
-0.0121476
-0.000139532
-0.0122048
-6.20663e-05
-0.0122926
-1.23151e-05
-0.0123966
-5.45971e-08
-0.0124986
-3.60589e-05
-0.012576
-0.000132184
-0.0126028
-0.000296643
-0.0125525
-0.000527498
-0.0124021
-0.000814985
-0.0121323
-0.00115677
-0.0117281
-0.00155442
-0.0111839
-0.00196088
-0.0105069
-0.00225608
-0.00974042
-0.00241565
-0.00247922
-0.00200939
0.00437414
-0.00436193
0.00582779
-0.00635232
0.00544824
-0.00801279
0.00479175
-0.00942023
0.00416589
-0.0106274
0.0036126
-0.0116754
0.00313886
-0.0125964
0.00274107
-0.0134151
0.00241121
-0.0141503
0.00213831
-0.0148149
0.00190747
-0.0154159
0.00169991
-0.0159535
0.00149534
-0.0164224
0.00127618
-0.0168138
0.00103218
-0.0171192
0.000763389
-0.0173341
0.000479715
-0.0174599
0.000196356
-0.0175027
-7.20733e-05
-0.0174713
-0.000315066
-0.0173759
-0.000525769
-0.017228
-0.000699504
-0.0170408
-0.000831772
-0.0168291
-0.000917733
-0.01661
-0.000953776
-0.016401
-0.000939136
-0.0162192
-0.00087681
-0.016079
-0.000772775
-0.0159924
-0.000634906
-0.0159683
-0.000472864
-0.0160122
-0.000298018
-0.0161261
-0.000122088
-0.0163086
4.23773e-05
-0.0165543
0.000182889
-0.016855
0.000287194
-0.0171998
0.000343084
-0.0175751
0.000337146
-0.0179642
0.000254729
-0.0183465
8.33172e-05
-0.0186967
-0.000179077
-0.0189885
-0.000524323
-0.0191992
-0.00094571
-0.0193137
-0.00144054
-0.0193155
-0.00196141
-0.019187
-0.00238801
-0.0189531
-0.00264836
-0.00276468
-0.00257997
0.00695474
-0.00487142
0.00812056
-0.006444
0.00702212
-0.0076986
0.00604767
-0.00880313
0.00527169
-0.00980863
0.00461936
-0.0107461
0.00407749
-0.0116352
0.00363133
-0.0124853
0.00326237
-0.0133005
0.00295457
-0.0140829
0.00269082
-0.0148319
0.00244985
-0.0155428
0.00220708
-0.0162057
0.00194005
-0.0168073
0.00163467
-0.0173333
0.00129037
-0.0177739
0.000921299
-0.0181268
0.000550239
-0.0183963
0.000198484
-0.0185895
-0.000120759
-0.0187124
-0.000401765
-0.0187709
-0.000639829
-0.0187741
-0.000827377
-0.0187359
-0.000954826
-0.0186753
-0.00101342
-0.0186141
-0.000999501
-0.0185739
-0.000916198
-0.0185737
-0.000772289
-0.0186291
-0.000578846
-0.0187525
-0.000349123
-0.0189521
-9.8214e-05
-0.0192327
0.000158196
-0.0195954
0.000404546
-0.0200389
0.000625435
-0.0205589
0.000805976
-0.0211487
0.000931075
-0.021799
0.000985289
-0.0224985
0.000951776
-0.0232324
0.000815133
-0.0239799
0.000566386
-0.0247124
0.000207405
-0.0254042
-0.000254266
-0.0260401
-0.000804892
-0.026605
-0.00139728
-0.0270569
-0.00193357
-0.0273766
-0.00232973
-0.00252899
-0.00252652
0.00948199
-0.00308085
0.00867647
-0.00295161
0.00689436
-0.00306425
0.00616168
-0.00345854
0.00566731
-0.0040525
0.00521458
-0.00480964
0.0048359
-0.00570055
0.00452342
-0.00668917
0.00425215
-0.00774046
0.00400692
-0.00882591
0.00377732
-0.00992433
0.00354923
-0.0110187
0.00330241
-0.012093
0.00301535
-0.013129
0.00267173
-0.014106
0.00226837
-0.0150069
0.00182321
-0.0158224
0.00136688
-0.0165507
0.00092786
-0.0171931
0.000522829
-0.0177502
0.000156493
-0.0182178
-0.000170873
-0.0185925
-0.000451401
-0.0188802
-0.000665952
-0.0190989
-0.000793676
-0.019275
-0.000822572
-0.0194378
-0.000752564
-0.0196149
-0.000594541
-0.0198288
-0.000364429
-0.0200968
-8.07208e-05
-0.0204313
0.000236445
-0.0208399
0.000566582
-0.0213276
0.000891613
-0.0218964
0.00119341
-0.0225457
0.00145405
-0.0232722
0.0016559
-0.0240706
0.00178158
-0.0249353
0.00181433
-0.0258596
0.00173732
-0.0268287
0.0015338
-0.0278152
0.00119277
-0.0287894
0.000720212
-0.0297362
0.000142147
-0.0306332
-0.000499159
-0.031423
-0.00114562
-0.0320603
-0.00168894
-0.00198475
0.00634629
0.00313672
0.0108438
0.00418041
0.0130258
0.00471353
0.0139795
0.00520908
0.0140706
0.0055772
0.0134955
0.00579072
0.0124189
0.00591349
0.0109679
0.00597545
0.0092452
0.00597574
0.00733978
0.00591318
0.00532761
0.00579028
0.0032696
0.00560807
0.00120887
0.00536404
-0.000825906
0.00505113
-0.00281517
0.00466205
-0.0047458
0.00420005
-0.00660368
0.0036821
-0.00837328
0.00313745
-0.0100405
0.00259612
-0.0115914
0.00207495
-0.0130091
0.00157555
-0.0142746
0.00109615
-0.0153712
0.000646658
-0.0162927
0.000257066
-0.0170499
-3.52595e-05
-0.0176678
-0.000203516
-0.0181817
-0.000237785
-0.0186306
-0.000144597
-0.0190501
5.58541e-05
-0.0194689
0.000338845
-0.0199093
0.000677193
-0.0203865
0.00104391
-0.0209109
0.00141549
-0.0214891
0.00177105
-0.0221257
0.00208935
-0.022823
0.0023516
-0.0235833
0.00253957
-0.024409
0.00263762
-0.0253024
0.00262832
-0.026259
0.00248841
-0.0272609
0.00219371
-0.0282819
0.00174085
-0.0292983
0.00115873
-0.0302783
0.000479728
-0.0311528
-0.000266885
-0.0318883
-0.000952465
-0.00133087
0.0766342
0.00544462
0.0745287
0.00628653
0.0721348
0.00710783
0.0693611
0.00798312
0.066116
0.00882268
0.0623842
0.0095228
0.0582433
0.0100548
0.0537933
0.0104257
0.0491283
0.010641
0.0443385
0.0107032
0.0395101
0.010619
0.0347195
0.010399
0.0300277
0.0100561
0.0254746
0.00960457
0.0210779
0.00905925
0.0168415
0.00843688
0.0127682
0.00775608
0.00886989
0.00703641
0.00517238
0.00629448
0.00170968
0.00553882
-0.00148196
0.00476881
-0.00436774
0.00398373
-0.00692131
0.00320221
-0.00912767
0.00246513
-0.0109873
0.00182619
-0.012522
0.0013325
-0.0137696
0.00101116
-0.0147788
0.000865676
-0.0156028
0.000880826
-0.0162944
0.00103111
-0.0168989
0.00128217
-0.0174502
0.00159503
-0.0179712
0.00193606
-0.0184796
0.00227841
-0.0189898
0.00259811
-0.0195155
0.00287491
-0.020071
0.00309226
-0.0206728
0.00323591
-0.0213371
0.00328968
-0.0220777
0.00322641
-0.0228978
0.00301233
-0.0237856
0.00262868
-0.0247155
0.00208902
-0.0256393
0.00140505
-0.0264871
0.000580789
-0.0272156
-0.000221901
-0.000686685
0.240085
0.0127802
0.231905
0.0144665