/*--------------------------------*- C++ -*----------------------------------*\
| =========                 |                                                 |
| \\      /  F ield         | OpenFOAM: The Open Source CFD Toolbox           |
|  \\    /   O peration     | Version:  2406                                  |
|   \\  /    A nd           | Website:  www.openfoam.com                      |
|    \\/     M anipulation  |                                                 |
\*---------------------------------------------------------------------------*/
FoamFile
{
    version     2.0;
    format      ascii;
    arch        "LSB;label=32;scalar=64";
    class       volScalarField;
    location    "2000";
    object      p;
}
// * * * * * * * * * * * * * * * * * * * * * * * * * * * * * * * * * * * * * //

dimensions      [0 2 -2 0 0 0 0];

internalField   nonuniform List<scalar> 
1964
(
0.570595
0.571317
0.571882
0.572165
0.572319
0.572417
0.57246
0.572449
0.572393
0.572305
0.57219
0.572053
0.571897
0.571725
0.571539
0.571341
0.571133
0.570914
0.570685
0.570448
0.5702
0.569943
0.569676
0.569396
0.569101
0.56879
0.568458
0.568099
0.567707
0.567271
0.566777
0.566207
0.565533
0.564718
0.563707
0.562421
0.560743
0.558499
0.555426
0.551128
0.545011
0.536206
0.523474
0.505146
0.479194
0.443457
0.39639
0.571231
0.571568
0.571943
0.572187
0.572327
0.572409
0.572443
0.572429
0.572374
0.572286
0.572173
0.572037
0.571883
0.571712
0.571528
0.571332
0.571124
0.570907
0.57068
0.570444
0.570199
0.569944
0.569679
0.569403
0.569113
0.568807
0.568483
0.568134
0.567754
0.567335
0.566863
0.566322
0.565688
0.564924
0.563982
0.562786
0.561223
0.559123
0.556224
0.552119
0.546196
0.537528
0.524779
0.506086
0.479132
0.441289
0.390874
0.571833
0.571812
0.571956
0.572149
0.572284
0.572356
0.572384
0.572373
0.572325
0.572245
0.572137
0.572008
0.571859
0.571693
0.571514
0.571322
0.571119
0.570907
0.570685
0.570456
0.570218
0.569973
0.569721
0.56946
0.569191
0.568912
0.568622
0.568319
0.567999
0.567659
0.567291
0.566887
0.566431
0.565901
0.56526
0.564452
0.563381
0.561891
0.559723
0.556456
0.551413
0.543538
0.531254
0.512261
0.483628
0.441254
0.382627
0.572322
0.572124
0.572096
0.572208
0.57231
0.572354
0.572358
0.572335
0.572283
0.572203
0.572098
0.571972
0.571827
0.571668
0.571494
0.571309
0.571114
0.570911
0.5707
0.570484
0.570263
0.570038
0.569812
0.569584
0.569358
0.569136
0.568919
0.568712
0.568518
0.568342
0.568189
0.568065
0.567975
0.567919
0.567893
0.567873
0.567801
0.56756
0.566914
0.565435
0.562355
0.556397
0.5455
0.52664
0.495946
0.44717
0.378181
0.572729
0.572445
0.572287
0.572304
0.572353
0.572362
0.572339
0.572299
0.572241
0.57216
0.572056
0.571934
0.571796
0.571643
0.571477
0.571302
0.571118
0.570927
0.570732
0.570535
0.570338
0.570144
0.569956
0.569779
0.569619
0.569481
0.569376
0.569314
0.569309
0.569382
0.569553
0.569853
0.570315
0.570979
0.571887
0.573072
0.574551
0.576282
0.578116
0.579683
0.580184
0.578126
0.570553
0.553009
0.517451
0.455106
0.36426
0.573064
0.57273
0.572484
0.57242
0.572417
0.572393
0.572344
0.572286
0.572216
0.57213
0.572027
0.571906
0.571772
0.571625
0.571468
0.571302
0.57113
0.570955
0.570778
0.570604
0.570437
0.57028
0.570141
0.570027
0.569948
0.569917
0.56995
0.57007
0.570302
0.570685
0.571262
0.572092
0.573248
0.574819
0.57691
0.579641
0.583132
0.587485
0.592721
0.598685
0.604796
0.609741
0.610096
0.60012
0.562235
0.480261
0.299441
0.57333
0.572966
0.572663
0.57254
0.572491
0.572434
0.57236
0.572283
0.572201
0.572109
0.572003
0.571884
0.571754
0.571613
0.571464
0.571308
0.571149
0.570989
0.570833
0.570683
0.570547
0.570431
0.570344
0.570298
0.570306
0.570389
0.570571
0.570885
0.571372
0.572087
0.573101
0.574503
0.576409
0.578963
0.582348
0.586783
0.592526
0.599865
0.609085
0.620402
0.633783
0.648733
0.663133
0.673068
0.661042
0.604734
0.312124
0.573529
0.573148
0.57281
0.572644
0.572559
0.572476
0.572382
0.572288
0.572196
0.572098
0.57199
0.571872
0.571744
0.571609
0.571466
0.57132
0.571172
0.571027
0.570888
0.570762
0.570655
0.570576
0.570537
0.570553
0.570642
0.570831
0.571151
0.571645
0.572368
0.573392
0.57481
0.576744
0.579348
0.582824
0.587427
0.593478
0.601378
0.611617
0.62477
0.641485
0.662398
0.68802
0.718219
0.752105
0.784121
0.809372
0.762735
0.573664
0.573273
0.572913
0.572721
0.572613
0.57251
0.572402
0.572297
0.572197
0.572095
0.571985
0.571867
0.571742
0.57161
0.571473
0.571333
0.571194
0.57106
0.570935
0.570827
0.570742
0.570692
0.570691
0.570755
0.570907
0.571178
0.571604
0.572237
0.573142
0.574404
0.576134
0.578479
0.581624
0.585815
0.591366
0.598682
0.608281
0.620819
0.637115
0.658173
0.68516
0.719342
0.761759
0.812677
0.869567
0.925287
0.960495
0.573734
0.573338
0.572968
0.572764
0.572644
0.572532
0.572416
0.572306
0.572202
0.572098
0.571987
0.571869
0.571745
0.571615
0.571482
0.571346
0.571213
0.571085
0.570968
0.57087
0.570798
0.570765
0.570784
0.570875
0.571062
0.571378
0.571863
0.572572
0.573577
0.57497
0.576872
0.579441
0.582882
0.587465
0.593536
0.601546
0.612079
0.625883
0.643911
0.667354
0.697649
0.736417
0.785155
0.844568
0.912464
0.980861
1.02751
0.573739
0.573343
0.572973
0.572769
0.572649
0.572538
0.572422
0.572312
0.572209
0.572105
0.571995
0.571878
0.571754
0.571625
0.571492
0.571357
0.571224
0.571098
0.570982
0.570885
0.570814
0.570783
0.570804
0.570896
0.571086
0.571403
0.57189
0.572602
0.573609
0.575005
0.57691
0.579482
0.582928
0.587515
0.593591
0.601607
0.612147
0.625959
0.643996
0.667451
0.69776
0.736546
0.785307
0.844747
0.912675
0.981113
1.02778
0.573679
0.573287
0.572928
0.572737
0.572629
0.572527
0.57242
0.572316
0.572217
0.572116
0.572008
0.571891
0.571768
0.571638
0.571503
0.571366
0.57123
0.571098
0.570977
0.570872
0.570791
0.570746
0.570749
0.570818
0.570976
0.571252
0.571685
0.572325
0.573237
0.574508
0.576248
0.578603
0.58176
0.585964
0.591529
0.598863
0.608482
0.621043
0.637369
0.658462
0.685494
0.719734
0.762224
0.81324
0.87026
0.926127
0.961529
0.573553
0.573172
0.572834
0.572669
0.572586
0.572503
0.572411
0.572319
0.572228
0.572133
0.572027
0.571911
0.571787
0.571654
0.571516
0.571373
0.57123
0.571089
0.570955
0.570835
0.570734
0.570662
0.570631
0.570655
0.570753
0.570951
0.571282
0.571787
0.572523
0.573561
0.574995
0.576945
0.579569
0.583066
0.587693
0.593772
0.601705
0.611983
0.625185
0.641959
0.662948
0.68867
0.719005
0.753081
0.785372
0.811023
0.765099
0.573361
0.572998
0.572696
0.572573
0.572526
0.572471
0.5724
0.572324
0.572245
0.572156
0.572053
0.571937
0.571811
0.571674
0.57153
0.57138
0.571226
0.571073
0.570923
0.570782
0.570654
0.570547
0.57047
0.570434
0.570455
0.570551
0.570747
0.571077
0.571581
0.572315
0.573349
0.574774
0.576705
0.579288
0.582706
0.587178
0.592966
0.600359
0.609644
0.621044
0.634532
0.649623
0.664221
0.674449
0.662906
0.607464
0.316905
0.573102
0.572768
0.572524
0.572462
0.57246
0.572438
0.572392
0.572336
0.572269
0.572187
0.572087
0.571971
0.571841
0.5717
0.571549
0.571389
0.571224
0.571057
0.570889
0.570724
0.570567
0.570421
0.570294
0.570194
0.570129
0.570114
0.570165
0.570303
0.570557
0.570962
0.571564
0.572422
0.573609
0.575215
0.577346
0.580123
0.583669
0.588088
0.593405
0.599472
0.605716
0.610839
0.611445
0.601837
0.564539
0.483556
0.304435
0.572773
0.572489
0.572333
0.572351
0.572402
0.572414
0.572394
0.572357
0.572302
0.572224
0.572125
0.572008
0.571875
0.571728
0.571569
0.571401
0.571225
0.571043
0.570858
0.570671
0.570486
0.570305
0.570131
0.569969
0.569825
0.569706
0.56962
0.56958
0.5696
0.569698
0.569898
0.57023
0.570728
0.571432
0.572385
0.573624
0.575165
0.576974
0.578901
0.580587
0.581242
0.57939
0.572103
0.554967
0.52001
0.458539
0.368946
0.57237
0.572173
0.572146
0.57226
0.572364
0.572411
0.572418
0.572398
0.57235
0.572274
0.572173
0.572052
0.571914
0.57176
0.571594
0.571417
0.571231
0.571037
0.570837
0.570633
0.570424
0.570214
0.570002
0.569791
0.569583
0.569381
0.569186
0.569002
0.568834
0.568686
0.568565
0.568476
0.568424
0.568413
0.568437
0.568476
0.568474
0.568316
0.567774
0.566426
0.563515
0.557782
0.547189
0.528744
0.498625
0.450613
0.382592
0.571885
0.571864
0.572009
0.572203
0.572341
0.572416
0.572446
0.572439
0.572395
0.572319
0.572216
0.572092
0.571949
0.571791
0.571619
0.571435
0.571242
0.571039
0.570829
0.570612
0.570388
0.570157
0.569921
0.569677
0.569427
0.569169
0.568902
0.568624
0.568331
0.568021
0.567687
0.567319
0.566905
0.566421
0.565835
0.56509
0.564093
0.562693
0.560636
0.557508
0.552645
0.545004
0.533031
0.51445
0.48636
0.444685
0.38692
0.571284
0.571621
0.571997
0.572243
0.572385
0.57247
0.572506
0.572496
0.572445
0.572362
0.572253
0.572123
0.571975
0.571811
0.571635
0.571447
0.571249
0.571042
0.570827
0.570603
0.570372
0.570132
0.569883
0.569625
0.569354
0.56907
0.568768
0.568445
0.568093
0.567705
0.567268
0.566765
0.566173
0.565459
0.564572
0.563442
0.561957
0.559951
0.557167
0.553209
0.547471
0.539043
0.526609
0.508324
0.481899
0.444727
0.395128
0.570649
0.571371
0.571937
0.572221
0.572378
0.572478
0.572524
0.572516
0.572465
0.572381
0.572271
0.572139
0.57199
0.571825
0.571647
0.571458
0.571258
0.57105
0.570833
0.570608
0.570374
0.570132
0.56988
0.569618
0.569344
0.569054
0.568745
0.568412
0.568048
0.567643
0.567184
0.566652
0.566022
0.565256
0.564303
0.563084
0.561486
0.559338
0.556384
0.552234
0.546307
0.537745
0.525329
0.507409
0.481979
0.446894
0.400623
0.337992
0.271014
0.201676
0.136584
0.0791409
0.0299752
0.327958
0.256504
0.185016
0.120312
0.0643051
0.0168172
0.306348
0.221609
0.145202
0.0821673
0.0297415
-0.0133864
0.275812
0.160808
0.0740364
0.0136059
-0.0332385
-0.068332
0.203136
0.039024
-0.056347
-0.103552
-0.131633
-0.144963
-0.0272913
-0.172685
-0.211871
-0.20839
-0.193249
-0.171142
-0.307651
-0.262509
-0.230678
-0.228287
-0.216477
-0.195569
-0.298528
-0.252639
-0.221629
-0.22
-0.207596
-0.184544
-0.020186
-0.164853
-0.204265
-0.202113
-0.186782
-0.161877
0.209127
0.045728
-0.0493955
-0.0965914
-0.123758
-0.134945
0.281291
0.167253
0.0813446
0.0217832
-0.0238675
-0.0574081
0.311627
0.227957
0.152647
0.0907681
0.0396393
-0.00199906
0.333176
0.262801
0.192494
0.129075
0.0745066
0.0286422
0.343163
0.277259
0.209121
0.145367
0.0894351
0.042013
-0.0111106
-0.0446199
-0.0713073
-0.092405
-0.109392
-0.123056
-0.133539
-0.140855
-0.145102
-0.146456
-0.145178
-0.141659
-0.136456
-0.130268
-0.123854
-0.117894
-0.112844
-0.108809
-0.105514
-0.102401
-0.0988354
-0.0943525
-0.0888048
-0.0823577
-0.0753802
-0.0682431
-0.0612393
-0.054499
-0.0480258
-0.0418026
-0.0357399
-0.0296598
-0.0234196
-0.0169653
-0.0103343
-0.00366302
0.00282572
0.00885252
0.0141161
0.0183254
0.0212276
0.022614
0.0223582
0.0202792
0.0166182
0.0103298
0.00582691
-0.022492
-0.0544931
-0.0807012
-0.102299
-0.119777
-0.13356
-0.144075
-0.151565
-0.156119
-0.157769
-0.156581
-0.152773
-0.146781
-0.139284
-0.131126
-0.123172
-0.116118
-0.110303
-0.105614
-0.101528
-0.0973493
-0.092513
-0.0868194
-0.0804172
-0.0736108
-0.0667842
-0.0602038
-0.0538907
-0.0477916
-0.0419065
-0.0361272
-0.0302106
-0.0240359
-0.017606
-0.0109887
-0.00433401
0.00212203
0.0080927
0.0132778
0.0173927
0.020195
0.0214835
0.0211534
0.0189817
0.0153611
0.00859825
0.00594882
-0.0476332
-0.0751113
-0.0981126
-0.11747
-0.13343
-0.146549
-0.157364
-0.166082
-0.172649
-0.176861
-0.178496
-0.177413
-0.173644
-0.167422
-0.159158
-0.14939
-0.138722
-0.12774
-0.116944
-0.106677
-0.0971163
-0.0883177
-0.0802828
-0.0729864
-0.0663632
-0.0603021
-0.0546311
-0.0491483
-0.0437189
-0.0382422
-0.0326988
-0.027045
-0.0211529
-0.0150318
-0.00878612
-0.00258916
0.00332515
0.00868989
0.013237
0.0167222
0.0189463
0.0197546
0.0190775
0.0167639
0.0131873
0.00703024
0.00495393
-0.0923832
-0.110498
-0.126391
-0.140822
-0.153868
-0.165734
-0.176607
-0.186488
-0.195047
-0.201734
-0.205938
-0.207173
-0.205194
-0.199973
-0.191624
-0.180361
-0.166502
-0.150523
-0.133099
-0.11509
-0.0974454
-0.0810643
-0.0666408
-0.0545479
-0.0448024
-0.0371246
-0.0310592
-0.0261076
-0.0218275
-0.0178555
-0.0139427
-0.0100213
-0.006023
-0.00191485
0.0022506
0.00634101
0.0101711
0.0135334
0.0162244
0.0180643
0.018911
0.0186702
0.0173031
0.0148093
0.0113273
0.00677648
0.00279533
-0.14957
-0.15532
-0.162072
-0.168907
-0.176428
-0.185295
-0.195439
-0.206276
-0.217008
-0.226641
-0.234069
-0.238295
-0.238699
-0.234981
-0.226957
-0.214475
-0.197505
-0.176318
-0.151662
-0.124781
-0.097286
-0.0708909
-0.0471181
-0.027045
-0.0111683
0.000582686
0.0086995
0.0139021
0.0169748
0.0186578
0.0195801
0.0201118
0.0204257
0.0206895
0.021007
0.0213721
0.0216986
0.0218652
0.0217413
0.0212047
0.0201529
0.0185229
0.0162741
0.0134989
0.0100806
0.00697503
0.000946032
-0.154498
-0.156685
-0.164393
-0.172304
-0.180311
-0.18955
-0.200441
-0.212622
-0.225229
-0.237067
-0.246883
-0.253626
-0.256499
-0.255062
-0.248888
-0.237369
-0.219861
-0.19607
-0.166463
-0.132428
-0.0961246
-0.060103
-0.0268282
0.00175327
0.0245
0.0411288
0.0520402
0.0580229
0.0600892
0.0593568
0.0568587
0.05334
0.0492729
0.0450604
0.0410004
0.0372329
0.0337816
0.0306076
0.0276372
0.0247793
0.0219387
0.0190343
0.0159922
0.0128355
0.0094285
0.00652424
0.00107757
-0.166106
-0.160538
-0.164993
-0.172024
-0.179828
-0.188993
-0.200032
-0.212781
-0.226346
-0.239294
-0.25007
-0.257581
-0.261251
-0.26078
-0.255781
-0.245481
-0.228748
-0.204638
-0.173084
-0.135239
-0.0934352
-0.0507742
-0.0105078
0.0245933
0.0527096
0.0731649
0.0862897
0.0928856
0.0940694
0.0912453
0.0857386
0.0786316
0.0707197
0.0626896
0.0550244
0.0479968
0.0417246
0.0362129
0.0313848
0.0271114
0.0232427
0.019624
0.0161342
0.0126187
0.00917273
0.00527168
0.00266131
-0.157435
-0.159383
-0.164749
-0.171401
-0.179086
-0.188308
-0.199553
-0.212695
-0.226772
-0.240219
-0.251373
-0.258996
-0.262536
-0.261813
-0.25659
-0.246228
-0.229507
-0.205208
-0.173003
-0.133796
-0.0897985
-0.0442077
-0.000607747
0.0378021
0.0688661
0.0914897
0.105665
0.112203
0.112491
0.108315
0.101078
0.0917889
0.0815195
0.071156
0.0613004
0.0523285
0.0444303
0.0376362
0.0318567
0.0269272
0.0226507
0.0188141
0.0152556
0.0116778
0.00834758
0.00358826
0.00375502
-0.14753
-0.152259
-0.159574
-0.167668
-0.176557
-0.186746
-0.198555
-0.211763
-0.225524
-0.238527
-0.249364
-0.256922
-0.260588
-0.259995
-0.254689
-0.243897
-0.226526
-0.201571
-0.168776
-0.129092
-0.0847455
-0.0389183
0.00474253
0.0427644
0.073173
0.0960305
0.110756
0.116937
0.116353
0.110906
0.102299
0.0920751
0.0813455
0.070807
0.0609212
0.0519848
0.0441322
0.0373561
0.031552
0.026561
0.0222039
0.0182947
0.0146845
0.0111099
0.00777383
0.00307875
0.0035435
-0.138935
-0.144216
-0.153275
-0.164421
-0.176807
-0.189963
-0.20332
-0.216201
-0.227968
-0.238079
-0.246069
-0.25151
-0.253951
-0.25287
-0.247542
-0.237033
-0.220324
-0.196499
-0.165215
-0.127231
-0.0845789
-0.0402518
0.00241248
0.0399447
0.0700503
0.0928584
0.107515
0.113654
0.113253
0.108243
0.100148
0.0903119
0.0797348
0.0691302
0.0590295
0.0497972
0.0416226
0.0345461
0.0285037
0.0233712
0.0189937
0.0152136
0.0118705
0.00883149
0.0059622
0.00302737
0.00130043
-0.137162
-0.142435
-0.152734
-0.166779
-0.182819
-0.199098
-0.214093
-0.226824
-0.236907
-0.244385
-0.249513
-0.252571
-0.253651
-0.2524
-0.247877
-0.23872
-0.223557
-0.201254
-0.171344
-0.134531
-0.0929445
-0.0497002
-0.00761091
0.0302009
0.0609223
0.0831394
0.0968368
0.102858
0.102541
0.0974832
0.089247
0.0792432
0.0686014
0.0581413
0.0484136
0.039742
0.0322604
0.0259607
0.0207438
0.0164659
0.0129646
0.010101
0.00770728
0.00581731
0.00392807
0.0034056
-0.00131078
-0.14163
-0.145979
-0.155945
-0.170425
-0.187296
-0.204239
-0.219443
-0.231909
-0.241369
-0.248024
-0.252312
-0.254714
-0.25549
-0.254323
-0.250195
-0.241576
-0.22721
-0.206088
-0.177622
-0.142363
-0.102283
-0.0604378
-0.0200345
0.0157712
0.0444187
0.0647305
0.0769146
0.0818317
0.0807586
0.0753673
0.0673402
0.0580889
0.0486642
0.0397661
0.0318053
0.0249728
0.0193007
0.0147156
0.0110865
0.00826431
0.00609825
0.00447805
0.00325242
0.00255208
0.00172193
0.00287855
-0.00278592
-0.147707
-0.148227
-0.15641
-0.170205
-0.186756
-0.203594
-0.218867
-0.231499
-0.241158
-0.248004
-0.252431
-0.254898
-0.255675
-0.254509
-0.250481
-0.242165
-0.228088
-0.207174
-0.179221
-0.145155
-0.107095
-0.0680765
-0.0313186
0.000347821
0.0249129
0.041565
0.050685
0.0534193
0.0513172
0.0460676
0.0391958
0.0318758
0.0248993
0.0187261
0.0135616
0.00943596
0.00627
0.00392964
0.00226504
0.00113737
0.000422265
3.79346e-05
-0.000132348
3.30666e-05
9.47494e-06
0.0015272
-0.00241032
-0.153221
-0.145924
-0.152751
-0.166259
-0.182235
-0.198693
-0.213934
-0.226732
-0.236667
-0.243934
-0.248885
-0.251744
-0.252507
-0.250773
-0.245627
-0.235814
-0.220203
-0.198256
-0.170343
-0.137824
-0.102968
-0.0686528
-0.0377249
-0.0123863
0.00614118
0.0177256
0.0231912
0.023948
0.021584
0.0175629
0.0130278
0.00872754
0.00506383
0.0021918
0.000108851
-0.00128183
-0.00212002
-0.00254606
-0.00267643
-0.00259656
-0.00237112
-0.00203664
-0.00165388
-0.00115495
-0.000814048
0.000246637
-0.00122057
-0.140958
-0.141022
-0.151784
-0.165976
-0.18135
-0.197081
-0.211728
-0.224074
-0.233655
-0.240413
-0.244343
-0.245471
-0.243696
-0.238671
-0.229787
-0.216356
-0.197939
-0.174659
-0.147386
-0.117745
-0.0879393
-0.0603899
-0.0371709
-0.0195231
-0.0076844
-0.00102973
0.00161185
0.00159409
0.000164656
-0.00169774
-0.00336947
-0.00458941
-0.00534025
-0.00569188
-0.00572292
-0.00551519
-0.00515439
-0.00471126
-0.00422766
-0.00372086
-0.00319776
-0.00265939
-0.00212547
-0.00157694
-0.00111412
-0.000438866
-0.000486879
-0.137331
-0.142451
-0.151592
-0.162966
-0.175618
-0.188621
-0.200643
-0.210439
-0.217232
-0.220711
-0.220911
-0.217969
-0.211975
-0.20291
-0.190657
-0.175098
-0.156303
-0.134726
-0.111343
-0.0876379
-0.065381
-0.0462447
-0.0313496
-0.0209977
-0.0147226
-0.0115033
-0.0101282
-0.00963873
-0.00948649
-0.00936191
-0.00908609
-0.00864416
-0.00811415
-0.00755612
-0.00698013
-0.00638224
-0.00577432
-0.00517211
-0.00457855
-0.00398824
-0.00339681
-0.00280515
-0.00222585
-0.00166646
-0.00115957
-0.000642922
-0.000305731
-0.0800003
-0.0974014
-0.113878
-0.129832
-0.144368
-0.156897
-0.166984
-0.174052
-0.177725
-0.178004
-0.175158
-0.169542
-0.161494
-0.151283
-0.139087
-0.125029
-0.109298
-0.0923273
-0.0749645
-0.0584805
-0.0442414
-0.0331399
-0.0252156
-0.0199246
-0.0166712
-0.0148271
-0.0136739
-0.0127023
-0.0117621
-0.0108745
-0.0100734
-0.00935371
-0.00866036
-0.00795232
-0.00722895
-0.00651498
-0.00583258
-0.00519056
-0.00458329
-0.00399636
-0.00341754
-0.0028425
-0.00227546
-0.0017238
-0.00120741
-0.000746634
-0.000353792
-0.0347142
-0.0608756
-0.0829443
-0.101602
-0.116711
-0.128217
-0.136131
-0.140438
-0.141165
-0.138525
-0.132935
-0.124968
-0.115299
-0.10463
-0.0935733
-0.0825245
-0.0715969
-0.060718
-0.0499626
-0.0399498
-0.0317359
-0.0260342
-0.0224595
-0.0199284
-0.0176957
-0.0158291
-0.0145471
-0.0135948
-0.0125901
-0.0114671
-0.0103664
-0.00942442
-0.0086384
-0.0079316
-0.00724305
-0.00655748
-0.00588751
-0.00524537
-0.00463081
-0.00403655
-0.00345626
-0.00288768
-0.00233027
-0.00178485
-0.00127013
-0.000821628
-0.000377732
-0.00888904
-0.0391399
-0.0637009
-0.0833592
-0.098147
-0.108165
-0.113598
-0.114687
-0.111792
-0.105506
-0.0967294
-0.0866495
-0.0766032
-0.0678179
-0.0610676
-0.0563639
-0.0528661
-0.0492132
-0.0442435
-0.0377777
-0.0310885
-0.0260127
-0.0230908
-0.0212398
-0.0193011
-0.017127
-0.015177
-0.0137246
-0.0125912
-0.0115225
-0.0104986
-0.00957676
-0.00875619
-0.00800299
-0.00728718
-0.00659603
-0.00592881
-0.00528695
-0.00466902
-0.00407174
-0.00349272
-0.0029307
-0.00238291
-0.00184763
-0.00133899
-0.000874486
-0.000376988
0.00296149
-0.0280861
-0.0519103
-0.0700093
-0.0836306
-0.0929638
-0.0979461
-0.0987926
-0.0960213
-0.0903982
-0.0829274
-0.0747923
-0.0671886
-0.0610687
-0.0568695
-0.0543272
-0.0525132
-0.0501688
-0.0463334
-0.0409166
-0.0345942
-0.0287333
-0.0243777
-0.0215053
-0.0192753
-0.0172062
-0.0154118
-0.0139438
-0.0127022
-0.0115839
-0.0105676
-0.00965314
-0.00882227
-0.00805039
-0.0073193
-0.00662023
-0.00594993
-0.00530629
-0.00468664
-0.0040885
-0.00351063
-0.00295233
-0.00241106
-0.00188462
-0.00138084
-0.000902008
-0.000371206
)
;

boundaryField
{
    inlet
    {
        type            zeroGradient;
    }
    outlet
    {
        type            fixedValue;
        value           uniform 0;
    }
    upperWall
    {
        type            zeroGradient;
    }
    lowerWall
    {
        type            zeroGradient;
    }
    frontAndBack
    {
        type            empty;
    }
}


// ************************************************************************* //
