/*--------------------------------*- C++ -*----------------------------------*\
| =========                 |                                                 |
| \\      /  F ield         | OpenFOAM: The Open Source CFD Toolbox           |
|  \\    /   O peration     | Version:  2406                                  |
|   \\  /    A nd           | Website:  www.openfoam.com                      |
|    \\/     M anipulation  |                                                 |
\*---------------------------------------------------------------------------*/
FoamFile
{
    version     2.0;
    format      ascii;
    arch        "LSB;label=32;scalar=64";
    class       surfaceScalarField;
    location    "2000";
    object      phi;
}
// * * * * * * * * * * * * * * * * * * * * * * * * * * * * * * * * * * * * * //

dimensions      [0 3 -1 0 0 0 0];

oriented        oriented;

internalField   nonuniform List<scalar> 
3796
(
0.00994916
-0.000199048
0.0102129
-0.000263452
0.0104635
-0.000250302
0.0106885
-0.000224683
0.0108862
-0.000197467
0.0110571
-0.000170611
0.0112035
-0.000146204
0.0113291
-0.000125315
0.0114373
-0.000107903
0.011531
-9.34939e-05
0.0116129
-8.16397e-05
0.0116851
-7.19155e-05
0.0117493
-6.39954e-05
0.0118072
-5.75702e-05
0.0118598
-5.24431e-05
0.0119085
-4.84248e-05
0.0119542
-4.54356e-05
0.0119978
-4.33893e-05
0.0120403
-4.2314e-05
0.0120827
-4.22259e-05
0.0121262
-4.3273e-05
0.012172
-4.55993e-05
0.0122216
-4.95181e-05
0.0122772
-5.53638e-05
0.0123411
-6.37087e-05
0.0124165
-7.52018e-05
0.0125075
-9.08497e-05
0.0126195
-0.000111843
0.0127597
-0.000139937
0.0129372
-0.00017727
0.0131644
-0.000226891
0.0134574
-0.000292591
0.0138374
-0.000379627
0.0143326
-0.00049456
0.0149795
-0.000646211
0.0158258
-0.000845379
0.0169327
-0.00110584
0.0183776
-0.00144352
0.0202558
-0.00187677
0.0226815
-0.00242383
0.0257844
-0.00310082
0.0297015
-0.0039147
0.0345626
-0.00485847
0.0404542
-0.00588904
0.0473935
-0.00693671
0.0552448
-0.0078489
-0.00845278
0.0636996
0.0276465
-9.54381e-05
0.0275794
-0.000195996
0.0275545
-0.000225178
0.0275595
-0.000229355
0.0275873
-0.000224961
0.0276311
-0.000214135
0.0276845
-0.000199348
0.0277431
-0.000183624
0.0278041
-0.000168598
0.0278657
-0.000154798
0.0279267
-0.000142357
0.0279864
-0.000131361
0.0280445
-0.000121811
0.0281009
-0.00011369
0.0281557
-0.000106945
0.0282091
-0.000101576
0.0282615
-9.75899e-05
0.0283134
-9.50814e-05
0.0283655
-9.41698e-05
0.0284186
-9.51006e-05
0.0284737
-9.81778e-05
0.0285322
-0.000103889
0.0285958
-0.000112842
0.0286665
-0.000125925
0.0287472
-0.000144253
0.0288416
-0.000169394
0.0289543
-0.000203334
0.0290915
-0.0002488
0.0292611
-0.000309274
0.0294736
-0.000389464
0.0297425
-0.000495405
0.0300854
-0.000635145
0.0305253
-0.000818961
0.0310917
-0.00106032
0.0318225
-0.00137616
0.032766
-0.00178801
0.0339835
-0.00232198
0.0355506
-0.00300942
0.037561
-0.00388534
0.040126
-0.00498706
0.0433753
-0.00634779
0.0474526
-0.00798973
0.0525059
-0.00990912
0.0586603
-0.0120409
0.0660016
-0.0142756
0.0744192
-0.0162642
-0.0176628
0.0836317
0.0437069
-5.22825e-05
0.0436448
-0.000133622
0.0435925
-0.00017274
0.0435515
-0.000188104
0.0435203
-0.000193629
0.0434991
-0.000192717
0.0434868
-0.000186823
0.0434816
-0.000178209
0.0434819
-0.000168728
0.0434866
-0.000159297
0.0434948
-0.000150344
0.0435057
-0.000142141
0.043519
-0.000134897
0.0435343
-0.000128743
0.0435513
-0.00012379
0.04357
-0.000120141
0.0435906
-0.000117946
0.0436131
-0.0001174
0.0436378
-0.000118789
0.0436654
-0.000122491
0.0436964
-0.000129041
0.0437318
-0.000139142
0.0437728
-0.000153756
0.0438212
-0.000174141
0.043879
-0.000201988
0.0439493
-0.000239506
0.0440358
-0.000289635
0.0441433
-0.000356208
0.0442785
-0.000444296
0.0444498
-0.000560502
0.0446681
-0.0007135
0.0449479
-0.000914542
0.0453075
-0.00117827
0.0457712
-0.0015235
0.04637
-0.00197435
0.0471439
-0.00256118
0.0481446
-0.00332182
0.0494385
-0.00430214
0.0511103
-0.00555595
0.0532683
-0.00714346
0.0560464
-0.00912427
0.059611
-0.0115522
0.0641482
-0.0144443
0.0698712
-0.0177617
0.0770067
-0.0214085
0.085515
-0.0247699
-0.0276155
0.0954692
0.0577312
-3.3439e-05
0.0576904
-9.26378e-05
0.0576478
-0.000130034
0.0576095
-0.000149672
0.0575756
-0.000159597
0.0575465
-0.00016347
0.0575224
-0.000162586
0.0575028
-0.000158451
0.0574869
-0.000152652
0.057474
-0.000146254
0.0574637
-0.000139847
0.0574555
-0.000133813
0.0574492
-0.000128451
0.0574446
-0.000123995
0.0574415
-0.000120637
0.0574401
-0.000118565
0.0574403
-0.000118
0.0574422
-0.000119221
0.0574462
-0.000122597
0.0574524
-0.000128617
0.0574614
-0.000137937
0.0574738
-0.00015143
0.0574904
-0.000170256
0.0575123
-0.000195949
0.057541
-0.000230537
0.0575783
-0.000276688
0.0576267
-0.000337917
0.0576894
-0.000418832
0.0577707
-0.000525483
0.0578762
-0.000665785
0.058013
-0.000850089
0.0581906
-0.00109188
0.0584213
-0.00140871
0.0587215
-0.0018233
0.0591126
-0.00236494
0.0596232
-0.0030712
0.060292
-0.00398978
0.0611714
-0.00518068
0.0623343
-0.00671774
0.0638827
-0.00869061
0.0659588
-0.0111988
0.0687627
-0.0143544
0.0725484
-0.0182281
0.077662
-0.0228728
0.084491
-0.0282352
0.0931746
-0.0334514
-0.0399459
0.105509
0.0697395
-2.29177e-05
0.0697128
-6.5873e-05
0.0696804
-9.74548e-05
0.0696479
-0.000117118
0.0696169
-0.000128475
0.0695879
-0.000134394
0.0695616
-0.000136175
0.0695382
-0.00013488
0.0695173
-0.000131692
0.0694988
-0.000127586
0.0694822
-0.000123186
0.0694675
-0.000118917
0.0694542
-0.0001151
0.0694423
-0.000112017
0.0694317
-0.000109902
0.0694223
-0.000108994
0.0694139
-0.000109548
0.0694067
-0.000111893
0.0694006
-0.000116435
0.0693958
-0.000123716
0.0693924
-0.000134443
0.0693906
-0.000149561
0.0693907
-0.000170305
0.0693931
-0.000198321
0.0693985
-0.000235758
0.0694073
-0.000285467
0.0694206
-0.000351166
0.0694397
-0.000437767
0.069466
-0.000551678
0.0695017
-0.000701331
0.0695495
-0.000897723
0.0696131
-0.00115528
0.0696975
-0.00149281
0.0698094
-0.00193491
0.0699585
-0.0025136
0.0701585
-0.00327068
0.0704299
-0.00426052
0.0708041
-0.00555406
0.0713307
-0.00724331
0.0720897
-0.00944855
0.0732154
-0.012323
0.0749288
-0.0160663
0.0776013
-0.0208985
0.0817939
-0.0270634
0.0882905
-0.0347283
0.0976815
-0.0428361
-0.056653
0.114389
0.0797432
-1.60826e-05
0.0797246
-4.72457e-05
0.0796993
-7.20184e-05
0.0796714
-8.91554e-05
0.079643
-9.99884e-05
0.079615
-0.000106337
0.0795882
-0.000109313
0.0795631
-0.000109699
0.0795399
-0.000108326
0.0795183
-0.000105962
0.0794984
-0.00010318
0.0794799
-0.000100379
0.0794628
-9.78765e-05
0.0794468
-9.59413e-05
0.0794318
-9.48225e-05
0.0794177
-9.47599e-05
0.0794042
-9.60234e-05
0.0793913
-9.89319e-05
0.0793788
-0.000103895
0.0793666
-0.000111435
0.0793545
-0.000122245
0.0793422
-0.000137226
0.0793295
-0.000157577
0.0793161
-0.000184863
0.0793016
-0.000221156
0.0792853
-0.00026917
0.0792667
-0.000332478
0.0792448
-0.00041576
0.0792183
-0.000525173
0.0791859
-0.000668775
0.0791455
-0.000857162
0.0790946
-0.00110422
0.0790302
-0.00142821
0.0789488
-0.00185315
0.0788463
-0.00241072
0.0787189
-0.00314285
0.0785644
-0.00410538
0.0783842
-0.00537307
0.0781892
-0.0070475
0.0780094
-0.0092676
0.0779179
-0.0122304
0.0780656
-0.0162123
0.0788194
-0.0216504
0.0808632
-0.0291037
0.085868
-0.0397272
0.0958674
-0.0528351
-0.0756387
0.11486
0.087745
-1.10727e-05
0.0877309
-3.30947e-05
0.0877102
-5.12676e-05
0.0876858
-6.47014e-05
0.0876597
-7.37743e-05
0.0876329
-7.94857e-05
0.0876062
-8.26348e-05
0.0875804
-8.3795e-05
0.0875557
-8.35301e-05
0.0875322
-8.23963e-05
0.0875099
-8.08484e-05
0.0874888
-7.92251e-05
0.0874688
-7.77944e-05
0.0874497
-7.679e-05
0.0874313
-7.64292e-05
0.0874136
-7.69281e-05
0.0873961
-7.85241e-05
0.0873787
-8.14998e-05
0.0873611
-8.62095e-05
0.0873428
-9.31085e-05
0.0873234
-0.00010279
0.0873022
-0.000116032
0.0872785
-0.000133857
0.0872513
-0.000157608
0.0872192
-0.000189052
0.0871806
-0.000230509
0.0871332
-0.000285028
0.0870741
-0.000356609
0.0869995
-0.000450511
0.0869044
-0.000573638
0.0867825
-0.000735076
0.0866252
-0.000946787
0.0864217
-0.00122457
0.0861582
-0.00158934
0.0858167
-0.00206895
0.085375
-0.00270071
0.0848053
-0.0035351
0.0840739
-0.004641
0.0831415
-0.00611432
0.0819644
-0.00808954
0.0804997
-0.0107646
0.0787101
-0.0144213
0.0766081
-0.0195463
0.0742958
-0.0267884
0.0726107
-0.038041
0.074917
-0.0551352
-0.0927205
0.0920022
0.093746
-7.02856e-06
0.0937343
-2.1434e-05
0.0937166
-3.34671e-05
0.0936946
-4.27254e-05
0.0936702
-4.92799e-05
0.0936443
-5.36234e-05
0.093618
-5.62497e-05
0.0935918
-5.75397e-05
0.0935661
-5.78489e-05
0.0935413
-5.75344e-05
0.0935174
-5.6907e-05
0.0934944
-5.62101e-05
0.0934723
-5.56382e-05
0.0934509
-5.53624e-05
0.0934301
-5.5544e-05
0.0934095
-5.63459e-05
0.093389
-5.79456e-05
0.093368
-6.05548e-05
0.0933463
-6.44356e-05
0.0933231
-6.99248e-05
0.0932978
-7.74582e-05
0.0932694
-8.76066e-05
0.0932366
-0.000101118
0.093198
-0.000118973
0.0931514
-0.000142462
0.0930942
-0.000173277
0.0930228
-0.000213639
0.0929327
-0.000266469
0.0928179
-0.000335601
0.0926704
-0.00042608
0.0924799
-0.000544552
0.092233
-0.000699794
0.0919121
-0.000903434
0.0914939
-0.00117095
0.0909484
-0.00152309
0.0902359
-0.00198785
0.0893048
-0.00260346
0.088087
-0.00342268
0.0864931
-0.00451965
0.0844037
-0.00599938
0.0816557
-0.0080156
0.078022
-0.0107866
0.0731322
-0.0146551
0.0663809
-0.0200353
0.0560887
-0.0277458
0.0391681
-0.0382157
-0.053551
0.0977465
-3.47946e-06
0.0977362
-1.11188e-05
0.0977201
-1.73684e-05
0.0976996
-2.2282e-05
0.0976763
-2.59006e-05
0.0976511
-2.84317e-05
0.097625
-3.01095e-05
0.0975986
-3.11254e-05
0.0975724
-3.16542e-05
0.0975468
-3.18712e-05
0.0975218
-3.1935e-05
0.0974976
-3.19743e-05
0.0974741
-3.20936e-05
0.0974511
-3.23855e-05
0.0974285
-3.29386e-05
0.097406
-3.38423e-05
0.0973833
-3.51954e-05
0.0973598
-3.71131e-05
0.0973351
-3.97389e-05
0.0973084
-4.32544e-05
0.0972789
-4.78947e-05
0.0972452
-5.3965e-05
0.0972059
-6.18649e-05
0.0971591
-7.21163e-05
0.097102
-8.54041e-05
0.0970313
-0.000102625
0.0969426
-0.000124956
0.0968301
-0.000153941
0.0966861
-0.000191609
0.0965007
-0.000240627
0.0962607
-0.000304514
0.0959489
-0.000387919
0.0955427
-0.000497019
0.0950119
-0.000640052
0.0943172
-0.000828096
0.0934059
-0.00107617
0.0922077
-0.00140484
0.0906282
-0.00184267
0.0885389
-0.00242977
0.0857632
-0.00322307
0.0820531
-0.00430469
0.0770585
-0.00579117
0.0702579
-0.00785316
0.0609367
-0.0107131
0.0478659
-0.0146753
0.029568
-0.0199143
-0.0239841
0.0997467
-1.55336e-07
0.0997369
-1.3804e-06
0.0997216
-2.02541e-06
0.0997019
-2.54589e-06
0.099679
-3.0463e-06
0.0996541
-3.55302e-06
0.0996281
-4.07454e-06
0.0996016
-4.61581e-06
0.0995751
-5.1812e-06
0.099549
-5.77573e-06
0.0995235
-6.40454e-06
0.0994986
-7.07341e-06
0.0994742
-7.78805e-06
0.0994504
-8.55492e-06
0.0994268
-9.38034e-06
0.0994032
-1.02716e-05
0.0993793
-1.1236e-05
0.0993544
-1.22819e-05
0.0993281
-1.34174e-05
0.0992994
-1.46522e-05
0.0992675
-1.59958e-05
0.0992309
-1.74591e-05
0.0991881
-1.90531e-05
0.0991367
-2.07906e-05
0.099074
-2.26842e-05
0.098996
-2.47486e-05
0.098898
-2.69983e-05
0.0987735
-2.94509e-05
0.098614
-3.21234e-05
0.0984084
-3.50369e-05
0.0981422
-3.82121e-05
0.097796
-4.16758e-05
0.0973445
-4.54562e-05
0.0967542
-4.95898e-05
0.0959804
-5.41177e-05
0.0949637
-5.90961e-05
0.0936237
-6.45906e-05
0.0918522
-7.06898e-05
0.0895004
-7.74947e-05
0.0863629
-8.51286e-05
0.0821525
-9.37281e-05
0.0764655
-0.000103435
0.0687272
-0.000114414
0.0581417
-0.00012642
0.043607
-0.000138605
0.0238439
-0.000154724
-0.000137881
0.0997467
3.17707e-06
0.0997369
8.38335e-06
0.0997215
1.33557e-05
0.0997017
1.72385e-05
0.0996787
1.98654e-05
0.0996538
2.13924e-05
0.0996277
2.20371e-05
0.099601
2.19812e-05
0.0995744
2.13902e-05
0.0995482
2.043e-05
0.0995225
1.92486e-05
0.0994975
1.79636e-05
0.099473
1.66677e-05
0.099449
1.54415e-05
0.0994252
1.43601e-05
0.0994014
1.34994e-05
0.0993771
1.29427e-05
0.099352
1.27902e-05
0.0993254
1.31674e-05
0.0992964
1.42386e-05
0.0992642
1.62185e-05
0.0992272
1.93923e-05
0.099184
2.41359e-05
0.0991322
3.09482e-05
0.0990689
4.04869e-05
0.0989905
5.36221e-05
0.0988919
7.14991e-05
0.0987668
9.56303e-05
0.0986066
0.000128007
0.0984003
0.00017126
0.0981332
0.000228862
0.0977862
0.000305415
0.0973337
0.000407034
0.0967424
0.000541893
0.0959674
0.000720981
0.0949493
0.000959211
0.093608
0.00127703
0.0918348
0.0017028
0.0894812
0.00227644
0.0863417
0.00305462
0.0821292
0.00411912
0.0764398
0.00558614
0.0686999
0.00762601
0.0581132
0.0104603
0.0435778
0.0143941
0.023826
0.0196024
0.0236868
0.0977464
6.72516e-06
0.097736
1.87823e-05
0.0977197
2.9573e-05
0.0976991
3.7827e-05
0.0976755
4.34168e-05
0.0976501
4.67847e-05
0.0976237
4.84081e-05
0.097597
4.86579e-05
0.0975704
4.78811e-05
0.0975444
4.64249e-05
0.097519
4.45902e-05
0.0974943
4.26092e-05
0.0974703
4.06654e-05
0.0974467
3.89177e-05
0.0974235
3.7515e-05
0.0974003
3.66061e-05
0.0973769
3.6355e-05
0.0973526
3.69568e-05
0.0973271
3.86584e-05
0.0972994
4.17778e-05
0.0972688
4.67331e-05
0.0972341
5.40736e-05
0.0971936
6.45262e-05
0.0971454
7.90483e-05
0.0970869
9.89047e-05
0.0970146
0.00012576
0.0969242
0.000161808
0.0968099
0.000209934
0.0966639
0.000273941
0.0964762
0.000358835
0.0962338
0.000471221
0.0959194
0.000619827
0.0955103
0.00081623
0.0949764
0.00107584
0.0942781
0.00141932
0.0933629
0.00187457
0.0921604
0.0024797
0.0905761
0.00328728
0.0884814
0.00437126
0.0856998
0.00583633
0.0819832
0.00783588
0.0769818
0.0105876
0.0701742
0.0144334
0.0608471
0.0197864
0.0477802
0.0274634
0.0294917
0.0378872
0.0531777
0.0937459
1.07845e-05
0.0937341
3.05771e-05
0.093716
4.75678e-05
0.0936937
6.00448e-05
0.0936689
6.81992e-05
0.0936427
7.29833e-05
0.0936158
7.51805e-05
0.0935891
7.53546e-05
0.0935628
7.40604e-05
0.0935373
7.1845e-05
0.0935127
6.91532e-05
0.0934889
6.63137e-05
0.0934659
6.35836e-05
0.0934436
6.11855e-05
0.0934217
5.93242e-05
0.0934
5.82035e-05
0.0933782
5.80465e-05
0.093356
5.91219e-05
0.0933327
6.17678e-05
0.093308
6.64235e-05
0.093281
7.3664e-05
0.0932507
8.42484e-05
0.0932159
9.91778e-05
0.093175
0.000119774
0.093126
0.00014778
0.0930662
0.000185491
0.092992
0.000235925
0.0928987
0.000303057
0.0927805
0.000392109
0.0926293
0.000509954
0.0924348
0.000665635
0.0921835
0.000871073
0.0918577
0.00114201
0.0914343
0.00149932
0.0908829
0.00197077
0.0901639
0.00259358
0.0892256
0.0034181
0.0879999
0.0045131
0.0863969
0.00597422
0.0842975
0.0079357
0.0815383
0.010595
0.0778922
0.0142333
0.0729888
0.0193359
0.0662252
0.0265496
0.0559262
0.0377585
0.0390309
0.0547802
0.0922057
0.087745
1.58014e-05
0.0877305
4.49191e-05
0.0877094
6.85922e-05
0.0876846
8.48381e-05
0.0876579
9.48185e-05
0.0876305
0.00010031
0.0876032
0.000102407
0.0875766
0.000101885
0.087551
9.9563e-05
0.0875265
9.62037e-05
0.0875032
9.23681e-05
0.087481
8.8448e-05
0.0874597
8.47485e-05
0.0874393
8.15312e-05
0.0874195
7.90307e-05
0.0874001
7.74781e-05
0.0873809
7.71274e-05
0.0873616
7.82879e-05
0.0873419
8.13506e-05
0.0873213
8.68278e-05
0.0872995
9.53899e-05
0.0872757
0.000107928
0.0872491
0.000125612
0.0872187
0.000149998
0.0871832
0.000183127
0.0871408
0.000227696
0.0870894
0.000287245
0.0870259
0.000366437
0.0869465
0.000471385
0.0868462
0.00061013
0.0867185
0.000793217
0.086555
0.00103451
0.0863448
0.00135221
0.0860738
0.00177029
0.0857242
0.00232037
0.0852734
0.00304432
0.0846937
0.00399784
0.0839511
0.00525562
0.0830063
0.00691896
0.0818151
0.00912665
0.0803344
0.0120751
0.0785265
0.0160405
0.0764026
0.0214585
0.0740624
0.0288872
0.0723359
0.039482
0.074553
0.0525583
0.075361
0.0913924
0.0797431
2.26584e-05
0.0797241
6.37851e-05
0.0796983
9.4377e-05
0.0796698
0.000113237
0.0796407
0.000123832
0.0796119
0.000128986
0.0795842
0.000129988
0.0795581
0.000127886
0.0795337
0.000123858
0.0795109
0.000118867
0.0794896
0.000113535
0.0794697
0.000108271
0.0794509
0.000103396
0.0794332
9.9175e-05
0.0794162
9.58375e-05
0.0794
9.36061e-05
0.0793842
9.27328e-05
0.0793688
9.35256e-05
0.0793536
9.63853e-05
0.0793385
0.000101835
0.0793231
0.000110574
0.0793074
0.000123522
0.0792909
0.000141908
0.0792734
0.000167349
0.0792543
0.000201987
0.0792332
0.000248636
0.0792093
0.000311008
0.0791816
0.000393973
0.0791489
0.00050393
0.0791096
0.000649259
0.0790618
0.000840952
0.0790028
0.00109337
0.0789296
0.00142532
0.0788385
0.00186131
0.0787255
0.00243337
0.0785866
0.00318318
0.0784192
0.0041651
0.0782248
0.00544989
0.078014
0.00712953
0.0778163
0.00932396
0.0777044
0.0121863
0.0778283
0.0159156
0.078553
0.0207321
0.0805586
0.0268792
0.0855075
0.0345297
0.0954276
0.0426335
0.0564766
0.114308
0.0697394
3.31955e-05
0.0697122
9.08417e-05
0.0696791
0.000127381
0.0696459
0.000146331
0.069614
0.000155608
0.069584
0.000158838
0.0695566
0.0001573
0.0695319
0.000152489
0.0695096
0.000145985
0.0694895
0.000138846
0.0694712
0.000131657
0.0694546
0.000124791
0.0694393
0.000118541
0.0694252
0.000113132
0.0694121
0.000108748
0.0694
0.000105567
0.0693887
0.000103804
0.0693784
0.000103723
0.0693689
0.000105688
0.0693604
0.000110172
0.0693529
0.000117823
0.0693467
0.000129495
0.0693421
0.000146341
0.0693394
0.000169873
0.0693391
0.000202107
0.0693418
0.000245688
0.0693485
0.000304116
0.0693603
0.000381968
0.0693788
0.000485281
0.0694059
0.000621931
0.0694445
0.000802251
0.0694981
0.00103968
0.0695715
0.00135176
0.0696716
0.00176115
0.0698078
0.00229713
0.0699936
0.0029972
0.0702495
0.00390905
0.0706066
0.00509257
0.0711142
0.0066216
0.071852
0.00858561
0.0729534
0.0110841
0.0746389
0.0142289
0.0772782
0.0180913
0.0814305
0.0227246
0.0878782
0.0280786
0.0972156
0.0332931
0.0398041
0.113885
0.0577311
5.20649e-05
0.0576896
0.00013216
0.0576463
0.000170586
0.057607
0.000185407
0.0575721
0.000190435
0.0575417
0.000189034
0.0575162
0.000182642
0.057495
0.000173516
0.0574774
0.000163498
0.0574625
0.000153504
0.0574501
0.000143954
0.0574396
0.000135118
0.0574307
0.000127194
0.0574234
0.000120315
0.0574174
0.000114574
0.0574126
0.00011008
0.0574093
0.000106964
0.0574074
0.000105424
0.0574071
0.000105726
0.0574088
0.000108255
0.0574129
0.000113517
0.0574199
0.000122225
0.0574307
0.000135309
0.0574463
0.000154038
0.0574681
0.000180062
0.0574979
0.000215605
0.0575383
0.000263554
0.0575923
0.000327762
0.0576641
0.000413234
0.0577592
0.000526595
0.0578849
0.000676439
0.0580504
0.000874049
0.058268
0.00113396
0.058554
0.00147505
0.0589297
0.00192129
0.0594236
0.00250314
0.0600741
0.00325828
0.0609336
0.00423272
0.0620746
0.00548004
0.0635989
0.00706071
0.0656478
0.00903405
0.0684211
0.0114543
0.072172
0.0143386
0.0772456
0.0176488
0.084031
0.0212907
0.0926713
0.0246499
0.0274983
0.104975
0.0437068
9.52368e-05
0.0436438
0.000194903
0.0435906
0.000223597
0.0435484
0.00022742
0.0435159
0.000222721
0.0434931
0.000211594
0.0434791
0.000196504
0.0434719
0.000180458
0.0434701
0.0001651
0.0434725
0.00015094
0.0434781
0.000138125
0.0434862
0.000126722
0.0434965
0.000116743
0.0435084
0.000108152
0.0435218
0.000100907
0.0435366
9.49871e-05
0.0435529
9.04136e-05
0.0435708
8.72548e-05
0.0435906
8.56476e-05
0.0436127
8.58072e-05
0.0436379
8.80575e-05
0.043667
9.2851e-05
0.0437012
0.000100817
0.0437421
0.000112803
0.0437919
0.00012995
0.0438534
0.000153772
0.0439303
0.000186288
0.0440276
0.000230156
0.0441517
0.000288896
0.0443109
0.000367128
0.0445162
0.000470932
0.0447817
0.000608242
0.0451261
0.000789398
0.0455732
0.00102772
0.046154
0.00134025
0.0469085
0.00174833
0.0478882
0.00227824
0.0491592
0.00296114
0.0508062
0.00383229
0.052937
0.00492883
0.0556855
0.00628434
0.0592173
0.00792086
0.0637188
0.00983528
0.0694028
0.0119625
0.0764969
0.0141939
0.0849637
0.0161806
0.0175801
0.0948815
0.0276463
0.000198852
0.0275782
0.000262785
0.0275521
0.000249406
0.0275556
0.000223668
0.0275817
0.000196354
0.0276236
0.000169403
0.027675
0.000144885
0.0277313
0.000123878
0.0277898
0.000106328
0.0278487
9.17785e-05
0.0279068
7.9764e-05
0.0279634
6.98778e-05
0.0280181
6.17717e-05
0.0280708
5.51571e-05
0.0281215
4.98117e-05
0.0281706
4.55692e-05
0.0282184
4.23218e-05
0.0282653
4.00084e-05
0.028312
3.86258e-05
0.0283592
3.82179e-05
0.028408
3.88978e-05
0.0284596
4.08402e-05
0.0285157
4.4318e-05
0.0285785
4.9701e-05
0.0286505
5.75125e-05
0.0287355
6.8442e-05
0.0288379
8.3435e-05
0.028964
0.00010373
0.0291216
0.000131001
0.0293209
0.000167443
0.0295755
0.000216002
0.029903
0.000280534
0.0303259
0.000366166
0.0308738
0.000479538
0.0315844
0.000629316
0.0325058
0.000826411
0.0336991
0.00108444
0.0352399
0.00141948
0.0372215
0.00184974
0.0397552
0.0023937
0.0429706
0.00306739
0.0470113
0.00387808
0.0520256
0.00481885
0.0581387
0.00584678
0.0654373
0.0068925
0.0738133
0.00780417
0.00840749
0.0829837
0.00994878
0.0102115
0.0104608
0.0106843
0.0108806
0.0110499
0.0111946
0.0113184
0.0114246
0.0115163
0.0115959
0.0116657
0.0117273
0.0117824
0.011832
0.0118775
0.0119197
0.0119595
0.011998
0.0120361
0.0120748
0.0121155
0.0121596
0.0122092
0.0122665
0.0123348
0.0124181
0.0125217
0.0126525
0.0128198
0.0130357
0.0133161
0.0136821
0.0141616
0.0147907
0.0156169
0.016701
0.01812
0.0199692
0.0223622
0.0254286
0.0293057
0.0341233
0.0399687
0.0468607
0.054664
0.0630719
0.072221
-0.0085193
0.0800701
-0.0078474
0.0867182
-0.00664577
0.0920281
-0.00530773
0.0960602
-0.00402916
-0.00286183
0.0989251
0.0930305
-0.0179165
0.101782
-0.016597
0.109422
-0.0142834
0.115867
-0.0117504
0.121141
-0.00930009
-0.00703714
0.12532
0.106037
-0.0284818
0.115907
-0.026466
0.12455
-0.0229246
0.131721
-0.0189178
0.137313
-0.0148887
-0.0112074
0.141486
0.119425
-0.0423977
0.131256
-0.0382934
0.140096
-0.0317621
0.145814
-0.0246322
0.148937
-0.0180085
-0.0126553
0.150389
0.129999
-0.0580031
0.137059
-0.0453489
0.136983
-0.0316811
0.133014
-0.020659
0.127679
-0.0126663
-0.00758525
0.122617
0.115086
-0.0582234
0.100198
-0.0304498
0.0805826
-0.0120566
0.0647726
-0.00483579
0.052572
-0.000452304
0.00098138
0.0440279
0.0337862
0.00334461
-0.0087021
-0.0135294
-0.0139688
-0.0129642
0.0332814
0.0581043
0.00299466
0.0302764
-0.00915694
0.0121383
-0.0141028
0.00493264
-0.0144444
0.000322643
-0.00150559
-0.0129678
0.114507
0.0579016
0.0995139
0.045266
0.0800204
0.0316266
0.0644346
0.0205109
0.0523921
0.0123563
0.00717302
0.0436991
0.129492
0.0422918
0.136546
0.0382094
0.136517
0.0316535
0.132596
0.0244289
0.127283
0.0176656
0.0122006
0.122251
0.118889
0.0283762
0.13073
0.0263668
0.139576
0.0228066
0.145265
0.0187373
0.148321
0.0146077
0.0108204
0.149698
0.105422
0.0178339
0.115276
0.0165128
0.123897
0.0141832
0.13102
0.0116141
0.136522
0.0091034
0.00676981
0.140571
0.0923443
0.0084743
0.101057
0.00779835
0.108653
0.0065874
0.115035
0.00523006
0.120215
0.00392268
0.0027174
0.124266
0.0715456
0.079344
0.0859308
0.0911605
0.0950824
0.097799
0.100767
-0.00183809
0.101736
-0.000966474
0.101916
-0.000176328
0.101327
0.000591391
0.100012
0.00131728
0.0980261
0.00198754
0.0954057
0.00262162
0.0921557
0.0032509
0.0882552
0.0039011
0.0836707
0.00458478
0.0783724
0.00529816
0.0723527
0.00601932
0.0656429
0.00670894
0.0583283
0.00731344
0.0505568
0.00777013
0.0425407
0.00801467
0.0345481
0.0079912
0.0268815
0.0076652
0.0198439
0.0070363
0.0136958
0.00614686
0.00861339
0.00508109
0.00466101
0.00395095
0.00178994
0.00286934
-0.00012693
0.00191485
-0.00127877
0.00114943
-0.00187286
0.000591321
-0.00207209
0.000196035
-0.00199955
-7.61433e-05
-0.00173596
-0.000267587
-0.00134607
-0.000394257
-0.00084263
-0.000508055
-0.000166564
-0.000680849
0.000760036
-0.000931379
0.00199913
-0.00124371
0.00357935
-0.00158456
0.00550391
-0.00192854
0.00775499
-0.00225464
0.0102987
-0.00254685
0.0130917
-0.00279562
0.0160863
-0.00299677
0.0192361
-0.00315154
0.022498
-0.00326318
0.0258414
-0.00334446
0.0292277
-0.00338696
0.0326862
-0.00345891
0.0360571
-0.00337107
-0.00379634
0.128555
-0.00506977
0.131013
-0.00342186
0.132875
-0.00203488
0.134311
-0.000842486
0.135409
0.000221437
0.136184
0.00121448
0.136618
0.00218942
0.136668
0.00320146
0.136269
0.00430148
0.135328
0.00552602
0.133737
0.00688897
0.131379
0.00837698
0.128139
0.00994767
0.12392
0.0115307
0.118659
0.0130299
0.112344
0.0143289
0.105032
0.0153017
0.0968652
0.0158307
0.0880691
0.0158313
0.078941
0.0152739
0.0698236
0.0141975
0.0610689
0.0127045
0.0529993
0.0109377
0.045863
0.00904968
0.0398339
0.0071767
0.0350075
0.00541546
0.0313826
0.00381816
0.0288996
0.00240362
0.0274646
0.00116379
0.0270151
5.12903e-05
0.027465
-0.000961923
0.0286695
-0.00188938
0.0304851
-0.00275075
0.032795
-0.00355718
0.0355103
-0.00430303
0.0385557
-0.00497694
0.0418653
-0.00556674
0.0453791
-0.00606293
0.0490427
-0.006461
0.0528071
-0.00676277
0.0566301
-0.00697576
0.0604799
-0.00711395
0.0643279
-0.00719317
0.0681815
-0.00724107
0.0719949
-0.00727258
0.075964
-0.00734031
-0.00753163
0.144581
-0.00816159
0.146884
-0.00572212
0.148564
-0.00371153
0.149752
-0.00202811
0.150579
-0.000602427
0.151154
0.000641355
0.151547
0.00179925
0.15178
0.00297002
0.151848
0.00423465
0.151724
0.00564998
0.151369
0.00724405
0.15073
0.00901432
0.149746
0.0109308
0.148335
0.0129396
0.146399
0.0149631
0.143828
0.0168978
0.140513
0.0186147
0.136374
0.0199682
0.131387
0.0208166
0.12561
0.0210488
0.119196
0.0206103
0.112383
0.0195161
0.105471
0.0178488
0.0987789
0.0157405
0.092607
0.0133472
0.0871995
0.0108215
0.0827247
0.0082914
0.0792748
0.00585177
0.0768751
0.00356169
0.0754737
0.00145068
0.0749877
-0.000477891
0.0753292
-0.00223279
0.0763826
-0.00380606
0.0780174
-0.00519373
0.0801075
-0.00639468
0.0825381
-0.007409
0.085209
-0.00823897
0.0880356
-0.00889059
0.0909482
-0.00937461
0.0938917
-0.00970705
0.0968236
-0.00990832
0.0997141
-0.0100049
0.102542
-0.0100214
0.105307
-0.0100062
0.107983
-0.00994913
0.110676
-0.0100331
-0.00992565
0.151039
-0.00880792
0.151329
-0.00600761
0.151467
-0.00384436
0.151589
-0.00214466
0.15176
-0.000767927
0.151993
0.000413147
0.152284
0.00151229
0.152619
0.00263735
0.152971
0.00388466
0.153296
0.00532445
0.15355
0.00698816
0.153696
0.00886609
0.153702
0.0109225
0.153535
0.0131033
0.153155
0.0153396
0.152508
0.0175419
0.151524
0.019595
0.150131
0.0213591
0.148261
0.0226842
0.145875
0.0234323
0.14298
0.0235028
0.139643
0.0228517
0.135989
0.0215014
0.132191
0.0195366
0.128448
0.0170885
0.124956
0.0143121
0.121884
0.0113622
0.119358
0.00837672
0.11745
0.00546797
0.11618
0.00271956
0.115515
0.000185659
0.115383
-0.00210225
0.115705
-0.00412834
0.116389
-0.0058796
0.117347
-0.00735381
0.118494
-0.00855688
0.119755
-0.0095008
0.121067
-0.0102032
0.122379
-0.0106871
0.123652
-0.0109803
0.124858
-0.011114
0.125976
-0.0111235
0.126996
-0.011042
0.127908
-0.0109186
0.128711
-0.0107524
0.129395
-0.0107162
-0.0104086
0.118782
-0.00496191
0.115985
-0.00319752
0.114149
-0.001995
0.113153
-0.001134
0.112877
-0.000479059
0.113225
7.65909e-05
0.114124
0.000620875
0.115517
0.00124834
0.117336
0.00206677
0.119498
0.00315961
0.121916
0.00456658
0.124509
0.00626841
0.127199
0.0082264
0.129904
0.0103937
0.132525
0.0127145
0.134953
0.0151095
0.137084
0.0174602
0.138831
0.0196086
0.140136
0.0213762
0.140972
0.0225931
0.141345
0.0231272
0.141289
0.0229054
0.140865
0.0219238
0.140154
0.0202457
0.139253
0.0179882
0.138262
0.0153012
0.137279
0.0123448
0.136382
0.0092731
0.135625
0.00622384
0.135036
0.00330826
0.134612
0.000609123
0.134324
-0.00181554
0.134133
-0.00393741
0.133993
-0.00574028
0.13386
-0.00722111
0.133691
-0.00838856
0.133451
-0.00926104
0.133113
-0.00986527
0.13266
-0.0102345
0.132086
-0.0104066
0.131394
-0.0104218
0.13059
-0.0103201
0.12969
-0.0101416
0.128691
-0.00991914
0.127627
-0.00968883
0.126389
-0.00947772
-0.00921878
0.0409202
-0.00181998
0.0399293
-0.00215838
0.0406367
-0.00265831
0.0422345
-0.00269342
0.0444138
-0.00262557
0.0470943
-0.00257941
0.0502638
-0.00253278
0.0538552
-0.00233642
0.0577751
-0.00185404
0.0619524
-0.00102426
0.0663885
0.000120791
0.0711052
0.00154112
0.0761089
0.00321259
0.081372
0.0051218
0.086813
0.0072656
0.0922958
0.00961992
0.0976553
0.0120947
0.102733
0.0145257
0.107404
0.0167008
0.111588
0.0184043
0.115254
0.0194574
0.118406
0.01975
0.121072
0.0192551
0.12329
0.0180263
0.125096
0.0161801
0.126528
0.0138679
0.127625
0.0112479
0.128419
0.0084783
0.128935
0.00570723
0.12919
0.00305315
0.129196
0.000603417
0.128953
-0.00157309
0.128453
-0.00343697
0.127685
-0.00497265
0.126648
-0.00618349
0.125348
-0.00708846
0.123806
-0.00771931
0.122057
-0.0081162
0.120146
-0.00832329
0.118124
-0.00838495
0.116046
-0.00834376
0.113962
-0.00823607
0.11192
-0.00809933
0.109941
-0.00793982
0.108084
-0.00783202
0.106205
-0.00759859
-0.00773865
-0.000643916
-0.0140584
0.00664981
-0.00934795
0.0106755
-0.00658794
0.0135822
-0.00551926
0.0159836
-0.00496281
0.0181873
-0.0047392
0.0203557
-0.00467601
0.0225462
-0.00451888
0.024761
-0.00407445
0.0269969
-0.00327609
0.0292639
-0.00216853
0.0316504
-0.000871383
0.0343727
0.000462968
0.0376618
0.00180486
0.0416216
0.00328125
0.0462104
0.00501136
0.0513012
0.00698926
0.0567203
0.00909485
0.0622821
0.0111298
0.0678167
0.0128619
0.0731862
0.0140816
0.078286
0.0146448
0.0830383
0.0144987
0.087381
0.0136805
0.0912572
0.0123018
0.0946054
0.0105181
0.0973932
0.00845908
0.0996078
0.00626307
0.101237
0.00407743
0.102296
0.00199384
0.102782
0.000117997
0.102693
-0.00148339
0.102066
-0.0028105
0.100976
-0.00388156
0.0995158
-0.00472324
0.0977968
-0.00536905
0.0959342
-0.00585632
0.0940402
-0.00622189
0.0922163
-0.00649921
0.0905485
-0.00671694
0.089104
-0.00689909
0.0879313
-0.00706336
0.0870603
-0.00722831
0.086506
-0.00738547
0.0862718
-0.00759776
0.0863121
-0.00763896
-0.00822598
-0.00196178
-0.0120379
-0.000861953
-0.010344
-0.000229315
-0.0071233
-0.000650331
-0.00501627
-0.0017056
-0.00384958
-0.00300857
-0.00340057
-0.00427222
-0.00339601
-0.00523751
-0.00355224
-0.00571479
-0.00360753
-0.00561202
-0.00339844
-0.00493128
-0.00287655
-0.00375461
-0.00208182
-0.00223036
-0.00110105
-0.000465693
-1.55206e-06
0.00159911
0.00117912
0.0041385
0.00244376
0.00725933
0.00384667
0.0109964
0.00534062
0.0153201
0.00679182
0.0201342
0.00803607
0.0252946
0.0089113
0.0306429
0.00928857
0.0360112
0.00912361
0.0412173
0.00846858
0.0461251
0.00738808
0.0505969
0.00604171
0.0545153
0.00453766
0.0578036
0.00297289
0.0604274
0.00145257
0.0623726
4.83116e-05
0.0637293
-0.00123851
0.0647062
-0.00245983
0.06549
-0.00359364
0.0662295
-0.00462028
0.0670395
-0.00553246
0.0680036
-0.00633242