/*--------------------------------*- C++ -*----------------------------------*\
| =========                 |                                                 |
| \\      /  F ield         | OpenFOAM: The Open Source CFD Toolbox           |
|  \\    /   O peration     | Version:  2406                                  |
|   \\  /    A nd           | Website:  www.openfoam.com                      |
|    \\/     M anipulation  |                                                 |
\*---------------------------------------------------------------------------*/
FoamFile
{
    version     2.0;
    format      ascii;
    arch        "LSB;label=32;scalar=64";
    class       volScalarField;
    location    "128";
    object      p;
}
// * * * * * * * * * * * * * * * * * * * * * * * * * * * * * * * * * * * * * //

dimensions      [0 2 -2 0 0 0 0];

internalField   nonuniform List<scalar> 
1916
(
3.79001
3.79092
3.79143
3.79149
3.79135
3.79111
3.79079
3.7904
3.78995
3.78948
3.78897
3.78844
3.7879
3.78734
3.78676
3.78618
3.78559
3.785
3.7844
3.7838
3.78319
3.78259
3.78198
3.78138
3.78078
3.7802
3.77963
3.77907
3.77855
3.77805
3.77761
3.77722
3.77691
3.77669
3.7766
3.77667
3.77692
3.77739
3.77811
3.7791
3.78038
3.78191
3.78365
3.78549
3.78731
3.7889
3.7898
3.79111
3.79132
3.7915
3.79149
3.79133
3.79108
3.79075
3.79036
3.78992
3.78945
3.78894
3.78842
3.78788
3.78732
3.78675
3.78617
3.78558
3.78499
3.78439
3.78379
3.78318
3.78257
3.78197
3.78137
3.78077
3.78018
3.7796
3.77905
3.77851
3.77801
3.77756
3.77716
3.77683
3.77661
3.77651
3.77657
3.77682
3.77731
3.77807
3.77915
3.78055
3.78226
3.7842
3.78625
3.78827
3.79011
3.79124
3.79196
3.79162
3.79147
3.79142
3.79127
3.79101
3.79068
3.7903
3.78987
3.7894
3.78891
3.78839
3.78785
3.78729
3.78673
3.78615
3.78556
3.78497
3.78437
3.78376
3.78315
3.78254
3.78193
3.78132
3.7807
3.7801
3.7795
3.77891
3.77834
3.77779
3.77726
3.77678
3.77635
3.776
3.77573
3.7756
3.77563
3.77589
3.77642
3.77731
3.7786
3.78036
3.78258
3.78518
3.78797
3.79074
3.79246
3.7926
3.79199
3.7916
3.79144
3.79126
3.79097
3.79062
3.79023
3.7898
3.78934
3.78885
3.78833
3.7878
3.78725
3.78668
3.78611
3.78552
3.78492
3.78432
3.78371
3.78309
3.78247
3.78184
3.7812
3.78056
3.77992
3.77927
3.77861
3.77794
3.77727
3.77659
3.77591
3.77522
3.77452
3.77384
3.77317
3.77255
3.77201
3.77163
3.7715
3.77176
3.7726
3.77422
3.77683
3.78035
3.78441
3.78642
3.79311
3.79238
3.79181
3.79152
3.79128
3.79095
3.79057
3.79016
3.78973
3.78927
3.78878
3.78827
3.78774
3.78719
3.78663
3.78605
3.78546
3.78486
3.78425
3.78363
3.783
3.78236
3.7817
3.78103
3.78034
3.77963
3.7789
3.77813
3.77732
3.77646
3.77553
3.77451
3.77339
3.77213
3.77071
3.76909
3.76725
3.76515
3.76281
3.76027
3.75763
3.75514
3.75315
3.75227
3.75259
3.75428
3.75124
3.79352
3.79272
3.79203
3.79163
3.79132
3.79096
3.79055
3.79012
3.78967
3.78921
3.78872
3.78821
3.78767
3.78713
3.78656
3.78599
3.78539
3.78479
3.78417
3.78354
3.78289
3.78222
3.78153
3.78081
3.78006
3.77927
3.77843
3.77752
3.77652
3.77541
3.77415
3.7727
3.77099
3.76896
3.76652
3.76355
3.7599
3.75541
3.74987
3.74309
3.73482
3.72492
3.71313
3.69963
3.68249
3.6609
3.61022
3.79383
3.793
3.79222
3.79174
3.79138
3.79097
3.79053
3.79008
3.78963
3.78915
3.78866
3.78815
3.78761
3.78707
3.7865
3.78592
3.78532
3.78471
3.78408
3.78343
3.78276
3.78207
3.78134
3.78058
3.77976
3.77888
3.77792
3.77686
3.77565
3.77426
3.77263
3.77068
3.76832
3.7654
3.76176
3.75715
3.75128
3.74372
3.73391
3.72111
3.70422
3.68182
3.65117
3.60997
3.54531
3.46584
3.17344
3.79406
3.7932
3.79238
3.79184
3.79143
3.791
3.79053
3.79006
3.78959
3.78911
3.78861
3.7881
3.78756
3.78701
3.78644
3.78586
3.78526
3.78464
3.784
3.78334
3.78265
3.78193
3.78116
3.78035
3.77947
3.77851
3.77744
3.77623
3.77482
3.77317
3.77119
3.76876
3.76576
3.76197
3.75713
3.75088
3.7427
3.73187
3.71736
3.69764
3.67029
3.63163
3.57369
3.48487
3.31243
2.98573
1.84818
3.79421
3.79334
3.79248
3.79191
3.79147
3.79101
3.79053
3.79005
3.78957
3.78908
3.78858
3.78806
3.78752
3.78697
3.7864
3.78581
3.78521
3.78458
3.78393
3.78326
3.78256
3.78181
3.78102
3.78017
3.77925
3.77822
3.77706
3.77573
3.77417
3.77231
3.77005
3.76725
3.76373
3.75924
3.75344
3.74583
3.73572
3.72211
3.70351
3.67764
3.64079
3.58691
3.50417
3.37242
3.1399
2.73523
2.01281
3.79428
3.7934
3.79253
3.79195
3.79149
3.79102
3.79053
3.79004
3.78955
3.78906
3.78855
3.78803
3.7875
3.78694
3.78637
3.78578
3.78517
3.78455
3.78389
3.78321
3.7825
3.78174
3.78094
3.78007
3.77911
3.77805
3.77684
3.77544
3.7738
3.77182
3.76941
3.7664
3.76259
3.75771
3.75136
3.74297
3.73176
3.71655
3.69557
3.66609
3.62374
3.56141
3.46706
3.32103
3.0925
2.73393
2.22584
3.79427
3.79339
3.79252
3.79194
3.79148
3.79101
3.79052
3.79003
3.78954
3.78905
3.78855
3.78802
3.78749
3.78693
3.78636
3.78577
3.78516
3.78453
3.78388
3.7832
3.78248
3.78172
3.78092
3.78004
3.77909
3.77802
3.77681
3.77541
3.77377
3.77179
3.76936
3.76635
3.76254
3.75765
3.75128
3.74289
3.73166
3.71641
3.69539
3.66583
3.62337
3.56082
3.4661
3.31934
3.08957
2.72867
2.2178
3.79419
3.79332
3.79246
3.79189
3.79145
3.79099
3.79051
3.79002
3.78954
3.78906
3.78855
3.78803
3.78749
3.78694
3.78637
3.78578
3.78517
3.78454
3.78389
3.78321
3.78251
3.78176
3.78096
3.78011
3.77918
3.77814
3.77698
3.77564
3.77407
3.7722
3.76993
3.76711
3.76358
3.75907
3.75323
3.74558
3.73542
3.72173
3.70301
3.67695
3.63979
3.58537
3.50163
3.36792
3.13119
2.71723
1.97752
3.79402
3.79317
3.79234
3.79181
3.7914
3.79096
3.79049
3.79002
3.78955
3.78907
3.78857
3.78805
3.78751
3.78696
3.78639
3.7858
3.7852
3.78458
3.78393
3.78326
3.78257
3.78184
3.78107
3.78025
3.77936
3.77839
3.77731
3.77608
3.77466
3.77299
3.77099
3.76855
3.76551
3.76169
3.75681
3.7505
3.74224
3.7313
3.71663
3.69667
3.66895
3.62967
3.57062
3.47982
3.30244
2.9646
1.779
3.79378
3.79295
3.79217
3.7917
3.79133
3.79093
3.79049
3.79003
3.78958
3.7891
3.7886
3.78809
3.78755
3.787
3.78643
3.78584
3.78524
3.78463
3.78399
3.78333
3.78266
3.78195
3.78122
3.78044
3.77961
3.77872
3.77775
3.77666
3.77544
3.77403
3.77237
3.7704
3.768
3.76504
3.76135
3.75668
3.75072
3.74305
3.73308
3.72005
3.70284
3.67994
3.64851
3.60614
3.53927
3.4572
3.15305
3.79346
3.79267
3.79197
3.79157
3.79126
3.7909
3.79049
3.79006
3.78961
3.78914
3.78865
3.78813
3.7876
3.78705
3.78648
3.78589
3.7853
3.78468
3.78406
3.78342
3.78276
3.78208
3.78138
3.78065
3.77989
3.77908
3.77822
3.77729
3.77627
3.77514
3.77385
3.77236
3.77062
3.76855
3.76606
3.76302
3.75929
3.7547
3.74904
3.74208
3.73358
3.72337
3.71117
3.69713
3.67919
3.65657
3.60351
3.79305
3.79232
3.79175
3.79146
3.79121
3.79088
3.7905
3.79009
3.78966
3.7892
3.7887
3.78819
3.78765
3.7871
3.78653
3.78595
3.78535
3.78474
3.78413
3.78349
3.78285
3.7822
3.78153
3.78085
3.78014
3.77942
3.77866
3.77787
3.77704
3.77615
3.77519
3.77414
3.77298
3.77168
3.77021
3.76854
3.76663
3.76446
3.76203
3.75937
3.7566
3.75396
3.7518
3.75076
3.75092
3.75248
3.74919
3.79253
3.79193
3.79154
3.79137
3.79119
3.7909
3.79055
3.79015
3.78972
3.78926
3.78876
3.78824
3.78771
3.78715
3.78658
3.786
3.7854
3.7848
3.78418
3.78356
3.78293
3.7823
3.78165
3.781
3.78035
3.77968
3.77901
3.77833
3.77764
3.77695
3.77624
3.77552
3.77479
3.77406
3.77333
3.77262
3.77195
3.77136
3.77092
3.77072
3.77092
3.77171
3.77329
3.77589
3.77943
3.78353
3.78556
3.79189
3.79154
3.7914
3.79134
3.79119
3.79094
3.7906
3.79022
3.78979
3.78932
3.78882
3.78829
3.78775
3.78719
3.78662
3.78603
3.78544
3.78483
3.78422
3.78361
3.78299
3.78236
3.78174
3.78111
3.78048
3.77986
3.77924
3.77863
3.77803
3.77745
3.7769
3.77639
3.77593
3.77553
3.77523
3.77506
3.77506
3.77527
3.77577
3.77662
3.7779
3.77965
3.78187
3.78449
3.78732
3.79014
3.79188
3.79104
3.79125
3.79143
3.79142
3.79126
3.791
3.79067
3.79028
3.78984
3.78936
3.78886
3.78833
3.78778
3.78722
3.78664
3.78605
3.78546
3.78486
3.78425
3.78363
3.78302
3.7824
3.78178
3.78116
3.78054
3.77994
3.77934
3.77876
3.7782
3.77768
3.77719
3.77676
3.77641
3.77615
3.77602
3.77604
3.77626
3.77672
3.77746
3.77852
3.7799
3.78161
3.78356
3.78563
3.78767
3.78954
3.79068
3.78994
3.79085
3.79135
3.79141
3.79127
3.79104
3.79071
3.79032
3.78987
3.78939
3.78888
3.78835
3.7878
3.78723
3.78666
3.78607
3.78547
3.78487
3.78426
3.78364
3.78303
3.78241
3.78179
3.78117
3.78056
3.77995
3.77936
3.77879
3.77824
3.77772
3.77724
3.77683
3.77648
3.77624
3.77612
3.77615
3.77637
3.77681
3.77751
3.77848
3.77974
3.78127
3.78301
3.78487
3.7867
3.78831
3.78922
-0.699519
-0.616945
-0.0847415
0.0463269
-0.0193779
-0.0516468
0.820499
0.328141
0.283012
0.206134
0.0707631
-0.0105828
1.42223
0.668476
0.310841
0.177084
0.069206
-0.0207498
1.40619
0.642654
0.278355
0.137425
0.0171727
-0.0879801
0.747879
0.234675
0.186364
0.100921
-0.0624639
-0.185052
-0.903974
-0.844755
-0.275503
-0.136232
-0.239289
-0.32115
-0.00609366
-0.00622832
-0.00633604
-0.00638369
-0.00638284
-0.00633371
-0.0062351
-0.00608982
-0.00590365
-0.0056832
-0.0054337
-0.00515752
-0.00485367
-0.00451846
-0.00414714
-0.00373608
-0.00328467
-0.00279639
-0.00227868
-0.00174145
-0.00119503
-0.000649546
-0.000115255
0.000397906
0.000881068
0.00132649
0.00172789
0.00208134
0.00238493
0.00263844
0.00284304
0.00300122
0.00311654
0.00319289
0.00323381
0.00324199
0.00321938
0.00316774
0.00308815
0.00297798
0.00283042
0.00263779
0.0023923
0.00207671
0.00167768
0.00120974
0.000545503
-0.00588755
-0.0060368
-0.00615258
-0.00621514
-0.00623772
-0.00621305
-0.00613586
-0.0060071
-0.00583227
-0.00561884
-0.005374
-0.00510253
-0.00480546
-0.00447995
-0.00412102
-0.00372385
-0.0032864
-0.00281095
-0.00230413
-0.00177589
-0.00123639
-0.000694784
-0.000161811
0.000350619
0.00083446
0.00128255
0.00168703
0.00204433
0.0023523
0.00261052
0.00282
0.0029835
0.00310419
0.00318417
0.00322589
0.00323368
0.00321081
0.00315844
0.00307624
0.00296126
0.00280627
0.00260876
0.0023653
0.00205331
0.00163881
0.00116189
0.000517137
-0.00591658
-0.00606972
-0.00618707
-0.00625813
-0.00629317
-0.00627592
-0.00619796
-0.0060602
-0.00587016
-0.00563976
-0.00538126
-0.00510411
-0.00481168
-0.00450088
-0.00416345
-0.0037896
-0.00337184
-0.00290862
-0.00240534
-0.00187389
-0.00132764
-0.000777691
-0.000235375
0.000287329
0.000783158
0.00124586
0.00166599
0.00203627
0.002356
0.00262498
0.00284325
0.00301324
0.00313659
0.00321314
0.00325121
0.00325721
0.00322996
0.00316358
0.00306063
0.00293002
0.00276971
0.00255952
0.00229149
0.00199566
0.00161339
0.000995319
0.000486209
-0.00664378
-0.00671872
-0.00676608
-0.00678889
-0.00677873
-0.00670899
-0.00656995
-0.00636437
-0.00610479
-0.00581066
-0.00550317
-0.00519933
-0.00490644
-0.00461861
-0.00431817
-0.00398211
-0.00359069
-0.00313507
-0.00262027
-0.0020637
-0.00148896
-0.000912635
-0.000342753
0.000211556
0.000739495
0.00123538
0.00168872
0.00208606
0.00242831
0.00271866
0.00295504
0.00313169
0.00325027
0.0033159
0.00334193
0.00333807
0.00329439
0.00319263
0.00304127
0.00288672
0.00274072
0.0025177
0.00216868
0.0018611
0.00164156
0.0010563
0.00039632
-0.00877746
-0.00840077
-0.00809323
-0.00790499
-0.00773908
-0.00752778
-0.00725051
-0.00690928
-0.00652053
-0.00611151
-0.00571637
-0.00536403
-0.00506762
-0.00481763
-0.00457974
-0.0043048
-0.00395169
-0.00350078
-0.002958
-0.00235301
-0.00172823
-0.00111066
-0.000499823
0.000104804
0.000690123
0.0012436
0.00175259
0.00220066
0.00258531
0.00290915
0.00317052
0.00335931
0.00347283
0.00352175
0.00352498
0.00349295
0.00341088
0.00324304
0.00300299
0.00279088
0.00264076
0.00238213
0.00192033
0.00158548
0.00152912
0.000995449
0.000196786
-0.0141051
-0.0113215
-0.00976622
-0.0091361
-0.00874522
-0.0083568
-0.00792442
-0.00744029
-0.00691591
-0.00638534
-0.0058975
-0.00549849
-0.00521143
-0.00503028
-0.0048964
-0.00472105
-0.00442835
-0.0039783
-0.00338243
-0.00269983
-0.00200285
-0.00133006
-0.000670937
-7.12705e-06
0.000652498
0.00128712
0.00187752
0.00240405
0.00285365
0.003226
0.00351689
0.00371856
0.00382781
0.00385289
0.00381517
0.0037288
0.00358023
0.00332552
0.00297685
0.00265955
0.00242189
0.0020675
0.00151238
0.00118419
0.00121575
0.000715563
-8.84729e-05
-0.0239648
-0.0123717
-0.00871851
-0.0084379
-0.00815026
-0.00777228
-0.00743352
-0.00705056
-0.00659894
-0.00612928
-0.00570838
-0.00539211
-0.00521024
-0.00514056
-0.00512349
-0.00505873
-0.00482989
-0.00436975
-0.00370432
-0.00293466
-0.00217598
-0.00147827
-0.000802941
-9.62707e-05
0.000643346
0.00137897
0.00207023
0.00268764
0.00321553
0.00365085
0.00398033
0.00419548
0.00430228
0.00430148
0.00420381
0.00403205
0.0037826
0.00342311
0.00295958
0.00248747
0.0020577
0.0015391
0.000912985
0.000570856
0.000582822
0.00012256
-0.000430558
-0.0277864
-0.0124872
-0.0113674
-0.0124666
-0.0119347
-0.0110082
-0.0103391
-0.0097278
-0.00903736
-0.00831237
-0.00763035
-0.00705184
-0.00661762
-0.00632658
-0.00609847
-0.00580315
-0.00532179
-0.00461025
-0.00373624
-0.00284404
-0.00205956
-0.00140348
-0.000794774
-0.000117064
0.00067656
0.001526
0.00232866
0.00302965
0.00363054
0.00412968
0.00450481
0.00473513
0.00483459
0.00480803
0.00464136
0.00436814
0.00399434
0.00350721
0.00291187
0.00225895
0.00159403
0.000894003
0.000208157
-0.000205761
-0.000339832
-0.000686577
-0.000763986
-0.0201143
-0.0109532
-0.00925118
-0.0101104
-0.00929952
-0.00783276
-0.00678911
-0.0060625
-0.00537423
-0.00469858
-0.00411984
-0.00370755
-0.00349925
-0.00349831
-0.00364818
-0.00383293
-0.00391481
-0.00378749
-0.00342451
-0.00290236
-0.00233558
-0.00175727
-0.00107919
-0.000219624
0.000774909
0.0017576
0.00261895
0.00334516
0.00397826
0.00453523
0.0049687
0.00521861
0.00529394
0.0052329
0.00500929
0.00464427
0.00415221
0.00353566
0.00280464
0.00198755
0.00112292
0.000254594
-0.000533164
-0.00109066
-0.00139693
-0.00156013
-0.00103655
-0.0612126
-0.0689414
-0.070645
-0.0724735
-0.0713293
-0.066818
-0.0607932
-0.0543956
-0.0478606
-0.0413241
-0.0350333
-0.0291974
-0.0239264
-0.0192701
-0.0152395
-0.0118108
-0.00892744
-0.00651106
-0.00450231
-0.00289137
-0.00166713
-0.000763632
-6.0941e-05
0.000580363
0.00125069
0.00195632
0.00266498
0.00337702
0.00408681
0.00472032
0.005186
0.00544429
0.00550795
0.00541456
0.00516769
0.00476086
0.00420823
0.00350765
0.00267691
0.00174174
0.000741129
-0.000267944
-0.00119744
-0.00192878
-0.00233398
-0.00223255
-0.00117716
-0.140483
-0.152831
-0.15548
-0.158482
-0.158299
-0.153664
-0.146605
-0.138486
-0.129459
-0.11958
-0.109127
-0.0983407
-0.0873193
-0.0761423
-0.0649928
-0.054175
-0.0440383
-0.0348592
-0.0267755
-0.0197892
-0.0138204
-0.00879372
-0.00467534
-0.00143436
0.000985107
0.00266653
0.00373673
0.00438278
0.00479672
0.0050938
0.00530514
0.00542998
0.00546227
0.00538668
0.00515699
0.00474723
0.00417279
0.00344484
0.00257896
0.00159928
0.000541944
-0.00053683
-0.00155193
-0.00236993
-0.00276836
-0.0024636
-0.00115418
-0.229829
-0.231909
-0.233224
-0.237169
-0.236454
-0.23129
-0.224681
-0.217581
-0.209689
-0.200919
-0.191416
-0.181113
-0.169673
-0.156768
-0.142391
-0.126988
-0.11134
-0.0961936
-0.0819295
-0.0684689
-0.0554665
-0.0426627
-0.0301895
-0.0186252
-0.00875319
-0.00119914
0.00384649
0.00668454
0.00791405
0.00815471
0.00787374
0.00736581
0.00678816
0.00620445
0.00561542
0.00499227
0.00431119
0.00354142
0.00266521
0.00169038
0.000642391
-0.000428904
-0.00143347
-0.00222681
-0.00259292
-0.0022648
-0.00103727
-0.332329
-0.310019
-0.307007
-0.311872
-0.311593
-0.307168
-0.301743
-0.295855
-0.289296
-0.282291
-0.275077
-0.267327
-0.258152
-0.246581
-0.232141
-0.215333
-0.19748
-0.179979
-0.16343
-0.147243
-0.129871
-0.10972
-0.0863421
-0.060967
-0.0360448
-0.0142258
0.00261189
0.0138199
0.0198617
0.0218788
0.0212281
0.0191402
0.0165322
0.0139582
0.0116545
0.00965494
0.00791112
0.00633791
0.00486214
0.00345427
0.00210702
0.000834383
-0.00030711
-0.00119555
-0.0016705
-0.00155697
-0.000707179
-0.342138
-0.319454
-0.31214
-0.313052
-0.313508
-0.312914
-0.311967
-0.310671
-0.309143
-0.30797
-0.307572
-0.307489
-0.306246
-0.301938
-0.293311
-0.280825
-0.266647
-0.253276
-0.241924
-0.231451
-0.218111
-0.197229
-0.166075
-0.125567
-0.0799045
-0.0348151
0.00448026
0.0345658
0.0541926
0.0640034
0.0659204
0.0624092
0.0558275
0.0480203
0.0401929
0.0330066
0.0267295
0.0213861
0.0168744
0.0130561
0.00979177
0.00697904
0.00457323
0.00263182
0.00117554
0.000492257
-0.000313275
-0.318879
-0.314885
-0.312702
-0.312232
-0.312326
-0.312183
-0.311558
-0.310679
-0.310106
-0.310658
-0.312961
-0.316752
-0.320477
-0.321461
-0.317496
-0.308929
-0.299101
-0.292093
-0.290374
-0.292676
-0.292299
-0.279731
-0.24806
-0.196202
-0.129196
-0.0558562
0.0145058
0.0743736
0.119067
0.146993
0.159298
0.158955
0.149682
0.13504
0.117973
0.100594
0.0842136
0.0694767
0.0565816
0.0454551
0.0359055
0.0277156
0.0206926
0.0147552
0.00967876
0.00594313
0.000844511
-0.309793
-0.309485
-0.309539
-0.310025
-0.310708
-0.311122
-0.310931
-0.310251
-0.309731
-0.310427
-0.313042
-0.317371
-0.322045
-0.324229
-0.321061
-0.31267
-0.303328
-0.298954
-0.304508
-0.320061
-0.336036
-0.337004
-0.310799
-0.253187
-0.16898
-0.0690702
0.033985
0.128742
0.206345
0.261617
0.293424
0.303958
0.297378
0.27857
0.252282
0.222491
0.192098
0.162959
0.1361
0.111951
0.0905502
0.0717197
0.0551721
0.0406388
0.0276948
0.0165227
0.00434512
-0.306157
-0.306386
-0.306799
-0.307412
-0.308182
-0.308887
-0.309266
-0.309238
-0.309141
-0.309786
-0.312049
-0.31609
-0.320612
-0.322586
-0.318991
-0.310261
-0.300877
-0.296869
-0.305779
-0.329747
-0.357872
-0.370489
-0.349921
-0.288457
-0.191113
-0.0701739
0.0603121
0.186533
0.296236
0.380722
0.436096
0.462916
0.464626
0.446434
0.414343
0.374
0.329927
0.285417
0.242641
0.202847
0.16657
0.13386
0.104468
0.077947
0.0538523
0.0313319
0.0107013
-0.305196
-0.30548
-0.305856
-0.306327
-0.306916
-0.307562
-0.308154
-0.30859
-0.3089
-0.309366
-0.310483
-0.312662
-0.315608
-0.317668
-0.316307
-0.3103
-0.30199
-0.297944
-0.307367
-0.333705
-0.365145
-0.382682
-0.365304
-0.300628
-0.19437
-0.0598646
0.0888051
0.236978
0.370099
0.476892
0.551454
0.593109
0.604255
0.589498
0.555349
0.508456
0.454499
0.397926
0.341946
0.288602
0.238981
0.193447
0.151901
0.113798
0.0787979
0.0449448
0.0167559
-0.305372
-0.305639
-0.305992
-0.306407
-0.306905
-0.30748
-0.308117
-0.308787
-0.30946
-0.310128
-0.310843
-0.311722
-0.312871
-0.314131
-0.3148
-0.313677
-0.310006
-0.305837
-0.308356
-0.325977
-0.354883
-0.372931
-0.354064
-0.285396
-0.174403
-0.0344309
0.121014
0.278399
0.422158
0.54009
0.625205
0.675208
0.691538
0.678881
0.644094
0.594029
0.534775
0.471376
0.407634
0.346069
0.288122
0.234387
0.184905
0.139147
0.0968099
0.0555454
0.0205527
-0.305754
-0.306006
-0.306376
-0.306813
-0.307314
-0.307877
-0.308512
-0.309249
-0.310115
-0.311116
-0.312208
-0.313294
-0.31423
-0.314892
-0.315212
-0.315101
-0.31439
-0.313201
-0.312645
-0.314634
-0.319114
-0.319437
-0.300577
-0.24496
-0.144388
-0.00718332
0.148921
0.306837
0.449804
0.565099
0.65112
0.705004
0.722386
0.709278
0.673491
0.621858
0.560466
0.494551
0.428103
0.363782
0.303114
0.246758
0.194766
0.146694
0.102061
0.059606
0.0201969
)
;

boundaryField
{
    inlet
    {
        type            zeroGradient;
    }
    outlet
    {
        type            fixedValue;
        value           uniform 0;
    }
    upperWall
    {
        type            zeroGradient;
    }
    lowerWall
    {
        type            zeroGradient;
    }
    frontAndBack
    {
        type            empty;
    }
}


// ************************************************************************* //
