/*--------------------------------*- C++ -*----------------------------------*\
| =========                 |                                                 |
| \\      /  F ield         | OpenFOAM: The Open Source CFD Toolbox           |
|  \\    /   O peration     | Version:  2406                                  |
|   \\  /    A nd           | Website:  www.openfoam.com                      |
|    \\/     M anipulation  |                                                 |
\*---------------------------------------------------------------------------*/
FoamFile
{
    version     2.0;
    format      ascii;
    arch        "LSB;label=32;scalar=64";
    class       surfaceScalarField;
    location    "128";
    object      phi;
}
// * * * * * * * * * * * * * * * * * * * * * * * * * * * * * * * * * * * * * //

dimensions      [0 3 -1 0 0 0 0];

oriented        oriented;

internalField   nonuniform List<scalar> 
3698
(
0.0100117
-0.000261709
0.0103308
-0.000319101
0.0106024
-0.000271591
0.0108216
-0.000219162
0.010997
-0.000175367
0.0111366
-0.000139664
0.0112481
-0.000111469
0.011338
-8.98618e-05
0.0114114
-7.34672e-05
0.0114724
-6.0937e-05
0.0115236
-5.12088e-05
0.0115671
-4.35152e-05
0.0116044
-3.73065e-05
0.0116366
-3.21795e-05
0.0116645
-2.78304e-05
0.0116885
-2.40252e-05
0.0117091
-2.05759e-05
0.0117264
-1.73208e-05
0.0117405
-1.41078e-05
0.0117513
-1.07807e-05
0.0117585
-7.16284e-06
0.0117616
-3.03316e-06
0.0117597
1.8766e-06
0.0117519
7.83931e-06
0.0117367
1.51832e-05
0.0117123
2.43759e-05
0.0116763
3.60335e-05
0.0116254
5.09388e-05
0.0115553
7.00781e-05
0.0114607
9.46827e-05
0.0113344
0.000126267
0.0111678
0.000166653
0.0109499
0.000217962
0.0106674
0.000282543
0.0103046
0.000362792
0.00984383
0.000460793
0.00926616
0.000577699
0.00855345
0.000712751
0.00769158
0.000861903
0.00667554
0.00101608
0.00551612
0.00115945
0.00424822
0.00126795
0.00293905
0.00130922
0.00169776
0.00124135
0.000685544
0.00101228
0.000121918
0.000563667
0.000121931
0.0276173
-0.000129022
0.0275559
-0.000257655
0.0275637
-0.000279408
0.0276126
-0.000268007
0.0276852
-0.000247954
0.0277685
-0.000222965
0.0278536
-0.000196572
0.0279357
-0.000172017
0.0280128
-0.000150502
0.0280838
-0.000131954
0.0281486
-0.000115989
0.0282073
-0.000102223
0.0282603
-9.02889e-05
0.028308
-7.98325e-05
0.0283507
-7.05229e-05
0.0283887
-6.20572e-05
0.0284223
-5.41516e-05
0.0284516
-4.65269e-05
0.0284764
-3.88917e-05
0.0284965
-3.0925e-05
0.0285116
-2.22554e-05
0.0285211
-1.24399e-05
0.0285239
-9.34374e-07
0.0285188
1.29473e-05
0.0285039
3.00781e-05
0.0284768
5.15786e-05
0.0284339
7.89012e-05
0.028371
0.00011392
0.028282
0.000159046
0.0281594
0.000217363
0.0279929
0.00029278
0.0277694
0.000390202
0.0274717
0.000515679
0.0270778
0.000676507
0.0265594
0.000881186
0.0258811
0.00113912
0.0249991
0.0014598
0.0238607
0.00185123
0.0224057
0.00231696
0.0205705
0.00285127
0.0182982
0.00343184
0.0155573
0.0040089
0.0123736
0.00449302
0.00887632
0.00473877
0.00533472
0.00455397
0.00216637
0.00373212
0.00228831
0.0436898
-6.88122e-05
0.0436043
-0.000172199
0.0435392
-0.000214276
0.0434957
-0.000224436
0.0434706
-0.00022291
0.043462
-0.000214304
0.0434661
-0.000200715
0.0434791
-0.000185042
0.043498
-0.000169329
0.0435204
-0.000154378
0.0435448
-0.000140408
0.0435701
-0.000127471
0.0435953
-0.000115531
0.04362
-0.000104469
0.0436436
-9.41038e-05
0.0436658
-8.42163e-05
0.0436862
-7.45595e-05
0.0437045
-6.48495e-05
0.0437204
-5.47517e-05
0.0437333
-4.38636e-05
0.0437428
-3.16899e-05
0.043748
-1.76109e-05
0.0437479
-8.41562e-07
0.0437412
1.96271e-05
0.0437262
4.51051e-05
0.0437005
7.72949e-05
0.043661
0.000118414
0.0436036
0.000171352
0.0435228
0.000239866
0.0434114
0.000328828
0.0432597
0.000444532
0.0430548
0.000595058
0.0427798
0.000790691
0.042412
0.00104438
0.0419211
0.00137215
0.0412668
0.00179338
0.040396
0.00233072
0.0392381
0.00300908
0.037702
0.00385316
0.0356714
0.00488189
0.0330049
0.00609838
0.0295436
0.00747032
0.0251338
0.00890285
0.0196865
0.0101861
0.0132652
0.0109754
0.00623563
0.0107617
0.00852396
0.0577237
-4.25207e-05
0.057667
-0.000115509
0.0576105
-0.000157727
0.057562
-0.000175978
0.0575214
-0.000182256
0.0574886
-0.000181548
0.0574635
-0.000175546
0.0574447
-0.000166228
0.0574308
-0.000155491
0.0574209
-0.000144422
0.057414
-0.000133479
0.0574094
-0.000122868
0.0574065
-0.000112674
0.0574049
-0.00010288
0.0574042
-9.33774e-05
0.057404
-8.39917e-05
0.0574039
-7.44936e-05
0.0574037
-6.45949e-05
0.0574029
-5.3935e-05
0.0574011
-4.20602e-05
0.0573978
-2.83952e-05
0.0573924
-1.2205e-05
0.0573841
7.45882e-06
0.0573719
3.18289e-05
0.0573546
6.25166e-05
0.0573302
0.000101631
0.0572967
0.000151939
0.057251
0.00021707
0.0571891
0.000301786
0.0571056
0.000412333
0.0569933
0.000556888
0.0568422
0.000746133
0.056639
0.000993984
0.0563649
0.00131848
0.0559942
0.00174289
0.0554907
0.00229688
0.0548036
0.00301789
0.0538606
0.00395208
0.0525591
0.00515465
0.0507535
0.00668759
0.0482379
0.00861403
0.0447294
0.0109788
0.0398495
0.0137828
0.0331469
0.0168887
0.024155
0.0199673
0.0126334
0.0222834
0.0211573
0.0697356
-2.81663e-05
0.0696996
-7.94917e-05
0.0696572
-0.000115262
0.0696161
-0.000134913
0.069578
-0.000144096
0.0695433
-0.000146845
0.0695125
-0.000144821
0.0694857
-0.000139383
0.0694622
-0.000131991
0.0694415
-0.0001237
0.0694231
-0.000115065
0.0694066
-0.000106361
0.0693916
-9.7728e-05
0.069378
-8.92023e-05
0.0693653
-8.07225e-05
0.0693535
-7.21458e-05
0.0693423
-6.32604e-05
0.0693315
-5.37832e-05
0.0693209
-4.33472e-05
0.0693103
-3.14799e-05
0.0692995
-1.75735e-05
0.0692881
-8.42827e-07
0.0692759
1.97331e-05
0.0692622
4.54884e-05
0.0692466
7.81722e-05
0.0692282
0.000120084
0.0692059
0.000174256
0.0691783
0.000244687
0.0691434
0.000336663
0.0690986
0.000457179
0.06904
0.000615494
0.0689622
0.000823882
0.0688576
0.00109863
0.0687148
0.00146134
0.0685169
0.00194074
0.0682389
0.00257498
0.0678421
0.00341469
0.0672673
0.00452689
0.066422
0.006
0.0651611
0.00794853
0.0632542
0.0105209
0.0603412
0.0138919
0.0558414
0.0182825
0.0488943
0.0238359
0.0380854
0.0307763
0.0218035
0.0385652
0.0429608
0.079741
-1.91646e-05
0.0797167
-5.51674e-05
0.0796843
-8.28542e-05
0.0796497
-0.000100287
0.0796152
-0.000109685
0.0795821
-0.000113671
0.0795509
-0.000113664
0.0795222
-0.00011064
0.0794958
-0.000105624
0.0794716
-9.94817e-05
0.0794493
-9.27515e-05
0.0794287
-8.57237e-05
0.0794095
-7.85543e-05
0.0793916
-7.13035e-05
0.0793748
-6.39416e-05
0.0793591
-5.63574e-05
0.0793442
-4.83672e-05
0.0793301
-3.97143e-05
0.0793168
-3.00566e-05
0.0793043
-1.89473e-05
0.0792925
-5.80537e-06
0.0792816
1.01253e-05
0.0792715
2.98323e-05
0.0792624
5.46103e-05
0.0792544
8.61626e-05
0.0792478
0.000126736
0.0792427
0.000179304
0.0792396
0.000247808
0.0792388
0.000337489
0.0792407
0.000455333
0.0792455
0.000610679
0.0792533
0.000816053
0.0792637
0.00108833
0.0792747
0.00145034
0.0792823
0.00193316
0.0792779
0.00257935
0.079245
0.00344768
0.0791521
0.00461978
0.0789414
0.00621069
0.0785081
0.00838192
0.0776585
0.0113705
0.0760524
0.0154981
0.0730307
0.0213042
0.0675614
0.0293052
0.0572956
0.0410421
0.0396233
0.0562375
0.0825842
0.0877437
-1.28155e-05
0.0877257
-3.72416e-05
0.0876999
-5.70541e-05
0.0876702
-7.05893e-05
0.0876391
-7.85358e-05
0.0876078
-8.23594e-05
0.0875772
-8.30925e-05
0.087548
-8.14364e-05
0.0875205
-7.80794e-05
0.0874947
-7.36515e-05
0.0874705
-6.85931e-05
0.0874479
-6.31601e-05
0.0874269
-5.74919e-05
0.0874072
-5.16481e-05
0.0873889
-4.56152e-05
0.0873719
-3.93107e-05
0.0873561
-3.25873e-05
0.0873416
-2.52324e-05
0.0873285
-1.69584e-05
0.087317
-7.38564e-06
0.0873072
3.98264e-06
0.0872995
1.77959e-05
0.0872945
3.49052e-05
0.0872927
5.6429e-05
0.087295
8.38423e-05
0.0873027
0.000119096
0.0873172
0.00016478
0.0873407
0.000224341
0.0873758
0.000302382
0.0874261
0.000405078
0.087496
0.000540748
0.0875914
0.000720659
0.0877196
0.000960173
0.0878895
0.0012804
0.0881121
0.0017106
0.0883997
0.00229182
0.088765
0.00308234
0.0892188
0.00416604
0.0897632
0.00566631
0.0903795
0.00776565
0.0909991
0.0107509
0.09145
0.0150471
0.0912826
0.0214717
0.0894877
0.0311001
0.0827144
0.0478155
0.0637933
0.0751586
0.146377
0.093745
-7.83981e-06
0.0937307
-2.28859e-05
0.0937091
-3.54334e-05
0.0936829
-4.43895e-05
0.0936542
-4.98763e-05
0.0936245
-5.26197e-05
0.0935946
-5.32596e-05
0.0935655
-5.22552e-05
0.0935374
-5.00311e-05
0.0935108
-4.69877e-05
0.0934856
-4.34266e-05
0.093462
-3.95334e-05
0.0934399
-3.54095e-05
0.0934194
-3.10991e-05
0.0934003
-2.65952e-05
0.0933829
-2.18414e-05
0.093367
-1.67328e-05
0.0933529
-1.11157e-05
0.0933408
-4.78065e-06
0.0933308
2.55007e-06
0.0933236
1.1241e-05
0.0933196
2.17696e-05
0.0933198
3.47622e-05
0.0933252
5.10432e-05
0.0933373
7.1701e-05
0.0933582
9.81776e-05
0.0933906
0.00013239
0.0934381
0.000176897
0.0935054
0.000235129
0.0935987
0.000311705
0.0937266
0.000412887
0.0939001
0.000547211
0.0941338
0.000726424
0.0944474
0.000966842
0.0948666
0.0012914
0.0954257
0.00173276
0.0961698
0.00233824
0.0971584
0.00317752
0.0984694
0.00435524
0.100203
0.00603226
0.102493
0.00846057
0.105493
0.0120473
0.109501
0.0174637
0.11485
0.0257514
0.123871
0.0387941
0.143655
0.0553743
0.0871345
0.202899
0.0977457
-3.58058e-06
0.0977333
-1.04716e-05
0.0977142
-1.62546e-05
0.0976902
-2.03993e-05
0.0976632
-2.28882e-05
0.0976346
-2.40106e-05
0.0976054
-2.40642e-05
0.0975764
-2.32741e-05
0.0975482
-2.18418e-05
0.0975212
-1.99579e-05
0.0974956
-1.77721e-05
0.0974714
-1.53788e-05
0.0974488
-1.28289e-05
0.0974279
-1.01431e-05
0.0974086
-7.31533e-06
0.0973911
-4.31374e-06
0.0973754
-1.08057e-06
0.0973619
2.46838e-06
0.0973506
6.4473e-06
0.0973422
1.1007e-05
0.0973371
1.63449e-05
0.0973362
2.27187e-05
0.0973405
3.0466e-05
0.0973515
4.00301e-05
0.0973712
5.19958e-05
0.0974022
6.71372e-05
0.0974482
8.64836e-05
0.0975137
0.00011141
0.097605
0.000143762
0.0977307
0.00018603
0.097902
0.000241601
0.0981341
0.000315112
0.0984476
0.000412978
0.0988703
0.000544164
0.0994403
0.000721377
0.10021
0.000962897
0.101253
0.00129545
0.102672
0.00175896
0.104613
0.00241361
0.107292
0.0033537
0.111033
0.00471933
0.116339
0.00674146
0.124116
0.00968692
0.135893
0.0139743
0.154913
0.0197742
0.184713
0.025574
0.0386642
0.233184
0.0997461
3.62923e-07
0.0997345
1.07238e-06
0.0997165
1.78452e-06
0.0996936
2.50257e-06
0.0996675
3.22994e-06
0.0996395
3.96975e-06
0.0996107
4.72538e-06
0.0995819
5.50087e-06
0.0995538
6.30078e-06
0.0995267
7.13e-06
0.099501
7.99378e-06
0.0994767
8.89777e-06
0.099454
9.84808e-06
0.099433
1.08513e-05
0.0994138
1.19145e-05
0.0993964
1.30454e-05
0.0993811
1.42523e-05
0.099368
1.5544e-05
0.0993576
1.69303e-05
0.0993502
1.84217e-05
0.0993465
2.00299e-05
0.0993474
2.17677e-05
0.0993543
2.36495e-05
0.0993686
2.56914e-05
0.0993927
2.79118e-05
0.0994295
3.03321e-05
0.099483
3.29774e-05
0.0995586
3.58783e-05
0.0996633
3.90723e-05
0.0998067
4.26066e-05
0.100002
4.65428e-05
0.100266
5.09626e-05
0.100623
5.59777e-05
0.101105
6.17452e-05
0.101758
6.84911e-05
0.102645
7.6549e-05
0.103854
8.64251e-05
0.105514
9.89071e-05
0.107812
0.000115258
0.111028
0.00013757
0.115578
0.00016937
0.122103
0.000217026
0.131499
0.000290733
0.145061
0.000412572
0.164233
0.000601782
0.188862
0.000944699
0.00141891
0.226108
0.0997461
4.29771e-06
0.0997346
1.25907e-05
0.0997166
1.97808e-05
0.0996937
2.53441e-05
0.0996677
2.92698e-05
0.0996398
3.18532e-05
0.0996111
3.33988e-05
0.0995825
3.41397e-05
0.0995545
3.42862e-05
0.0995276
3.40389e-05
0.0995021
3.35576e-05
0.099478
3.29479e-05
0.0994556
3.2273e-05
0.0994349
3.15662e-05
0.099416
3.08359e-05
0.099399
3.0065e-05
0.099384
2.92123e-05
0.0993713
2.82111e-05
0.0993613
2.69662e-05
0.0993544
2.53476e-05
0.0993512
2.31809e-05
0.0993528
2.02334e-05
0.0993603
1.61956e-05
0.0993753
1.06556e-05
0.0994002
3.06411e-06
0.0994378
-7.31133e-06
0.0994923
-2.14515e-05
0.0995688
-4.0673e-05
0.0996746
-6.675e-05
0.0998194
-0.000102085
0.100016
-0.000149948
0.100282
-0.000214827
0.100641
-0.000302929
0.101125
-0.000422937
0.101781
-0.000587152
0.102671
-0.000813264
0.103884
-0.00112711
0.105551
-0.0015673
0.107858
-0.00219188
0.111087
-0.00309183
0.115658
-0.00440153
0.122218
-0.0063426
0.131672
-0.00916388
0.145334
-0.0132487
0.164655
-0.0187193
0.18944
-0.023841
-0.0361396
0.226999
0.0977458
8.53098e-06
0.0977334
2.49282e-05
0.0977144
3.88315e-05
0.0976906
4.9154e-05
0.0976638
5.60239e-05
0.0976355
6.01727e-05
0.0976067
6.2247e-05
0.0975781
6.27136e-05
0.0975504
6.20058e-05
0.0975239
6.05334e-05
0.0974989
5.86079e-05
0.0974754
5.64257e-05
0.0974536
5.40999e-05
0.0974334
5.1687e-05
0.0974151
4.91938e-05
0.0973986
4.6578e-05
0.0973841
4.37506e-05
0.0973717
4.05746e-05
0.0973618
3.68586e-05
0.0973548
3.23446e-05
0.0973513
2.66898e-05
0.0973521
1.94403e-05
0.0973583
9.99588e-06
0.0973714
-2.43891e-06
0.0973934
-1.892e-05
0.097427
-4.08516e-05
0.0974756
-7.01076e-05
0.0975442
-0.000109196
0.0976389
-0.000161487
0.0977684
-0.000231525
0.0979439
-0.000325479
0.0981809
-0.000451769
0.0985
-0.000621987
0.0989293
-0.000852242
0.0995073
-0.00116519
0.100287
-0.00159312
0.101343
-0.00218279
0.102779
-0.00300316
0.104745
-0.00415779
0.107459
-0.00580615
0.111256
-0.00819818
0.116652
-0.0117392
0.124585
-0.017097
0.136648
-0.0253116
0.156196
-0.0382669
0.18693
-0.0545752
-0.0862249
0.237015
0.0937451
1.34636e-05
0.0937308
3.91568e-05
0.0937094
6.02405e-05
0.0936835
7.50558e-05
0.0936553
8.42963e-05
0.093626
8.94333e-05
0.0935968
9.15054e-05
0.0935683
9.12209e-05
0.093541
8.92768e-05
0.0935152
8.63114e-05
0.0934911
8.27746e-05
0.0934686
7.89326e-05
0.0934477
7.49355e-05
0.0934286
7.08544e-05
0.0934111
6.66888e-05
0.0933953
6.23693e-05
0.0933813
5.77633e-05
0.0933692
5.26734e-05
0.0933592
4.68288e-05
0.0933517
3.98679e-05
0.0933471
3.13134e-05
0.093346
2.05369e-05
0.0933493
6.71085e-06
0.0933581
-1.12585e-05
0.093374
-3.48178e-05
0.0933991
-6.58873e-05
0.093436
-0.00010702
0.0934885
-0.000161624
0.0935612
-0.000234259
0.0936608
-0.000331046
0.0937956
-0.000460244
0.0939768
-0.00063305
0.0942196
-0.000864743
0.0945437
-0.00117633
0.0949755
-0.00159698
0.09555
-0.00216759
0.0963136
-0.00294635
0.0973275
-0.00401707
0.098673
-0.00550328
0.100455
-0.00758798
0.102816
-0.0105598
0.105924
-0.0148471
0.110107
-0.02128
0.115744
-0.0309482
0.125329
-0.0478515
0.14633
-0.0755766
-0.148704
0.208809
0.0877437
1.97529e-05
0.087726
5.69066e-05
0.0877005
8.57477e-05
0.0876712
0.00010434
0.0876406
0.00011491
0.0876099
0.000120081
0.0875802
0.000121281
0.0875519
0.000119491
0.0875254
0.000115745
0.0875008
0.000110915
0.0874781
0.000105549
0.0874571
9.99456e-05
0.0874377
9.42718e-05
0.08742
8.85977e-05
0.0874038
8.29052e-05
0.0873891
7.70948e-05
0.0873758
7.09961e-05
0.0873641
6.43656e-05
0.0873541
5.68765e-05
0.0873459
4.8097e-05
0.0873397
3.74635e-05
0.0873361
2.42374e-05
0.0873353
7.45079e-06
0.0873382
-1.4171e-05
0.0873457
-4.23083e-05
0.0873591
-7.9185e-05
0.0873798
-0.000127747
0.0874101
-0.000191912
0.0874527
-0.000276892
0.0875114
-0.000389648
0.0875906
-0.000539492
0.0876965
-0.000738933
0.0878366
-0.00100483
0.0880204
-0.00136004
0.0882591
-0.00183569
0.088566
-0.00247445
0.088955
-0.00333535
0.0894384
-0.00450051
0.0900211
-0.00608596
0.0906881
-0.00825492
0.0913763
-0.011248
0.0919216
-0.0153924
0.0918834
-0.0212418
0.0902607
-0.0293255
0.0836571
-0.0412479
0.0647924
-0.0567119
-0.0839119
0.0797411
2.86787e-05
0.079717
8.10083e-05
0.0796849
0.000117785
0.0796508
0.000138446
0.0796171
0.000148643
0.0795848
0.000152415
0.0795546
0.00015143
0.0795271
0.000147052
0.0795021
0.000140748
0.0794794
0.00013358
0.0794589
0.00012611
0.0794402
0.000118621
0.0794232
0.000111261
0.0794077
0.000104078
0.0793936
9.70183e-05
0.0793808
8.99501e-05
0.0793691
8.26719e-05
0.0793586
7.49132e-05
0.0793492
6.63183e-05
0.0793408
5.64286e-05
0.0793337
4.4649e-05
0.0793277
3.02089e-05
0.0793231
1.21012e-05
0.0793199
-1.09913e-05
0.0793184
-4.08024e-05
0.0793188
-7.96148e-05
0.0793215
-0.000130445
0.0793269
-0.000197279
0.0793354
-0.000285395
0.0793476
-0.000401782
0.0793638
-0.000555711
0.0793844
-0.000759481
0.079409
-0.00102943
0.0794363
-0.00138727
0.0794625
-0.00186191
0.0794798
-0.00249176
0.0794725
-0.00332798
0.0794103
-0.00443836
0.079237
-0.00591265
0.0788496
-0.00786747
0.0780564
-0.0104548
0.0765186
-0.0138546
0.0735742
-0.0182974
0.0681856
-0.0239369
0.0579595
-0.0310218
0.0402659
-0.0390182
-0.043646
0.0697357
4.29417e-05
0.0697
0.00011676
0.069658
0.000159808
0.0696175
0.000178886
0.0695802
0.00018599
0.0695465
0.000186112
0.069517
0.000180947
0.0694916
0.000172481
0.0694697
0.000162614
0.0694509
0.000152441
0.0694345
0.000142427
0.0694204
0.000132781
0.0694081
0.000123599
0.0693973
0.00011487
0.0693878
0.000106493
0.0693795
9.83021e-05
0.0693721
9.00769e-05
0.0693654
8.15388e-05
0.0693594
7.23361e-05
0.0693539
6.20259e-05
0.0693485
5.00421e-05
0.069343
3.56603e-05
0.0693372
1.794e-05
0.0693306
-4.33967e-06
0.0693226
-3.27792e-05
0.0693124
-6.94782e-05
0.0692992
-0.000117198
0.0692815
-0.000179566
0.0692575
-0.000261352
0.0692245
-0.000368815
0.069179
-0.000510168
0.0691157
-0.000696152
0.0690271
-0.000940782
0.0689021
-0.00126226
0.0687242
-0.00168407
0.0684688
-0.0022363
0.0680978
-0.00295692
0.0675524
-0.00389296
0.0667407
-0.00510091
0.0655178
-0.0066446
0.0636529
-0.00858983
0.0607832
-0.0109849
0.0563212
-0.0138353
0.0493917
-0.0170074
0.0385435
-0.0201736
0.0221133
-0.022588
-0.0215327
0.0577238
6.91272e-05
0.0576674
0.000173144
0.0576114
0.000215848
0.0575637
0.000226626
0.057524
0.00022571
0.0574924
0.00021771
0.0574686
0.000204729
0.0574514
0.00018967
0.0574394
0.000174581
0.0574316
0.00016027
0.0574271
0.000146961
0.0574252
0.000134711
0.0574253
0.00012349
0.057427
0.000113183
0.0574299
0.000103616
0.0574336
9.45747e-05
0.0574379
8.58206e-05
0.0574423
7.70743e-05
0.0574467
6.80103e-05
0.0574505
5.82307e-05
0.0574533
4.72494e-05
0.0574545
3.44501e-05
0.0574534
1.90535e-05
0.057449
5.27132e-08
0.0574401
-2.38525e-05
0.057425
-5.43654e-05
0.0574015
-9.37008e-05
0.0573668
-0.000144758
0.0573167
-0.000211305
0.0572462
-0.000298248
0.057148
-0.000411925
0.0570123
-0.000560492
0.0568259
-0.000754348
0.0565703
-0.00100661
0.0562198
-0.00133357
0.0557385
-0.00175496
0.0550755
-0.00229394
0.0541588
-0.00297616
0.0528851
-0.00382727
0.051108
-0.00486746
0.0486195
-0.0061013
0.0451325
-0.00749792
0.0402606
-0.00896341
0.0335401
-0.0102868
0.0244852
-0.0111187
0.0128356
-0.0109382
-0.00869707
0.0436899
0.000129219
0.0436048
0.000258265
0.0435402
0.000280422
0.0434975
0.000269406
0.0434734
0.000249725
0.0434661
0.0002251
0.0434717
0.000199068
0.0434865
0.000174874
0.0435074
0.000153725
0.0435321
0.00013555
0.0435591
0.000119969
0.0435873
0.0001066
0.0436157
9.50815e-05
0.0436438
8.50617e-05
0.0436712
7.62136e-05
0.0436976
6.82377e-05
0.0437225
6.08544e-05
0.0437458
5.37884e-05
0.0437671
4.67528e-05
0.0437859
3.94308e-05
0.0438017
3.14554e-05
0.0438138
2.23845e-05
0.0438212
1.16747e-05
0.0438226
-1.35853e-06
0.0438164
-1.75923e-05
0.0438002
-3.81489e-05
0.043771
-6.44816e-05
0.0437247
-9.84737e-05
0.043656
-0.000142555
0.0435576
-0.000199837
0.04342
-0.000274279
0.0432304
-0.000370852
0.0429718
-0.000495708
0.0426215
-0.000656284
0.0421492
-0.000861281
0.0415147
-0.00112037
0.0406641
-0.0014434
0.0395268
-0.00183881
0.0380103
-0.00231067
0.0359966
-0.00285374
0.0333414
-0.0034461
0.0298814
-0.00403787
0.0254568
-0.00453874
0.0199709
-0.00480083
0.0134802
-0.00462788
0.00634974
-0.00380771
-0.00234732
0.0276174
0.000261787
0.0275563
0.000319368
0.0275647
0.00027203
0.0276144
0.000219755
0.027688
0.000176101
0.0277726
0.000140533
0.0278592
0.00011247
0.0279431
9.09948e-05
0.0280221
7.47317e-05
0.0280953
6.23347e-05
0.0281626
5.27433e-05
0.028224
4.51916e-05
0.0282799
3.91312e-05
0.0283308
3.41604e-05
0.0283771
2.99766e-05
0.028419
2.63475e-05
0.0284568
2.30865e-05
0.0284906
2.00335e-05
0.0285203
1.70382e-05
0.0285458
1.39473e-05
0.0285667
1.05896e-05
0.0285823
6.75932e-06
0.0285918
2.18234e-06
0.0285939
-3.45957e-06
0.0285869
-1.05052e-05
0.0285681
-1.93936e-05
0.0285344
-3.07339e-05
0.0284813
-4.53167e-05
0.0284029
-6.41434e-05
0.0282916
-8.84653e-05
0.0281371
-0.000119826
0.0279264
-0.000160088
0.0276421
-0.000211427
0.0272622
-0.000276264
0.026758
-0.00035709
0.0260938
-0.000456101
0.025225
-0.000574578
0.0240981
-0.000711885
0.0226515
-0.000864065
0.0208199
-0.00102203
0.0185435
-0.00116975
0.0157884
-0.00128268
0.0125774
-0.00132774
0.00903871
-0.00126202
0.00544353
-0.00103263
0.00221586
-0.000579965
-0.000131448
0.0100118
0.0103312
0.0106032
0.0108229
0.0109991
0.0111396
0.0112521
0.0113431
0.0114178
0.0114801
0.0115329
0.0115781
0.0116172
0.0116514
0.0116813
0.0117077
0.0117308
0.0117508
0.0117679
0.0117818
0.0117924
0.0117992
0.0118014
0.0117979
0.0117874
0.011768
0.0117373
0.011692
0.0116279
0.0115394
0.0114196
0.0112595
0.0110481
0.0107718
0.0104148
0.00995866
0.0093841
0.00867222
0.00780817
0.00678615
0.00561642
0.00433375
0.00300603
0.00174402
0.000711401
0.000131448
0.148642
0.0542563
0.12112
0.0275224
0.103801
0.017319
0.0920561
0.0117449
0.0839372
0.00811913
0.00607578
0.0778616
0.25375
0.0336897
0.260194
0.0210789
0.261291
0.016222
0.259006
0.0140295
0.254809
0.0123161
0.0118393
0.249046
0.25744
0.00235757
0.274725
0.00379384
0.285575
0.00537245
0.292658
0.00694637
0.296331
0.00864336
0.0106425
0.297527
0.258359
-0.0290023
0.275321
-0.0131686
0.285914
-0.00522059
0.293193
-0.000332394
0.297609
0.00422676
0.00823475
0.300017
0.258845
-0.0508325
0.26766
-0.0219831
0.273177
-0.0107381
0.276793
-0.00394819
0.279283
0.00173623
0.00646607
0.281052
0.157977
0.135994
0.125255
0.121307
0.123043
0.129509
-0.00020087
0.000201208
-0.000580104
0.000380013
-0.00100504
0.000425704
-0.00141273
0.000408428
-0.00178505
0.000373046
-0.00211606
0.000331717
-0.00240439
0.000289041
-0.00265237
0.000248658
-0.00286559
0.000213883
-0.00305192
0.000186976
-0.0032198
0.000168487
-0.00337618
0.000156946
-0.00352484
0.000149172
-0.00366541
0.000141052
-0.00379373
0.000128773
-0.00390326
0.00010994
-0.00398713
8.42519e-05
-0.00404008
5.33037e-05
-0.00405961
1.98558e-05
-0.00404611
-1.32028e-05
-0.00400187
-4.39435e-05
-0.00392994
-7.16505e-05
-0.00383385
-9.57985e-05
-0.0037179
-0.000115652
-0.00358678
-0.000130804
-0.0034456
-0.000140866
-0.00329983
-0.000145436
-0.00315454
-0.000144949
-0.00301405
-0.000140143
-0.00288185
-0.000131854
-0.00276057
-0.000120941
-0.00265174
-0.0001085
-0.00255563
-9.58036e-05
-0.00247115
-8.42006e-05
-0.00239603
-7.48111e-05
-0.00232722
-6.85368e-05
-0.00226097
-6.59631e-05
-0.00219236
-6.83537e-05
-0.00211442
-7.76361e-05
-0.00201985
-9.43528e-05
-0.00190327
-0.000116104
-0.00176032
-0.0001424
-0.00158402
-0.00017631
-0.00137284
-0.000212714
-0.00114043
-0.000234764
-0.000889763
-0.000254078
-0.000301914
-0.000672556
0.000874521
-0.00167419
0.00138335
-0.0026945
0.00144764
-0.00363257
0.00134807
-0.00446266
0.00120465
-0.00518185
0.00105238
-0.0057967
0.000905313
-0.00631975
0.000773117
-0.00676768
0.000663162
-0.00715868
0.000579271
-0.00750933
0.000520339
-0.00783145
0.000480187
-0.00812997
0.000448691
-0.00840232
0.000414323
-0.00863992
0.000367208
-0.00883141
0.000302224
-0.00896658
0.000220124
-0.0090393
0.000126702
-0.00904882
2.99856e-05
-0.00899878
-6.26352e-05
-0.00889539
-0.000146782
-0.00874571
-0.000220771
-0.00855718
-0.000283764
-0.00833778
-0.000334447
-0.00809646
-0.000371496
-0.00784275
-0.000393916
-0.00758603
-0.000401471
-0.00733495
-0.000395338
-0.0070969
-0.000377489
-0.00687771
-0.000350342
-0.00668149
-0.000316489
-0.00651037
-0.000278983
-0.00636449
-0.000241113
-0.00624168
-0.000206461
-0.00613761
-0.000178349
-0.00604634
-0.000159257
-0.00596083
-0.00015099
-0.00587242
-0.000156324
-0.0057704
-0.000179328
-0.00564314
-0.000221073
-0.00548169
-0.000276809
-0.0052805
-0.0003428
-0.0050337
-0.000423859
-0.00473566
-0.000514188
-0.00439496
-0.000581521
-0.00401515
-0.000636589
-0.000674593
-0.00122755
0.00210274
-0.00283168
0.00298892
-0.00433038
0.00294769
-0.00564227
0.00266127
-0.00676914
0.00233279
-0.00772735
0.00201185
-0.00853817
0.00171738
-0.00922545
0.00146164
-0.00981432
0.00125328
-0.0103294
0.00109547
-0.0107915
0.000983582
-0.011215
0.000904698
-0.0116053
0.000839892
-0.0119586
0.000768374
-0.0122637
0.0006731
-0.0125069
0.000546008
-0.0126763
0.000390203
-0.0127665
0.000217525
-0.0127792
4.32495e-05
-0.0127214
-0.000119864
-0.0126029
-0.000264796
-0.0124333
-0.000389863
-0.0122217
-0.000494808
-0.0119776
-0.00057792
-0.0117118
-0.000636696
-0.0114358
-0.00066931
-0.011161
-0.00067565
-0.0108978
-0.000657868
-0.0106552
-0.000619555
-0.0104398
-0.000565141
-0.0102564
-0.000499312
-0.0101076
-0.000427347
-0.00999343
-0.000354937
-0.00991143
-0.000288129
-0.00985676
-0.00023268
-0.00982256
-0.000193145
-0.00980054
-0.000172737
-0.00978107
-0.000175603
-0.00975252
-0.00020765
-0.00970223
-0.000271066
-0.00961909
-0.000359318
-0.00949533
-0.000465989
-0.00932584
-0.000593707
-0.00910877
-0.000733105
-0.00884845
-0.000843524
-0.00857153
-0.000915248
-0.000961137
-0.00182024
0.00392356
-0.00388141
0.00505127
-0.00560554
0.004673
-0.00703453
0.0040914
-0.00823676
0.00353616
-0.00925657
0.00303278
-0.0101282
0.00259012
-0.0108802
0.00221479
-0.0115381
0.00191233
-0.0121256
0.0016841
-0.0126635
0.00152255
-0.0131667
0.00140879
-0.0136409
0.00131496
-0.0140816
0.00120982
-0.014475
0.00106713
-0.0148029
0.000874496
-0.01505
0.000637869
-0.0152095
0.000377669
-0.0152849
0.000119291
-0.0152864
-0.0001178
-0.0152257
-0.000324877
-0.0151132
-0.000501837
-0.014957
-0.000650408
-0.0147659
-0.000768413
-0.0145511
-0.000850879
-0.014326
-0.000893721
-0.0141043
-0.000896716
-0.0138983
-0.000863324
-0.0137181
-0.000799271
-0.0135717
-0.000710947
-0.0134652
-0.000605477
-0.0134016
-0.000490588
-0.0133817
-0.00037456
-0.0134039
-0.000265721
-0.0134642
-0.000172229
-0.0135562
-0.000100874
-0.0136721
-5.67465e-05
-0.0138023
-4.52959e-05
-0.0139363
-7.35605e-05
-0.0140625
-0.000144664
-0.0141685
-0.000252848
-0.0142428
-0.000391021
-0.0142776
-0.000558903
-0.0142688
-0.000742452
-0.0142156
-0.000898243
-0.014132
-0.000998129
-0.00104574
-0.00239534
0.00631942
-0.00445386
0.00711086
-0.00584792
0.00606811
-0.00695033
0.0051949
-0.00791389
0.00450078
-0.00878491
0.00390494
-0.00959
0.00339632
-0.0103447
0.00297068
-0.011057
0.00262576
-0.0117338
0.00236211
-0.0123843
0.00217401
-0.0130171
0.00204257
-0.0136362
0.00193473
-0.0142364
0.00181085
-0.0148014
0.0016327
-0.0153065
0.00138026
-0.0157296
0.00106164
-0.0160598
0.000708674
-0.0163008
0.000361021
-0.0164662
4.83013e-05
-0.0165696
-0.00022077
-0.0166184
-0.000452307
-0.0166156
-0.000652546
-0.0165653
-0.000817908
-0.0164783
-0.000937139
-0.016371
-0.00100029
-0.0162614
-0.00100564
-0.0161653
-0.000958898
-0.0160953
-0.000868646
-0.0160621
-0.00074378
-0.0160731
-0.000594036
-0.0161333
-0.000430198
-0.0162446
-0.000263132
-0.0164067
-0.000103551
-0.016617
3.81756e-05
-0.0168706
0.000152743
-0.0171599
0.000232533
-0.0174758
0.000270437
-0.0178089
0.00025943
-0.0181492
0.000195592
-0.0184834
8.16337e-05
-0.0187972
-7.69857e-05
-0.0190813
-0.000274748
-0.019331
-0.000493333
-0.0195338
-0.000694235
-0.0196876
-0.000845167
-0.000916348
-0.00248532
0.00880525
-0.00307788
0.00770447
-0.00298607
0.0059774
-0.00310099
0.00531092
-0.00346329
0.00486421
-0.00400314
0.0044459
-0.00469307
0.00408743
-0.00550623
0.003785
-0.00640451
0.00352531
-0.0073496
0.00330837
-0.00831213
0.00313773
-0.00927519
0.00300662
-0.01023
0.00289055
-0.0111729
0.0027545
-0.012089
0.00254949
-0.012952
0.00224396
-0.013736
0.00184646
-0.014425
0.00139844
-0.0150192
0.000956051
-0.0155323
0.000562128
-0.0159802
0.000227891
-0.0163672
-6.44689e-05
-0.0166832
-0.000335727
-0.0169189
-0.00058137
-0.0170801
-0.000775097
-0.0171868
-0.000892785
-0.0172644
-0.000927231
-0.0173358
-0.000886866
-0.0174194
-0.000784435
-0.0175304
-0.00063222
-0.0176809
-0.000443171
-0.0178786
-0.000232231
-0.0181276
-1.39974e-05
-0.0184291
0.000197968
-0.0187818
0.000390794
-0.0191826
0.000553561
-0.0196259
0.000675542
-0.0201032
0.000747564
-0.0206065
0.000762356
-0.0211257
0.000714729
-0.0216462
0.000602108
-0.0221511
0.000428141
-0.022631
0.000205042
-0.0230769
-4.71741e-05
-0.0234698
-0.000302806
-0.0237942
-0.000519613
-0.000635445
0.00564707
0.00315873
0.00964128
0.00371115
0.0115077
0.00411175
0.0122752
0.00454404
0.0122759
0.00486421
0.0116719
0.00505047
0.0106012
0.00515887
0.00917515
0.00521197
0.00749216
0.0052093
0.00564676
0.00515487
0.00372737
0.00505817
0.00180816
0.00492678
-6.19997e-05
0.00476149
-0.00185164
0.00454476
-0.00355573
0.00425414
-0.00518306
0.00387188
-0.00673249
0.00339659
-0.00819517
0.00286182
-0.00956329
0.00232483
-0.010837
0.00183648
-0.0120196
0.00141111
-0.0131036
0.0010203
-0.0140651
0.000626419
-0.0148802
0.000234611
-0.0155442
-0.000110223
-0.0160744
-0.000361657
-0.0165025
-0.000498314
-0.0168619
-0.000526583
-0.0171814
-0.000464085
-0.0174869
-0.000325972
-0.0178008
-0.000128812
-0.0181389
0.000106259
-0.0185106
0.000357891
-0.0189216
0.00060892
-0.0193742
0.000843394
-0.0198685
0.00104764
-0.0204016
0.00120834
-0.0209688
0.00131417
-0.021564
0.00135699
-0.0221789
0.00132902
-0.0227992
0.00122216
-0.0234079
0.00103653
-0.0239908
0.000787769
-0.0245333
0.0004942
-0.0250093
0.000174493
-0.02541
-0.000119301
-0.000283777
0.0751266
0.00589416
0.07236
0.00647801
0.0693752
0.00709685
0.0661018
0.00781772
0.0624436
0.00852262
0.0583889
0.00910545
0.0540111
0.00953697
0.0494044
0.00981892
0.0446614
0.00995265
0.039876
0.00994054
0.0351431
0.00979148
0.0305502
0.00952003
0.0261688
0.0091432
0.0220363
0.00867755
0.0181517
0.00813885
0.0144827
0.00754109
0.0109814
0.00689818
0.00761402
0.00622943
0.00437977
0.00555943
0.00130724
0.00490933
-0.00156209
0.00428093
-0.00418452
0.00364319
-0.00652464
0.00296729
-0.00855687
0.00226761
-0.0102745
0.00160847
-0.0117007
0.00106564
-0.0128759
0.000677988
-0.01384
0.000438505
-0.0146307
0.000327528
-0.0152904
0.000334493
-0.0158631
0.000444454
-0.0163871
0.000630485
-0.0168898
0.000860832
-0.0173889
0.00110802
-0.0178962
0.00135058
-0.0184196
0.00157064
-0.0189644
0.00175266
-0.0195337
0.0018827
-0.020128
0.0019504
-0.0207441
0.00194433
-0.0213741
0.00185145
-0.0220047
0.00166689
-0.0226194
0.00140199
-0.0231931
0.001068
-0.0236967
0.000677097