/*--------------------------------*- C++ -*----------------------------------*\
| =========                 |                                                 |
| \\      /  F ield         | OpenFOAM: The Open Source CFD Toolbox           |
|  \\    /   O peration     | Version:  2406                                  |
|   \\  /    A nd           | Website:  www.openfoam.com                      |
|    \\/     M anipulation  |                                                 |
\*---------------------------------------------------------------------------*/
FoamFile
{
    version     2.0;
    format      ascii;
    arch        "LSB;label=32;scalar=64";
    class       volScalarField;
    location    "21";
    object      p;
}
// * * * * * * * * * * * * * * * * * * * * * * * * * * * * * * * * * * * * * //

dimensions      [0 2 -2 0 0 0 0];

internalField   nonuniform List<scalar> 
1800
(
2.99025
2.91516
2.83735
2.75955
2.67875
2.59427
2.50505
2.41
2.30862
2.1562
3.00669
2.91983
2.83694
2.75751
2.676
2.59083
2.50131
2.40623
2.30161
2.17261
3.01599
2.92362
2.83747
2.7577
2.67671
2.59238
2.50469
2.41377
2.31931
2.22143
3.02272
2.92824
2.84049
2.76138
2.68211
2.6003
2.51673
2.43278
2.34994
2.27086
3.02907
2.93367
2.84538
2.76726
2.69003
2.61123
2.53212
2.45459
2.38039
2.31172
3.03424
2.93863
2.85066
2.77352
2.69799
2.62178
2.5463
2.47343
2.40464
2.34138
3.03697
2.9419
2.855
2.77856
2.70403
2.62955
2.55642
2.48628
2.42028
2.35935
3.03598
2.94274
2.85761
2.78141
2.70701
2.63319
2.56107
2.49194
2.42672
2.36613
3.02828
2.94032
2.858
2.78175
2.70676
2.63259
2.56019
2.4906
2.4246
2.36295
3.0109
2.93434
2.85615
2.78029
2.70454
2.62947
2.55611
2.48526
2.41771
2.35433
2.00808
2.00892
2.01402
2.0234
2.03528
2.04788
2.05975
2.06981
2.07737
2.08205
2.08375
2.08257
2.07877
2.07268
2.06465
2.05506
2.04426
2.03257
2.02026
2.00756
1.99467
1.98173
1.96885
1.9561
1.94355
1.93122
1.91913
1.90729
1.89569
1.88432
1.87315
1.86217
1.85137
1.84071
1.83018
2.00744
2.00824
2.01292
2.0213
2.03192
2.04325
2.05402
2.06327
2.07032
2.0748
2.07656
2.07567
2.07233
2.06679
2.0594
2.05048
2.04034
2.02929
2.01758
2.00543
1.99302
1.9805
1.96797
1.95552
1.94321
1.93107
1.91913
1.9074
1.89587
1.88455
1.87341
1.86245
1.85164
1.84097
1.83042
2.00228
2.0036
2.0087
2.01709
2.0274
2.03827
2.04858
2.05744
2.06425
2.06864
2.07048
2.06981
2.06679
2.06168
2.05477
2.04635
2.03674
2.02621
2.01499
2.00329
1.9913
1.97914
1.96693
1.95476
1.94268
1.93073
1.91894
1.90732
1.89588
1.88462
1.87353
1.86259
1.8518
1.84113
1.83058
1.99132
1.9944
2.00134
2.01118
2.02248
2.03395
2.04455
2.05351
2.0603
2.06465
2.06645
2.06579
2.06285
2.05787
2.05115
2.04299
2.03366
2.02344
2.01254
2.00117
1.98949
1.97763
1.96569
1.95376
1.9419
1.93013
1.9185
1.90702
1.89569
1.88451
1.87348
1.8626
1.85184
1.8412
1.83066
1.97417
1.98058
1.99106
2.00381
2.01724
2.03013
2.04157
2.05092
2.05781
2.06208
2.06374
2.06292
2.05984
2.0548
2.04808
2.03998
2.03078
2.02073
2.01005
1.99892
1.98749
1.97588
1.96419
1.95249
1.94084
1.92928
1.91782
1.90649
1.89528
1.88422
1.87328
1.86247
1.85177
1.84117
1.83067
1.94996
1.96212
1.97842
1.99565
2.0122
2.02708
2.03964
2.04946
2.05639
2.06046
2.06179
2.06063
2.05726
2.05198
2.04511
2.03695
2.02778
2.01783
2.0073
1.99637
1.98517
1.97381
1.96237
1.95092
1.9395
1.92815
1.91689
1.90574
1.89469
1.88376
1.87294
1.86222
1.8516
1.84106
1.83061
1.91735
1.93882
1.96426
1.98775
2.00819
2.02536
2.03904
2.04919
2.05594
2.05956
2.06034
2.05863
2.05477
2.04911
2.04198
2.03368
2.02447
2.01458
2.00419
1.99345
1.98248
1.97137
1.9602
1.94902
1.93786
1.92676
1.91573
1.90478
1.89392
1.88315
1.87247
1.86187
1.85134
1.84089
1.8305
1.86853
1.9084
1.9495
1.98147
2.0063
2.02567
2.04017
2.05025
2.05643
2.05925
2.0592
2.05671
2.05219
2.04603
2.03855
2.03005
2.02077
2.01092
2.00066
1.99013
1.97941
1.96858
1.95771
1.94682
1.93596
1.92513
1.91436
1.90365
1.893
1.88241
1.87189
1.86143
1.85102
1.84067
1.83036
1.77346
1.86732
1.93674
1.97928
2.00824
2.02907
2.04358
2.05287
2.0579
2.05948
2.05825
2.05475
2.04943
2.04266
2.03477
2.02603
2.01668
2.00688
1.99677
1.98646
1.97601
1.9655
1.95495
1.94439
1.93384
1.92332
1.91283
1.90238
1.89196
1.88158
1.87124
1.86093
1.85066
1.84041
1.83019
1.66953
1.84748
1.94233
1.98925
2.01798
2.03741
2.05006
2.05732
2.06038
2.06018
2.05744
2.05271
2.04644
2.03899
2.03066
2.02169
2.01227
2.00254
1.99261
1.98254
1.9724
1.96222
1.95201
1.9418
1.9316
1.9214
1.91121
1.90103
1.89085
1.88069
1.87054
1.8604
1.85026
1.84013
1.83001
1.91342
1.94382
1.99398
2.02151
2.03928
2.05196
2.05992
2.06359
2.06377
2.06125
2.05667
2.05053
2.04323
2.03507
2.02631
2.01712
2.00767
1.99804
1.98831
1.97852
1.9687
1.95887
1.94902
1.93917
1.92931
1.91944
1.90956
1.89965
1.88973
1.87979
1.86983
1.85985
1.84986
1.83985
1.82982
2.04527
2.03169
2.04758
2.05811
2.06493
2.06963
2.07166
2.07085
2.06757
2.06239
2.0558
2.04818
2.03983
2.03098
2.02182
2.01246
2.00301
1.99352
1.98403
1.97454
1.96506
1.95558
1.9461
1.93661
1.92709
1.91754
1.90796
1.89832
1.88864
1.87892
1.86915
1.85933
1.84947
1.83957
1.82964
2.13709
2.10568
2.09858
2.09485
2.09146
2.08806
2.08376
2.07811
2.07117
2.06325
2.05463
2.04557
2.03624
2.02679
2.0173
2.00785
1.99846
1.98915
1.97992
1.97074
1.9616
1.95249
1.94336
1.93421
1.92503
1.91578
1.90648
1.8971
1.88764
1.87812
1.86852
1.85885
1.84912
1.83933
1.82948
2.20417
2.16497
2.14342
2.12826
2.1158
2.10488
2.09456
2.08427
2.07384
2.06335
2.0529
2.04258
2.03244
2.02253
2.01284
2.00338
1.99413
1.98505
1.9761
1.96725
1.95846
1.94968
1.9409
1.93207
1.92319
1.91422
1.90517
1.89602
1.88677
1.87742
1.86797
1.85844
1.84882
1.83912
1.82935
2.25288
2.20981
2.17913
2.15524
2.13529
2.11802
2.10254
2.08825
2.07487
2.06225
2.05034
2.03906
2.02837
2.0182
2.00847
1.99912
1.99008
1.98127
1.97264
1.96413
1.95567
1.94723
1.93876
1.93024
1.92162
1.91291
1.90408
1.89513
1.88605
1.87686
1.86754
1.85811
1.84858
1.83896
1.82926
2.2858
2.24031
2.20381
2.17366
2.14806
2.12594
2.10653
2.08924
2.07368
2.05956
2.04669
2.03487
2.02394
2.01375
2.00416
1.99505
1.98631
1.97785
1.96957
1.9614
1.95329
1.94516
1.93699
1.92873
1.92036
1.91186
1.90323
1.89444
1.88551
1.87644
1.86723
1.85789
1.84843
1.83887
1.82921
2.30465
2.25729
2.21702
2.18269
2.15324
2.12785
2.10586
2.08669
2.06985
2.05497
2.04172
2.02982
2.01901
2.00907
1.99982
1.9911
1.98278
1.97472
1.96683
1.95904
1.95126
1.94345
1.93556
1.92755
1.9194
1.91109
1.90262
1.89398
1.88516
1.87619
1.86706
1.85778
1.84838
1.83885
1.82922
2.31097
2.26196
2.21922
2.18229
2.15056
2.12338
2.10012
2.08018
2.06301
2.04813
2.03513
2.02363
2.01332
2.00394
1.99527
1.98711
1.97932
1.97176
1.96434
1.95695
1.94954
1.94205
1.93444
1.92667
1.91873
1.91059
1.90226
1.89374
1.88502
1.87612
1.86704
1.85781
1.84843
1.83893
1.82931
2.30643
2.25578
2.21131
2.17292
2.14016
2.11244
2.08909
2.06945
2.05286
2.03876
2.02663
2.01605
2.00667
1.99817
1.99032
1.98293
1.97583
1.96888
1.96199
1.95508
1.94808
1.94093
1.93361
1.92608
1.91834
1.91036
1.90215
1.89372
1.88508
1.87622
1.86718
1.85797
1.8486
1.8391
1.82948
2.29608
2.24384
2.19812
2.15894
2.12592
2.09842
2.07568
2.05694
2.04142
2.02849
2.01755
2.00812
1.99983
1.99235
1.98543
1.97886
1.97249
1.96619
1.95986
1.95343
1.94684
1.94004
1.93301
1.92571
1.91816
1.91033
1.90224
1.89389
1.8853
1.87648
1.86746
1.85825
1.84888
1.83936
1.82972
1.81975
1.80942
1.79915
1.78895
1.77879
1.76866
1.75855
1.74846
1.73838
1.72829
1.81997
1.80961
1.79932
1.78909
1.7789
1.76875
1.75862
1.7485
1.7384
1.72829
1.82012
1.80975
1.79945
1.7892
1.77899
1.76882
1.75868
1.74854
1.73842
1.7283
1.82021
1.80984
1.79954
1.78928
1.77907
1.76889
1.75873
1.74859
1.73846
1.72832
1.82024
1.80989
1.79959
1.78935
1.77914
1.76896
1.7588
1.74865
1.73851
1.72837
1.82023
1.8099
1.79963
1.7894
1.7792
1.76902
1.75887
1.74873
1.73859
1.72845
1.82017
1.80989
1.79965
1.78944
1.77926
1.7691
1.75896
1.74882
1.73869
1.72856
1.8201
1.80986
1.79966
1.78949
1.77933
1.76919
1.75906
1.74893
1.73881
1.72869
1.82
1.80983
1.79967
1.78953
1.7794
1.76928
1.75917
1.74906
1.73895
1.72885
1.8199
1.80979
1.79968
1.78958
1.77948
1.76939
1.75929
1.7492
1.73911
1.72902
1.81979
1.80974
1.79969
1.78963
1.77956
1.76949
1.75942
1.74934
1.73927
1.72919
1.81969
1.8097
1.7997
1.78967
1.77964
1.76959
1.75954
1.74948
1.73942
1.72936
1.81959
1.80967
1.79971
1.78972
1.77971
1.76969
1.75965
1.74961
1.73956
1.72951
1.81952
1.80965
1.79972
1.78977
1.77978
1.76978
1.75975
1.74972
1.73968
1.72965
1.81948
1.80964
1.79975
1.78981
1.77985
1.76985
1.75984
1.74981
1.73978
1.72975
1.81947
1.80966
1.79979
1.78987
1.77991
1.76992
1.75991
1.74989
1.73986
1.72983
1.8195
1.80971
1.79984
1.78993
1.77997
1.76999
1.75997
1.74995
1.73991
1.72988
1.8196
1.8098
1.79994
1.79001
1.78005
1.77005
1.76003
1.75
1.73995
1.7299
1.81975
1.80994
1.80006
1.79013
1.78014
1.77013
1.76009
1.75004
1.73997
1.72991
1.81997
1.81014
1.80023
1.79027
1.78026
1.77022
1.76016
1.75008
1.74
1.72991
1.7182
1.7081
1.69799
1.68785
1.67769
1.6675
1.65728
1.64701
1.6367
1.62632
1.61587
1.60534
1.59469
1.58392
1.57299
1.56187
1.55051
1.53884
1.5268
1.51428
1.50115
1.48724
1.47234
1.45614
1.43826
1.4182
1.39531
1.36877
1.33758
1.30055
1.25637
1.20371
1.14145
1.06898
0.98658
1.71818
1.70806
1.69792
1.68776
1.67758
1.66736
1.6571
1.64679
1.63642
1.62598
1.61546
1.60483
1.59408
1.58317
1.57208
1.56076
1.54915
1.53718
1.52477
1.5118
1.49813
1.48357
1.46788
1.45075
1.43178
1.41047
1.38616
1.35808
1.32527
1.28664
1.241
1.18718
1.12425
1.05178
0.970118
1.71817
1.70803
1.69787
1.68769
1.67748
1.66724
1.65695
1.6466
1.63619
1.6257
1.61512
1.60441
1.59357
1.58256
1.57133
1.55985
1.54804
1.53584
1.52315
1.50984
1.49576
1.48072
1.46446
1.44667
1.42695
1.40479
1.37955
1.35045
1.31658
1.27685
1.2301
1.17517
1.11116
1.03765
0.955142
1.71818
1.70803
1.69786
1.68767
1.67745
1.66719
1.65688
1.64652
1.63608
1.62557
1.61495
1.60422
1.59333
1.58227
1.57098
1.55943
1.54754
1.53524
1.52244
1.50901
1.49479
1.47959
1.46317
1.44521
1.42531
1.40297
1.37755
1.34825
1.31409
1.27392
1.22643
1.17026
1.10426
1.02793
0.941893
1.71823
1.70807
1.6979
1.68771
1.67748
1.66722
1.65691
1.64654
1.63611
1.6256
1.61499
1.60426
1.59338
1.58233
1.57106
1.55953
1.54768
1.53543
1.52269
1.50935
1.49525
1.48022
1.46401
1.44633
1.42677
1.40485
1.37989
1.35105
1.31725
1.27713
1.22907
1.17129
1.10216
1.02072
0.927863
1.71831
1.70816
1.69799
1.68779
1.67758
1.66732
1.65703
1.64668
1.63627
1.62579
1.61522
1.60454
1.59372
1.58275
1.57157
1.56016
1.54846
1.5364
1.52389
1.51084
1.49711
1.48253
1.46689
1.44989
1.43116
1.4102
1.38632
1.35861
1.32584
1.28637
1.23811
1.17861
1.10532
1.0165
0.912806
1.71842
1.70828
1.69812
1.68794
1.67774
1.66751
1.65724
1.64693
1.63657
1.62615
1.61565
1.60505
1.59435
1.58351
1.5725
1.5613
1.54985
1.5381
1.52598
1.51341
1.50026
1.48641
1.47164
1.45571
1.43826
1.41879
1.39663
1.3708
1.33991
1.30202
1.25447
1.19382
1.11614
1.01803
0.899247
1.71857
1.70844
1.69829
1.68814
1.67796
1.66777
1.65754
1.64729
1.63699
1.62665
1.61625
1.60578
1.59522
1.58457
1.57379
1.56287
1.55176
1.54043
1.52883
1.51688
1.50451
1.49159
1.47797
1.46343
1.44765
1.43019
1.41039
1.38727
1.35938
1.32453
1.27944
1.21941
1.13841
1.02995
0.89111
1.71874
1.70862
1.6985
1.68837
1.67823
1.66808
1.65791
1.64772
1.6375
1.62726
1.61698
1.60666
1.59629
1.58586
1.57536
1.56477
1.55407
1.54323
1.53223
1.52102
1.50955
1.49772
1.48543
1.47251
1.45871
1.44366
1.42681
1.40729
1.38375
1.35402
1.31455
1.25954
1.18032
1.06454
0.898392
1.71892
1.70883
1.69873
1.68864
1.67853
1.66843
1.65831
1.6482
1.63807
1.62794
1.6178
1.60764
1.59747
1.58729
1.57708
1.56685
1.55659
1.54629
1.53594
1.52552
1.515
1.50433
1.49346
1.48227
1.47061
1.45822
1.44471
1.42948
1.41158
1.38947
1.36046
1.31996
1.26104
1.17113
1.00458
1.71912
1.70904
1.69897
1.68891
1.67884
1.66878
1.65873
1.64869
1.63866
1.62864
1.61863
1.60864
1.59868
1.58874
1.57884
1.56897
1.55915
1.54938
1.53968
1.53003
1.52045
1.51093
1.50145
1.49196
1.4824
1.47264
1.46249
1.45169
1.43987
1.42661
1.41147
1.39466
1.38072
1.39
1.47322
1.7193
1.70925
1.6992
1.68916
1.67914
1.66913
1.65913
1.64916
1.63922
1.6293
1.61943
1.6096
1.59983
1.59012
1.5805
1.57097
1.56156
1.55228
1.54317
1.53424
1.52552
1.51703
1.50881
1.50085
1.49316
1.48572
1.4785
1.47146
1.46463
1.45818
1.45262
1.44976
1.45604
1.48867
1.55737
1.71947
1.70944
1.69941
1.6894
1.6794
1.66943
1.65949
1.64958
1.63971
1.62989
1.62013
1.61044
1.60083
1.59133
1.58195
1.57271
1.56365
1.55479
1.54617
1.53784
1.52984
1.52222
1.51503
1.50832
1.50214
1.49654
1.49157
1.48731
1.48394
1.48177
1.48148
1.48468
1.4958
1.52295
1.55934
1.71961
1.70959
1.69958
1.68959
1.67962
1.66968
1.65978
1.64992
1.64011
1.63036
1.62069
1.61111
1.60163
1.59228
1.58309
1.57408
1.56528
1.55674
1.54851
1.54064
1.53318
1.5262
1.51978
1.51398
1.50889
1.50458
1.50114
1.4987
1.49745
1.4977
1.49999
1.5055
1.51696
1.53845
1.56462
1.71973
1.70971
1.69971
1.68973
1.67978
1.66986
1.65998
1.65016
1.64039
1.63069
1.62108
1.61157
1.60218
1.59293
1.58386
1.575
1.56638
1.55805
1.55007
1.54249
1.53538
1.52881
1.52287
1.51764
1.51321
1.50968
1.50715
1.50574
1.50562
1.50705
1.51041
1.51647
1.52687
1.54391
1.56389
1.7198
1.70979
1.69979
1.68982
1.67987
1.66996
1.6601
1.65028
1.64053
1.63086
1.62128
1.6118
1.60245
1.59326
1.58425
1.57545
1.56691
1.55868
1.55081
1.54335
1.53639
1.53
1.52427
1.51928
1.51515
1.51196
1.50983
1.50887
1.50924
1.5111
1.51472
1.52054
1.52946
1.54265
1.55726
1.71985
1.70983
1.69983
1.68985
1.6799
1.66999
1.66012
1.6503
1.64055
1.63088
1.62129
1.61181
1.60246
1.59326
1.58424
1.57544
1.56689
1.55865
1.55075
1.54328
1.53628
1.52986
1.52409
1.51907
1.51491
1.51171
1.5096
1.5087
1.50914
1.51107
1.51462
1.51999
1.52754
1.53759
1.54793
1.71986
1.70983
1.69982
1.68983
1.67987
1.66994
1.66005
1.65022
1.64045
1.63074
1.62113
1.61161
1.60222
1.59296
1.58388
1.575
1.56636
1.558
1.54997
1.54233
1.53515
1.5285
1.52248
1.51718
1.51272
1.50923
1.50684
1.50571
1.50599
1.50783
1.51131
1.51643
1.52311
1.53098
1.53815
1.71985
1.70981
1.69977
1.68976
1.67978
1.66982
1.65991
1.65004
1.64023
1.63048
1.6208
1.61122
1.60174
1.5924
1.5832
1.57418
1.56537
1.55681
1.54854
1.54062
1.5331
1.52607
1.5196
1.51379
1.50878
1.50472
1.50177
1.50016
1.50009
1.50179
1.50537
1.51075
1.51749
1.52453
1.52986
1.71983
1.70976
1.69971
1.68967
1.67966
1.66968
1.65973
1.64982
1.63996
1.63016
1.62042
1.61075
1.60118
1.59172
1.58239
1.57321
1.5642
1.55541
1.54687
1.53863
1.53073
1.52325
1.51626
1.50988
1.50423
1.49948
1.49586
1.49365
1.49316
1.49472
1.49857
1.50466
1.51234
1.51995
1.52498
0.895608
0.798516
0.698181
0.597189
0.497454
0.400165
0.305875
0.214564
0.125654
0.0398781
0.880659
0.785774
0.688105
0.589877
0.492669
0.397464
0.304777
0.214603
0.125797
0.0400125
0.865261
0.770886
0.674811
0.578904
0.484274
0.391548
0.301039
0.212682
0.125144
0.0400276
0.848503
0.752241
0.656541
0.562675
0.470942
0.381388
0.293944
0.208324
0.123109
0.0397596
0.827066
0.726667
0.631086
0.540014
0.452272
0.367087
0.283864
0.202025
0.120067
0.0393338
0.799147
0.692575
0.598212
0.511723
0.429546
0.350011
0.272017
0.194711
0.116588
0.038867
0.764151
0.650002
0.559943
0.480713
0.405671
0.33267
0.26032
0.187667
0.113355
0.0384769
0.719677
0.598793
0.51933
0.450707
0.384015
0.317802
0.250791
0.182191
0.110996
0.0382209
0.651316
0.533227
0.47784
0.424038
0.366732
0.30724
0.244822
0.179187
0.11003
0.0382051
0.527096
0.455724
0.444709
0.40486
0.355371
0.301541
0.242486
0.178531
0.110759
0.0390626
)
;

boundaryField
{
    inlet
    {
        type            zeroGradient;
    }
    outlet
    {
        type            fixedValue;
        value           uniform 0;
    }
    upperWall
    {
        type            zeroGradient;
    }
    lowerWall
    {
        type            zeroGradient;
    }
    frontAndBack
    {
        type            empty;
    }
}


// ************************************************************************* //
