/*--------------------------------*- C++ -*----------------------------------*\
| =========                 |                                                 |
| \\      /  F ield         | OpenFOAM: The Open Source CFD Toolbox           |
|  \\    /   O peration     | Version:  2406                                  |
|   \\  /    A nd           | Website:  www.openfoam.com                      |
|    \\/     M anipulation  |                                                 |
\*---------------------------------------------------------------------------*/
FoamFile
{
    version     2.0;
    format      ascii;
    arch        "LSB;label=32;scalar=64";
    class       surfaceScalarField;
    location    "21";
    object      phi;
}
// * * * * * * * * * * * * * * * * * * * * * * * * * * * * * * * * * * * * * //

dimensions      [0 3 -1 0 0 0 0];

oriented        oriented;

internalField   nonuniform List<scalar> 
3480
(
0.0193213
-0.000321296
0.0196358
-0.000314545
0.0199087
-0.000272787
0.0202078
-0.000299108
0.0206
-0.000392058
0.0211841
-0.000584064
0.0221485
-0.000964328
0.0238753
-0.00172685
0.0273593
-0.00348387
-0.00888901
0.0362484
0.0510039
-0.000325196
0.0512492
-0.000559793
0.0516253
-0.000648786
0.0521288
-0.000802473
0.0528166
-0.00107961
0.0537904
-0.00155782
0.0552179
-0.00239172
0.0573666
-0.00387548
0.060515
-0.00663214
-0.0118781
0.0635044
0.0749807
-0.000305942
0.0751002
-0.000679297
0.0753837
-0.00093219
0.0758209
-0.00123947
0.0764363
-0.0016949
0.077277
-0.00239838
0.0783952
-0.00350988
0.0797992
-0.00527943
0.0812492
-0.00808183
-0.0123436
0.0817149
0.0909683
-0.000274266
0.0909809
-0.000691906
0.0910984
-0.00104958
0.091323
-0.001464
0.0916526
-0.00202428
0.0920804
-0.00282616
0.0925699
-0.00399931
0.0930018
-0.00571113
0.0930674
-0.00814725
-0.0114097
0.0921338
0.0989407
-0.000215016
0.0988478
-0.00059894
0.0987839
-0.000985644
0.098753
-0.00143301
0.0987343
-0.00200539
0.098688
-0.0027797
0.0985354
-0.00384664
0.098128
-0.00530357
0.0972087
-0.00722773
-0.00960415
0.0954035
0.0989041
-0.000119098
0.0987138
-0.000408602
0.0984934
-0.000765182
0.0982392
-0.00117873
0.0979169
-0.00168291
0.0974708
-0.0023334
0.0968114
-0.00318705
0.095802
-0.004294
0.0942528
-0.00567823
-0.00729544
0.0919443
0.0908671
1.37641e-05
0.0906131
-0.000154578
0.090301
-0.000453009
0.0899099
-0.000787522
0.0893961
-0.00116893
0.0886998
-0.00163695
0.0877375
-0.00222455
0.0863986
-0.00295489
0.0845517
-0.00383114
-0.00481467
0.0820712
0.0748445
0.000169221
0.0746053
8.47118e-05
0.0743066
-0.000154261
0.0739012
-0.000382049
0.0733459
-0.00061341
0.0725883
-0.000879227
0.0715618
-0.0011979
0.0701866
-0.00157946
0.0683783
-0.00202276
-0.00250586
0.0660697
0.0508868
0.000282434
0.0508068
0.000164759
0.0506424
1.01749e-05
0.0503528
-9.24066e-05
0.0499169
-0.00017729
0.0493032
-0.000265443
0.0484718
-0.00036635
0.0473753
-0.000482778
0.0459667
-0.000614045
-0.000753758
0.0442147
0.0192824
0.0194472
0.0194574
0.019365
0.0191877
0.0189223
0.018556
0.0180732
0.0174592
0.0167054
-0.000131551
0.000131642
-0.000343073
0.000211704
-0.00049773
0.000154849
-0.000519181
2.16135e-05
-0.000384681
-0.00013438
-0.000104843
-0.000279764
0.000291891
-0.000396696
0.000770296
-0.0004784
0.00129528
-0.000524995
0.00183573
-0.000540479
0.00236633
-0.000530622
0.00286797
-0.00050168
0.00332752
-0.000459569
0.003737
-0.00040949
0.00409271
-0.000355702
0.00439426
-0.000301542
0.00464373
-0.00024944
0.00484485
-0.000201078
0.00500237
-0.000157479
0.0051216
-0.00011918
0.00520797
-8.6314e-05
0.00526677
-5.8753e-05
0.00530299
-3.6165e-05
0.00532115
-1.8111e-05
0.00532526
-4.0785e-06
0.00531884
6.4605e-06
0.00530483
1.40334e-05
0.00528571
1.91372e-05
0.00526349
2.22321e-05
0.00523976
2.37292e-05
0.00521577
2.39905e-05
0.00519244
2.33265e-05
0.00517043
2.19998e-05
0.00515019
2.02258e-05
1.81794e-05
0.005132
-0.000240078
0.000371862
-0.000566193
0.000538455
-0.000723297
0.000312497
-0.000576444
-0.000124812
-8.91073e-05
-0.000621422
0.000710549
-0.00107925
0.00175931
-0.0014454
0.00298049
-0.00169959
0.00429787
-0.00184246
0.00564373
-0.00188645
0.00696254
-0.00184955
0.00821199
-0.00175123
0.00936238
-0.00161004
0.0103952
-0.0014423
0.011301
-0.00126161
0.0120782
-0.00107866
0.0127303
-0.000901482
0.0132651
-0.000735703
0.0136927
-0.000584955
0.0140249
-0.000451239
0.014274
-0.000335304
0.0144523
-0.000236954
0.0145717
-0.000155331
0.0146428
-8.91359e-05
0.0146757
-3.68103e-05
0.0146789
3.32693e-06
0.01466
3.29764e-05
0.0146254
5.37843e-05
0.0145804
6.72933e-05
0.0145292
7.49067e-05
0.0144753
7.78767e-05
0.0144214
7.72922e-05
0.0143692
7.40863e-05
0.0143204
6.90367e-05
6.27816e-05
0.0142758
-0.000250041
0.000622238
-0.000502877
0.00079184
-0.000453698
0.000263851
3.28828e-05
-0.000610986
0.000972821
-0.0015611
0.00230895
-0.00241527
0.00394817
-0.00308462
0.00578672
-0.00353824
0.0077257
-0.00378158
0.00967925
-0.00384017
0.011578
-0.00374851
0.0133697
-0.00354305
0.0150177
-0.00325816
0.0164994
-0.00292404
0.0178036
-0.00256582
0.0189284
-0.00220343
0.0198789
-0.00185191
0.0206654
-0.00152199
0.0213013
-0.00122071
0.0218023
-0.000952107
0.0221851
-0.000717844
0.0224661
-0.000517797
0.0226615
-0.000350531
0.0227863
-0.00021373
0.0228541
-0.000104518
0.0228773
-1.97378e-05
0.0228665
4.38582e-05
0.0228309
8.94516e-05
0.0227782
0.000120057
0.0227147
0.000138448
0.0226455
0.000147117
0.0225745
0.000148257
0.0225048
0.000143756
0.0224385
0.000135207
0.000123922
0.0223773
-0.000202874
0.000825213
-0.000244585
0.000834189
0.000183594
-0.000163836
0.00117059
-0.00159765
0.00267504
-0.00306536
0.00459285
-0.00433302
0.00679909
-0.00529092
0.00917144
-0.00591073
0.011602
-0.00621228
0.0140018
-0.00624027
0.0163022
-0.0060491
0.0184529
-0.00569389
0.0204201
-0.0052255
0.0221841
-0.00468806
0.0237364
-0.00411812
0.0250776
-0.00354464
0.0262154
-0.00298954
0.027162
-0.0024685
0.0279334
-0.00199192
0.0285474
-0.00156586
0.0290227
-0.0011929
0.029378
-0.000872968
0.0296317
-0.000604029
0.0298009
-0.000382691
0.0299012
-0.000204685
0.0299469
-6.52578e-05
0.0299503
4.052e-05
0.0299223
0.000117527
0.029872
0.000170423
0.0298069
0.000203527
0.0297333
0.000220753
0.0296559
0.000225567
0.0295787
0.000220973
0.0295043
0.000209525
0.000193341
0.0294348
-0.000108088
0.00093365
0.000206933
0.000519594
0.001207
-0.00116348
0.00287132
-0.00326169
0.00506119
-0.00525509
0.00761048
-0.0068823
0.0103643
-0.00804483
0.0131926
-0.00873919
0.0159928
-0.00901265
0.0186876
-0.00893529
0.0212217
-0.00858336
0.0235578
-0.00803012
0.0256734
-0.00734119
0.0275578
-0.00657256
0.0292098
-0.00577008
0.0306351
-0.00496989
0.0318449
-0.00419925
0.0328542
-0.00347765
0.0336804
-0.00281798
0.0343425
-0.00222772
0.0348598
-0.00171
0.0352516
-0.00126459
0.0355365
-0.000888754
0.035732
-0.000578005
0.0358541
-0.000326682
0.0359175
-0.00012847
0.0359348
2.32198e-05
0.0359175
0.000134937
0.035875
0.000212978
0.0358153
0.000263215
0.035745
0.000291
0.0356695
0.0003011
0.0355927
0.000297674
0.0355179
0.000284276
0.000263872
0.0354473
7.22121e-05
0.00086148
0.000963933
-0.00037158
0.00279302
-0.00299218
0.00533825
-0.00580668
0.00832592
-0.00824266
0.011528
-0.0100844
0.0147758
-0.0112928
0.0179517
-0.0119152
0.0209767
-0.0120379
0.0238006
-0.0117593
0.0263931
-0.0111761
0.0287389
-0.0103761
0.0308331
-0.00943557
0.0326789
-0.00841837
0.0342848
-0.00737602
0.0356638
-0.00634875
0.0368313
-0.00536668
0.037805
-0.00445117
0.0386033
-0.00361617
0.0392453
-0.00286958
0.0397499
-0.0022144
0.0401354
-0.00164987
0.0404192
-0.00117238
0.0406176
-0.000776278
0.0407456
-0.000454601
0.0408169
-0.000199583
0.0408433
-3.13468e-06
0.0408355
0.00014281
0.0408024
0.000246027
0.0407519
0.000313805
0.04069
0.000352812
0.0406221
0.00036902
0.040552
0.000367665
0.040483
0.00035324
0.00032952
0.0404173
0.000458588
0.000403168
0.00231518
-0.00222784
0.00533306
-0.00600984
0.0089667
-0.00944022
0.0128048
-0.0120807
0.0165972
-0.013877
0.0202035
-0.0148992
0.0235507
-0.0152626
0.0266061
-0.0150935
0.0293604
-0.0145138
0.0318176
-0.0136335
0.0339895
-0.0125481
0.0358922
-0.0113383
0.037544
-0.0100702
0.0389644
-0.00879645
0.0401734
-0.00755772
0.0411909
-0.00638405
0.0420362
-0.00529637
0.0427282
-0.00430805
0.043285
-0.00342616
0.0437235
-0.00265283
0.0440601
-0.00198627
0.0443096
-0.00142179
0.0444861
-0.000952582
0.044602
-0.000570454
0.0446689
-0.000266397
0.0446969
-3.10584e-05
0.0446949
0.000144875
0.0446705
0.000270396
0.0446304
0.000353952
0.0445799
0.000403301
0.0445235
0.000425413
0.0444647
0.000426427
0.0444062
0.00041163
0.000385483
0.0443502
0.00132489
-0.000921658
0.00488966
-0.00579241
0.00954805
-0.0106681
0.0143718
-0.0142639
0.0189401
-0.0166491
0.0230924
-0.0180294
0.0267856
-0.0185926
0.0300293
-0.0185065
0.0328553
-0.0179196
0.0353027
-0.0169614
0.037412
-0.0157429
0.0392214
-0.0143577
0.0407664
-0.0128834
0.0420787
-0.0113826
0.043187
-0.00990477
0.0441166
-0.00848726
0.0448899
-0.00715723
0.0455267
-0.00593311
0.0460448
-0.00482603
0.04646
-0.0038412
0.0467864
-0.00297911
0.0470368
-0.00223655
0.0472227
-0.0016076
0.0473545
-0.0010843
0.0474416
-0.000657432
0.0474922
-0.000316986
0.0475139
-5.26675e-05
0.047513
0.000145744
0.0474953
0.000288106
0.0474656
0.000383693
0.0474279
0.000441033
0.0473854
0.000467818
0.047341
0.000470832
0.0472967
0.000455947
0.000428128
0.047254
0.00365283
-0.00457436
0.0101984
-0.0123378
0.0166834
-0.017153
0.0223638
-0.0199445
0.0271701
-0.0214555
0.0311852
-0.0220446
0.0345201
-0.0219277
0.037281
-0.0212675
0.0395607
-0.0201995
0.0414388
-0.0188397
0.0429828
-0.017287
0.0442497
-0.0156247
0.0452873
-0.0139211
0.0461357
-0.012231
0.0468279
-0.0105969
0.047391
-0.00905039
0.0478474
-0.00761357
0.0482152
-0.00630077
0.048509
-0.00511978
0.0487411
-0.00407315
0.0489213
-0.00315926
0.0490582
-0.00237329
0.0491587
-0.00170803
0.049229
-0.00115454
0.0492744
-0.000702783
0.0492996
-0.000342109
0.0493086
-6.16454e-05
0.049305
0.000149331
0.049292
0.000301147
0.0492722
0.000403507
0.0492479
0.000465351
0.0492209
0.000494748
0.0491929
0.000498838
0.049165
0.000483809
0.000454912
0.0491382
0.01253
-0.0171041
0.0217581
-0.0215657
0.0285065
-0.0239014
0.0336546
-0.0250926
0.0376351
-0.0254361
0.040725
-0.0251347
0.0431194
-0.0243222
0.044963
-0.0231113
0.046369
-0.0216057
0.0474283
-0.0198992
0.0482156
-0.0180745
0.0487921
-0.0162013
0.0492077
-0.0143367
0.0495025
-0.0125259
0.0497084
-0.0108028
0.0498498
-0.00919182
0.0499455
-0.00770922
0.0500092
-0.00636441
0.0500509
-0.00516135
0.0500774
-0.00409961
0.0500936
-0.00317537
0.0501026
-0.00238222
0.0501065
-0.00171184
0.0501066
-0.00115457
0.0501038
-0.000699938
0.0500987
-0.000336994
0.0500918
-5.47336e-05
0.0500835
0.000157647
0.0500742
0.000310506
0.0500641
0.000413572
0.0500537
0.000475802
0.0500431
0.000505292
0.0500327
0.00050921
0.0500227
0.000493783
0.000464301
0.0500133
0.0390265
-0.0198819
0.0423442
-0.0248832
0.0452856
-0.0268427
0.0476969
-0.027504
0.0495719
-0.0273111
0.050942
-0.0265049
0.0518725
-0.0252528
0.0524403
-0.0236793
0.0527212
-0.0218867
0.0527841
-0.0199623
0.0526893
-0.0179799
0.0524879
-0.0159999
0.0522213
-0.0140702
0.0519224
-0.012227
0.0516159
-0.0104962
0.0513194
-0.00889533
0.0510449
-0.00743466
0.0507995
-0.00611892
0.0505866
-0.00494837
0.0504069
-0.00391983
0.0502591
-0.00302756
0.0501408
-0.00226387
0.0500487
-0.00161971
0.0499793
-0.00108511
0.0499289
-0.000649537
0.0498942
-0.000302229
0.0498719
-3.24701e-05
0.0498594
0.000170172
0.0498543
0.000315668
0.0498545
0.000413358
0.0498584
0.000471842
0.0498648
0.000498885
0.0498727
0.000501374
0.0498812
0.00048529
0.000455725
0.0498897
0.0630092
-0.0193864
0.0622749
-0.0241487
0.0618073
-0.0263749
0.0614127
-0.0271093
0.0609636
-0.0268621
0.0603919
-0.0259333
0.059679
-0.02454
0.0588405
-0.0228408
0.0579091
-0.0209554
0.0569237
-0.018977
0.0559224
-0.0169786
0.0549386
-0.0150162
0.0539996
-0.0131313
0.0531258
-0.0113533
0.0523311
-0.00970151
0.0516234
-0.00818758
0.0510056
-0.00681685
0.0504768
-0.00559005
0.0500329
-0.00450443
0.0496678
-0.00355472
0.0493741
-0.00273382
0.0491436
-0.00203333
0.0489679
-0.001444
0.0488388
-0.000955995
0.0487485
-0.000559245
0.0486899
-0.000243611
0.0486566
8.89213e-07
0.0486428
0.000183909
0.0486439
0.000314631
0.0486556
0.000401638
0.0486746
0.00045282
0.0486982
0.000475302
0.0487242
0.000475398
0.0487509
0.000458598
0.000429571
0.0487771
0.0799429
-0.0176142
0.0773651
-0.0215707
0.074758
-0.0237676
0.0722665
-0.0246177
0.0698907
-0.0244862
0.0676063
-0.023649
0.0653965
-0.0223302
0.0632607
-0.0207051
0.0612112
-0.0189059
0.0592664
-0.0170323
0.0574455
-0.0151578
0.0557649
-0.0133357
0.0542367
-0.0116031
0.0528675
-0.00998406
0.0516589
-0.00849293
0.0506081
-0.00713671
0.0497083
-0.00591706
0.0489502
-0.00483188
0.0483222
-0.00387643
0.0478117
-0.00304421
0.0474054
-0.00232756
0.0470901
-0.00171803
0.0468529
-0.00120674
0.0466814
-0.000784584
0.0465646
-0.000442381
0.046492
-0.000171048
0.0464546
3.82688e-05
0.0464444
0.00019408
0.0464546
0.000304444
0.0464793
0.000376878
0.0465139
0.000418276
0.0465543
0.000434861
0.0465976
0.000432144
0.0466413
0.000414914
0.000387243
0.0466837
0.0896378
-0.0151179
0.0862079
-0.0181407
0.0824552
-0.0200147
0.0786685
-0.0208309
0.0749772
-0.0207948
0.0714423
-0.020114
0.0680935
-0.0189814
0.0649492
-0.0175608
0.062024
-0.0159808
0.05933
-0.0143382
0.0568753
-0.0127031
0.0546639
-0.0111243
0.0526948
-0.00963399
0.0509624
-0.00825162
0.049457
-0.00698749
0.0481656
-0.00584532
0.0470729
-0.00482433
0.0461618
-0.00392077
0.0454144
-0.00312901
0.0448125
-0.00244229
0.0443381
-0.00185317
0.0439739
-0.00135386
0.0437035
-0.000936443
0.0435119
-0.000592974
0.0433851
-0.000315601
0.0433106
-9.66502e-05
0.0432776
7.12996e-05
0.0432763
0.000195335
0.0432986
0.000282148
0.0433375
0.000337956
0.0433873
0.000368463
0.0434434
0.000378798
0.043502
0.00037351
0.0435604
0.000356542
0.000331246
0.0436165
0.0924464
-0.0121606
0.088622
-0.014316
0.0843414
-0.015734
0.0798989
-0.0163881
0.0754844
-0.0163802
0.0712202
-0.0158497
0.0671826
-0.0149437
0.0634179
-0.013796
0.0599534
-0.0125163
0.056803
-0.0111878
0.0539706
-0.00987076
0.0514523
-0.00860598
0.0492378
-0.00741938
0.0473119
-0.00632572
0.0456563
-0.00533183
0.0442501
-0.00443912
0.0430712
-0.00364546
0.042097
-0.00294658
0.0413049
-0.00233695
0.040673
-0.00181037
0.0401801
-0.00136037
0.0398066
-0.000980388
0.039534
-0.000663911
0.0393455
-0.000404547
0.0392258
-0.000196059
0.0391615
-3.24147e-05
0.0391406
9.21778e-05
0.0391527
0.000183224
0.0391889
0.000245905
0.0392418
0.000285024
0.0393053
0.000304976
0.0393744
0.000309713
0.0394452
0.000302733
0.0395147
0.000287063
0.000265275
0.0395807
0.0887515
-0.00896744
0.0848214
-0.0103857
0.0804262
-0.0113385
0.075817
-0.0117788
0.071192
-0.0117549
0.0666981
-0.0113556
0.0624374
-0.0106828
0.0584752
-0.00983374
0.0548492
-0.00889012
0.0515763
-0.0079149
0.0486588
-0.00695314
0.0460878
-0.00603494
0.0438472
-0.00517875
0.041916
-0.00439442
0.04027
-0.00368584
0.0388838
-0.00305292
0.0377315
-0.00249313
0.0367874
-0.00200253
0.0360268
-0.00157645
0.0354263
-0.00120991
0.0349638
-0.000897918
0.0346188
-0.000635499
0.0343726
-0.000417855
0.0342083
-0.00024031
0.0341105
-9.8395e-05
0.0340658
1.22195e-05
0.0340623
9.56225e-05
0.0340897
0.000155735
0.0341394
0.000196186
0.034204
0.000220381
0.0342776
0.000231388
0.0343553
0.000232002
0.0344334
0.000224654
0.0345091
0.000211483
0.000194263
0.0345801
0.0789038
-0.00579994
0.075145
-0.00662674
0.0709838
-0.00717711
0.0666223
-0.00741716
0.062239
-0.00737164
0.0579772
-0.00709374
0.0539413
-0.00664692
0.0502003
-0.00609272
0.0467936
-0.00548336
0.0437377
-0.00485894
0.0410324
-0.00424787
0.0386662
-0.00366871
0.0366199
-0.00313236
0.0348698
-0.00264422
0.0333899
-0.00220588
0.0321535
-0.00181653
0.0311344
-0.00147394
0.0303069
-0.0011751
0.0296472
-0.000916698
0.0291326
-0.000695344
0.0287423
-0.000507689
0.0284573
-0.000350543
0.0282602
-0.000220805
0.0281354
-0.000115571
0.028069
-3.20047e-05
0.0280486
3.25296e-05
0.0280636
8.06108e-05
0.0281046
0.0001146
0.028164
0.000136782
0.0282352
0.000149194
0.0283128
0.000153765
0.0283927
0.000152161
0.0284715
0.000145909
0.0285467
0.000136273
0.00012437
0.0286166
0.0632469
-0.00297708
0.0599839
-0.0033636
0.0564183
-0.00361143
0.0527063
-0.00370518
0.0489929
-0.00365824
0.0453975
-0.00349835
0.0420086
-0.00325802
0.0388842
-0.00296838
0.0360564
-0.00265553
0.0335366
-0.0023392
0.0313218
-0.002033
0.0293986
-0.00174553
0.0277479
-0.00148156
0.0263469
-0.00124312
0.0251715
-0.00103045
0.0241978
-0.000842704
0.0234023
-0.000678408
0.0227631
-0.000535809
0.0222595
-0.000413086
0.0218726
-0.000308424
0.0215851
-0.000220116
0.021381
-0.000146515
0.0212463
-8.6112e-05
0.0211681
-3.74338e-05
0.0211352
8.63936e-07
0.0211376
3.01108e-05
0.0211666
5.15126e-05
0.021215
6.62618e-05
0.0212763
7.54168e-05
0.0213455
8.00088e-05
0.0214183
8.0926e-05
0.0214915
7.90119e-05
0.0215624
7.4964e-05
0.0216293
6.94224e-05
6.28893e-05
0.0216908
0.0421246
-0.000886821
0.0397532
-0.000992147
0.0371965
-0.00105467
0.0345625
-0.00107117
0.0319513
-0.00104701
0.0294443
-0.000991404
0.0271007
-0.000914453
0.0249578
-0.000825435
0.0230341
-0.000731844
0.021334
-0.000639122
0.0198519
-0.000550833
0.0185755
-0.000469082
0.0174889
-0.000394882
0.0165743
-0.000328539
0.0158138
-0.000269876
0.0151896
-0.000218487
0.0146851
-0.000173808
0.0142846
-0.000135273
0.0139738
-0.00010229
0.0137397
-7.43342e-05
0.0135704
-5.08845e-05
0.0134554
-3.14935e-05
0.0133849
-1.57106e-05
0.0133505
-3.14763e-06
0.0133448
6.59645e-06
0.0133609
1.38692e-05
0.0133934
1.90328e-05
0.0134372
2.23971e-05
0.0134883
2.42817e-05
0.0135433
2.49523e-05
0.0135996
2.46781e-05
0.0136549
2.36724e-05
0.0137078
2.21474e-05
0.013757
2.02593e-05
1.81617e-05
0.0138017
0.0158186
0.0148265
0.0137718
0.0127007
0.0116537
0.0106623
0.00974781
0.00892237
0.00819053
0.00755141
0.00700058
0.0065315
0.00613663
0.00580809
0.00553822
0.00531974
0.00514593
0.00501065
0.00490836
0.00483402
0.00478312
0.00475162
0.0047359
0.00473274
0.00473933
0.00475319
0.00477221
0.0047946
0.00481888
0.00484383
0.00486851
0.00489219
0.00491434
0.0049346
0.00495277
0.00511598
1.5996e-05
0.00510218
1.37802e-05
0.00509056
1.16048e-05
0.00508102
9.52194e-06
0.00507345
7.55886e-06
0.0050677
5.73118e-06
0.00506365
4.03466e-06
0.00506118
2.46056e-06
0.00506018
9.83837e-07
-4.20411e-07
0.00506059
0.0142359
5.5828e-05
0.014201
4.85686e-05
0.0141713
4.12938e-05
0.0141466
3.42072e-05
0.0141266
2.7438e-05
0.0141113
2.10527e-05
0.0141002
1.5067e-05
0.0140932
9.45314e-06
0.01409
4.14932e-06
-9.37099e-07
0.0140905
0.0223222
0.000110958
0.0222735
9.71399e-05
0.0222317
8.30866e-05
0.0221966
6.92401e-05
0.0221681
5.5889e-05
0.0221459
4.31942e-05
0.0221297
3.12081e-05
0.0221192
1.98951e-05
0.0221142
9.14408e-06
-1.21727e-06
0.0221144
0.0293716
0.000174138
0.0293154
0.00015327
0.0292666
0.000131762
0.0292254
0.000110356
0.0291917
8.95489e-05
0.0291652
6.96287e-05
0.0291457
5.07091e-05
0.0291328
3.27575e-05
0.0291262
1.56192e-05
-9.6396e-07
0.029126
0.0353825
0.000238885
0.0353245
0.000211232
0.0352738
0.000182383
0.0352307
0.000153412
0.0351951
0.000125051
0.035167
9.77383e-05
0.035146
7.16664e-05
0.0351319
4.68197e-05
0.0351244
2.30091e-05
-1.02668e-07
0.0351235
0.0403566
0.000299598
0.0403018
0.000265943
0.0402537
0.000230459
0.0402125
0.000194549
0.0401783
0.000159181
0.040151
0.000124952
0.0401305
9.21409e-05
0.0401165
6.07593e-05
0.0401089
3.05948e-05
1.24379e-06
0.0401075
0.0442981
0.000351661
0.0442509
0.000313109
0.0442092
0.00027211
0.0441733
0.000230362
0.0441434
0.000189046
0.0441194
0.000148903
0.0441012
0.000110295
0.0440887
7.32668e-05
0.0440817
3.7592e-05
2.81513e-06
0.0440801
0.0472141
0.000391482
0.0471779
0.000349313
0.0471457
0.000304195
0.047118
0.000258049
0.0470948
0.000212224
0.0470761
0.000167575
0.0470618
0.000124531
0.0470519
8.31676e-05
0.0470462
4.32514e-05
4.29176e-06
0.0470447
0.0491132
0.000416498
0.0490904
0.000372081
0.0490701
0.000324405
0.0490526
0.000275524
0.0490379
0.000226891
0.0490261
0.000179428
0.049017
0.000133611
0.0490106
8.95303e-05
0.0490069
4.69541e-05
5.37053e-06
0.0490058
0.0500047
0.000425158
0.0499968
0.000379905
0.0499899
0.000331325
0.0499839
0.000281502
0.0499789
0.000231913
0.0499748
0.000183499
0.0499716
0.000136748
0.0499694
9.1756e-05
0.049968
4.829e-05
5.83367e-06
0.0499676
0.049898
0.000416908
0.0499056
0.000372263
0.0499125
0.000324471
0.0499184
0.000275544
0.0499234
0.000226904
0.0499275
0.000179459
0.0499306
0.000133672
0.0499327
8.96333e-05
0.0499338
4.71089e-05
5.59169e-06
0.0499341
0.0488018
0.000392199
0.0488244
0.000349623
0.0488446
0.000304302
0.0488621
0.000258076
0.0488768
0.000212245
0.0488886
0.00016763
0.0488976
0.000124646
0.0489039
8.33595e-05
0.0489075
4.35393e-05
4.70252e-06
0.0489083
0.0467234
0.000352515
0.0467596
0.000313461
0.0467917
0.000272219
0.0468194
0.000230381
0.0468426
0.000189067
0.0468613
0.000148975
0.0468755
0.000110449
0.0468853
7.35221e-05
0.0468909
3.79741e-05
3.3578e-06
0.0468922
0.0436686
0.0003004
0.0437159
0.000266247
0.0437576
0.000230529
0.0437935
0.000194545
0.0438234
0.000159193
0.0438474
0.000125029
0.0438655
9.23106e-05
0.043878
6.10432e-05
0.043885
3.10177e-05
1.84228e-06
0.0438865
0.0396417
0.000239492
0.0396966
0.000211425
0.0397448
0.000182395
0.039786
0.000153382
0.0398201
0.000125051
0.0398474
9.78117e-05
0.0398679
7.18322e-05
0.0398819
4.70973e-05
0.0398895
2.34177e-05
4.73298e-07
0.0398909
0.0346452
0.000174492
0.0347033
0.000153337
0.034754
0.000131723
0.0347972
0.000110305
0.0348327
8.95434e-05
0.0348609
6.96897e-05
0.0348819
5.08542e-05
0.034896
3.29937e-05
0.0349035
1.5966e-05
-4.83009e-07
0.0349045
0.0286801
0.00011107
0.0287364
9.71072e-05
0.0287851
8.30074e-05
0.0288263
6.91791e-05
0.02886
5.58686e-05
0.0288865
4.32317e-05
0.0289061
3.13051e-05
0.0289191
2.006e-05
0.0289256
9.38364e-06
-8.83235e-07
0.0289261
0.0217461
5.58063e-05
0.0217948
4.84946e-05
0.0218366
4.12204e-05
0.0218717
3.4153e-05
0.0219002
2.7417e-05
0.0219224
2.10647e-05
0.0219386
1.51155e-05
0.0219491
9.53686e-06
0.0219542
4.27423e-06
-7.63935e-07
0.0219541
0.0138416
1.59558e-05
0.0138764
1.37417e-05
0.0139061
1.15724e-05
0.0139308
9.50412e-06
0.0139507
7.55165e-06
0.0139661
5.7381e-06
0.0139772
4.05058e-06
0.0139842
2.48913e-06
0.0139875
1.02169e-06
-3.67102e-07
0.0139871
0.00496873
0.00498248
0.00499406
0.00500357
0.00501112
0.00501687
0.00502092
0.00502341
0.00502444
0.00502407
0.00506237
-1.7917e-06
0.00506554
-3.16697e-06
0.00507013
-4.5978e-06
0.00507626
-6.13317e-06
0.00508409
-7.83865e-06
0.00509387
-9.77954e-06
0.00510591
-1.20419e-05
0.00512063
-1.47164e-05
0.00513855
-1.79218e-05
0.00516034
-2.17902e-05
0.00518683
-2.64931e-05
0.00521907
-3.22299e-05
0.00525833
-3.92577e-05
0.00530622
-4.7884e-05
0.00536473
-5.85031e-05
0.00543634
-7.15953e-05
0.00552412
-8.77709e-05
0.00563192
-0.000107779
0.00576449
-0.000132557
0.00592776
-0.000163248
0.00612903
-0.000201247
0.00637726
-0.000248198
0.00668329
-0.000306004
0.00706004
-0.000376729
0.00752253
-0.000462457
0.00808747
-0.000564922
0.00877245
-0.000684974
0.0095941
-0.000821649
0.010565
-0.000970959
0.0116894
-0.00112434
0.0129566
-0.00126724
0.0143351
-0.00137858
0.0157674
-0.00143235
0.0171706
-0.00140323
-0.00127645
0.0184471
0.0140946
-5.92269e-06
0.0141023
-1.09492e-05
0.0141139
-1.61797e-05
0.0141296
-2.18035e-05
0.0141498
-2.80363e-05
0.0141751
-3.51287e-05
0.0142064
-4.33712e-05
0.0142448
-5.31073e-05
0.0142916
-6.4744e-05
0.0143486
-7.8772e-05
0.0144179
-9.57845e-05
0.0145022
-0.000116507
0.0146048
-0.000141828
0.0147298
-0.000172845
0.0148822
-0.000210912
0.0150684
-0.000257705
0.0152959
-0.000315293
0.0155744
-0.000386224
0.0159155
-0.000473618
0.0163336
-0.000581256
0.0168461
-0.000713654
0.017474
-0.000876085
0.0182426
-0.0010745
0.0191812
-0.00131526
0.0203234
-0.00160458
0.021706
-0.00194744
0.0233669
-0.00234583
0.0253413
-0.00279609
0.0276555
-0.00328517
0.0303172
-0.00378611
0.0333035
-0.00425368
0.0365472
-0.00462237
0.0399257
-0.00481094
0.0432604
-0.00473797
-0.00435306
0.0463371
0.0221199
-1.14172e-05
0.0221306
-2.17323e-05
0.0221469
-3.24898e-05
0.0221692
-4.40672e-05
0.022198
-5.69016e-05
0.0222344
-7.14979e-05
0.0222795
-8.84467e-05
0.0223348
-0.000108442
0.0224024
-0.000132309
0.0224847
-0.000161038
0.0225847
-0.000195827
0.0227064
-0.00023813
0.0228543
-0.000289726
0.0230343
-0.000352798
0.0232534
-0.000430026
0.0235204
-0.000524703
0.0238461
-0.000640873
0.0242433
-0.000783473
0.0247283
-0.000958505
0.0253203
-0.00117318
0.0260427
-0.00143604
0.0269237
-0.00175696
0.0279963
-0.00214704
0.0292991
-0.00261804
0.030876
-0.00318138
0.0327749
-0.00384628
0.0350456
-0.0046166
0.0377356
-0.00548608
0.0408819
-0.00643162
0.0445004
-0.00740472
0.0485691
-0.00832252
0.0530087
-0.00906215
0.0576633
-0.00946563
0.0622924
-0.0093671
-0.0086525
0.0665919
0.0291319
-1.73401e-05
0.029144
-3.39404e-05
0.0291628
-5.12764e-05
0.0291887
-6.99448e-05
0.0292224
-9.06363e-05
0.0292651
-0.000114153
0.0293181
-0.000141432
0.0293832
-0.000173575
0.0294628
-0.000211891
0.0295597
-0.000257946
0.0296775
-0.000313628
0.0298206
-0.000381226
0.0299944
-0.000463525
0.0302056
-0.000563929
0.0304622
-0.000686597
0.0307742
-0.000836614
0.0311535
-0.00102019
0.0316149
-0.00124485
0.0321762
-0.00151973
0.0328588
-0.0018557
0.0336884
-0.00226562
0.0346959
-0.00276433
0.0359173
-0.00336844
0.0373951
-0.00409572
0.0391774
-0.00496365
0.041318
-0.00598695
0.0438746
-0.00717322
0.0469047
-0.00851621
0.0504588
-0.00998582
0.0545684
-0.0115145
0.059227
-0.0129813
0.0643623
-0.0141975
0.069803
-0.0149066
0.0752533
-0.0148175
-0.0137054
0.0803062
0.0351292
-2.29817e-05
0.0351414
-4.62127e-05
0.0351606
-7.04949e-05
0.0351873
-9.66479e-05
0.0352223
-0.000125624
0.0352667
-0.000158528
0.0353219
-0.000196655
0.0353898
-0.000241523
0.0354729
-0.000294935
0.035574
-0.000359042
0.0356968
-0.000436432
0.0358458
-0.000530228
0.0360266
-0.000644224
0.0362457
-0.000783028
0.0365114
-0.000952255
0.0368335
-0.00115874
0.0372242
-0.00141078
0.0376978
-0.00171842
0.0382719
-0.00209376
0.0389675
-0.00255122
0.0398097
-0.0031078
0.0408286
-0.00378315
0.0420596
-0.00459944
0.0435446
-0.00558066
0.0453322
-0.00675117
0.047478
-0.00813278
0.0500445
-0.00973976
0.0530987
-0.0115705
0.0567071
-0.0135944
0.0609248
-0.0157323
0.0657737
-0.0178304
0.0712063
-0.0196303
0.0770503
-0.0207507
0.082948
-0.0207154
-0.0190994
0.0883421
0.0401124
-2.78653e-05
0.0401236
-5.74566e-05
0.0401415
-8.8403e-05
0.0401666
-0.00012173
0.0401996
-0.000158634
0.0402416
-0.000200504
0.0402939
-0.000248963
0.0403583
-0.000305918
0.040437
-0.000373627
0.0405327
-0.000454779
0.0406489
-0.000552596
0.0407897
-0.000670962
0.04096
-0.000814571
0.0411662
-0.000989109
0.0414154
-0.00120148
0.0417168
-0.00146004
0.042081
-0.00177493
0.042521
-0.00215837
0.0430523
-0.00262503
0.0436935
-0.00319241
0.044467
-0.00388115
0.0453991
-0.00471525
0.0465218
-0.00572199
0.0478727
-0.00693154
0.0494971
-0.00837552
0.0514487
-0.0100844
0.053791
-0.0120821
0.0565978
-0.0143774
0.0599513
-0.0169478
0.0639338
-0.0197149
0.0686075
-0.0225042
0.0739687
-0.0249916
0.0798649
-0.0266472
0.0858737
-0.0267242
-0.0244358
0.09121
0.0440839
-3.17201e-05
0.0440933
-6.68547e-05
0.0441085
-0.000103606
0.0441299
-0.000143174
0.0441583
-0.00018696
0.0441944
-0.000236591
0.0442394
-0.000293968
0.0442948
-0.000361323
0.0443624
-0.000441289
0.0444447
-0.000536998
0.0445443
-0.000652195
0.0446647
-0.000791375
0.0448101
-0.000959957
0.0449855
-0.00116448
0.045197
-0.00141286
0.0454516
-0.00171466
0.0457582
-0.00208142
0.0461269
-0.00252703
0.0465701
-0.00306817
0.0471024
-0.00372469
0.0477414
-0.00452007
0.048508
-0.00548179
0.0494275
-0.00664143
0.0505306
-0.00803457
0.0518549
-0.0096998
0.0534472
-0.0116766
0.0553659
-0.0140008
0.0576844
-0.0166959
0.0604933
-0.0197568
0.0638981
-0.0231198
0.0680043
-0.0266105
0.0728712
-0.0298588
0.0784021
-0.0321786
0.0841341
-0.0324567
-0.0292681
0.0889662
0.0470474
-3.443e-05
0.0470544
-7.38395e-05
0.0470659
-0.000115062
0.0470821
-0.000159427
0.0471036
-0.000208486
0.0471311
-0.000264043
0.0471653
-0.000328202
0.0472074
-0.00040343
0.0472588
-0.000492631
0.047321
-0.000599254
0.0473963
-0.000727405
0.0474869
-0.000882007
0.047596
-0.00106897
0.0477269
-0.00129541
0.047884
-0.0015699
0.0480722
-0.00190279
0.0482973
-0.0023065
0.0485663
-0.00279601
0.0488874
-0.0033892
0.0492702
-0.00410742
0.0497261
-0.00497595
0.0502689
-0.0060245
0.0509151
-0.00728756
0.0516851
-0.00880452
0.0526046
-0.0106193
0.053707
-0.0127789
0.0550362
-0.0153301
0.056652
-0.0183117
0.0586356
-0.0217404
0.0610951
-0.0255794
0.0641636
-0.0296793
0.067968
-0.0336637
0.0725176
-0.036729
0.0773918
-0.0373314
-0.0329754
0.0810986
0.0490073
-3.59749e-05
0.0490115
-7.80587e-05
0.0490185
-0.000122069
0.0490285
-0.000169411
0.0490417
-0.000221725
0.0490586
-0.000280917
0.0490796
-0.000349205
0.0491054
-0.000429187
0.0491366
-0.000523915
0.0491744
-0.000637001
0.0492198
-0.000772742
0.049274
-0.000936265
0.0493388
-0.00113372
0.0494159
-0.00137247
0.0495074
-0.00166138
0.0496157
-0.00201109
0.0497437
-0.0024344
0.0498943
-0.00294662
0.0500712
-0.00356607
0.0502784
-0.00431455
0.0505204
-0.00521791
0.0508025
-0.00630654
0.0511309
-0.00761587
0.0515131
-0.00918669
0.0519588
-0.011065
0.0524809
-0.013301
0.0530976
-0.0159467
0.0538358
-0.01905
0.0547373
-0.0226419
0.0558671
-0.0267094
0.0573261
-0.0311385
0.0592555
-0.0355936
0.0617955
-0.0392696
0.0648076
-0.0403441
-0.0345825
0.0664148
0.049968
-3.63776e-05
0.0499692
-7.93332e-05
0.0499714
-0.000124238
0.0499745
-0.000172516
0.0499786
-0.000225827
0.0499838
-0.000286097
0.0499901
-0.000355566
0.0499978
-0.00043685
0.0500069
-0.000533017
0.0500176
-0.000647688
0.05003
-0.000785159
0.0500443
-0.000950542
0.0500605
-0.00114995
0.0500788
-0.00139068
0.0500989
-0.0016815
0.0501208
-0.00203289
0.0501438
-0.0024574
0.0501673
-0.00297006
0.05019
-0.00358873
0.0502101
-0.00433465
0.0502252
-0.00523292
0.0502316
-0.00631293
0.0502246
-0.00760883
0.0501977
-0.00915965
0.0501417
-0.011009
0.0500447
-0.0132039
0.0498896
-0.0157916
0.0496527
-0.0188132
0.049301
-0.0222902
0.0487898
-0.0261982
0.0480642
-0.0304132
0.0470699
-0.0345999
0.0457719
-0.0379721
0.0442382
-0.0388102