/*--------------------------------*- C++ -*----------------------------------*\
| =========                 |                                                 |
| \\      /  F ield         | OpenFOAM: The Open Source CFD Toolbox           |
|  \\    /   O peration     | Version:  2406                                  |
|   \\  /    A nd           | Website:  www.openfoam.com                      |
|    \\/     M anipulation  |                                                 |
\*---------------------------------------------------------------------------*/
FoamFile
{
    version     2.0;
    format      ascii;
    arch        "LSB;label=32;scalar=64";
    class       volVectorField;
    location    "21";
    object      U;
}
// * * * * * * * * * * * * * * * * * * * * * * * * * * * * * * * * * * * * * //

dimensions      [0 1 -1 0 0 0 0];

internalField   nonuniform List<vector> 
1800
(
(0.18671 -0.00112275 0)
(0.194524 -0.000820333 0)
(0.197956 -0.000747953 0)
(0.200478 -0.000789235 0)
(0.203734 -0.00101769 0)
(0.208356 -0.00160762 0)
(0.215418 -0.00292048 0)
(0.227593 -0.00608065 0)
(0.253702 -0.0176207 0)
(0.296716 -0.0698617 0)
(0.50245 -0.00353511 0)
(0.510215 -0.00493845 0)
(0.514705 -0.00486873 0)
(0.51852 -0.00558738 0)
(0.524151 -0.00737877 0)
(0.532195 -0.0108291 0)
(0.543742 -0.0173413 0)
(0.561016 -0.0298051 0)
(0.587859 -0.0549164 0)
(0.619772 -0.1097 0)
(0.742623 -0.0033484 0)
(0.749162 -0.00649801 0)
(0.752816 -0.00824714 0)
(0.755781 -0.0105707 0)
(0.760726 -0.0143289 0)
(0.767921 -0.020468 0)
(0.777636 -0.0306586 0)
(0.79033 -0.0477622 0)
(0.805673 -0.0766788 0)
(0.817737 -0.12475 0)
(0.902942 -0.00294267 0)
(0.908555 -0.0070596 0)
(0.910956 -0.0102946 0)
(0.91202 -0.0140699 0)
(0.914507 -0.0193535 0)
(0.918375 -0.0271733 0)
(0.923156 -0.0390185 0)
(0.928163 -0.0569801 0)
(0.931656 -0.0837008 0)
(0.928924 -0.121298 0)
(0.983053 -0.00248182 0)
(0.987875 -0.00665481 0)
(0.98891 -0.0105539 0)
(0.987803 -0.0150438 0)
(0.987305 -0.0209167 0)
(0.987163 -0.0290572 0)
(0.986486 -0.0405688 0)
(0.984139 -0.0567326 0)
(0.978244 -0.0787207 0)
(0.965534 -0.106699 0)
(0.98298 -0.00172443 0)
(0.98715 -0.00521697 0)
(0.986941 -0.00904353 0)
(0.983956 -0.0134781 0)
(0.980863 -0.019019 0)
(0.977246 -0.0263248 0)
(0.972057 -0.0361162 0)
(0.96411 -0.0490806 0)
(0.951815 -0.0656276 0)
(0.933027 -0.0853394 0)
(0.902738 -0.000558872 0)
(0.906561 -0.0028943 0)
(0.905551 -0.00619718 0)
(0.901456 -0.0100079 0)
(0.896766 -0.0145267 0)
(0.890943 -0.0202104 0)
(0.882952 -0.0274861 0)
(0.871753 -0.0366797 0)
(0.856143 -0.0478689 0)
(0.834767 -0.0605898 0)
(0.742346 0.00107318 0)
(0.746477 -0.000128627 0)
(0.745528 -0.00283807 0)
(0.74148 -0.00571526 0)
(0.736555 -0.00881308 0)
(0.730182 -0.0124763 0)
(0.721494 -0.0169541 0)
(0.709697 -0.0223881 0)
(0.69397 -0.0287591 0)
(0.673507 -0.0357518 0)
(0.502222 0.00257624 0)
(0.507853 0.00193758 0)
(0.508115 -0.000252619 0)
(0.505382 -0.00200482 0)
(0.50166 -0.00358352 0)
(0.496534 -0.0052801 0)
(0.489448 -0.00723076 0)
(0.47993 -0.00949774 0)
(0.467502 -0.0120715 0)
(0.451743 -0.0148182 0)
(0.186667 0.00103095 0)
(0.19359 0.000449861 0)
(0.195012 0.000120609 0)
(0.194329 -0.000130152 0)
(0.19292 -0.000343361 0)
(0.190746 -0.000538706 0)
(0.18763 -0.000755323 0)
(0.183422 -0.000996383 0)
(0.177967 -0.00125292 0)
(0.171134 -0.00151103 0)
(-0.000492434 0.000482033 0)
(-0.00245591 0.000727764 0)
(-0.00440775 0.000601711 0)
(-0.00538694 0.000296101 0)
(-0.004839 -4.93437e-05 0)
(-0.00272616 -0.000365717 0)
(0.000724752 -0.000616674 0)
(0.00517544 -0.000789551 0)
(0.0102631 -0.00088712 0)
(0.0156509 -0.000920232 0)
(0.0210542 -0.000902709 0)
(0.0262506 -0.000848626 0)
(0.03108 -0.000770605 0)
(0.0354383 -0.000679294 0)
(0.0392692 -0.000582938 0)
(0.0425542 -0.000487707 0)
(0.0453034 -0.000397731 0)
(0.0475472 -0.000315665 0)
(0.0493295 -0.000242839 0)
(0.0507015 -0.000179778 0)
(0.0517176 -0.000126297 0)
(0.052432 -8.18917e-05 0)
(0.0528964 -4.57507e-05 0)
(0.0531585 -1.7013e-05 0)
(0.0532613 5.27235e-06 0)
(0.0532423 2.19832e-05 0)
(0.0531338 3.39917e-05 0)
(0.052963 4.20588e-05 0)
(0.0527521 4.69074e-05 0)
(0.052519 4.9144e-05 0)
(0.0522779 4.93344e-05 0)
(0.0520393 4.79365e-05 0)
(0.0518113 4.53765e-05 0)
(0.0515991 4.19812e-05 0)
(0.0514064 3.80579e-05 0)
(-0.000833125 0.00250757 0)
(-0.00430699 0.00385695 0)
(-0.00702653 0.00270224 0)
(-0.00726494 0.000147974 0)
(-0.00409913 -0.00283252 0)
(0.00245011 -0.00561281 0)
(0.0118618 -0.00785367 0)
(0.0233933 -0.00942316 0)
(0.0362553 -0.0103208 0)
(0.0497157 -0.0106206 0)
(0.0631532 -0.0104316 0)
(0.0760786 -0.00987258 0)
(0.0881342 -0.00905687 0)
(0.0990825 -0.00808408 0)
(0.108789 -0.00703659 0)
(0.117202 -0.00597891 0)
(0.124334 -0.00495879 0)
(0.130247 -0.00400924 0)
(0.135032 -0.00315098 0)
(0.138803 -0.00239491 0)
(0.14168 -0.00174439 0)
(0.143788 -0.0011973 0)
(0.145249 -0.000747692 0)
(0.146176 -0.000387181 0)
(0.146674 -0.000106042 0)
(0.146835 0.000105999 0)
(0.14674 0.000259158 0)
(0.146459 0.00036321 0)
(0.146049 0.000427168 0)
(0.145559 0.000459176 0)
(0.145026 0.000466377 0)
(0.144481 0.000454958 0)
(0.143947 0.000430117 0)
(0.143439 0.000396178 0)
(0.14297 0.000356604 0)
(-0.000922028 0.0050426 0)
(-0.0043397 0.0070149 0)
(-0.00571199 0.00359988 0)
(-0.00319472 -0.00264391 0)
(0.00400009 -0.00964672 0)
(0.015573 -0.0160661 0)
(0.0306946 -0.0211801 0)
(0.0483303 -0.0247152 0)
(0.0674399 -0.0266852 0)
(0.0870874 -0.0272669 0)
(0.106493 -0.0267125 0)
(0.125051 -0.0252943 0)
(0.142319 -0.0232715 0)
(0.158007 -0.0208726 0)
(0.171952 -0.0182881 0)
(0.184092 -0.0156687 0)
(0.19445 -0.013128 0)
(0.203106 -0.0107462 0)
(0.210182 -0.00857555 0)
(0.215827 -0.00664543 0)
(0.220206 -0.00496748 0)
(0.223485 -0.00353992 0)
(0.225829 -0.00235137 0)
(0.227394 -0.00138405 0)
(0.228326 -0.000616268 0)
(0.228753 -2.44287e-05 0)
(0.228791 0.000415523 0)
(0.228538 0.000726991 0)
(0.228079 0.000932023 0)
(0.227484 0.00105076 0)
(0.22681 0.00110124 0)
(0.2261 0.00109921 0)
(0.22539 0.00105821 0)
(0.224706 0.000989562 0)
(0.224066 0.000902595 0)
(-0.000940314 0.00743825 0)
(-0.00323127 0.00882199 0)
(-0.00160331 0.00164282 0)
(0.00545101 -0.00961343 0)
(0.018103 -0.0215929 0)
(0.0355034 -0.0322268 0)
(0.0564295 -0.0404688 0)
(0.0796027 -0.0459799 0)
(0.103853 -0.048858 0)
(0.128193 -0.0494377 0)
(0.151836 -0.0481555 0)
(0.17419 -0.0454668 0)
(0.194843 -0.0417985 0)
(0.213532 -0.0375244 0)
(0.230122 -0.0329553 0)
(0.244579 -0.028338 0)
(0.256949 -0.0238593 0)
(0.267337 -0.0196529 0)
(0.275886 -0.015807 0)
(0.282767 -0.0123729 0)
(0.288167 -0.00937217 0)
(0.292275 -0.00680415 0)
(0.295277 -0.00465166 0)
(0.297351 -0.00288621 0)
(0.298662 -0.00147221 0)
(0.299359 -0.000370173 0)
(0.299576 0.000460601 0)
(0.299428 0.00106025 0)
(0.299016 0.0014669 0)
(0.298422 0.00171579 0)
(0.297715 0.00183868 0)
(0.29695 0.00186361 0)
(0.296169 0.00181475 0)
(0.295405 0.00171261 0)
(0.294682 0.0015741 0)
(-0.000940224 0.00914377 0)
(-0.0010749 0.00786957 0)
(0.00537864 -0.00497787 0)
(0.0189497 -0.0224131 0)
(0.0386119 -0.0397734 0)
(0.0627031 -0.0544672 0)
(0.0895644 -0.0653555 0)
(0.117755 -0.0722161 0)
(0.146111 -0.0753506 0)
(0.173743 -0.0753186 0)
(0.199996 -0.0727711 0)
(0.224416 -0.0683538 0)
(0.246713 -0.0626557 0)
(0.266726 -0.0561849 0)
(0.284402 -0.0493605 0)
(0.299767 -0.0425141 0)
(0.312911 -0.0358968 0)
(0.323967 -0.0296883 0)
(0.3331 -0.0240082 0)
(0.340494 -0.0189261 0)
(0.346343 -0.0144719 0)
(0.350842 -0.010645 0)
(0.354182 -0.00742176 0)
(0.356542 -0.00476297 0)
(0.358093 -0.00261888 0)
(0.358986 -0.000933932 0)
(0.35936 0.000349677 0)
(0.359335 0.00128932 0)
(0.359014 0.00193998 0)
(0.358485 0.00235279 0)
(0.357821 0.00257421 0)
(0.35708 0.00264548 0)
(0.35631 0.00260247 0)
(0.355546 0.00247573 0)
(0.354814 0.00229069 0)
(-0.000801073 0.00964984 0)
(0.00287477 0.00252624 0)
(0.01675 -0.0184023 0)
(0.0392935 -0.0429423 0)
(0.0675813 -0.0654223 0)
(0.0990021 -0.0832397 0)
(0.131588 -0.0955722 0)
(0.163936 -0.102575 0)
(0.195091 -0.104892 0)
(0.224428 -0.103366 0)
(0.25156 -0.0988686 0)
(0.276273 -0.0922188 0)
(0.298474 -0.0841386 0)
(0.318159 -0.0752386 0)
(0.335391 -0.0660163 0)
(0.350281 -0.0568622 0)
(0.362973 -0.0480702 0)
(0.373635 -0.0398499 0)
(0.382449 -0.0323398 0)
(0.389605 -0.0256195 0)
(0.395292 -0.0197216 0)
(0.399698 -0.0146424 0)
(0.403003 -0.0103506 0)
(0.405375 -0.00679575 0)
(0.406973 -0.00391446 0)
(0.407937 -0.00163595 0)
(0.408398 0.000113653 0)
(0.408466 0.00140796 0)
(0.408242 0.00231785 0)
(0.407806 0.00290965 0)
(0.40723 0.00324389 0)
(0.40657 0.00337466 0)
(0.405872 0.00334924 0)
(0.40517 0.00320813 0)
(0.404491 0.00298525 0)
(-0.000159925 0.00827623 0)
(0.0108086 -0.00975102 0)
(0.0361522 -0.0415741 0)
(0.0706072 -0.0733479 0)
(0.108761 -0.0995443 0)
(0.147354 -0.118519 0)
(0.18458 -0.130319 0)
(0.219463 -0.13574 0)
(0.251521 -0.13586 0)
(0.280571 -0.131805 0)
(0.306605 -0.124633 0)
(0.329714 -0.115282 0)
(0.350044 -0.104553 0)
(0.367769 -0.0931117 0)
(0.383083 -0.0814899 0)
(0.396182 -0.0701016 0)
(0.407267 -0.0592552 0)
(0.416534 -0.0491678 0)
(0.424176 -0.0399803 0)
(0.430377 -0.0317707 0)
(0.435313 -0.0245666 0)
(0.439151 -0.0183563 0)
(0.442046 -0.013099 0)
(0.444143 -0.0087325 0)
(0.445575 -0.00518061 0)
(0.446463 -0.00235894 0)
(0.446914 -0.000179598 0)
(0.447023 0.00144507 0)
(0.446874 0.00259969 0)
(0.446536 0.00336366 0)
(0.446071 0.00380982 0)
(0.445527 0.00400351 0)
(0.444943 0.00400211 0)
(0.444351 0.003855 0)
(0.443774 0.00360374 0)
(0.00195486 0.00246506 0)
(0.0280281 -0.0343337 0)
(0.0708538 -0.0788717 0)
(0.119807 -0.115691 0)
(0.167476 -0.142224 0)
(0.211276 -0.159109 0)
(0.250509 -0.167708 0)
(0.285133 -0.169524 0)
(0.315395 -0.166006 0)
(0.341664 -0.158458 0)
(0.36435 -0.148021 0)
(0.383852 -0.135666 0)
(0.400541 -0.122201 0)
(0.414755 -0.108283 0)
(0.426793 -0.0944327 0)
(0.436926 -0.0810494 0)
(0.445389 -0.0684251 0)
(0.452394 -0.0567613 0)
(0.458129 -0.046184 0)
(0.462759 -0.0367573 0)
(0.466434 -0.0284958 0)
(0.469288 -0.0213755 0)
(0.471443 -0.0153434 0)
(0.473008 -0.0103258 0)
(0.47408 -0.00623496 0)
(0.474749 -0.00297518 0)
(0.475094 -0.00044733 0)
(0.475183 0.00144717 0)
(0.475077 0.00280352 0)
(0.474829 0.00371123 0)
(0.474483 0.00425261 0)
(0.474074 0.00450173 0)
(0.473634 0.00452392 0)
(0.473186 0.00437557 0)
(0.472747 0.00410433 0)
(0.0146816 -0.0242377 0)
(0.0693036 -0.0848398 0)
(0.13499 -0.136114 0)
(0.197058 -0.170361 0)
(0.249701 -0.191127 0)
(0.293556 -0.201642 0)
(0.330021 -0.204207 0)
(0.360265 -0.200622 0)
(0.385269 -0.192384 0)
(0.405884 -0.180761 0)
(0.422844 -0.166826 0)
(0.436771 -0.151479 0)
(0.448187 -0.135461 0)
(0.457529 -0.119368 0)
(0.46516 -0.103664 0)
(0.471378 -0.0886995 0)
(0.476428 -0.0747258 0)
(0.480509 -0.0619089 0)
(0.483785 -0.0503458 0)
(0.486388 -0.0400767 0)
(0.488428 -0.0310967 0)
(0.489995 -0.0233661 0)
(0.491166 -0.0168188 0)
(0.492006 -0.0113701 0)
(0.492572 -0.00692293 0)
(0.492915 -0.00337309 0)
(0.493076 -0.000613782 0)
(0.493095 0.00146077 0)
(0.493005 0.00295252 0)
(0.492835 0.00395736 0)
(0.492609 0.00456361 0)
(0.492348 0.00485093 0)
(0.49207 0.00488973 0)
(0.491788 0.00474101 0)
(0.491512 0.00445645 0)
(0.0954991 -0.0981085 0)
(0.1787 -0.172034 0)
(0.253317 -0.209725 0)
(0.313422 -0.229534 0)
(0.358851 -0.238354 0)
(0.393672 -0.239366 0)
(0.420676 -0.234369 0)
(0.441572 -0.224719 0)
(0.457591 -0.211591 0)
(0.469725 -0.19602 0)
(0.478795 -0.178906 0)
(0.485479 -0.16101 0)
(0.490331 -0.14296 0)
(0.493796 -0.125257 0)
(0.496233 -0.108282 0)
(0.497918 -0.0923178 0)
(0.499066 -0.077557 0)
(0.499835 -0.064119 0)
(0.500343 -0.052063 0)
(0.50067 -0.0413998 0)
(0.500875 -0.032102 0)
(0.500995 -0.0241129 0)
(0.501056 -0.0173543 0)
(0.501073 -0.0117324 0)
(0.501058 -0.00714365 0)
(0.501017 -0.00347903 0)
(0.500957 -0.000628064 0)
(0.50088 0.00151796 0)
(0.500791 0.00306355 0)
(0.500693 0.0041069 0)
(0.500589 0.00473846 0)
(0.500484 0.00503997 0)
(0.500378 0.00508376 0)
(0.500276 0.00493263 0)
(0.500179 0.00463991 0)
(0.393577 -0.203219 0)
(0.412463 -0.245965 0)
(0.43833 -0.263722 0)
(0.465858 -0.270482 0)
(0.487717 -0.269635 0)
(0.503764 -0.263017 0)
(0.515025 -0.251927 0)
(0.522324 -0.237427 0)
(0.5264 -0.220476 0)
(0.527967 -0.201938 0)
(0.527674 -0.18257 0)
(0.52608 -0.163011 0)
(0.52365 -0.143776 0)
(0.520755 -0.125268 0)
(0.517677 -0.107784 0)
(0.514628 -0.0915309 0)
(0.511752 -0.0766412 0)
(0.50914 -0.063184 0)
(0.506845 -0.051179 0)
(0.504883 -0.0406074 0)
(0.503252 -0.03142 0)
(0.501929 -0.0235454 0)
(0.500886 -0.0168956 0)
(0.500088 -0.0113714 0)
(0.499498 -0.00686635 0)
(0.499081 -0.00327105 0)
(0.498803 -0.000475699 0)
(0.498636 0.00162697 0)
(0.498553 0.00313963 0)
(0.498532 0.00415861 0)
(0.498557 0.00477261 0)
(0.498612 0.0050618 0)
(0.498685 0.00509719 0)
(0.498768 0.00494051 0)
(0.498855 0.00464426 0)
(0.639784 -0.201434 0)
(0.628668 -0.251467 0)
(0.61987 -0.272833 0)
(0.615947 -0.279244 0)
(0.612216 -0.276277 0)
(0.60717 -0.26687 0)
(0.60068 -0.252994 0)
(0.592843 -0.236072 0)
(0.583908 -0.217202 0)
(0.574233 -0.197273 0)
(0.564212 -0.177009 0)
(0.554212 -0.156981 0)
(0.54454 -0.13763 0)
(0.535436 -0.119279 0)
(0.527069 -0.102151 0)
(0.519546 -0.0863876 0)
(0.512918 -0.0720654 0)
(0.507192 -0.0592086 0)
(0.502342 -0.0478026 0)
(0.498315 -0.0378034 0)
(0.495041 -0.0291448 0)
(0.492441 -0.0217449 0)
(0.490431 -0.0155108 0)
(0.488928 -0.0103421 0)
(0.487849 -0.00613466 0)
(0.487122 -0.0027828 0)
(0.486677 -0.000181997 0)
(0.486455 0.00176917 0)
(0.486402 0.00316739 0)
(0.486475 0.00410314 0)
(0.486637 0.00465967 0)
(0.486856 0.00491216 0)
(0.487108 0.00492728 0)
(0.487375 0.00476296 0)
(0.487642 0.0044685 0)
(0.813 -0.187684 0)
(0.788556 -0.231529 0)
(0.760559 -0.254389 0)
(0.734789 -0.262637 0)
(0.710599 -0.260687 0)
(0.687331 -0.251589 0)
(0.664834 -0.237663 0)
(0.643073 -0.220648 0)
(0.622107 -0.201842 0)
(0.602091 -0.182226 0)
(0.583219 -0.16254 0)
(0.565677 -0.143332 0)
(0.549611 -0.124993 0)
(0.535115 -0.10779 0)
(0.52223 -0.0918863 0)
(0.510946 -0.0773731 0)
(0.501215 -0.0642821 0)
(0.492952 -0.0526035 0)
(0.486052 -0.0422972 0)
(0.480393 -0.0333022 0)
(0.475843 -0.0255424 0)
(0.472268 -0.018932 0)
(0.469536 -0.0133787 0)
(0.467522 -0.0087867 0)
(0.466108 -0.00505843 0)
(0.465184 -0.00209686 0)
(0.464656 0.000193115 0)
(0.464436 0.00190309 0)
(0.464452 0.00312005 0)
(0.46464 0.00392515 0)
(0.464947 0.00439295 0)
(0.465331 0.00459072 0)
(0.465756 0.00457813 0)
(0.466196 0.00440698 0)
(0.46663 0.00412138 0)
(0.912378 -0.165249 0)
(0.881281 -0.199928 0)
(0.843861 -0.220697 0)
(0.805537 -0.22944 0)
(0.767947 -0.228798 0)
(0.731699 -0.221204 0)
(0.697196 -0.208806 0)
(0.664677 -0.193358 0)
(0.634296 -0.176212 0)
(0.606177 -0.158377 0)
(0.580419 -0.140589 0)
(0.557085 -0.123368 0)
(0.536192 -0.107062 0)
(0.517705 -0.0918904 0)
(0.501545 -0.0779747 0)
(0.487597 -0.0653657 0)
(0.475718 -0.054065 0)
(0.465743 -0.0440406 0)
(0.457496 -0.0352381 0)
(0.450795 -0.0275889 0)
(0.445457 -0.0210154 0)
(0.441306 -0.0154349 0)
(0.438173 -0.0107622 0)
(0.435899 -0.00691071 0)
(0.43434 -0.00379451 0)
(0.433363 -0.00132901 0)
(0.432851 0.000567787 0)
(0.432701 0.00197445 0)
(0.432825 0.00296521 0)
(0.433147 0.00360921 0)
(0.433603 0.00396979 0)
(0.434143 0.00410411 0)
(0.434725 0.00406275 0)
(0.435316 0.00388966 0)
(0.435892 0.00362217 0)
(0.941976 -0.137357 0)
(0.907253 -0.162887 0)
(0.865684 -0.179421 0)
(0.821384 -0.186987 0)
(0.776709 -0.186932 0)
(0.733065 -0.18094 0)
(0.691391 -0.170718 0)
(0.652281 -0.157781 0)
(0.616085 -0.143351 0)
(0.58299 -0.128351 0)
(0.553078 -0.11345 0)
(0.526343 -0.0991043 0)
(0.502711 -0.0856093 0)
(0.482051 -0.0731375 0)
(0.464194 -0.0617735 0)
(0.448938 -0.0515408 0)
(0.436069 -0.0424226 0)
(0.425361 -0.0343763 0)
(0.416585 -0.0273441 0)
(0.409518 -0.0212591 0)
(0.403945 -0.0160502 0)
(0.39966 -0.0116446 0)
(0.396474 -0.00796904 0)
(0.394208 -0.00495109 0)
(0.392703 -0.00251984 0)
(0.391815 -0.000606263 0)
(0.391417 0.000855961 0)
(0.391396 0.00193011 0)
(0.391658 0.00267568 0)
(0.39212 0.00314801 0)
(0.392716 0.00339767 0)
(0.39339 0.00347024 0)
(0.394098 0.00340599 0)
(0.394806 0.00323991 0)
(0.395488 0.00300164 0)
(0.905616 -0.105995 0)
(0.869507 -0.123486 0)
(0.827158 -0.135207 0)
(0.781525 -0.140694 0)
(0.734911 -0.140589 0)
(0.689001 -0.135978 0)
(0.645013 -0.128093 0)
(0.603768 -0.11809 0)
(0.56576 -0.106937 0)
(0.531244 -0.0953772 0)
(0.500302 -0.0839449 0)
(0.472891 -0.0730003 0)
(0.44888 -0.062767 0)
(0.428078 -0.0533683 0)
(0.410253 -0.0448563 0)
(0.395157 -0.037236 0)
(0.382528 -0.0304819 0)
(0.372109 -0.0245514 0)
(0.363645 -0.0193916 0)
(0.356896 -0.0149457 0)
(0.351634 -0.0111551 0)
(0.347645 -0.0079616 0)
(0.344734 -0.00530814 0)
(0.342721 -0.00313929 0)
(0.341446 -0.0014012 0)
(0.340765 -4.22835e-05 0)
(0.340552 0.000987015 0)
(0.340695 0.00173353 0)
(0.3411 0.00224138 0)
(0.341688 0.00255127 0)
(0.342392 0.00270058 0)
(0.343159 0.00272272 0)
(0.343947 0.00264738 0)
(0.344721 0.0025001 0)
(0.345459 0.00230269 0)
(0.806531 -0.0734604 0)
(0.771562 -0.084303 0)
(0.731445 -0.0915732 0)
(0.688328 -0.0948544 0)
(0.644191 -0.0944658 0)
(0.600652 -0.0910822 0)
(0.558944 -0.0855108 0)
(0.519924 -0.078535 0)
(0.484118 -0.0708208 0)
(0.451786 -0.0628814 0)
(0.422996 -0.0550834 0)
(0.397678 -0.0476685 0)
(0.375669 -0.0407819 0)
(0.356748 -0.0344975 0)
(0.340663 -0.0288409 0)
(0.327147 -0.0238056 0)
(0.315934 -0.0193663 0)
(0.306762 -0.015487 0)
(0.299384 -0.0121272 0)
(0.293566 -0.00924445 0)
(0.289091 -0.00679687 0)
(0.28576 -0.00474358 0)
(0.28339 -0.00304544 0)
(0.281817 -0.0016647 0)
(0.280893 -0.000565404 0)
(0.280488 0.000286973 0)
(0.280485 0.000925142 0)
(0.280787 0.00138018 0)
(0.281307 0.00168105 0)
(0.281974 0.00185464 0)
(0.28273 0.00192538 0)
(0.283526 0.00191533 0)
(0.284327 0.00184378 0)
(0.285102 0.00172757 0)
(0.285831 0.00158077 0)
(0.647802 -0.0426159 0)
(0.61712 -0.0482825 0)
(0.5826 -0.051969 0)
(0.545824 -0.0534497 0)
(0.508361 -0.0529033 0)
(0.471556 -0.0507151 0)
(0.436451 -0.0473445 0)
(0.403773 -0.0432371 0)
(0.373959 -0.0387688 0)
(0.347211 -0.0342264 0)
(0.323559 -0.0298107 0)
(0.302909 -0.02565 0)
(0.285091 -0.0218174 0)
(0.26989 -0.0183461 0)
(0.257067 -0.0152427 0)
(0.246379 -0.0124971 0)
(0.237589 -0.01009 0)
(0.230468 -0.00799724 0)
(0.224802 -0.00619324 0)
(0.220394 -0.00465238 0)
(0.217063 -0.00335003 0)
(0.214642 -0.00226272 0)
(0.212982 -0.00136831 0)
(0.211947 -0.000645751 0)
(0.211418 -7.51309e-05 0)
(0.211288 0.000362509 0)
(0.211465 0.000685134 0)
(0.211869 0.000909708 0)
(0.212431 0.00105206 0)
(0.213095 0.00112684 0)
(0.213814 0.00114738 0)
(0.214551 0.00112565 0)
(0.215277 0.00107216 0)
(0.21597 0.000995992 0)
(0.216615 0.000904784 0)
(0.43247 -0.0174363 0)
(0.409983 -0.0195165 0)
(0.385092 -0.0207707 0)
(0.35888 -0.021134 0)
(0.332428 -0.0207034 0)
(0.306663 -0.0196512 0)
(0.282291 -0.0181707 0)
(0.259789 -0.0164417 0)
(0.239426 -0.0146114 0)
(0.221308 -0.0127879 0)
(0.205418 -0.0110436 0)
(0.191658 -0.00942231 0)
(0.179883 -0.00794615 0)
(0.16992 -0.00662277 0)
(0.161587 -0.0054501 0)
(0.154705 -0.00442094 0)
(0.1491 -0.00352498 0)
(0.144611 -0.00275129 0)
(0.141088 -0.00208854 0)
(0.138394 -0.00152627 0)
(0.136404 -0.00105435 0)
(0.135008 -0.000663653 0)
(0.134102 -0.000345374 0)
(0.133598 -9.14904e-05 0)
(0.133415 0.000105794 0)
(0.133482 0.00025369 0)
(0.133738 0.0003592 0)
(0.13413 0.000428765 0)
(0.134614 0.00046853 0)
(0.135152 0.000484027 0)
(0.135714 0.000480401 0)
(0.136276 0.000462119 0)
(0.136821 0.000433207 0)
(0.137333 0.000396972 0)
(0.137804 0.000356308 0)
(0.162898 -0.00174075 0)
(0.153429 -0.00189836 0)
(0.143098 -0.00195913 0)
(0.132371 -0.001928 0)
(0.121697 -0.00182509 0)
(0.111442 -0.0016738 0)
(0.101871 -0.0014959 0)
(0.0931497 -0.00130934 0)
(0.0853561 -0.00112695 0)
(0.0785048 -0.000956672 0)
(0.0725656 -0.000802586 0)
(0.0674806 -0.000666177 0)
(0.0631774 -0.000547263 0)
(0.0595774 -0.000444737 0)
(0.0566021 -0.000357 0)
(0.0541762 -0.000282302 0)
(0.0522295 -0.000218925 0)
(0.0506976 -0.000165303 0)
(0.0495221 -0.000120077 0)
(0.0486501 -8.20945e-05 0)
(0.048034 -5.04036e-05 0)
(0.0476311 -2.4209e-05 0)
(0.0474031 -2.85447e-06 0)
(0.0473159 1.42272e-05 0)
(0.0473393 2.75244e-05 0)
(0.047447 3.74872e-05 0)
(0.0476161 4.45222e-05 0)
(0.0478271 4.90206e-05 0)
(0.0480637 5.13457e-05 0)
(0.0483124 5.18526e-05 0)
(0.0485626 5.08696e-05 0)
(0.0488059 4.87113e-05 0)
(0.0490361 4.56594e-05 0)
(0.0492489 4.19738e-05 0)
(0.0494415 3.78762e-05 0)
(0.0512351 3.38215e-05 0)
(0.051086 2.94804e-05 0)
(0.050959 2.51561e-05 0)
(0.0508534 2.09769e-05 0)
(0.0507681 1.69893e-05 0)
(0.0507018 1.326e-05 0)
(0.050653 9.77802e-06 0)
(0.0506207 6.56391e-06 0)
(0.0506035 3.56465e-06 0)
(0.0506007 7.67517e-07 0)
(0.142547 0.000314142 0)
(0.142173 0.00027085 0)
(0.14185 0.000228243 0)
(0.141578 0.000187323 0)
(0.141355 0.000148709 0)
(0.141179 0.000112658 0)
(0.141048 7.91736e-05 0)
(0.140958 4.80138e-05 0)
(0.140907 1.87709e-05 0)
(0.140894 -9.12869e-06 0)
(0.223482 0.000804739 0)
(0.222962 0.000701787 0)
(0.22251 0.000598033 0)
(0.222125 0.000496525 0)
(0.221808 0.000399205 0)
(0.221555 0.000307126 0)
(0.221364 0.00022056 0)
(0.221231 0.000139176 0)
(0.221154 6.21011e-05 0)
(0.22113 -1.19506e-05 0)
(0.294016 0.0014129 0)
(0.293417 0.00123969 0)
(0.292892 0.00106257 0)
(0.292442 0.000887313 0)
(0.292068 0.000717761 0)
(0.291768 0.000556069 0)
(0.291538 0.000403022 0)
(0.291376 0.000258231 0)
(0.29128 0.000120358 0)
(0.291246 -1.27647e-05 0)
(0.354134 0.00206802 0)
(0.353518 0.00182403 0)
(0.352973 0.00157118 0)
(0.352504 0.0013185 0)
(0.352111 0.00107208 0)
(0.351793 0.000835529 0)
(0.351548 0.000610331 0)
(0.351373 0.000396216 0)
(0.351265 0.000191432 0)
(0.351224 -7.01828e-06 0)
(0.403856 0.00270833 0)
(0.403276 0.00239941 0)
(0.40276 0.00207545 0)
(0.402313 0.00174888 0)
(0.401937 0.00142822 0)
(0.40163 0.00111865 0)
(0.401391 0.000822534 0)
(0.401219 0.000539823 0)
(0.401112 0.000268487 0)
(0.401067 4.78242e-06 0)
(0.443231 0.00328249 0)
(0.442732 0.00291854 0)
(0.442286 0.00253303 0)
(0.441898 0.0021416 0)
(0.441569 0.00175508 0)
(0.4413 0.00138022 0)
(0.441089 0.00102025 0)
(0.440936 0.000675444 0)
(0.440839 0.000343599 0)
(0.440796 2.03801e-05 0)
(0.472332 0.00374954 0)
(0.47195 0.00334278 0)
(0.471608 0.00290862 0)
(0.471308 0.00246535 0)
(0.471053 0.00202578 0)
(0.470844 0.00159798 0)
(0.470679 0.00118596 0)
(0.470558 0.000790343 0)
(0.470481 0.000408823 0)
(0.470445 3.66329e-05 0)
(0.491252 0.00407883 0)
(0.491012 0.00364264 0)
(0.490796 0.00317482 0)
(0.490607 0.00269549 0)
(0.490446 0.00221883 0)
(0.490313 0.00175388 0)
(0.490208 0.00130523 0)
(0.490131 0.00087374 0)
(0.490081 0.000457091 0)
(0.490057 5.0235e-05 0)
(0.500088 0.00424983 0)
(0.500005 0.00379817 0)
(0.499931 0.00331289 0)
(0.499867 0.00281497 0)
(0.499811 0.00231925 0)
(0.499766 0.0018352 0)
(0.49973 0.00136772 0)
(0.499703 0.000917786 0)
(0.499685 0.000483077 0)
(0.499676 5.8423e-05 0)
(0.49894 0.00425205 0)
(0.49902 0.00379917 0)
(0.499093 0.00331326 0)
(0.499157 0.00281509 0)
(0.499212 0.00231933 0)
(0.499257 0.00183536 0)
(0.499293 0.00136804 0)
(0.499318 0.000918317 0)
(0.499335 0.000483877 0)
(0.499342 5.9565e-05 0)
(0.487899 0.00408491 0)
(0.488137 0.00364535 0)
(0.488352 0.00317581 0)
(0.48854 0.00269578 0)
(0.488701 0.00221904 0)
(0.488834 0.00175433 0)
(0.488938 0.00130614 0)
(0.489014 0.000875259 0)
(0.489063 0.000459375 0)
(0.489086 5.34966e-05 0)
(0.467043 0.00375798 0)
(0.467424 0.00334641 0)
(0.467767 0.00290985 0)
(0.468066 0.00246566 0)
(0.468321 0.00202602 0)
(0.46853 0.00159865 0)
(0.468694 0.00118734 0)
(0.468814 0.000792645 0)
(0.468891 0.000412268 0)
(0.468926 4.1551e-05 0)
(0.436436 0.00329132 0)
(0.436935 0.0029221 0)
(0.437381 0.00253406 0)
(0.43777 0.00214172 0)
(0.438099 0.00175527 0)
(0.438368 0.00138098 0)
(0.438578 0.00102191 0)
(0.438731 0.000678205 0)
(0.438828 0.00034774 0)
(0.438871 2.62504e-05 0)
(0.396126 0.00271578 0)
(0.396707 0.00240209 0)
(0.397223 0.00207596 0)
(0.397671 0.00174874 0)
(0.398048 0.00142832 0)
(0.398354 0.00111944 0)
(0.398593 0.000824281 0)
(0.398765 0.000542719 0)
(0.398872 0.000272785 0)
(0.398917 1.08363e-05 0)
(0.346142 0.00207298 0)
(0.34676 0.00182545 0)
(0.347305 0.00157109 0)
(0.347775 0.00131817 0)
(0.348168 0.0010721 0)
(0.348486 0.0008363 0)
(0.348731 0.000611966 0)
(0.348906 0.000398928 0)
(0.349014 0.000195344 0)
(0.349056 -1.52192e-06 0)
(0.2865 0.00141509 0)
(0.2871 0.00123974 0)
(0.287626 0.00106192 0)
(0.288076 0.000886701 0)
(0.288449 0.000717633 0)
(0.28875 0.000556556 0)
(0.288979 0.000404271 0)
(0.289141 0.000260262 0)
(0.289239 0.000123358 0)
(0.289273 -8.63206e-06 0)
(0.2172 0.000804794 0)
(0.217721 0.000700966 0)
(0.218173 0.000597074 0)
(0.218557 0.000495792 0)
(0.218875 0.000398886 0)
(0.219127 0.000307266 0)
(0.219319 0.000221201 0)
(0.219452 0.000140323 0)
(0.21953 6.38387e-05 0)
(0.219554 -9.51845e-06 0)
(0.138228 0.000313399 0)
(0.138602 0.000270105 0)
(0.138924 0.000227631 0)
(0.139196 0.000186981 0)
(0.139418 0.000148587 0)
(0.139594 0.000112806 0)
(0.139726 7.95037e-05 0)
(0.139816 4.85866e-05 0)
(0.139867 1.95281e-05 0)
(0.139882 -8.07089e-06 0)
(0.0496123 3.35608e-05 0)
(0.0497609 2.91825e-05 0)
(0.0498874 2.48676e-05 0)
(0.0499926 2.07063e-05 0)
(0.0500777 1.67633e-05 0)
(0.0501439 1.30729e-05 0)
(0.0501926 9.64914e-06 0)
(0.0502251 6.48266e-06 0)
(0.0502425 3.54972e-06 0)
(0.0502457 8.09037e-07 0)
(0.0506117 -1.91158e-06 0)
(0.0506363 -4.51028e-06 0)
(0.0506749 -7.13736e-06 0)
(0.0507281 -9.85296e-06 0)
(0.0507975 -1.27917e-05 0)
(0.0508849 -1.60411e-05 0)
(0.0509931 -1.97702e-05 0)
(0.0511258 -2.41072e-05 0)
(0.0512876 -2.92748e-05 0)
(0.0514844 -3.54688e-05 0)
(0.0517237 -4.30004e-05 0)
(0.0520146 -5.2178e-05 0)
(0.0523688 -6.34614e-05 0)
(0.0528004 -7.73501e-05 0)
(0.0533273 -9.45529e-05 0)
(0.0539715 -0.00011589 0)
(0.0547606 -0.000142488 0)
(0.0557287 -0.000175697 0)
(0.0569185 -0.000217319 0)
(0.0583828 -0.000269548 0)
(0.0601874 -0.000335209 0)
(0.0624129 -0.000417684 0)
(0.0651581 -0.000521091 0)
(0.0685416 -0.00065003 0)
(0.0727035 -0.000809442 0)
(0.0778038 -0.00100374 0)
(0.0840172 -0.00123572 0)
(0.0915197 -0.00150431 0)
(0.100466 -0.00180166 0)
(0.110949 -0.00210911 0)
(0.122952 -0.00239374 0)
(0.136275 -0.00260672 0)
(0.150477 -0.00268795 0)
(0.164846 -0.00258011 0)
(0.178445 -0.00225414 0)
(0.140917 -3.63781e-05 0)
(0.140976 -6.38006e-05 0)
(0.141072 -9.23298e-05 0)
(0.141207 -0.000123036 0)
(0.141385 -0.000157133 0)
(0.141611 -0.000196023 0)
(0.141892 -0.000241328 0)
(0.142238 -0.000294964 0)
(0.14266 -0.000359205 0)
(0.143174 -0.000436797 0)
(0.1438 -0.000531068 0)
(0.144561 -0.000646101 0)
(0.145486 -0.000786922 0)
(0.146613 -0.000959762 0)
(0.147987 -0.00117235 0)
(0.149663 -0.00143431 0)
(0.151711 -0.00175761 0)
(0.154217 -0.00215708 0)
(0.157284 -0.00265102 0)
(0.161042 -0.00326182 0)
(0.16565 -0.0040164 0)
(0.171298 -0.00494652 0)
(0.178216 -0.00608834 0)
(0.186678 -0.00748091 0)
(0.197 -0.00916268 0)
(0.209535 -0.0111649 0)
(0.224666 -0.0135005 0)
(0.242768 -0.0161472 0)
(0.264168 -0.0190245 0)
(0.289059 -0.0219649 0)
(0.317397 -0.0246889 0)
(0.348762 -0.0267959 0)
(0.38222 -0.0277968 0)
(0.416251 -0.0272178 0)
(0.448815 -0.0247875 0)
(0.221159 -8.46678e-05 0)
(0.22124 -0.000158064 0)
(0.221374 -0.000234517 0)
(0.221565 -0.000316745 0)
(0.221819 -0.000407901 0)
(0.222143 -0.000511603 0)
(0.222547 -0.000632101 0)
(0.223044 -0.000774364 0)
(0.223654 -0.000944336 0)
(0.224396 -0.00114912 0)
(0.225299 -0.00139736 0)
(0.226398 -0.00169955 0)
(0.227733 -0.00206857 0)
(0.229357 -0.00252026 0)
(0.231333 -0.00307417 0)
(0.233741 -0.00375435 0)
(0.236676 -0.00459052 0)
(0.240255 -0.00561905 0)
(0.244624 -0.00688441 0)
(0.249958 -0.00844019 0)
(0.256468 -0.0103502 0)
(0.264412 -0.0126884 0)
(0.274094 -0.0155381 0)
(0.285873 -0.0189878 0)
(0.300161 -0.0231228 0)
(0.317422 -0.0280112 0)
(0.338152 -0.0336786 0)
(0.362851 -0.0400718 0)
(0.391963 -0.0470069 0)
(0.425785 -0.0541073 0)
(0.464328 -0.0607415 0)
(0.507135 -0.0659934 0)
(0.553068 -0.0687189 0)
(0.600144 -0.0677616 0)
(0.645544 -0.0623878 0)
(0.291274 -0.000144001 0)
(0.291364 -0.000276881 0)
(0.291518 -0.000415558 0)
(0.291739 -0.000564873 0)
(0.292035 -0.000730404 0)
(0.292414 -0.000918638 0)
(0.292888 -0.00113713 0)
(0.293474 -0.00139479 0)
(0.294191 -0.00170218 0)
(0.295066 -0.00207201 0)
(0.29613 -0.00251955 0)
(0.297423 -0.00306342 0)
(0.298993 -0.00372629 0)
(0.3009 -0.00453595 0)
(0.303217 -0.00552642 0)
(0.306033 -0.00673946 0)
(0.309458 -0.00822615 0)
(0.313622 -0.0100488 0)
(0.318689 -0.0122827 0)
(0.324851 -0.0150184 0)
(0.332344 -0.0183626 0)
(0.341449 -0.0224387 0)
(0.3525 -0.0273845 0)
(0.365887 -0.0333466 0)
(0.382064 -0.0404675 0)
(0.401545 -0.048863 0)
(0.424892 -0.0585845 0)
(0.452693 -0.0695603 0)
(0.485509 -0.0815128 0)
(0.523786 -0.0938499 0)
(0.567702 -0.105547 0)
(0.616935 -0.115063 0)
(0.670348 -0.120381 0)
(0.725642 -0.119331 0)
(0.779209 -0.110366 0)
(0.351248 -0.000203232 0)
(0.351336 -0.000402305 0)
(0.351493 -0.000610312 0)
(0.351721 -0.000834345 0)
(0.352027 -0.00108264 0)
(0.35242 -0.00136475 0)
(0.352914 -0.00169185 0)
(0.353525 -0.00207708 0)
(0.354273 -0.00253604 0)
(0.355186 -0.00308735 0)
(0.356296 -0.00375348 0)
(0.357643 -0.00456159 0)
(0.359277 -0.00554471 0)
(0.361258 -0.00674308 0)
(0.363661 -0.00820584 0)
(0.366573 -0.00999289 0)
(0.370105 -0.0121772 0)
(0.374388 -0.0148473 0)
(0.37958 -0.0181098 0)
(0.385873 -0.0220922 0)
(0.393495 -0.0269444 0)
(0.402722 -0.0328397 0)
(0.413879 -0.0399725 0)
(0.427352 -0.0485515 0)
(0.44359 -0.0587841 0)
(0.463116 -0.0708493 0)
(0.486524 -0.0848488 0)
(0.514467 -0.100731 0)
(0.547631 -0.118173 0)
(0.586657 -0.136419 0)
(0.631994 -0.154075 0)
(0.683618 -0.168909 0)
(0.740575 -0.177794 0)
(0.800343 -0.177063 0)
(0.858305 -0.163734 0)
(0.401084 -0.000256517 0)
(0.401164 -0.000522006 0)
(0.401309 -0.000799597 0)
(0.401522 -0.00109858 0)
(0.40181 -0.00142976 0)
(0.402182 -0.00180571 0)
(0.40265 -0.00224109 0)
(0.403229 -0.00275317 0)
(0.403938 -0.00336239 0)
(0.404803 -0.00409314 0)
(0.405854 -0.00497468 0)
(0.407127 -0.00604233 0)
(0.408669 -0.00733889 0)
(0.410535 -0.00891628 0)
(0.412792 -0.0108376 0)
(0.415521 -0.0131796 0)
(0.41882 -0.0160352 0)
(0.422807 -0.0195169 0)