/*--------------------------------*- C++ -*----------------------------------*\
| =========                 |                                                 |
| \\      /  F ield         | OpenFOAM: The Open Source CFD Toolbox           |
|  \\    /   O peration     | Version:  2406                                  |
|   \\  /    A nd           | Website:  www.openfoam.com                      |
|    \\/     M anipulation  |                                                 |
\*---------------------------------------------------------------------------*/
FoamFile
{
    version     2.0;
    format      ascii;
    arch        "LSB;label=32;scalar=64";
    class       volScalarField;
    location    "36";
    object      p;
}
// * * * * * * * * * * * * * * * * * * * * * * * * * * * * * * * * * * * * * //

dimensions      [0 2 -2 0 0 0 0];

internalField   nonuniform List<scalar> 
1700
(
0.590098
0.584953
0.578087
0.570416
0.561808
0.552109
0.541213
0.528868
0.514755
0.49763
0.59413
0.586562
0.57839
0.570537
0.562017
0.552425
0.541787
0.530075
0.517239
0.503755
0.597925
0.588697
0.579548
0.571788
0.563726
0.554687
0.544884
0.534695
0.524628
0.515715
0.602161
0.592291
0.582601
0.574979
0.567491
0.559249
0.55057
0.542047
0.534255
0.527883
0.606779
0.596702
0.586839
0.579446
0.572543
0.565132
0.557546
0.550429
0.544259
0.539407
0.611074
0.600998
0.591301
0.584255
0.577874
0.571174
0.564489
0.558411
0.553296
0.549311
0.614247
0.604387
0.59515
0.588487
0.582469
0.576268
0.570222
0.564812
0.560283
0.556699
0.61565
0.606437
0.597905
0.591504
0.5856
0.579646
0.57396
0.568892
0.564592
0.561101
0.614725
0.607093
0.599493
0.59309
0.58702
0.581064
0.575472
0.570466
0.566147
0.562564
0.611445
0.606116
0.599677
0.593354
0.587162
0.581155
0.575521
0.570428
0.565984
0.562264
0.51542
0.515083
0.514897
0.515035
0.515492
0.516262
0.517355
0.518795
0.520611
0.52284
0.525517
0.528675
0.532344
0.53654
0.541268
0.546514
0.552237
0.558369
0.564806
0.571407
0.577989
0.584333
0.590185
0.595257
0.599241
0.601805
0.6026
0.601279
0.59751
0.590988
0.581467
0.568788
0.552929
0.534058
0.512576
0.515794
0.515456
0.51531
0.515489
0.515956
0.516705
0.517757
0.519143
0.520893
0.523046
0.525635
0.528694
0.532251
0.536324
0.540918
0.54602
0.551594
0.557572
0.563855
0.570304
0.576743
0.582953
0.588683
0.593649
0.59753
0.599983
0.600666
0.599231
0.595339
0.588678
0.578989
0.5661
0.549977
0.530782
0.508939
0.515927
0.515548
0.515409
0.515607
0.516063
0.516772
0.517764
0.519072
0.520734
0.522786
0.525265
0.528204
0.531632
0.53557
0.540028
0.544994
0.550434
0.556284
0.562443
0.568774
0.575106
0.581219
0.586845
0.591691
0.595443
0.597759
0.598285
0.596665
0.592544
0.585586
0.575494
0.562054
0.545183
0.525019
0.502025
0.515448
0.515048
0.514916
0.515124
0.515564
0.516235
0.517171
0.518412
0.519995
0.52196
0.524345
0.527186
0.530512
0.534351
0.538711
0.543584
0.548937
0.554711
0.560803
0.567062
0.573307
0.579318
0.58483
0.589543
0.593131
0.595246
0.595526
0.593596
0.589072
0.58157
0.57072
0.556207
0.53785
0.515726
0.490382
0.514152
0.513831
0.513795
0.51407
0.514545
0.515226
0.516153
0.51737
0.518918
0.520838
0.523171
0.525956
0.529227
0.533015
0.53733
0.542156
0.547459
0.553177
0.559207
0.565398
0.571562
0.577464
0.582834
0.587367
0.590734
0.592579
0.592531
0.59019
0.585128
0.576878
0.564948
0.548835
0.528141
0.502724
0.473267
0.51189
0.511849
0.512113
0.512604
0.51323
0.514013
0.51501
0.516272
0.51785
0.519787
0.522122
0.5249
0.528162
0.531938
0.536243
0.541067
0.546371
0.552085
0.558093
0.56424
0.570326
0.576116
0.581335
0.585682
0.588825
0.590413
0.590061
0.587341
0.581762
0.572748
0.559614
0.541579
0.51784
0.487726
0.451659
0.508502
0.509128
0.510072
0.511039
0.511981
0.512976
0.514116
0.515476
0.517119
0.519102
0.52148
0.524306
0.527624
0.531465
0.53584
0.540735
0.546104
0.551866
0.557897
0.564034
0.570073
0.57578
0.580884
0.585096
0.588098
0.589549
0.589062
0.586187
0.580356
0.570837
0.55666
0.53663
0.509362
0.473453
0.428582
0.503268
0.505654
0.508047
0.509791
0.511172
0.512451
0.513767
0.515236
0.516968
0.519047
0.521535
0.524484
0.52794
0.531932
0.536467
0.54152
0.547035
0.552916
0.559029
0.565205
0.571244
0.576915
0.581971
0.586143
0.58915
0.590678
0.590373
0.58778
0.582283
0.572964
0.558431
0.536623
0.504641
0.459647
0.399644
0.492812
0.500971
0.506519
0.50922
0.511009
0.512598
0.51411
0.51571
0.517585
0.519848
0.522552
0.525741
0.529451
0.533706
0.538505
0.543808
0.549542
0.555599
0.561834
0.568077
0.574137
0.579806
0.584866
0.589092
0.592255
0.594104
0.594352
0.592616
0.588328
0.580553
0.567617
0.54644
0.510904
0.451397
0.350315
0.475764
0.495398
0.505649
0.509124
0.51124
0.513307
0.515211
0.517098
0.519256
0.521844
0.524911
0.528477
0.532564
0.537184
0.54232
0.54792
0.553893
0.560118
0.56645
0.572725
0.57877
0.584409
0.589468
0.593778
0.597178
0.599502
0.600566
0.60013
0.597829
0.593039
0.584563
0.569949
0.543091
0.487624
0.344831
0.485261
0.497524
0.507151
0.510523
0.512654
0.515089
0.517493
0.519858
0.522476
0.525534
0.529077
0.533105
0.537624
0.542627
0.548083
0.553925
0.560054
0.566344
0.572655
0.578841
0.584756
0.590263
0.595236
0.599567
0.603161
0.605938
0.607821
0.608723
0.60852
0.607008
0.603831
0.59837
0.589215
0.572541
0.539032
0.496887
0.502861
0.510062
0.513742
0.516186
0.518865
0.521708
0.524618
0.527767
0.531315
0.535309
0.539745
0.544609
0.549881
0.555513
0.56143
0.567531
0.573695
0.579797
0.585713
0.591331
0.596554
0.601302
0.605516
0.609158
0.612208
0.614665
0.616541
0.617855
0.618626
0.618861
0.61853
0.617371
0.61488
0.609743
0.510954
0.512546
0.516697
0.519939
0.52246
0.525178
0.528235
0.531518
0.535059
0.538944
0.543216
0.547867
0.552873
0.558198
0.563782
0.569548
0.575395
0.581219
0.586914
0.592384
0.59755
0.602348
0.606735
0.610688
0.614202
0.617291
0.619988
0.62234
0.624413
0.626284
0.628035
0.629719
0.631276
0.632801
0.63308
0.524118
0.523909
0.525989
0.528405
0.53072
0.533323
0.536361
0.539743
0.543416
0.547401
0.551716
0.556349
0.561265
0.566415
0.571733
0.57714
0.582548
0.58787
0.593025
0.597942
0.602571
0.606874
0.610832
0.614441
0.617711
0.620666
0.623341
0.625783
0.628051
0.630213
0.632331
0.634436
0.636506
0.638698
0.640237
0.536332
0.535391
0.536137
0.537663
0.53956
0.541893
0.54471
0.547934
0.551487
0.555344
0.559494
0.563912
0.568553
0.573358
0.578262
0.583192
0.588073
0.592838
0.597428
0.601796
0.605909
0.609749
0.613306
0.616584
0.619595
0.622356
0.624894
0.627242
0.629438
0.631524
0.633541
0.635502
0.637407
0.639394
0.640984
0.546601
0.54528
0.545204
0.546004
0.547414
0.54937
0.55184
0.554747
0.558015
0.561594
0.56545
0.569541
0.573814
0.57821
0.582664
0.587115
0.591503
0.595776
0.599892
0.603819
0.607536
0.611029
0.614294
0.617332
0.62015
0.622757
0.625169
0.627401
0.629475
0.631414
0.633242
0.634968
0.636595
0.63819
0.639448
0.554096
0.552515
0.55192
0.552169
0.553115
0.554664
0.556748
0.559292
0.562223
0.565481
0.569016
0.572774
0.576699
0.580732
0.584815
0.588895
0.592922
0.596855
0.600662
0.604316
0.607799
0.6111
0.61421
0.617128
0.619853
0.622389
0.62474
0.626913
0.628918
0.630767
0.632469
0.634026
0.635421
0.636645
0.637498
0.558438
0.556636
0.555693
0.555551
0.556123
0.557325
0.559081
0.561318
0.563967
0.566964
0.570249
0.573764
0.57745
0.58125
0.58511
0.588982
0.592823
0.596594
0.600265
0.603812
0.607214
0.610457
0.613531
0.61643
0.61915
0.62169
0.62405
0.626231
0.628239
0.630075
0.631741
0.633222
0.634473
0.635417
0.635931
0.559759
0.557764
0.556586
0.556192
0.556521
0.5575
0.559055
0.561116
0.563613
0.566479
0.56965
0.573065
0.576662
0.580387
0.584186
0.588012
0.591822
0.595579
0.599251
0.602811
0.606238
0.609516
0.612632
0.615578
0.618347
0.620938
0.623351
0.625586
0.627646
0.629532
0.631235
0.632726
0.633935
0.634735
0.635049
0.559322
0.557189
0.55587
0.55534
0.555547
0.556426
0.557905
0.55991
0.562371
0.565215
0.568376
0.57179
0.575396
0.579137
0.582962
0.586823
0.590676
0.594482
0.598209
0.601829
0.605319
0.608661
0.611841
0.61485
0.617681
0.620334
0.622807
0.625104
0.62723
0.629185
0.630961
0.632521
0.633776
0.634566
0.634818
0.489143
0.464641
0.440074
0.416386
0.394293
0.374257
0.35656
0.341339
0.3286
0.318245
0.485167
0.460453
0.435912
0.412511
0.390916
0.37153
0.354546
0.340024
0.327923
0.318119
0.47705
0.451368
0.426421
0.403226
0.382244
0.363674
0.347639
0.334129
0.323027
0.314151
0.462928
0.43529
0.409567
0.386715
0.366681
0.349326
0.334649
0.322563
0.312854
0.305275
0.441331
0.410534
0.384202
0.362551
0.34431
0.328919
0.316298
0.30623
0.29836
0.29241
0.4114
0.375239
0.349061
0.330336
0.315361
0.303169
0.293681
0.286401
0.280798
0.276691
0.373783
0.329035
0.304658
0.291154
0.28129
0.274071
0.269169
0.265497
0.26239
0.259995
0.321053
0.270732
0.255461
0.251024
0.248443
0.247925
0.24847
0.248364
0.247059
0.245309
0.222093
0.194922
0.209846
0.220974
0.227673
0.23365
0.238132
0.239905
0.238708
0.235182
0.0950278
0.13134
0.182984
0.20504
0.218404
0.229108
0.235974
0.23863
0.23749
0.232232
0.310112
0.304002
0.299697
0.296969
0.295596
0.295373
0.296115
0.297662
0.299873
0.302626
0.305812
0.309338
0.313119
0.317081
0.321157
0.325287
0.32942
0.333509
0.337515
0.341405
0.345153
0.348737
0.352142
0.355356
0.358374
0.361193
0.363812
0.366237
0.368472
0.370522
0.372378
0.374007
0.375318
0.376147
0.376416
0.310444
0.304705
0.300688
0.298176
0.296954
0.29683
0.297634
0.299216
0.301441
0.304194
0.307369
0.310873
0.314626
0.318551
0.322584
0.326663
0.330739
0.334765
0.338703
0.342522
0.346195
0.349705
0.353034
0.356175
0.35912
0.361868
0.364417
0.366771
0.368933
0.370905
0.372681
0.374234
0.375493
0.376331
0.376665
0.307313
0.302322
0.298963
0.297003
0.296225
0.296454
0.297542
0.299357
0.301776
0.304691
0.308005
0.311629
0.315483
0.319493
0.323594
0.327725
0.331835
0.335879
0.339819
0.343624
0.347272
0.350744
0.354028
0.357118
0.360007
0.362696
0.365186
0.367479
0.36958
0.371496
0.373229
0.374766
0.376065
0.377047
0.37759
0.299631
0.295753
0.293409
0.292313
0.292227
0.293007
0.294552
0.296759
0.299524
0.302755
0.306367
0.31028
0.314417
0.318702
0.323066
0.327444
0.33178
0.336023
0.340133
0.344078
0.347834
0.351386
0.354725
0.357846
0.36075
0.363442
0.365925
0.368211
0.370309
0.372235
0.374003
0.375615
0.377059
0.378326
0.379219
0.288264
0.285835
0.284831
0.284828
0.285557
0.286951
0.288986
0.291598
0.29471
0.29826
0.302189
0.306434
0.310926
0.315591
0.320354
0.32514
0.329883
0.334518
0.338995
0.343271
0.347319
0.351118
0.35466
0.357943
0.360975
0.363765
0.366331
0.368692
0.370873
0.3729
0.374802
0.37659
0.378271
0.379914
0.381224
0.27425
0.273615
0.274306
0.27557
0.277132
0.279103
0.281572
0.284507
0.287863
0.291622
0.295765
0.300256
0.305042
0.310059
0.315233
0.320482
0.325723
0.330877
0.335871
0.340646
0.345158
0.349376
0.353282
0.356873
0.360159
0.363157
0.365895
0.36841
0.370743
0.372944
0.375055
0.377096
0.379068
0.381109
0.382762
0.259214
0.260714
0.263448
0.266024
0.268294
0.2707
0.273449
0.276534
0.279955
0.283745
0.287925
0.292486
0.297401
0.302625
0.308093
0.313724
0.319423
0.325093
0.330641
0.335984
0.341051
0.34579
0.350167
0.354165
0.357784
0.361046
0.363983
0.366646
0.369098
0.371411
0.373654
0.375862
0.378013
0.38027
0.381871
0.245625
0.249633
0.254516
0.258054
0.260697
0.263293
0.266064
0.269024
0.272255
0.27585
0.279849
0.284263
0.289087
0.294301
0.299858
0.305682
0.311678
0.317734
0.323739
0.329584
0.335172
0.340418
0.34526
0.349654
0.35358
0.357041
0.360062
0.36269
0.364991
0.367048
0.368945
0.370745
0.372385
0.37395
0.374274
0.234991
0.242486
0.249385
0.253087
0.25562
0.258123
0.260625
0.263173
0.265964
0.269141
0.272749
0.276803
0.281317
0.286293
0.291704
0.297487
0.303549
0.309777
0.316045
0.322222
0.328182
0.333807
0.338994
0.34366
0.347742
0.351202
0.354026
0.356215
0.357783
0.358751
0.359125
0.358875
0.357731
0.35519
0.349971
0.228485
0.239762
0.247837
0.251004
0.253134
0.255328
0.257386
0.259407
0.261669
0.264329
0.267431
0.270995
0.275053
0.279623
0.284698
0.29023
0.296138
0.302311
0.308618
0.314914
0.321046
0.326861
0.332211
0.336959
0.340984
0.344179
0.346443
0.347671
0.347726
0.346394
0.343307
0.337834
0.328541
0.31154
0.277564
0.224345
0.239201
0.247295
0.2503
0.252236
0.254054
0.255689
0.257306
0.259157
0.261378
0.264016
0.267109
0.270698
0.274819
0.279478
0.284645
0.290256
0.296211
0.302382
0.308616
0.314742
0.320574
0.32592
0.330586
0.33438
0.337106
0.338548
0.33844
0.336392
0.331758
0.323322
0.308607
0.281471
0.225543
0.0826123
0.237616
0.24386
0.248282
0.250573
0.252168
0.253578
0.254904
0.256292
0.257905
0.259841
0.262157
0.264901
0.268125
0.271869
0.276151
0.280959
0.286244
0.291923
0.29788
0.303959
0.30998
0.315733
0.320988
0.325501
0.329013
0.331242
0.331862
0.330459
0.326432
0.318816
0.305909
0.284605
0.248776
0.188857
0.0874881
0.245996
0.24786
0.249792
0.251261
0.252461
0.253581
0.254734
0.256013
0.257508
0.259291
0.261424
0.263963
0.266957
0.27045
0.274465
0.278999
0.284022
0.289466
0.295224
0.301151
0.307058
0.312726
0.3179
0.322299
0.325613
0.327502
0.32757
0.325328
0.320118
0.310992
0.296523
0.27464
0.242429
0.197106
0.136752
0.250396
0.250869
0.251637
0.252458
0.253277
0.254149
0.255144
0.256325
0.257744
0.259453
0.261501
0.26394
0.266819
0.270178
0.274042
0.278416
0.283279
0.288575
0.294209
0.300042
0.305891
0.311531
0.316697
0.321087
0.324366
0.326163
0.326057
0.323555
0.31805
0.308768
0.294713
0.274657
0.247214
0.210988
0.165684
0.253291
0.253224
0.253434
0.25386
0.254417
0.255113
0.25599
0.257092
0.25846
0.260136
0.262158
0.264568
0.26741
0.270721
0.274528
0.27884
0.283638
0.288877
0.294468
0.300282
0.306141
0.311824
0.317065
0.321556
0.324955
0.326881
0.326916
0.324591
0.319372
0.310635
0.297657
0.27962
0.255693
0.225171
0.188491
0.255224
0.254926
0.254886
0.255134
0.255568
0.256181
0.257008
0.258081
0.259437
0.261112
0.263145
0.265574
0.268437
0.271772
0.275603
0.279931
0.284738
0.289985
0.295595
0.301443
0.307362
0.313136
0.318503
0.32316
0.326766
0.328944
0.329287
0.327357
0.322677
0.314733
0.302978
0.286863
0.265938
0.24003
0.209778
0.256327
0.255964
0.255841
0.256031
0.256435
0.257042
0.257881
0.258982
0.26038
0.262108
0.264202
0.266697
0.269629
0.273029
0.276919
0.281305
0.286172
0.291485
0.297163
0.303084
0.309083
0.314959
0.320458
0.325286
0.329104
0.331549
0.332225
0.330716
0.326591
0.319411
0.308749
0.294232
0.275621
0.252934
0.22668
0.256724
0.256381
0.25625
0.256428
0.256839
0.257477
0.258363
0.259526
0.260997
0.262809
0.264997
0.267594
0.270633
0.274141
0.278138
0.282628
0.287596
0.292998
0.298757
0.304758
0.310852
0.316832
0.322449
0.327409
0.331393
0.334038
0.334965
0.333774
0.330063
0.323438
0.313546
0.300102
0.282964
0.262199
0.238216
0.256589
0.25628
0.256142
0.256296
0.256711
0.257378
0.258313
0.259541
0.26109
0.262992
0.265281
0.267992
0.271155
0.274797
0.278932
0.283563
0.288671
0.29421
0.300102
0.306232
0.312444
0.318536
0.324265
0.329352
0.333469
0.33626
0.33735
0.336353
0.33288
0.326564
0.317083
0.304197
0.287804
0.267996
0.245131
0.256251
0.255943
0.255767
0.255879
0.25628
0.25696
0.257925
0.259195
0.260796
0.262761
0.265125
0.267923
0.271187
0.274942
0.279205
0.283974
0.289229
0.294922
0.300971
0.307259
0.313623
0.319862
0.325729
0.330938
0.335174
0.33809
0.339306
0.338437
0.3351
0.328936
0.319632
0.306966
0.290844
0.271365
0.248863
-0.165399
-0.126911
-0.0742659
-0.0506194
-0.0353059
-0.0224779
-0.0128849
-0.0064647
-0.00243467
-0.000321624
-0.0397379
-0.06481
-0.0481132
-0.0352715
-0.0265776
-0.0182269
-0.010898
-0.00554442
-0.00211296
-0.000500724
0.0581977
0.00882832
-0.00513005
-0.00810759
-0.00887523
-0.00726741
-0.00432039
-0.00171854
-8.82912e-05
-0.000438988
0.110402
0.0654952
0.0412722
0.0281623
0.0189987
0.0127809
0.00903119
0.00645911
0.00423487
0.000609762
0.147406
0.110393
0.0834405
0.0640156
0.0484221
0.0356694
0.0255471
0.0173267
0.0101584
0.00297149
0.176764
0.144655
0.116856
0.0935762
0.0735287
0.0560904
0.0410648
0.0280502
0.0161876
0.00570437
0.19794
0.168646
0.140915
0.115692
0.0928829
0.0722756
0.0537268
0.0370234
0.0213901
0.0078224
0.211812
0.184238
0.156908
0.130819
0.106371
0.083676
0.0627139
0.0433974
0.0251763
0.0088467
0.219868
0.193147
0.166042
0.139477
0.11405
0.0900728
0.0676593
0.0468032
0.0272064
0.00897387
0.223938
0.197417
0.170258
0.143355
0.117376
0.0927352
0.069611
0.0480274
0.0278404
0.00891963
)
;

boundaryField
{
    inlet
    {
        type            zeroGradient;
    }
    outlet
    {
        type            fixedValue;
        value           uniform 0;
    }
    upperWall
    {
        type            zeroGradient;
    }
    lowerWall
    {
        type            zeroGradient;
    }
    frontAndBack
    {
        type            empty;
    }
}


// ************************************************************************* //
