/*--------------------------------*- C++ -*----------------------------------*\
| =========                 |                                                 |
| \\      /  F ield         | OpenFOAM: The Open Source CFD Toolbox           |
|  \\    /   O peration     | Version:  2406                                  |
|   \\  /    A nd           | Website:  www.openfoam.com                      |
|    \\/     M anipulation  |                                                 |
\*---------------------------------------------------------------------------*/
FoamFile
{
    version     2.0;
    format      ascii;
    arch        "LSB;label=32;scalar=64";
    class       volScalarField;
    location    "55";
    object      p;
}
// * * * * * * * * * * * * * * * * * * * * * * * * * * * * * * * * * * * * * //

dimensions      [0 2 -2 0 0 0 0];

internalField   nonuniform List<scalar> 
1800
(
0.0895576
0.0901968
0.0899303
0.0886723
0.0867211
0.0841525
0.0809104
0.0769035
0.0720422
0.0661414
0.0924643
0.0915282
0.0904031
0.0889643
0.0869953
0.0844308
0.081264
0.0774726
0.0730502
0.0681049
0.096027
0.0937296
0.0917126
0.090149
0.088336
0.0860015
0.0832102
0.0800825
0.0768087
0.0738103
0.100062
0.0971634
0.094624
0.0929792
0.0913635
0.0893603
0.0870702
0.0846973
0.0824454
0.0805872
0.104296
0.101171
0.0984137
0.0967856
0.0954061
0.0937861
0.0920265
0.0903476
0.0889106
0.0878677
0.108116
0.104977
0.102307
0.100871
0.0997714
0.0985238
0.0972364
0.0961165
0.0952823
0.0948119
0.110852
0.107923
0.10562
0.104499
0.103663
0.102718
0.101792
0.101062
0.100612
0.100485
0.111957
0.109642
0.10795
0.107115
0.106429
0.105675
0.104979
0.104471
0.104212
0.104237
0.111121
0.110156
0.109334
0.108655
0.107944
0.107215
0.106568
0.106092
0.105843
0.105862
0.108936
0.109468
0.109414
0.108863
0.108164
0.107468
0.106837
0.106344
0.106058
0.106031
0.0689483
0.0688798
0.0688163
0.0687803
0.0687683
0.0687774
0.0688088
0.0688654
0.0689519
0.0690741
0.0692398
0.0694594
0.0697478
0.0701259
0.0706232
0.0712819
0.0721599
0.0733348
0.0749056
0.0769914
0.079724
0.0832342
0.0876299
0.0929763
0.099288
0.106482
0.114308
0.122326
0.129903
0.13628
0.140734
0.142478
0.140744
0.135118
0.125553
0.0690277
0.0689563
0.0689012
0.0688759
0.0688708
0.068884
0.0689186
0.0689793
0.0690717
0.0692022
0.0693786
0.0696116
0.0699137
0.0703025
0.0708014
0.0714446
0.072281
0.0733766
0.0748176
0.0767122
0.0791907
0.0824005
0.0864961
0.0916074
0.0977617
0.104835
0.11255
0.12045
0.127942
0.134291
0.138619
0.140119
0.138106
0.132152
0.122207
0.0690818
0.0689969
0.0689411
0.0689213
0.0689182
0.0689302
0.0689624
0.0690208
0.0691109
0.0692389
0.0694107
0.0696342
0.0699174
0.0702705
0.070709
0.0712591
0.0719611
0.0728733
0.0740764
0.0756886
0.0778757
0.0808306
0.084726
0.0896585
0.0956446
0.102531
0.110027
0.117668
0.124793
0.130621
0.134286
0.134959
0.131949
0.124835
0.113603
0.0690283
0.0689304
0.0688717
0.0688517
0.0688441
0.0688497
0.0688753
0.0689265
0.0690088
0.0691262
0.0692818
0.0694789
0.0697203
0.0700096
0.070358
0.0707895
0.0713447
0.0720853
0.0731049
0.0745462
0.0766037
0.0794459
0.0831938
0.0879421
0.0937001
0.100309
0.107433
0.114543
0.120931
0.125757
0.12811
0.127105
0.122034
0.112508
0.0986665
0.0687935
0.0686986
0.0686484
0.0686334
0.0686269
0.0686315
0.0686563
0.0687063
0.0687851
0.0688948
0.0690363
0.069209
0.0694137
0.0696537
0.0699437
0.0703111
0.0708008
0.0714745
0.0724275
0.0738022
0.0757876
0.0785569
0.0822403
0.0869009
0.0924911
0.0987998
0.105425
0.11177
0.117061
0.120388
0.12076
0.117194
0.108877
0.0953379
0.0769427
0.068304
0.0682535
0.0682517
0.0682696
0.0682869
0.0683119
0.0683532
0.0684172
0.0685076
0.0686251
0.0687693
0.0689402
0.0691397
0.0693733
0.0696502
0.0699983
0.0704731
0.0711496
0.0721392
0.0735944
0.075687
0.0785715
0.0823503
0.0870414
0.092537
0.0985599
0.104636
0.110096
0.114091
0.115629
0.113624
0.106965
0.0946554
0.0758129
0.0507124
0.0674797
0.0675725
0.0677141
0.0678322
0.0679165
0.0679924
0.0680758
0.0681746
0.0682936
0.0684329
0.0685921
0.0687746
0.0689853
0.0692345
0.069542
0.0699461
0.0705136
0.071337
0.0725373
0.0742642
0.0766729
0.0798888
0.0839717
0.0888809
0.0944379
0.100294
0.10591
0.110557
0.113317
0.113109
0.108678
0.0987449
0.0820797
0.057452
0.0252061
0.0661026
0.0666631
0.0671678
0.0674819
0.0676762
0.0678222
0.0679522
0.0680834
0.0682292
0.0683934
0.0685784
0.0687919
0.0690509
0.0693817
0.0698197
0.0704186
0.071259
0.0724465
0.0741067
0.0763758
0.0793772
0.0831888
0.0878094
0.0931287
0.0989025
0.104735
0.110069
0.114178
0.116138
0.114799
0.108583
0.0956814
0.0734423
0.0404866
-0.00244833
0.063189
0.06552
0.0669014
0.0674229
0.0676958
0.0679125
0.0680775
0.0682216
0.0683861
0.0685916
0.0688512
0.0691832
0.0696202
0.0702047
0.0709874
0.0720342
0.0734317
0.0752852
0.0777058
0.0807955
0.0846257
0.0892097
0.0944782
0.100262
0.106283
0.112153
0.117372
0.121327
0.123247
0.122125
0.1163
0.103379
0.0773817
0.0335609
-0.0431899
0.0578378
0.0643266
0.0671618
0.0676296
0.0678527
0.0681769
0.0684473
0.068685
0.0689855
0.0693905
0.0699118
0.0705787
0.0714425
0.0725608
0.0739908
0.0757952
0.078047
0.0808263
0.0842059
0.0882359
0.0929248
0.098222
0.104005
0.110077
0.11617
0.121957
0.127065
0.131086
0.13356
0.133934
0.13125
0.124028
0.106787
0.0715775
-0.0406304
0.0617357
0.0655963
0.068089
0.0684001
0.0685734
0.0690712
0.0696262
0.0701922
0.0708765
0.071737
0.0727909
0.0740741
0.0756459
0.0775646
0.0798773
0.0826246
0.0858463
0.0895801
0.0938497
0.0986512
0.103939
0.109619
0.115544
0.121521
0.127325
0.132721
0.137482
0.141413
0.144364
0.146241
0.146935
0.146441
0.143961
0.139564
0.115859
0.0654011
0.0671411
0.069421
0.0704464
0.0710831
0.0719258
0.0729338
0.0740474
0.0753221
0.0768162
0.0785646
0.0806082
0.0829969
0.0857711
0.0889524
0.0925493
0.0965636
0.10099
0.105808
0.110972
0.116401
0.121979
0.12756
0.132981
0.138075
0.142698
0.146745
0.150172
0.153014
0.155398
0.157535
0.159753
0.162202
0.165
0.164172
0.072202
0.0727418
0.0742555
0.0754455
0.0763985
0.0775603
0.0790184
0.0806964
0.0825796
0.0847103
0.0871332
0.0898828
0.0929833
0.0964433
0.100254
0.104394
0.108832
0.11353
0.118435
0.123473
0.12855
0.133553
0.138357
0.142843
0.14691
0.150489
0.153555
0.156144
0.158354
0.160359
0.162406
0.164812
0.167819
0.171457
0.173688
0.079572
0.0797842
0.0808981
0.0822237
0.0835957
0.0852005
0.0871126
0.0892808
0.091681
0.0943425
0.0973
0.100567
0.104136
0.107985
0.112079
0.116374
0.120818
0.125351
0.129902
0.134393
0.138735
0.14284
0.146623
0.150017
0.15298
0.155498
0.157592
0.159321
0.160782
0.16212
0.163539
0.165295
0.16761
0.170397
0.172369
0.0874259
0.0877685
0.0888063
0.0902329
0.0918843
0.0937908
0.0959903
0.098466
0.101201
0.104199
0.107463
0.110977
0.114707
0.11861
0.122635
0.126724
0.130815
0.134843
0.138742
0.142444
0.145889
0.149024
0.151813
0.154234
0.15629
0.157996
0.159388
0.160514
0.161442
0.162276
0.163171
0.164344
0.165976
0.167918
0.169302
0.0947984
0.0953275
0.0963873
0.0978593
0.0996397
0.101705
0.104062
0.106696
0.109584
0.112703
0.116028
0.119521
0.123135
0.126817
0.13051
0.134157
0.137699
0.141082
0.144257
0.147185
0.149835
0.152192
0.154252
0.156024
0.15753
0.158791
0.159835
0.160686
0.161382
0.161988
0.162631
0.163487
0.164663
0.165979
0.166855
0.100728
0.101387
0.102471
0.103939
0.105735
0.107827
0.110198
0.112825
0.115677
0.118714
0.121898
0.125182
0.128513
0.13184
0.135111
0.138275
0.141289
0.144118
0.146733
0.149118
0.151266
0.153178
0.154865
0.156344
0.157634
0.15875
0.159706
0.160509
0.161178
0.161761
0.162357
0.163092
0.164008
0.16491
0.165379
0.10458
0.105274
0.106329
0.107732
0.109453
0.111465
0.113742
0.116252
0.118959
0.121821
0.124792
0.127826
0.130874
0.13389
0.13683
0.139658
0.142342
0.14486
0.147196
0.149342
0.151297
0.153064
0.154653
0.156075
0.15734
0.158458
0.159436
0.160282
0.161012
0.161666
0.162318
0.163048
0.163837
0.164445
0.164622
0.106183
0.106828
0.107807
0.109114
0.11073
0.112632
0.114792
0.117177
0.11975
0.122469
0.125292
0.128173
0.13107
0.133941
0.136749
0.139462
0.142053
0.144502
0.146793
0.148917
0.15087
0.152651
0.154263
0.155714
0.157013
0.158168
0.159189
0.16009
0.160894
0.161643
0.162388
0.163157
0.163873
0.164311
0.16435
0.106296
0.106876
0.10778
0.109008
0.110548
0.112378
0.114472
0.116797
0.119316
0.12199
0.124775
0.127629
0.13051
0.133376
0.13619
0.138919
0.141533
0.144011
0.146337
0.148497
0.150488
0.152308
0.153959
0.155448
0.156783
0.157972
0.159027
0.159965
0.160819
0.161634
0.162451
0.16327
0.163983
0.164378
0.164386
0.112407
0.0964235
0.0786265
0.0601204
0.0418784
0.0246275
0.0088446
-0.00522456
-0.0176318
-0.0285284
0.108656
0.0923121
0.0742865
0.0557336
0.0376008
0.0205544
0.00501102
-0.00884678
-0.0209534
-0.031339
0.0987397
0.0812533
0.0625367
0.0438795
0.0261312
0.00979569
-0.00481133
-0.017558
-0.0284911
-0.0377609
0.081236
0.061657
0.0418766
0.0232984
0.00643864
-0.00848995
-0.0213122
-0.0320446
-0.0409226
-0.0482556
0.0549817
0.0321334
0.0114041
-0.00624673
-0.0212921
-0.0339062
-0.0439801
-0.0517152
-0.0576115
-0.0621747
0.0208834
-0.00748952
-0.0287572
-0.044012
-0.0559195
-0.0649928
-0.0711038
-0.0747704
-0.0768119
-0.0778897
-0.0163714
-0.0539636
-0.0757822
-0.0876673
-0.0954203
-0.0995268
-0.100135
-0.0984908
-0.0958194
-0.0928595
-0.0621107
-0.107425
-0.125136
-0.13074
-0.131973
-0.129107
-0.12322
-0.116126
-0.109006
-0.102439
-0.148308
-0.1749
-0.168883
-0.160311
-0.1511
-0.140875
-0.130708
-0.121343
-0.112821
-0.104905
-0.248974
-0.218751
-0.18506
-0.17023
-0.15709
-0.143918
-0.13201
-0.121685
-0.112706
-0.104613
-0.0379575
-0.0459592
-0.0526262
-0.0580778
-0.0624306
-0.0657916
-0.0682608
-0.0699331
-0.0708976
-0.0712361
-0.0710227
-0.0703235
-0.0691975
-0.0676971
-0.0658689
-0.0637546
-0.0613921
-0.0588161
-0.05606
-0.0531557
-0.0501348
-0.0470291
-0.0438704
-0.0406905
-0.0375211
-0.0343925
-0.0313334
-0.02837
-0.0255251
-0.0228176
-0.0202624
-0.0178701
-0.0156469
-0.0135953
-0.0117138
-0.0401584
-0.0475728
-0.0537297
-0.058763
-0.0627875
-0.0659008
-0.0681898
-0.069735
-0.0706114
-0.070889
-0.0706324
-0.0699016
-0.0687513
-0.0672311
-0.0653862
-0.0632571
-0.0608809
-0.058292
-0.0555229
-0.0526058
-0.0495726
-0.046456
-0.0432888
-0.0401041
-0.0369344
-0.033811
-0.030763
-0.0278162
-0.0249933
-0.0223122
-0.0197872
-0.0174277
-0.0152392
-0.0132233
-0.0113785
-0.0455467
-0.0520294
-0.0573762
-0.0617293
-0.0652
-0.067877
-0.069836
-0.0711444
-0.0718607
-0.0720367
-0.0717198
-0.0709548
-0.0697835
-0.0682457
-0.0663794
-0.0642205
-0.0618031
-0.0591598
-0.0563224
-0.0533229
-0.0501939
-0.0469697
-0.0436857
-0.0403785
-0.037085
-0.0338408
-0.0306798
-0.0276323
-0.0247243
-0.0219768
-0.0194047
-0.0170173
-0.0148179
-0.0128058
-0.0109761
-0.0543113
-0.059302
-0.0634072
-0.0667582
-0.0694359
-0.0714995
-0.0730033
-0.0739935
-0.0745056
-0.0745694
-0.0742131
-0.0734641
-0.0723488
-0.0708923
-0.0691187
-0.0670517
-0.0647147
-0.0621306
-0.059323
-0.0563171
-0.0531405
-0.0498241
-0.0464024
-0.042913
-0.0393964
-0.0358946
-0.03245
-0.0291034
-0.0258929
-0.0228514
-0.0200057
-0.0173748
-0.01497
-0.0127941
-0.010842
-0.0657911
-0.0687444
-0.0712317
-0.0733247
-0.0750196
-0.0763238
-0.077268
-0.0778744
-0.0781477
-0.0780876
-0.0776994
-0.0769944
-0.0759863
-0.0746886
-0.0731137
-0.0712718
-0.069171
-0.0668187
-0.0642229
-0.0613941
-0.0583474
-0.0551027
-0.0516855
-0.0481266
-0.0444618
-0.0407316
-0.0369805
-0.0332562
-0.0296078
-0.0260842
-0.0227314
-0.0195902
-0.0166934
-0.0140631
-0.01171
-0.0784866
-0.0790155
-0.0797071
-0.0804857
-0.0811732
-0.081694
-0.082057
-0.0822687
-0.0823074
-0.0821423
-0.0817505
-0.0811219
-0.0802573
-0.0791639
-0.0778493
-0.0763166
-0.0745626
-0.0725791
-0.070356
-0.0678861
-0.0651672
-0.0622037
-0.0590066
-0.0555932
-0.0519869
-0.0482167
-0.044318
-0.0403325
-0.0363084
-0.0322999
-0.028366
-0.0245676
-0.0209639
-0.0176084
-0.0145448
-0.0901156
-0.08819
-0.0872552
-0.0869212
-0.0867819
-0.086674
-0.0865668
-0.0864454
-0.0862817
-0.0860384
-0.0856759
-0.0851621
-0.0844808
-0.083631
-0.0826186
-0.0814452
-0.0801021
-0.0785706
-0.0768268
-0.0748469
-0.0726121
-0.0701106
-0.0673375
-0.0642948
-0.0609898
-0.0574354
-0.05365
-0.0496585
-0.045494
-0.0411998
-0.0368299
-0.0324497
-0.0281332
-0.0239597
-0.0200086
-0.0968436
-0.0932531
-0.0915563
-0.0907428
-0.090239
-0.089897
-0.0896434
-0.0894143
-0.0891814
-0.0889313
-0.0886379
-0.0882661
-0.0877912
-0.0872068
-0.0865171
-0.0857234
-0.0848155
-0.0837697
-0.0825543
-0.0811353
-0.0794817
-0.077568
-0.0753756
-0.0728913
-0.0701072
-0.0670195
-0.0636275
-0.0599343
-0.0559493
-0.0516912
-0.0471927
-0.042503
-0.0376899
-0.0328391
-0.0280504
-0.0979016
-0.0938813
-0.092387
-0.0917358
-0.0913054
-0.0910464
-0.0908935
-0.0907512
-0.0905855
-0.0904025
-0.0901993
-0.0899567
-0.0896587
-0.0893025
-0.0888932
-0.0884333
-0.087913
-0.0873092
-0.0865888
-0.0857147
-0.0846497
-0.0833611
-0.0818201
-0.0800026
-0.0778882
-0.075459
-0.0726974
-0.0695845
-0.0661021
-0.0622375
-0.0579887
-0.053372
-0.0484277
-0.0432247
-0.0378605
-0.0972706
-0.0937945
-0.0925081
-0.0919529
-0.0916162
-0.0914251
-0.0913242
-0.0912346
-0.0911214
-0.0909871
-0.0908335
-0.0906555
-0.0904504
-0.0902228
-0.0899807
-0.089728
-0.0894581
-0.0891531
-0.0887849
-0.0883194
-0.0877203
-0.0869539
-0.085989
-0.0847972
-0.0833531
-0.0816325
-0.0796067
-0.0772396
-0.0744882
-0.0713058
-0.0676495
-0.0634901
-0.0588228
-0.0536775
-0.048126
-0.09469
-0.0932478
-0.0924073
-0.0920349
-0.0918223
-0.0916774
-0.0915732
-0.0914747
-0.0913591
-0.0912231
-0.0910697
-0.0909016
-0.0907237
-0.0905441
-0.0903731
-0.0902143
-0.090064
-0.0899092
-0.089728
-0.0894912
-0.0891678
-0.0887277
-0.0881441
-0.0873928
-0.0864547
-0.0853109
-0.0839345
-0.0822837
-0.0803003
-0.0779108
-0.0750336
-0.0715901
-0.0675197
-0.0627977
-0.0574486
-0.0929133
-0.092482
-0.0921256
-0.0919114
-0.0917774
-0.091679
-0.0915942
-0.0915063
-0.0914026
-0.0912771
-0.0911301
-0.0909675
-0.0907973
-0.0906296
-0.0904764
-0.0903463
-0.0902397
-0.0901457
-0.0900447
-0.0899103
-0.0897142
-0.0894304
-0.0890363
-0.0885156
-0.0878615
-0.0870704
-0.0861288
-0.0850038
-0.0836364
-0.0819416
-0.0798121
-0.0771288
-0.073778
-0.0696756
-0.0647894
-0.0918827
-0.0918063
-0.0917029
-0.0916144
-0.0915539
-0.0915046
-0.091453
-0.0913896
-0.0913057
-0.091197
-0.0910649
-0.0909161
-0.0907596
-0.0906058
-0.0904658
-0.0903495
-0.0902587
-0.0901831
-0.090104
-0.0899975
-0.0898375
-0.0896011
-0.0892686
-0.0888298
-0.088289
-0.0876589
-0.0869445
-0.0861282
-0.0851597
-0.0839535
-0.0823922
-0.080331
-0.0776181
-0.0741204
-0.0697553
-0.0912618
-0.0913007
-0.0912992
-0.0912781
-0.091261
-0.0912451
-0.0912222
-0.0911839
-0.0911246
-0.0910402
-0.0909304
-0.0908005
-0.0906593
-0.0905175
-0.0903866
-0.090276
-0.0901886
-0.0901165
-0.0900417
-0.0899345
-0.0897702
-0.089534
-0.0892076
-0.0887766
-0.0882497
-0.087654
-0.0870159
-0.0863363
-0.0855744
-0.0846527
-0.0834505
-0.0818075
-0.0795435
-0.076494
-0.0725416
-0.0908789
-0.0909532
-0.0909913
-0.0909993
-0.0910017
-0.0910021
-0.0909923
-0.0909687
-0.0909266
-0.0908612
-0.0907722
-0.0906617
-0.0905353
-0.0904017
-0.0902704
-0.0901502
-0.0900467
-0.0899572
-0.0898686
-0.0897574
-0.089595
-0.0893555
-0.0890194
-0.0885763
-0.0880343
-0.0874296
-0.0868032
-0.0861593
-0.0854655
-0.0846606
-0.0836281
-0.0822009
-0.0801786
-0.0773719
-0.0736443
-0.0906684
-0.0907488
-0.0907974
-0.0908137
-0.0908215
-0.0908247
-0.0908191
-0.0908014
-0.0907674
-0.0907141
-0.0906404
-0.0905463
-0.0904346
-0.0903106
-0.0901802
-0.0900485
-0.0899197
-0.0897941
-0.0896652
-0.0895186
-0.0893334
-0.089087
-0.0887581
-0.0883265
-0.0877862
-0.0871619
-0.0864931
-0.0858031
-0.0850819
-0.0842734
-0.0832655
-0.0818945
-0.0799514
-0.0772168
-0.073547
-0.0905844
-0.0906574
-0.090705
-0.0907229
-0.0907314
-0.0907328
-0.0907259
-0.0907077
-0.0906757
-0.0906278
-0.0905624
-0.0904795
-0.0903798
-0.090265
-0.0901374
-0.089999
-0.0898503
-0.0896911
-0.0895186
-0.0893254
-0.0890998
-0.088827
-0.0884899
-0.0880685
-0.0875456
-0.0869209
-0.0862106
-0.0854359
-0.0846013
-0.0836738
-0.0825645
-0.0811123
-0.0790907
-0.0762677
-0.0724987
-0.0905856
-0.0906454
-0.0906893
-0.0907087
-0.0907171
-0.0907175
-0.0907089
-0.0906888
-0.0906561
-0.0906093
-0.0905475
-0.0904704
-0.0903781
-0.090271
-0.0901487
-0.0900105
-0.0898542
-0.0896776
-0.0894774
-0.0892492
-0.088987
-0.0886829
-0.0883257
-0.0878995
-0.0873851
-0.0867644
-0.0860256
-0.0851613
-0.0841622
-0.0830026
-0.0816262
-0.0799224
-0.0777116
-0.0747757
-0.0709207
-0.0906327
-0.0906813
-0.0907231
-0.0907471
-0.0907585
-0.0907593
-0.0907495
-0.0907285
-0.0906956
-0.0906493
-0.0905893
-0.0905154
-0.0904274
-0.090325
-0.0902076
-0.0900733
-0.0899184
-0.0897393
-0.0895315
-0.08929
-0.0890103
-0.0886872
-0.0883135
-0.087878
-0.0873643
-0.08675
-0.086007
-0.0851029
-0.0839996
-0.0826509
-0.0809957
-0.0789452
-0.0763743
-0.0731305
-0.0690518
-0.0906826
-0.0907282
-0.0907753
-0.0908065
-0.0908221
-0.0908245
-0.0908149
-0.0907935
-0.0907601
-0.0907144
-0.090656
-0.090585
-0.0905014
-0.0904049
-0.0902947
-0.0901689
-0.0900241
-0.0898559
-0.0896583
-0.0894247
-0.0891483
-0.0888224
-0.0884403
-0.0879943
-0.0874741
-0.0868642
-0.0861399
-0.085264
-0.0841832
-0.0828252
-0.0810971
-0.0788846
-0.0760567
-0.072479
-0.0680352
-0.00999762
-0.00843935
-0.00702993
-0.00575991
-0.00462132
-0.00360772
-0.00271596
-0.00195394
-0.00131782
-0.000600964
-0.00969923
-0.00817758
-0.0068035
-0.00556593
-0.00445325
-0.00345407
-0.00257153
-0.00182396
-0.00121164
-0.000597554
-0.00932027
-0.00782685
-0.00648321
-0.00527551
-0.00418923
-0.00321172
-0.00234701
-0.00162579
-0.00107081
-0.0005953
-0.00910103
-0.00755517
-0.00618576
-0.00497243
-0.00389457
-0.00293562
-0.00209757
-0.00141325
-0.000927894
-0.000597638
-0.00963322
-0.00782146
-0.00625398
-0.00490368
-0.00374212
-0.00274801
-0.00190801
-0.00125353
-0.000803138
-0.000731954
-0.0118037
-0.00939888
-0.00732774
-0.00557414
-0.00411309
-0.00291959
-0.00196188
-0.00127257
-0.000747508
-0.00112703
-0.0163519
-0.0130483
-0.0101378
-0.00764083
-0.00555444
-0.00387092
-0.00253438
-0.00162977
-0.000741579
-0.00183498
-0.023431
-0.0190867
-0.0151117
-0.0115816
-0.0085389
-0.0060196
-0.00394964
-0.00254149
-0.000889793
-0.00291297
-0.0324576
-0.0271548
-0.0220938
-0.0174088
-0.0131989
-0.00956643
-0.00643022
-0.00418719
-0.00134704
-0.00418556
-0.0422816
-0.0362936
-0.0303329
-0.0245815
-0.0191914
-0.0143397
-0.00994583
-0.0066102
-0.00231916
-0.0053117
-0.0515538
-0.0452484
-0.0387103
-0.0321488
-0.0257593
-0.0197785
-0.0141598
-0.00962882
-0.00394362
-0.00595673
-0.0591522
-0.0528654
-0.0460911
-0.0390451
-0.0319493
-0.0250883
-0.0184675
-0.0128301
-0.00612791
-0.00592927
-0.0645061
-0.0584317
-0.0516637
-0.0444078
-0.0369022
-0.0294559
-0.0221635
-0.0156526
-0.00850164
-0.00524469
-0.0676347
-0.061794
-0.0551185
-0.047796
-0.0400772
-0.0322866
-0.0246314
-0.0175431
-0.0105235
-0.00408791
-0.0689276
-0.0632165
-0.0565837
-0.0492018
-0.0413366
-0.033328
-0.0255067
-0.0181177
-0.0116511
-0.0027105
-0.0688656
-0.06315
-0.0564488
-0.0489286
-0.0408769
-0.0326589
-0.0247299
-0.0172261
-0.0115058
-0.00131289
-0.0677266
-0.0619163
-0.0550791
-0.0473702
-0.0390862
-0.0306226
-0.0225289
-0.0149832
-0.00994675
4.96315e-05
-0.0660269
-0.0600341
-0.0529555
-0.0449728
-0.0364161
-0.0276814
-0.0193499
-0.011741
-0.00709782
0.00147106
-0.0639894
-0.057844
-0.0506307
-0.0424935
-0.0337046
-0.0246747
-0.0159877
-0.00816619
-0.00327504
0.00322613
-0.0626495
-0.0562919
-0.0489642
-0.0407528
-0.0318912
-0.0227468
-0.0138554
-0.00603083
-0.000392388
0.00448089
)
;

boundaryField
{
    inlet
    {
        type            zeroGradient;
    }
    outlet
    {
        type            fixedValue;
        value           uniform 0;
    }
    upperWall
    {
        type            zeroGradient;
    }
    lowerWall
    {
        type            zeroGradient;
    }
    frontAndBack
    {
        type            empty;
    }
}


// ************************************************************************* //
