/*--------------------------------*- C++ -*----------------------------------*\
| =========                 |                                                 |
| \\      /  F ield         | OpenFOAM: The Open Source CFD Toolbox           |
|  \\    /   O peration     | Version:  2406                                  |
|   \\  /    A nd           | Website:  www.openfoam.com                      |
|    \\/     M anipulation  |                                                 |
\*---------------------------------------------------------------------------*/
FoamFile
{
    version     2.0;
    format      ascii;
    arch        "LSB;label=32;scalar=64";
    class       surfaceScalarField;
    location    "55";
    object      phi;
}
// * * * * * * * * * * * * * * * * * * * * * * * * * * * * * * * * * * * * * //

dimensions      [0 3 -1 0 0 0 0];

oriented        oriented;

internalField   nonuniform List<scalar> 
3470
(
0.0194559
-0.000455878
0.0201443
-0.000688451
0.0208857
-0.000741333
0.0216588
-0.000773184
0.022477
-0.000818108
0.023361
-0.000884061
0.0243452
-0.000984155
0.0254891
-0.00114399
0.0268621
-0.00137302
-0.00215291
0.029015
0.0508509
-0.000306791
0.0508807
-0.000718285
0.0511112
-0.000971778
0.0515166
-0.00117864
0.0520888
-0.00139024
0.0528286
-0.00162387
0.0537452
-0.00190079
0.0548585
-0.00225731
0.0562239
-0.00273844
-0.0034557
0.0575267
0.0749485
-0.000255318
0.0749223
-0.00069209
0.0749939
-0.00104333
0.0751764
-0.00136116
0.0754752
-0.00168905
0.0758979
-0.00204656
0.0764488
-0.00245176
0.0771221
-0.00293062
0.0778927
-0.00350907
-0.00421686
0.0786539
0.0909744
-0.000229699
0.0909282
-0.000645966
0.0909149
-0.00102994
0.0909575
-0.00140384
0.0910621
-0.00179365
0.0912309
-0.00221528
0.0914615
-0.00268241
0.0917421
-0.00321121
0.092049
-0.00381598
-0.00450544
0.0923375
0.0989674
-0.000197144
0.0988845
-0.000563062
0.0987868
-0.000932259
0.0986973
-0.00131432
0.0986212
-0.00171755
0.0985567
-0.00215081
0.0984982
-0.0026239
0.0984332
-0.00314622
0.0983415
-0.00372424
-0.00435864
0.0981947
0.0989482
-0.000145312
0.0988108
-0.000425666
0.0986225
-0.000743966
0.0984035
-0.00109535
0.098156
-0.00147011
0.0978756
-0.00187033
0.0975542
-0.00230255
0.0971789
-0.00277098
0.0967314
-0.0032767
-0.00381712
0.0961899
0.0909167
-6.19875e-05
0.0907098
-0.000218845
0.0904288
-0.000462951
0.0900884
-0.000754918
0.089685
-0.00106675
0.089212
-0.00139735
0.0886598
-0.00175036
0.0880143
-0.00212548
0.087258
-0.00252044
-0.00293159
0.0863725
0.0748535
8.45134e-05
0.0745693
6.53341e-05
0.0742097
-0.000103336
0.0737744
-0.000319664
0.0732545
-0.000546866
0.0726424
-0.000785268
0.071927
-0.00103492
0.0710933
-0.00129177
0.0701249
-0.00155215
-0.00181285
0.0690062
0.05073
0.000354485
0.0504292
0.00036612
0.0501062
0.000219646
0.0497257
6.08889e-05
0.049267
-8.82636e-05
0.0487127
-0.000230978
0.0480443
-0.000366506
0.0472452
-0.00049266
0.0463018
-0.000608755
-0.000714761
0.0452037
0.0193545
0.0197206
0.0199402
0.0200011
0.0199129
0.0196819
0.0193154
0.0188227
0.0182139
0.0174992
-4.09412e-05
4.09467e-05
-0.000170336
0.000129407
-0.000354295
0.000183966
-0.000562211
0.000207925
-0.00078154
0.000219339
-0.00100996
0.000228433
-0.00124942
0.000239478
-0.00150362
0.000254204
-0.00177731
0.000273696
-0.0020765
0.000299186
-0.00240858
0.000332078
-0.00278249
0.000373912
-0.0032088
0.000426299
-0.00369924
0.000490425
-0.00426572
0.000566449
-0.0049182
0.000652428
-0.00566127
0.000743016
-0.00648947
0.000828131
-0.00738115
0.00089161
-0.00829263
0.000911403
-0.00915509
0.000862374
-0.0098752
0.000719986
-0.0103389
0.000463573
-0.0104217
8.26416e-05
-0.0100149
-0.000406869
-0.00904328
-0.00097177
-0.0074577
-0.00158569
-0.00523846
-0.00221935
-0.00239713
-0.00284144
0.00103151
-0.00342876
0.00497127
-0.00393985
0.00929985
-0.00432868
0.0138699
-0.00457014
0.0185132
-0.00464338
-0.00453192
0.0230451
-0.000173121
0.000214081
-0.000522097
0.000478403
-0.000965552
0.000627438
-0.00145147
0.000693866
-0.0019574
0.000725286
-0.00247805
0.000749113
-0.00301603
0.000777479
-0.00357745
0.000815631
-0.00417039
0.000866618
-0.00480427
0.000933057
-0.00548942
0.00101721
-0.00623604
0.00112053
-0.00705246
0.0012427
-0.00794227
0.0013802
-0.00890046
0.00152455
-0.00990858
0.00166044
-0.0109298
0.00176414
-0.0119048
0.00180301
-0.0127503
0.00173694
-0.0133621
0.00152306
-0.0136243
0.00112437
-0.0134226
0.000517996
-0.0126629
-0.000296284
-0.0112913
-0.00128924
-0.00927236
-0.00242601
-0.00658059
-0.00366373
-0.00320909
-0.00495737
0.000831815
-0.00626042
0.00550603
-0.00751581
0.0107327
-0.00865556
0.0164129
-0.00962017
0.0224329
-0.0103487
0.0286504
-0.0107877
0.0348997
-0.0108927
-0.0106316
0.0409993
-0.000316966
0.000531054
-0.000880538
0.00104199
-0.00154642
0.00129333
-0.0022462
0.00139365
-0.00295367
0.00143278
-0.00366214
0.0014576
-0.00437287
0.00148823
-0.00508997
0.00153274
-0.00581806
0.00159472
-0.00656083
0.00167583
-0.00731943
0.00177584
-0.00809038
0.00189151
-0.00886293
0.00201527
-0.00961599
0.00213323
-0.0103152
0.00222371
-0.010911
0.00225621
-0.0113389
0.00219185
-0.0115211
0.00198517
-0.0113728
0.00158848
-0.0108087
0.000958859
-0.00975647
7.19686e-05
-0.00817503
-0.00106359
-0.00605064
-0.00242083
-0.00336238
-0.00397764
-9.23263e-05
-0.0056962
0.00377182
-0.00752798
0.00821793
-0.00940357
0.0132072
-0.0112497
0.018684
-0.0129927
0.02458
-0.0145517
0.0308065
-0.0158468
0.0372572
-0.0167995
0.0438061
-0.0173367
0.0503022
-0.0173889
-0.0169035
0.056574
-0.000449943
0.000981001
-0.00118955
0.00178159
-0.002009
0.00211277
-0.00282571
0.00221036
-0.00361285
0.00221994
-0.00436351
0.00220829
-0.0050767
0.00220145
-0.00575184
0.00220791
-0.00638624
0.00222915
-0.00697339
0.00226302
-0.00750125
0.00230375
-0.00795063
0.00234096
-0.00829381
0.00235849
-0.00849355
0.00233299
-0.00850311
0.00223323
-0.00826827
0.00202132
-0.00773129
0.0016548
-0.00683544
0.00108926
-0.00553116
0.000284104
-0.00378542
-0.000786958
-0.00158524
-0.00212827
0.00108437
-0.00373323
0.00424834
-0.00558481
0.00791698
-0.0076463
0.0120865
-0.00986579
0.0167362
-0.0121777
0.0218347
-0.0145021
0.0273363
-0.0167515
0.0331799
-0.0188364
0.0392956
-0.0206674
0.0456047
-0.0221561
0.0520181
-0.0232129
0.0584325
-0.0237513
0.0647135
-0.02367
-0.022888
0.070698
-0.000564231
0.00154522
-0.0014123
0.00262964
-0.00227673
0.00297718
-0.00307291
0.00300653
-0.00378085
0.00292789
-0.00439711
0.00282457
-0.00492034
0.00272469
-0.00534655
0.00263414
-0.00566718
0.0025498
-0.0058682
0.00246408
-0.00592935
0.00236497
-0.00582382
0.00223549
-0.00551876
0.00205347
-0.00497637
0.00179061
-0.00415536
0.0014122
-0.00301475
0.000880665
-0.0015187
0.000158716
0.000361466
-0.000790953
0.00264606
-0.00200051
0.00535021
-0.00349112
0.00848854
-0.00526656
0.0120684
-0.0073131
0.0160846
-0.00960093
0.0205192
-0.0120809
0.025339
-0.0146856
0.0304946
-0.0173333
0.0359257
-0.0199332
0.0415661
-0.0223919
0.0473485
-0.0246188
0.0532114
-0.0265304
0.0591004
-0.0280452
0.0649696
-0.0290821
0.070769
-0.0295509
0.0763996
-0.0293006
-0.0282068
0.0817182
-0.000660035
0.00220524
-0.00151958
0.00348914
-0.002272
0.00372955
-0.00286357
0.00359808
-0.00329895
0.00336326
-0.00358519
0.00311081
-0.00372429
0.00286378
-0.00371224
0.00262209
-0.0035385
0.00237608
-0.00318644
0.00211206
-0.00263402
0.00181261
-0.0018541
0.00145565
-0.00081628
0.00101569
0.000510685
0.000463641
0.00215682
-0.000233968
0.00415207
-0.00111461
0.00652539
-0.00221462
0.00929779
-0.00356335
0.0124802
-0.00518287
0.0160718
-0.00708271
0.0200601
-0.00925479
0.024418
-0.011671
0.029101
-0.0142839
0.0340481
-0.017028
0.0391854
-0.0198229
0.0444316
-0.0225795
0.0497055
-0.0252072
0.0549342
-0.0276206
0.0600601
-0.0297448
0.0650489
-0.0315192
0.0698906
-0.0328869
0.0746104
-0.0338021
0.0792459
-0.0341864
0.0837932
-0.0338481
-0.0326766
0.0882629
-0.000736639
0.00294186
-0.00145184
0.00420428
-0.00184902
0.00412669
-0.00197975
0.00372878
-0.00190224
0.00328574
-0.00163849
0.00284705
-0.00119356
0.00241885
-0.000564057
0.00199258
0.000261497
0.00155055
0.00130075
0.00107287
0.00257568
0.000537752
0.00411163
-8.02448e-05
0.00593852
-0.000811192
0.00808991
-0.00168776
0.0105959
-0.00273999
0.0134776
-0.00399635
0.0167448
-0.00548175
0.0203946
-0.00721319
0.0244087
-0.00919694
0.0287505
-0.0114245
0.0333652
-0.0138695
0.0381815
-0.0164872
0.0431135
-0.0192159
0.048066
-0.0219804
0.0529405
-0.0246974
0.0576432
-0.0272822
0.0620927
-0.0296567
0.0662286
-0.0317566
0.0700206
-0.0335368
0.0734775
-0.0349761
0.0766537
-0.0360631
0.0796631
-0.0368116
0.0826466
-0.03717
0.0857856
-0.0369872
-0.0365908
0.0896996
-0.000751529
0.00369335
-0.000947449
0.00440014
-0.000547872
0.00372706
0.000166246
0.00301464
0.00106984
0.00238214
0.00214481
0.00177208
0.00339639
0.00116726
0.00483411
0.000554865
0.00647419
-8.95106e-05
0.00834243
-0.000795331
0.0104708
-0.00159057
0.0128896
-0.002499
0.0156224
-0.00354398
0.0186835
-0.00474887
0.0220783
-0.00613482
0.0258005
-0.00771859
0.0298289
-0.00951014
0.0341256
-0.0115099
0.0386348
-0.0137062
0.0432839
-0.0160735
0.047985
-0.0185707
0.05264
-0.0211423
0.0571447
-0.0237206
0.0613949
-0.0262306
0.0652925
-0.028595
0.0687519
-0.0307417
0.0717066
-0.0326114
0.0741164
-0.0341664
0.075979
-0.0353995
0.0773452
-0.0363425
0.0783504
-0.0370683
0.0792348
-0.0376962
0.0803546
-0.0382899
0.082178
-0.0388108
-0.0406106
0.0861976
-0.000202688
0.00389601
0.00124283
0.00295456
0.0031901
0.00177974
0.00520452
0.0010002
0.00726208
0.00032456
0.0094017
-0.000367551
0.0116612
-0.00109231
0.0140762
-0.0018601
0.016679
-0.00269229
0.0194942
-0.00361058
0.0225378
-0.00463411
0.0258191
-0.00578034
0.0293404
-0.00706523
0.0330936
-0.00850205
0.0370585
-0.0100998
0.0412013
-0.0118614
0.0454733
-0.0137822
0.0498113
-0.0158479
0.0541384
-0.0180334
0.0583666
-0.0203016
0.0623999
-0.022604
0.0661392
-0.0248816
0.0694866
-0.027068
0.0723498
-0.0290939
0.074647
-0.0308922
0.0763104
-0.032405
0.0772903
-0.0335914
0.0775605
-0.0344366
0.0771269
-0.0349659
0.0760444
-0.0352601
0.0744709
-0.0354947
0.0727412
-0.0359667
0.0716681
-0.037217
0.0725402
-0.0396831
-0.0447122
0.0766417
0.0056781
-0.00178212
0.010013
-0.0013804
0.0135532
-0.00176052
0.0168253
-0.00227184
0.0199704
-0.00282059
0.0230605
-0.00345769
0.02616
-0.00419177
0.0293183
-0.0050185
0.0325676
-0.00594153
0.0359262
-0.00696914
0.0394016
-0.00810956
0.0429911
-0.00936976
0.0466807
-0.0107549
0.0504455
-0.0122669
0.0542488
-0.013903
0.058042
-0.0156546
0.0617654
-0.0175055
0.0653489
-0.0194314
0.0687144
-0.0213988
0.0717778
-0.0233651
0.074453
-0.0252792
0.0766545
-0.0270831
0.0783018
-0.0287154
0.0793224
-0.0301145
0.0796546
-0.0312245
0.0792504
-0.0320009
0.0780772
-0.0324182
0.0761188
-0.0324782
0.0733752
-0.0322224
0.0698622
-0.0317471
0.0656185
-0.0312511
0.0607315
-0.0310798
0.0556551
-0.0321408
0.0521537
-0.0361818
-0.0487063
0.0561478
0.0305832
-0.00335033
0.0331459
-0.00394313
0.0357839
-0.00439851
0.0384666
-0.00495453
0.0412224
-0.00557643
0.0440326
-0.0062679
0.0468895
-0.00704863
0.049796
-0.00792505
0.0527521
-0.0088976
0.0557505
-0.00996756
0.0587775
-0.0111366
0.0618126
-0.0124048
0.0648271
-0.0137694
0.067784
-0.0152238
0.0706379
-0.016757
0.0733352
-0.0183519
0.0758151
-0.0199854
0.0780105
-0.0216269
0.0798503
-0.0232387
0.0812614
-0.0247762
0.0821714
-0.0261892
0.0825117
-0.0274235
0.0822211
-0.0284247
0.0812482
-0.0291416
0.0795549
-0.0295312
0.0771186
-0.0295646
0.0739323
-0.029232
0.070003
-0.0285489
0.0653428
-0.0275622
0.0599509
-0.0263551
0.0537631
-0.0250634
0.0465485
-0.0238652
0.0375152
-0.0231075
0.0245498
-0.0232165
-0.0241565
0.0585423
-0.00436596
0.0597736
-0.00517441
0.0612245
-0.0058494
0.0628174
-0.00654746
0.0645412
-0.00730019
0.0663746
-0.00810132
0.068286
-0.00896001
0.0702476
-0.00988669
0.0722349
-0.0108849
0.0742218
-0.0119545
0.0761791
-0.0130939
0.0780731
-0.0142988
0.0798654
-0.0155617
0.0815122
-0.0168706
0.0829643
-0.018209
0.0841673
-0.019555
0.085063
-0.0208811
0.0855899
-0.0221538
0.0856857
-0.0233345
0.0852892
-0.0243797
0.0843434
-0.0252433
0.0827988
-0.0258789
0.0806174
-0.0262432
0.0777758
-0.0263
0.0742691
-0.0260246
0.0701126
-0.0254081
0.065341
-0.0244604
0.060004
-0.0232119
0.0541545
-0.0217127
0.0478269
-0.0200275
0.0409913
-0.0182278
0.0334886
-0.0163625
0.0248462
-0.0144651
0.0141244
-0.0124947
-0.0100321
0.0793298
-0.00504185
0.0800263
-0.00587095
0.0808182
-0.00664128
0.0816785
-0.00740777
0.082586
-0.00820766
0.0835278
-0.00904314
0.0844839
-0.00991612
0.0854296
-0.0108324
0.086339
-0.0117943
0.0871838
-0.0127993
0.0879322
-0.0138422
0.0885482
-0.0149149
0.088992
-0.0160055
0.0892197
-0.0170983
0.0891838
-0.0181732
0.0888341
-0.0192053
0.0881186
-0.0201655
0.0869853
-0.0210206
0.085385
-0.0217342
0.0832738
-0.0222685
0.080617
-0.0225865
0.0773929
-0.0226549
0.0735972
-0.0224476
0.0692464
-0.0219492
0.0643801
-0.0211583
0.0590615
-0.0200894
0.0533742
-0.0187732
0.0474155
-0.0172531
0.0412818
-0.015579
0.0350468
-0.0137926
0.0287221
-0.0119032
0.0222087
-0.00984907
0.0152454
-0.00750179
0.00757081
-0.00482004
-0.00246128
0.0925639
-0.00526817
0.0927473
-0.00605435
0.0929295
-0.00682349
0.0931077
-0.00758596
0.0932636
-0.0083636
0.0933826
-0.00916215
0.0934473
-0.00998085
0.0934349
-0.01082
0.093319
-0.0116784
0.093071
-0.0125513
0.0926592
-0.0134305
0.0920492
-0.0143048
0.0912034
-0.0151598
0.0900824
-0.0159773
0.088645
-0.0167358
0.0868502
-0.0174105
0.0846587
-0.017974
0.0820356
-0.0183975
0.0789535
-0.0186522
0.0753962
-0.0187112
0.0713621
-0.0185525
0.0668685
-0.0181613
0.061954
-0.017533
0.0566802
-0.0166754
0.0511313
-0.0156095
0.0454111
-0.0143692
0.0396364
-0.0129985
0.0339275
-0.0115442
0.0283927
-0.0100442
0.0231042
-0.0085041
0.0180644
-0.00686338
0.0131856
-0.00497027
0.00833935
-0.00265547
0.00362769
-0.000108244
0.00116644
0.0979659
-0.00503942
0.0976532
-0.00574165
0.0972705
-0.00644074
0.096817
-0.00713247
0.0962784
-0.00782497
0.0956381
-0.00852185
0.0948781
-0.00922094
0.0939771
-0.00991893
0.0929103
-0.0106116
0.0916512
-0.0112922
0.0901714
-0.0119508
0.0884415
-0.0125748
0.0864308
-0.0131491
0.0841095
-0.0136559
0.0814493
-0.0140757
0.0784265
-0.0143877
0.0750235
-0.0145711
0.0712325
-0.0146065
0.0670582
-0.0144778
0.0625207
-0.0141738
0.0576586
-0.0136903
0.0525295
-0.0130322
0.0472104
-0.0122139
0.0417953
-0.0112603
0.0363907
-0.0102049
0.0311093
-0.00908787
0.0260623
-0.00795143
0.0213492
-0.00683106
0.017043
-0.00573802
0.0131676
-0.00462874
0.00967967
-0.00337545
0.00649356
-0.00178417
0.00360315
0.000234997
0.00127736
0.00221763
0.00244381
0.0955345
-0.00438408
0.0947557
-0.00496277
0.0938522
-0.00553731
0.0928198
-0.00610007
0.0916462
-0.00665134
0.0903157
-0.00719138
0.0888118
-0.00771705
0.0871163
-0.00822342
0.0852094
-0.00870468
0.0830705
-0.00915333
0.0806795
-0.00955973
0.0780171
-0.00991244
0.0750666
-0.0101987
0.0718156
-0.010405
0.0682578
-0.0105178
0.0643949
-0.0105249
0.0602398
-0.010416
0.0558175
-0.0101843
0.0511676
-0.00982789
0.0463444
-0.00935062
0.0414169
-0.00876279
0.036466
-0.00808127
0.0315809
-0.0073289
0.0268538
-0.00653317
0.0223732
-0.0057243
0.0182185
-0.00493316
0.0144546
-0.00418759
0.0111267
-0.00350312
0.00824907
-0.00286043
0.00579411
-0.00217381
0.00370242
-0.00128381
0.00194443
-2.6229e-05
0.000623972
0.00155547
-2.84382e-05
0.00287009
0.00241538
0.0853409
-0.00335252
0.0841516
-0.00377346
0.082798
-0.00418369
0.0812738
-0.0045759
0.0795697
-0.00494724
0.0776744
-0.00529603
0.0755764
-0.0056191
0.0732649
-0.00591195
0.0707297
-0.00616945
0.0679621
-0.00638575
0.0649566
-0.00655422
0.0617118
-0.00666768
0.0582322
-0.00671907
0.0545293
-0.00670207
0.0506232
-0.00661177
0.0465437
-0.00644542
0.0423309
-0.00620312
0.038035
-0.00588838
0.0337155
-0.0055084
0.0294388
-0.005074
0.0252751
-0.0045991
0.0212936
-0.00409971
0.0175574
-0.0035928
0.0141194
-0.00309517
0.0110184
-0.00262332
0.00827863
-0.00219339
0.00591
-0.00181898
0.00390828
-0.0015014
0.00225292
-0.00120509
0.00091124
-0.000832152
-0.000131096
-0.000241535
-0.000818626
0.00066127
-0.00101438
0.00175123
-0.000618518
0.00247427
0.00179687
0.0677232
-0.00206951
0.0662658
-0.00231607
0.0646281
-0.00254597
0.0628065
-0.0027543
0.060798
-0.00293872
0.0586001
-0.00309818
0.0562123
-0.00323132
0.0536365
-0.00333617
0.0508777
-0.00341063
0.0479446
-0.00345264
0.0448506
-0.00346023
0.0416146
-0.0034317
0.0382615
-0.00336601
0.0348226
-0.00326311
0.031335
-0.00312424
0.0278417
-0.0029521
0.0243895
-0.0027509
0.0210273
-0.00252628
0.0178039
-0.00228496
0.0147643
-0.00203437
0.0119471
-0.00178189
0.00938154
-0.00153423
0.00708598
-0.00129726
0.00506705
-0.00107628
0.00332172
-0.000878021
0.00183863
-0.000710321
0.000599405
-0.000579773
-0.000418673
-0.000483333
-0.00123473
-0.000389041
-0.00184296
-0.000223947
-0.00218888
0.000104343
-0.00216581
0.000638166
-0.00166906
0.00125449
-0.00076588
0.00157113
0.001031
0.0439442
-0.000810031
0.0425212
-0.000893093
0.0409375
-0.000962242
0.0391997
-0.00101653
0.0373172
-0.0010562
0.0353012
-0.0010822
0.0331652
-0.00109535
0.0309252
-0.00109616
0.0285996
-0.0010851
0.0262097
-0.00106272
0.0237792
-0.0010297
0.0213343
-0.00098682
0.0189033
-0.000935052
0.0165157
-0.000875574
0.0142012
-0.00080974
0.0119882
-0.000739046
0.00990234
-0.000665076
0.00796551
-0.00058945
0.00619421
-0.000513661
0.00459959
-0.000439758
0.0031872
-0.000369518
0.00195647
-0.000303533
0.00090177
-0.000242591
1.35064e-05
-0.000188047
-0.000723458
-0.000141088
-0.00132882
-0.000104983
-0.0018249
-8.37049e-05
-0.00223231
-7.5922e-05
-0.00255338
-6.79831e-05
-0.00274893
-2.84267e-05
-0.00272734
8.27245e-05
-0.00237191
0.000282708
-0.00163095
0.000513549
-0.000667211
0.000607425
0.000363792
0.0166891
0.015796
0.0148338
0.0138173
0.0127611
0.0116789
0.0105835
0.00948735
0.00840226
0.00733954
0.00630984
0.00532301
0.00438795
0.00351237
0.00270263
0.00196358
0.00129851
0.000709058
0.000195396
-0.000244365
-0.000613887
-0.000917425
-0.00116002
-0.00134807
-0.00148917
-0.00159415
-0.00167786
-0.00175378
-0.00182177
-0.0018502
-0.00176748
-0.00148477
-0.000971221
-0.000363792
0.0272785
-0.00423347
0.0310432
-0.0037647
0.0342094
-0.00316621
0.036704
-0.0024946
0.0385067
-0.00180258
0.0396345
-0.0011278
0.0401283
-0.000493721
0.040039
8.93759e-05
0.0394428
0.000596219
0.000997795
0.0384451
0.0467624
-0.00999658
0.0520169
-0.0090192
0.0566372
-0.00778646
0.0605599
-0.00641729
0.0637723
-0.0050149
0.0662947
-0.0036502
0.0681738
-0.0023728
0.0694829
-0.00121962
0.0702857
-0.000206533
0.000662437
0.0706211
0.0624332
-0.0158558
0.0677018
-0.0142878
0.0722737
-0.0123584
0.076129
-0.0102726
0.0792972
-0.00818305
0.0818292
-0.00618225
0.0837899
-0.00433348
0.0852501
-0.0026798
0.0862857
-0.00124208
-1.97742e-05
0.086968
0.0761821
-0.0213398
0.080969
-0.0190748
0.0849879
-0.0163773
0.0882808
-0.0135656
0.0909179
-0.0108203
0.0929715
-0.00823583
0.0945213
-0.00588339
0.0956511
-0.00380956
0.0964382
-0.00202921
-0.000532959
0.0969514
0.086482
-0.0261038
0.090475
-0.0230678
0.0936944
-0.0195968
0.0962347
-0.0161059
0.0981665
-0.0127522
0.0995607
-0.00963004
0.10051
-0.00683318
0.101116
-0.00441485
0.101467
-0.00238069
-0.00070765
0.101642
0.0922635
-0.0301045
0.0954271
-0.0262316
0.0977702
-0.02194
0.0993519
-0.0176877
0.100231
-0.0136313
0.100552
-0.0099508
0.1005
-0.00678189
0.10024
-0.00415437
0.0998914
-0.00203249
-0.000357681
0.0995414
0.0933182
-0.0337232
0.0954577
-0.0283712
0.0961333
-0.0226158
0.095548
-0.0171025
0.0940995
-0.012183
0.0922851
-0.00813649
0.0904813
-0.00497826
0.0888991
-0.00257237
0.0876296
-0.000763104
0.000578788
0.0866929
0.0886306
-0.0361563
0.087092
-0.0268327
0.0829117
-0.0184356
0.077613
-0.0118039
0.0724145
-0.00698477
0.0680097
-0.003732
0.0646131
-0.00158204
0.0621694
-0.000129081
0.0605447
0.000861117
0.00150218
0.0596209
0.0713538
-0.0308683
0.0601969
-0.0156759
0.0485493
-0.00678813
0.0393391
-0.00259399
0.032959
-0.000605005
0.028905
0.000321513
0.0265969
0.000725617
0.0255833
0.000883845
0.0254725
0.000971312
0.00105134
0.0259228
0.0252794
0.00960354
0.00281534
0.000221247
-0.000383886
-6.25244e-05
0.000662901
0.00154657
0.0025177
0.00356871
0.0371533
0.00129191
0.035662
0.0014914
0.0340493
0.00161283
0.0323763
0.00167317
0.0306881
0.00168828
0.0290165
0.0016718
0.0273818
0.00163478
0.0257961
0.00158591
0.0242646
0.00153174
0.0227878
0.00147694
0.0213635
0.0014246
0.0199873
0.00137654
0.0186541
0.00133359
0.0173587
0.00129585
0.0160964
0.00126282
0.0148633
0.00123361
0.0136569
0.00120705
0.0124757
0.0011818
0.0113199
0.00115643
0.010191
0.00112952
0.00909179
0.00109978
0.00802622
0.00106611
0.00699903
0.00102767
0.00601545
0.000983976
0.00508092
0.000934862
0.00420065
0.000880503
0.00337941
0.00082139
0.0026212
0.000758262
0.00192907
0.000692089
0.00130499
0.000623962
0.000749686
0.000555107
0.000262745
0.000486682
-0.000157737
0.000420197
-0.000515255
0.000357216
0.000298248
-0.000813779
0.0705291
0.00138407
0.070057
0.0019637
0.0692532
0.00241672
0.0681643
0.00276231
0.066833
0.00301976
0.0652983
0.00320664
0.0635947
0.00333854
0.0617518
0.00342905
0.0597941
0.00348966
0.0577416
0.00352966
0.0556103
0.00355631
0.0534121
0.00357512
0.0511561
0.00359002
0.0488489
0.00360359
0.0464951
0.00361718
0.0440984
0.00363108
0.0416615
0.00364462
0.0391878
0.00365625
0.0366813
0.00366371
0.0341475
0.00366411
0.0315938
0.00365416
0.0290303
0.00363033
0.0264693
0.00358917
0.0239263
0.00352751
0.0214188
0.00344279
0.0189664
0.00333326
0.0165897
0.00319826
0.0143097
0.00303836
0.0121463
0.00285544
0.0101174
0.00265264
0.008238
0.0024342
0.00651908
0.00220521
0.00496757
0.00197122
0.00358642
0.00173786
0.00151017
0.00237401
0.0873498
0.00100228
0.0874688
0.00184479
0.087352
0.00253362
0.0870181
0.00309634
0.0864807
0.00355725
0.085751
0.0039364
0.0848388
0.0042508
0.0837528
0.00451519
0.0825006
0.00474201
0.0810889
0.00494152
0.0795234
0.00512201
0.0778086
0.00529011
0.075948
0.00545094
0.0739437
0.00560822
0.0717969
0.00576438
0.0695079
0.00592056
0.0670763
0.00607663
0.064502
0.00623113
0.0617849
0.00638128
0.0589266
0.006523
0.0559302
0.00665104
0.0528019
0.00675911
0.0495514
0.00684019
0.0461925
0.00688687
0.0427439
0.00689176
0.0392295
0.00684803
0.0356781
0.00674991
0.0321234
0.00659329
0.0286027
0.00637621
0.025156
0.00609928
0.0218241
0.00576603
0.0186461
0.00538291
0.0156579
0.00495911
0.0128893
0.00450606
0.00403654
0.0103626
0.0972506
0.000703086
0.0973809
0.00171454
0.0973714
0.00254315
0.0972387
0.00322902
0.0969922
0.00380382
0.0966366
0.00429195
0.0961738
0.00471361
0.0956032
0.00508582
0.0949227
0.0054226
0.0941289
0.00573535
0.0932176
0.00603345
0.0921834
0.00632449
0.0910199
0.0066146
0.0897199
0.00690848
0.0882749
0.00720957
0.0866758
0.00752001
0.0849122
0.00784054
0.0829733
0.00817043
0.0808477
0.00850724
0.0785244
0.00884675
0.075993
0.00918287
0.0732449
0.00950767
0.0702741
0.00981144
0.0670783
0.010083
0.0636603
0.0103102
0.0600288
0.0104799
0.0561996
0.0105794
0.0521967
0.0105964
0.0480524
0.0105206
0.0438077
0.010344
0.0395118
0.0100619
0.0352203
0.00967435
0.0309933
0.0091859
0.0268926
0.00860656
0.00795134
0.0229775
0.101702
0.00064248
0.101691
0.00172543
0.101628
0.00260654
0.101518
0.00333934
0.101362
0.00395962
0.10116
0.00449359
0.10091
0.00496318
0.10061
0.00538647
0.100254
0.00577792
0.0998402
0.00614948
0.0993623
0.00651129
0.0988149
0.006872
0.0981906
0.00723893
0.0974809
0.00761823
0.0966757
0.00801488
0.0957631
0.00843277
0.0947294
0.00887448
0.0935589
0.00934115
0.0922343
0.00983217
0.0907364
0.010345
0.0890449
0.0108748
0.0871385
0.0114144
0.0849962
0.0119541
0.0825977
0.012482
0.0799249
0.0129834
0.0769632
0.013442
0.0737034
0.0138396
0.070143
0.0141572
0.0662886
0.0143754
0.0621572
0.0144757
0.0577778
0.0144415
0.0531923
0.01426
0.0484555
0.0139228
0.0436337
0.0134284
0.0127826
0.0388025
0.0992482
0.00093559
0.0990357
0.00193785
0.0988955
0.0027467
0.0988084
0.00342629
0.0987581
0.00400979
0.0987304
0.00452117
0.0987125
0.00498101
0.0986935
0.00540533
0.0986647
0.00580656
0.098619
0.00619513
0.0985498
0.00658031
0.0984513
0.00697043
0.0983172
0.00737296
0.0981408
0.00779466
0.097914
0.00824168
0.0976274
0.00871941
0.0972697
0.00923233
0.0968272
0.00978378
0.096284
0.0103756
0.0956215
0.0110078
0.0948182
0.0116783
0.0938505
0.0123824
0.092692
0.013113
0.0913145
0.0138598
0.0896884
0.0146099
0.0877836
0.0153472
0.0855709
0.0160527
0.0830235
0.0167049
0.0801196
0.0172797
0.0768441
0.0177515
0.0731924
0.0180937
0.0691722
0.0182805
0.0648065
0.0182888
0.0601352
0.0180999
0.0177023
0.0552157
0.086101
0.00152735
0.0858228
0.00221592
0.0857883
0.00278103
0.0859365
0.00327786
0.0862215
0.00372469
0.0866052
0.00413719
0.0870579
0.00452814
0.0875568
0.00490618
0.088085
0.00527821
0.088629
0.0056508
0.0891787
0.00603038
0.0897258
0.00642317
0.0902632
0.00683532
0.0907846
0.00727304
0.0912837
0.00774254
0.091753
0.00824997
0.0921843
0.00880111
0.0925669
0.00940113
0.0928885
0.0100541
0.0931337
0.0107627
0.0932847
0.0115276
0.0933203
0.012347
0.0932166
0.013217
0.0929461
0.0141306
0.0924783
0.015078
0.0917796
0.0160463
0.0908136
0.0170192
0.0895421
0.0179768
0.0879267
0.0188957
0.0859304
0.0197483
0.0835206
0.020504
0.0806723
0.0211294
0.0773714
0.0215902
0.0736187
0.021853
0.0218883
0.0694332
0.0593977
0.00175018
0.0597327
0.00188064
0.0604364
0.00207694
0.0613962
0.00231777
0.0625307
0.0025899
0.0637792
0.00288838
0.0651008
0.00320616
0.0664686
0.00353806
0.067864
0.00388246
0.0692743
0.00424011
0.070691
0.00461324
0.0721086
0.00500524
0.073523
0.00542047
0.0749315
0.00586421
0.0763314
0.00634244
0.0777193
0.00686176
0.0790911
0.0074292
0.0804404
0.00805175
0.0817586
0.00873593
0.0830343
0.00948701
0.0842534
0.0103086
0.0853983
0.0112022
0.0864484
0.0121671
0.0873795
0.0131998
0.0881634
0.0142944
0.0887682
0.0154419
0.0891576
0.0166303
0.0892912
0.0178437
0.0891253
0.0190621
0.0886136
0.0202606
0.0877092
0.0214089
0.0863672
0.022472
0.0845476
0.0234104
0.0822191
0.0241821
0.0247445
0.0793634
0.0271868
0.000485504
0.028974
9.29229e-05
0.0309651
8.53004e-05
0.0330508
0.000231519
0.0351605
0.000479753
0.0372648
0.000783582
0.0393578
0.00111263
0.04144
0.00145543
0.0435128
0.00180907
0.0455794
0.00217299
0.0476439
0.00254826
0.0497107
0.00293783
0.0517846
0.00334612
0.0538697
0.00377861
0.0559699
0.00424178
0.0580882
0.00474318
0.0602257
0.00529141
0.0623816
0.00589573
0.064552
0.00656531
0.0667305
0.00730847
0.068907
0.008132
0.0710683
0.00904091
0.0731973
0.0100381
0.0752727
0.0111244
0.0772689
0.0122981
0.0791556
0.0135554
0.080897
0.0148892
0.0824517
0.0162893
0.0837736
0.0177408
0.0848114
0.0192233
0.085511
0.02071
0.0858164
0.0221672
0.0856727
0.0235548
0.0850286
0.0248268
0.0259337
0.0838401
0.00624876
-0.00219531
0.00878012
-0.00243928
0.0111416
-0.00227698
0.01333
-0.00195765
0.0153959
-0.00158678
0.0173898
-0.0012111
0.0193492
-0.000847453
0.0212985
-0.00049472
0.0232548
-0.000148017
0.0252306
0.00019641
0.0272355
0.000542585
0.029278
0.000894513
0.0313666
0.00125676
0.0335096
0.00163498
0.0357148
0.00203598
0.0379894
0.00246803
0.0403391
0.00294121
0.0427677
0.00346675
0.0452765
0.00405614
0.0478644
0.00472015
0.0505279
0.00546818
0.0532602
0.00630829
0.056051
0.00724706
0.0588856
0.00828957
0.0617442
0.00943943
0.0646009
0.0106987
0.0674227
0.0120675
0.0701691
0.0135433
0.0727914
0.0151189
0.0752345
0.0167808
0.077437
0.0185082
0.0793338
0.0202712
0.0808581
0.0220313
0.0819441
0.0237416
0.0253489
0.0825296
0.000472968
-0.00266869
0.00159422
-0.00356148
0.00278996
-0.00347363
0.00400446
-0.00317301
0.00523155
-0.00281474
0.0064735
-0.00245392
0.00773737
-0.00211226
0.00903201
-0.00179034
0.0103652
-0.0014823
0.0117453
-0.00118473
0.013183
-0.00089622
0.0146899
-0.000613593
0.0162775
-0.000331954
0.0179574
-4.5955e-05
0.0197406
0.000251845
0.021636
0.000571694
0.0236515
0.000924995
0.0257934
0.00132399
0.0280676
0.00178131
0.0304787
0.00230832
0.0330311
0.00291504
0.035728
0.00361073
0.0385705
0.00440391
0.0415567
0.00530276
0.0446803
0.00631543
0.0479283
0.00745044
0.0512791
0.0087166
0.054701
0.0101216
0.0581507
0.0116694
0.0615744
0.0133577
0.0649083
0.0151749
0.0680812
0.0170991
0.0710166
0.0190966
0.0736364
0.0211226
0.023123
0.0758632
-0.000392213
-0.00227689
-0.000473969
-0.00348063
-0.000280495
-0.00366798
5.98838e-05
-0.00351425
0.000497706
-0.00325344
0.00101322
-0.00297036
0.00159572
-0.00269578
0.00224057
-0.00243634
0.00294818
-0.00219115
0.00372176
-0.00195975
0.00456665
-0.0017426
0.00549022
-0.0015388
0.00650119
-0.00134455
0.00760824
-0.00115457
0.0088212
-0.000962582
0.010151
-0.000759391
0.0116073
-0.000532605
0.0131989
-0.000268782
0.0149347
4.43331e-05
0.0168236
0.00041838
0.0188751
0.000862418
0.0211011
0.00138362
0.023515
0.00198885
0.0261304
0.00268642
0.0289588
0.0034863
0.0320072
0.00440151
0.0352745
0.00544901
0.0387478
0.00664816
0.0424012
0.00801631
0.0461943
0.00956497
0.0500733
0.0112964
0.0539723
0.0132007
0.0578157
0.0152539
0.0615215
0.0174177
0.0196412
0.065004
-0.000495747
-0.00178155
-0.00101079
-0.00296649
-0.00136827
-0.00331135
-0.00158561
-0.00329775
-0.00169052
-0.00314939
-0.00170145
-0.00296035
-0.00163101
-0.00276725
-0.00148665
-0.00258188
-0.0012716
-0.00240757
-0.0009864
-0.0022465
-0.000629704
-0.00210107
-0.000197608
-0.00197285
0.000316902
-0.00186114
0.000922759
-0.00176252
0.00162882
-0.00167068
0.00244321
-0.00157573
0.0033732
-0.00146438
0.00442461
-0.00132181
0.0056022
-0.00113463
0.00691298
-0.000893662
0.0083703
-0.000595919
0.00999142
-0.000238569
0.0117965
0.000182984
0.0138082
0.000673877
0.016052
0.00124203
0.0185523
0.00190079
0.0213279
0.00267323
0.0243865
0.00358952
0.0277236
0.00467951
0.0313209
0.00596801
0.0351465
0.00747134
0.0391546
0.00919327
0.043287
0.0111222
0.0474749
0.0132304
0.0154756
0.0516412
-0.000470127
-0.00131184
-0.00111445
-0.00232309
-0.00171829
-0.00270838
-0.00223462
-0.00278227
-0.00266185
-0.00272304
-0.00300745
-0.0026157
-0.00327916
-0.00249659
-0.00348237
-0.00237982
-0.00361995
-0.00227129
-0.00369298
-0.00217492
-0.00370147
-0.00209421
-0.00364449
-0.00203163
-0.0035199
-0.00198768
-0.00332413
-0.00196033
-0.0030522
-0.00194464
-0.00269752
-0.00193235
-0.00225152
-0.0019121
-0.00170357
-0.00187117
-0.00104183
-0.00179742
-0.000254551
-0.00168157
0.00066777
-0.0015187
0.00173504