/*--------------------------------*- C++ -*----------------------------------*\
| =========                 |                                                 |
| \\      /  F ield         | OpenFOAM: The Open Source CFD Toolbox           |
|  \\    /   O peration     | Version:  2406                                  |
|   \\  /    A nd           | Website:  www.openfoam.com                      |
|    \\/     M anipulation  |                                                 |
\*---------------------------------------------------------------------------*/
FoamFile
{
    version     2.0;
    format      ascii;
    arch        "LSB;label=32;scalar=64";
    class       volVectorField;
    location    "55";
    object      U;
}
// * * * * * * * * * * * * * * * * * * * * * * * * * * * * * * * * * * * * * //

dimensions      [0 1 -1 0 0 0 0];

internalField   nonuniform List<vector> 
1800
(
(0.192772 -0.00304235 0)
(0.198131 -0.00526731 0)
(0.204835 -0.0052195 0)
(0.212513 -0.0047495 0)
(0.220562 -0.00447794 0)
(0.229024 -0.00445594 0)
(0.238277 -0.00471199 0)
(0.248697 -0.00539124 0)
(0.261246 -0.00629236 0)
(0.273497 -0.0154854 0)
(0.508454 -0.00329275 0)
(0.508094 -0.00749697 0)
(0.509605 -0.00961104 0)
(0.51276 -0.0109717 0)
(0.517613 -0.0122796 0)
(0.524162 -0.0137603 0)
(0.532419 -0.0156116 0)
(0.542483 -0.0181785 0)
(0.554615 -0.021842 0)
(0.568186 -0.0279319 0)
(0.748893 -0.00264949 0)
(0.748846 -0.00689388 0)
(0.749514 -0.0100579 0)
(0.750709 -0.0128164 0)
(0.752954 -0.0156434 0)
(0.756513 -0.0187415 0)
(0.761384 -0.0223036 0)
(0.767504 -0.0266369 0)
(0.774738 -0.0321154 0)
(0.782602 -0.0394191 0)
(0.90909 -0.00231297 0)
(0.909066 -0.00657916 0)
(0.909274 -0.010385 0)
(0.909385 -0.0140052 0)
(0.909942 -0.0177364 0)
(0.911254 -0.0217659 0)
(0.913278 -0.0262638 0)
(0.915873 -0.0314437 0)
(0.918859 -0.0375163 0)
(0.921938 -0.0446302 0)
(0.989132 -0.00204307 0)
(0.988885 -0.00602076 0)
(0.988509 -0.00988664 0)
(0.98757 -0.0137743 0)
(0.986568 -0.0178417 0)
(0.985812 -0.022219 0)
(0.985237 -0.0270298 0)
(0.984671 -0.0324018 0)
(0.983936 -0.0384335 0)
(0.982808 -0.0451518 0)
(0.989087 -0.00164436 0)
(0.988499 -0.00498153 0)
(0.987418 -0.00849059 0)
(0.985382 -0.0122243 0)
(0.982879 -0.0161989 0)
(0.980195 -0.0204645 0)
(0.977235 -0.0250953 0)
(0.973809 -0.030156 0)
(0.969741 -0.0356803 0)
(0.964845 -0.0416517 0)
(0.908957 -0.00100925 0)
(0.907918 -0.00335065 0)
(0.906043 -0.00620077 0)
(0.902912 -0.00943281 0)
(0.899025 -0.012911 0)
(0.894616 -0.016631 0)
(0.889549 -0.0206334 0)
(0.883617 -0.0249353 0)
(0.876651 -0.0295257 0)
(0.868484 -0.0343659 0)
(0.748676 3.12555e-05 0)
(0.746979 -0.000944426 0)
(0.744288 -0.00300272 0)
(0.740259 -0.00555644 0)
(0.735343 -0.00827096 0)
(0.72968 -0.0111238 0)
(0.723102 -0.0141433 0)
(0.715409 -0.0173166 0)
(0.706438 -0.0206121 0)
(0.696039 -0.0239893 0)
(0.508187 0.0015946 0)
(0.5057 0.00246842 0)
(0.502884 0.00135795 0)
(0.499359 -0.000459196 0)
(0.495146 -0.00240414 0)
(0.490125 -0.00440395 0)
(0.484069 -0.00644113 0)
(0.476776 -0.00846486 0)
(0.468096 -0.0104321 0)
(0.457913 -0.0123137 0)
(0.192523 0.00222126 0)
(0.195861 0.00320577 0)
(0.19844 0.0022384 0)
(0.199945 0.0010114 0)
(0.199897 1.11273e-05 0)
(0.198284 -0.000804324 0)
(0.195266 -0.00148679 0)
(0.190954 -0.00204255 0)
(0.185433 -0.00248042 0)
(0.178797 -0.00281803 0)
(-6.02085e-05 3.94844e-05 0)
(-0.000927518 0.000289627 0)
(-0.00253546 0.000454789 0)
(-0.00454063 0.000520904 0)
(-0.00669621 0.000552301 0)
(-0.00893632 0.000580143 0)
(-0.0112697 0.000615318 0)
(-0.0137286 0.00066047 0)
(-0.0163563 0.000717129 0)
(-0.0192064 0.000788879 0)
(-0.0223458 0.000881637 0)
(-0.0258563 0.00100404 0)
(-0.029836 0.00116929 0)
(-0.0343987 0.0013928 0)
(-0.0396665 0.00169023 0)
(-0.045755 0.00207303 0)
(-0.0527456 0.0025455 0)
(-0.0606456 0.00310049 0)
(-0.0693322 0.00370651 0)
(-0.0784878 0.00428808 0)
(-0.087549 0.00471249 0)
(-0.0956958 0.00479675 0)
(-0.101888 0.00434858 0)
(-0.104908 0.00325938 0)
(-0.103391 0.00158327 0)
(-0.0965166 -0.000542002 0)
(-0.0836421 -0.00299289 0)
(-0.0643923 -0.00566939 0)
(-0.0388074 -0.00851266 0)
(-0.007374 -0.011342 0)
(0.0292928 -0.0136635 0)
(0.0705456 -0.0152468 0)
(0.115192 -0.0161303 0)
(0.161544 -0.0162386 0)
(0.207776 -0.0154858 0)
(-0.000487545 0.00102423 0)
(-0.00320371 0.00258967 0)
(-0.00726984 0.00355293 0)
(-0.0120148 0.00399851 0)
(-0.0170095 0.00421718 0)
(-0.0221436 0.00438787 0)
(-0.0274251 0.00459048 0)
(-0.0329048 0.00486028 0)
(-0.0386558 0.00521938 0)
(-0.0447669 0.00569041 0)
(-0.0513384 0.00629803 0)
(-0.0584759 0.00706797 0)
(-0.0662772 0.00802132 0)
(-0.0748116 0.00916583 0)
(-0.0840851 0.0104807 0)
(-0.0939939 0.0118984 0)
(-0.104274 0.0132828 0)
(-0.114449 0.0144109 0)
(-0.123805 0.0149635 0)
(-0.131388 0.0145482 0)
(-0.136071 0.0127668 0)
(-0.136661 0.00931299 0)
(-0.132017 0.00405696 0)
(-0.121311 -0.00289089 0)
(-0.104362 -0.0111966 0)
(-0.0806907 -0.0204232 0)
(-0.0501351 -0.0302263 0)
(-0.0128447 -0.0402396 0)
(0.0307774 -0.0500114 0)
(0.0802579 -0.0590139 0)
(0.134882 -0.0666266 0)
(0.193559 -0.0723403 0)
(0.254989 -0.075839 0)
(0.317634 -0.0768107 0)
(0.379749 -0.0750259 0)
(-0.000980747 0.00346097 0)
(-0.0056542 0.00716771 0)
(-0.011961 0.00916306 0)
(-0.0189204 0.0100403 0)
(-0.0259992 0.0104458 0)
(-0.0330818 0.0107449 0)
(-0.0401691 0.0111006 0)
(-0.0472968 0.0115836 0)
(-0.0545121 0.0122332 0)
(-0.0618605 0.0130789 0)
(-0.0693701 0.0141406 0)
(-0.0770345 0.0154201 0)
(-0.0847905 0.0168866 0)
(-0.0924892 0.0184556 0)
(-0.0998634 0.0199695 0)
(-0.106497 0.0211814 0)
(-0.111816 0.0217465 0)
(-0.115099 0.021229 0)
(-0.115523 0.0191367 0)
(-0.112216 0.0150051 0)
(-0.10433 0.008524 0)
(-0.0911624 -0.000325706 0)
(-0.0725985 -0.0113229 0)
(-0.0485195 -0.0241857 0)
(-0.0185423 -0.0386094 0)
(0.017371 -0.0541783 0)
(0.0590258 -0.0703113 0)
(0.106242 -0.0863962 0)
(0.158648 -0.101706 0)
(0.215623 -0.115474 0)
(0.276384 -0.127024 0)
(0.339959 -0.135659 0)
(0.405191 -0.140726 0)
(0.470707 -0.141646 0)
(0.534895 -0.138029 0)
(-0.00146183 0.00733269 0)
(-0.00788109 0.0138064 0)
(-0.0158947 0.0167902 0)
(-0.0242259 0.017886 0)
(-0.0322861 0.0182366 0)
(-0.0399797 0.0184101 0)
(-0.0472987 0.0186443 0)
(-0.0542433 0.0190286 0)
(-0.0608014 0.0195953 0)
(-0.0669312 0.0203477 0)
(-0.0725441 0.0212599 0)
(-0.0774872 0.0222631 0)
(-0.0815313 0.0232312 0)
(-0.0843573 0.0239621 0)
(-0.0855465 0.0241702 0)
(-0.0845878 0.0234877 0)
(-0.0809084 0.0214801 0)
(-0.0739292 0.0176837 0)
(-0.0631099 0.0116716 0)
(-0.0479771 0.00312866 0)
(-0.0282176 -0.00806686 0)
(-0.00378255 -0.0218092 0)
(0.0255477 -0.0379159 0)
(0.0598063 -0.0561273 0)
(0.099057 -0.0760099 0)
(0.143235 -0.0970117 0)
(0.192082 -0.118389 0)
(0.245204 -0.139308 0)
(0.302064 -0.158917 0)
(0.361998 -0.176345 0)
(0.424268 -0.190719 0)
(0.488031 -0.201155 0)
(0.552355 -0.206811 0)
(0.616088 -0.206813 0)
(0.677763 -0.200493 0)
(-0.00192702 0.0124473 0)
(-0.0096961 0.0219186 0)
(-0.0185157 0.0254884 0)
(-0.0269583 0.0262936 0)
(-0.0345032 0.0260979 0)
(-0.0411247 0.0256633 0)
(-0.0468266 0.0252708 0)
(-0.0515884 0.0249991 0)
(-0.0553496 0.0248438 0)
(-0.057999 0.0247566 0)
(-0.0593672 0.0246455 0)
(-0.0592199 0.0243657 0)
(-0.0572603 0.0237139 0)
(-0.0531347 0.0224215 0)
(-0.0464468 0.0201554 0)
(-0.036781 0.0165362 0)
(-0.0237299 0.0111583 0)
(-0.00694714 0.00363152 0)
(0.0138744 -0.0063932 0)
(0.0388457 -0.0191528 0)
(0.0680883 -0.0347051 0)
(0.10172 -0.0530084 0)
(0.139778 -0.0738705 0)
(0.182147 -0.0968765 0)
(0.228563 -0.121412 0)
(0.278607 -0.146725 0)
(0.331718 -0.171937 0)
(0.387249 -0.196115 0)
(0.444516 -0.218319 0)
(0.50286 -0.23764 0)
(0.561711 -0.253187 0)
(0.620526 -0.264063 0)
(0.678934 -0.269378 0)
(0.736199 -0.267894 0)
(0.79124 -0.258513 0)
(-0.00241071 0.0186198 0)
(-0.0110222 0.0306999 0)
(-0.0193015 0.0339657 0)
(-0.0260859 0.033682 0)
(-0.0312006 0.0322716 0)
(-0.0347935 0.0306239 0)
(-0.0369216 0.0290108 0)
(-0.0375745 0.027467 0)
(-0.0366782 0.0259325 0)
(-0.0340966 0.0243046 0)
(-0.0296349 0.0224319 0)
(-0.0230473 0.0201112 0)
(-0.014048 0.0171028 0)
(-0.00231367 0.0131219 0)
(0.0124623 0.00783494 0)
(0.0305679 0.000872187 0)
(0.0523333 -0.00813762 0)
(0.0780199 -0.0195441 0)
(0.107794 -0.0336591 0)
(0.141704 -0.050679 0)
(0.179683 -0.0705935 0)
(0.221539 -0.0932051 0)
(0.266916 -0.118128 0)
(0.315277 -0.144779 0)
(0.365932 -0.1724 0)
(0.418085 -0.200114 0)
(0.470902 -0.226985 0)
(0.523594 -0.252085 0)
(0.575485 -0.274546 0)
(0.626104 -0.2936 0)
(0.675232 -0.308487 0)
(0.722865 -0.318482 0)
(0.769573 -0.322687 0)
(0.815162 -0.319478 0)
(0.860114 -0.307601 0)
(-0.00297266 0.0259363 0)
(-0.0116648 0.0390498 0)
(-0.0172189 0.0403404 0)
(-0.0197327 0.037937 0)
(-0.0199082 0.0346542 0)
(-0.0181684 0.0312731 0)
(-0.0146215 0.027973 0)
(-0.00926664 0.0247081 0)
(-0.00202383 0.0213376 0)
(0.00724688 0.0177003 0)
(0.018759 0.0136037 0)
(0.0327567 0.00881382 0)
(0.0494689 0.00305639 0)
(0.0692672 -0.00399757 0)
(0.0924719 -0.0126873 0)
(0.119364 -0.0233635 0)
(0.150092 -0.0363417 0)
(0.184702 -0.0518783 0)
(0.223099 -0.0701277 0)
(0.26501 -0.0911004 0)
(0.309976 -0.114624 0)
(0.357358 -0.14033 0)
(0.40636 -0.167656 0)
(0.456061 -0.19588 0)
(0.505469 -0.224158 0)
(0.553605 -0.251598 0)
(0.599568 -0.277332 0)
(0.642637 -0.300596 0)
(0.682318 -0.320768 0)
(0.718513 -0.337416 0)
(0.751442 -0.350125 0)
(0.782001 -0.358592 0)
(0.811625 -0.361771 0)
(0.841137 -0.357534 0)
(0.875073 -0.345017 0)
(-0.00362778 0.0349416 0)
(-0.0100912 0.0450404 0)
(-0.00855787 0.0415665 0)
(-0.00253635 0.0361532 0)
(0.00570251 0.030717 0)
(0.0156152 0.0253786 0)
(0.027237 0.0201753 0)
(0.0406585 0.0149874 0)
(0.0560137 0.00957962 0)
(0.0734651 0.00368978 0)
(0.0933706 -0.00295092 0)
(0.116028 -0.0106017 0)
(0.141739 -0.0195483 0)
(0.170675 -0.0300747 0)
(0.202945 -0.0424491 0)
(0.238557 -0.0569076 0)
(0.277381 -0.0736268 0)
(0.319127 -0.0926942 0)
(0.363328 -0.114079 0)
(0.409336 -0.137601 0)
(0.456342 -0.162911 0)
(0.503402 -0.189491 0)
(0.549488 -0.216676 0)
(0.593542 -0.243693 0)
(0.634537 -0.269725 0)
(0.671538 -0.293975 0)
(0.703769 -0.315751 0)
(0.730688 -0.334547 0)
(0.752031 -0.350111 0)
(0.768079 -0.362521 0)
(0.779425 -0.372099 0)
(0.78846 -0.37952 0)
(0.796671 -0.384529 0)
(0.810132 -0.385059 0)
(0.835563 -0.383158 0)
(-0.000607789 0.0407852 0)
(0.00363147 0.0425763 0)
(0.0209134 0.0324192 0)
(0.0415353 0.0242488 0)
(0.0621652 0.017276 0)
(0.0830455 0.0103654 0)
(0.104927 0.00334229 0)
(0.128237 -0.00386976 0)
(0.153257 -0.0115158 0)
(0.180304 -0.019889 0)
(0.209564 -0.0292433 0)
(0.241171 -0.0398006 0)
(0.275189 -0.0517694 0)
(0.31159 -0.065338 0)
(0.350242 -0.0806599 0)
(0.39088 -0.0978337 0)
(0.433096 -0.116882 0)
(0.476328 -0.137727 0)
(0.519871 -0.160176 0)
(0.562893 -0.183902 0)
(0.604462 -0.208442 0)
(0.643591 -0.233212 0)
(0.679281 -0.257528 0)
(0.71057 -0.28066 0)
(0.736576 -0.301879 0)
(0.756544 -0.320534 0)
(0.769876 -0.336124 0)
(0.776196 -0.348398 0)
(0.775362 -0.357463 0)
(0.767762 -0.363925 0)
(0.753986 -0.369129 0)
(0.737593 -0.375364 0)
(0.718946 -0.386183 0)
(0.719705 -0.403794 0)
(0.72906 -0.448029 0)
(0.051289 0.0141031 0)
(0.0813407 0.0120522 0)
(0.11607 0.00328193 0)
(0.151703 -0.00447317 0)
(0.184341 -0.0112101 0)
(0.215233 -0.0181217 0)
(0.245951 -0.025636 0)
(0.277166 -0.0338396 0)
(0.309167 -0.0428497 0)
(0.342172 -0.0528274 0)
(0.376331 -0.0639192 0)
(0.411678 -0.0762494 0)
(0.448123 -0.0899229 0)
(0.485471 -0.105015 0)
(0.523414 -0.121556 0)
(0.561531 -0.139514 0)
(0.59928 -0.158776 0)
(0.636007 -0.179142 0)
(0.670966 -0.200307 0)
(0.703336 -0.221863 0)
(0.732257 -0.2433 0)
(0.756861 -0.264027 0)
(0.776309 -0.283397 0)
(0.789826 -0.30075 0)
(0.796736 -0.315467 0)
(0.796485 -0.32703 0)
(0.788667 -0.335102 0)
(0.773046 -0.339615 0)
(0.749541 -0.340908 0)
(0.718342 -0.339884 0)
(0.679512 -0.338486 0)
(0.635129 -0.340046 0)
(0.582936 -0.352243 0)
(0.555011 -0.386488 0)
(0.492958 -0.491116 0)
(0.300475 -0.0315943 0)
(0.320172 -0.035606 0)
(0.343399 -0.037784 0)
(0.370548 -0.0411743 0)
(0.398407 -0.0458514 0)
(0.426237 -0.0517289 0)
(0.454461 -0.0588018 0)
(0.483271 -0.0670331 0)
(0.512613 -0.0763894 0)
(0.542412 -0.0868685 0)
(0.572579 -0.098487 0)
(0.602953 -0.11126 0)
(0.633285 -0.125184 0)
(0.663246 -0.140226 0)
(0.692422 -0.156306 0)
(0.720321 -0.173287 0)
(0.74637 -0.190962 0)
(0.769927 -0.209048 0)
(0.790293 -0.22718 0)
(0.80674 -0.244912 0)
(0.818531 -0.26173 0)
(0.824954 -0.277066 0)
(0.825351 -0.290332 0)
(0.819149 -0.300954 0)
(0.805896 -0.308425 0)
(0.785283 -0.312363 0)
(0.757164 -0.312579 0)
(0.721551 -0.309148 0)
(0.678565 -0.302503 0)
(0.628362 -0.293547 0)
(0.570691 -0.283974 0)
(0.505002 -0.276439 0)
(0.426012 -0.277326 0)
(0.334708 -0.299417 0)
(0.128767 -0.349977 0)
(0.581093 -0.037487 0)
(0.592058 -0.0452631 0)
(0.604428 -0.0517584 0)
(0.619553 -0.0585158 0)
(0.636464 -0.0658307 0)
(0.654395 -0.0736555 0)
(0.673143 -0.0820997 0)
(0.692552 -0.0912999 0)
(0.712365 -0.101321 0)
(0.73231 -0.112182 0)
(0.752111 -0.123887 0)
(0.77146 -0.136419 0)
(0.789998 -0.149729 0)
(0.80731 -0.163724 0)
(0.822932 -0.178264 0)
(0.836349 -0.193148 0)
(0.846996 -0.208118 0)
(0.854271 -0.222846 0)
(0.857548 -0.236944 0)
(0.856201 -0.249964 0)
(0.84963 -0.261413 0)
(0.837293 -0.270777 0)
(0.818743 -0.277552 0)
(0.793664 -0.281285 0)
(0.761907 -0.281623 0)
(0.72352 -0.278358 0)
(0.678758 -0.271483 0)
(0.628061 -0.261222 0)
(0.571977 -0.248066 0)
(0.511026 -0.232772 0)
(0.445343 -0.216411 0)
(0.374386 -0.20017 0)
(0.295274 -0.185885 0)
(0.205015 -0.173889 0)
(0.0734607 -0.164775 0)
(0.790144 -0.0482355 0)
(0.797 -0.0565716 0)
(0.804099 -0.0641148 0)
(0.812215 -0.0716231 0)
(0.821168 -0.0794872 0)
(0.830529 -0.0877707 0)
(0.840065 -0.0965404 0)
(0.849614 -0.105876 0)
(0.858954 -0.115809 0)
(0.867806 -0.126325 0)
(0.875862 -0.137386 0)
(0.882782 -0.148928 0)
(0.888187 -0.160853 0)
(0.891659 -0.17302 0)
(0.89274 -0.185239 0)
(0.890942 -0.19727 0)
(0.88575 -0.208822 0)
(0.876639 -0.219555 0)
(0.863096 -0.229082 0)
(0.844643 -0.236986 0)
(0.820879 -0.242836 0)
(0.79151 -0.246217 0)
(0.756397 -0.246766 0)
(0.715592 -0.244213 0)
(0.669372 -0.238417 0)
(0.618252 -0.229406 0)
(0.562977 -0.217391 0)
(0.504475 -0.202762 0)
(0.443754 -0.186052 0)
(0.381738 -0.167844 0)
(0.318966 -0.148614 0)
(0.255234 -0.128372 0)
(0.188811 -0.106577 0)
(0.118513 -0.0826809 0)
(0.0347472 -0.060045 0)
(0.924659 -0.0525552 0)
(0.926751 -0.0605941 0)
(0.92847 -0.0684058 0)
(0.930189 -0.0762134 0)
(0.931898 -0.0842597 0)
(0.933348 -0.0926067 0)
(0.934319 -0.101258 0)
(0.934629 -0.110225 0)
(0.934054 -0.119504 0)
(0.932316 -0.129064 0)
(0.929105 -0.138838 0)
(0.924088 -0.148729 0)
(0.916906 -0.158604 0)
(0.907174 -0.168289 0)
(0.894486 -0.177567 0)
(0.878428 -0.186183 0)
(0.858594 -0.193845 0)
(0.834605 -0.200231 0)
(0.806139 -0.205001 0)
(0.772969 -0.20782 0)
(0.734996 -0.208376 0)
(0.692288 -0.206418 0)
(0.64512 -0.201788 0)
(0.59399 -0.194448 0)
(0.539633 -0.184509 0)
(0.483 -0.172239 0)
(0.42521 -0.158044 0)
(0.367477 -0.14242 0)
(0.310985 -0.12586 0)
(0.256708 -0.108668 0)
(0.205113 -0.0906557 0)
(0.155856 -0.0707406 0)
(0.107827 -0.0472159 0)
(0.0611701 -0.0205682 0)
(0.0140379 -0.00313208 0)
(0.98101 -0.0524321 0)
(0.978344 -0.0599495 0)
(0.974843 -0.0674324 0)
(0.970634 -0.0748807 0)
(0.965695 -0.0824012 0)
(0.959854 -0.0900352 0)
(0.952908 -0.0977713 0)
(0.944657 -0.105593 0)
(0.934882 -0.113475 0)
(0.923325 -0.121362 0)
(0.909708 -0.129164 0)
(0.893736 -0.136756 0)
(0.87511 -0.143982 0)
(0.853524 -0.150654 0)
(0.828684 -0.156558 0)
(0.800325 -0.161453 0)
(0.768231 -0.165088 0)
(0.732269 -0.167209 0)
(0.692414 -0.16758 0)
(0.648784 -0.166003 0)
(0.601665 -0.162346 0)
(0.551537 -0.156561 0)
(0.499077 -0.148716 0)
(0.445148 -0.138997 0)
(0.390766 -0.127715 0)
(0.337047 -0.115285 0)
(0.285127 -0.102179 0)
(0.236084 -0.0888544 0)
(0.190817 -0.0755991 0)
(0.149867 -0.0622569 0)
(0.113169 -0.0478577 0)
(0.0800463 -0.0305001 0)
(0.0499553 -0.00859465 0)
(0.0240599 0.0144753 0)
(0.00328366 0.0213565 0)
(0.958915 -0.0479746 0)
(0.951783 -0.0544612 0)
(0.943382 -0.0609298 0)
(0.933706 -0.0673203 0)
(0.922698 -0.0736565 0)
(0.91022 -0.0799496 0)
(0.896096 -0.0861752 0)
(0.880148 -0.0922926 0)
(0.862187 -0.098248 0)
(0.842012 -0.103964 0)
(0.819415 -0.109335 0)
(0.794195 -0.114232 0)
(0.766169 -0.118505 0)
(0.735187 -0.12199 0)
(0.701151 -0.124512 0)
(0.664031 -0.125897 0)
(0.623896 -0.125983 0)
(0.580929 -0.124636 0)
(0.535451 -0.121768 0)
(0.487929 -0.11735 0)
(0.438984 -0.111432 0)
(0.389372 -0.104149 0)
(0.339959 -0.0957215 0)
(0.291666 -0.0864517 0)
(0.245413 -0.076699 0)
(0.202053 -0.0668509 0)
(0.162316 -0.0572782 0)
(0.126761 -0.0482448 0)
(0.0957004 -0.0397041 0)
(0.0690809 -0.0309575 0)
(0.0464342 -0.0204236 0)
(0.0272915 -0.00610387 0)
(0.0119923 0.0122855 0)
(0.00191611 0.0290241 0)
(-0.00158793 0.0267337 0)
(0.858942 -0.039378 0)
(0.847873 -0.044442 0)
(0.83518 -0.0494344 0)
(0.820805 -0.0542829 0)
(0.804683 -0.0589653 0)
(0.786714 -0.0634652 0)
(0.766779 -0.0677471 0)
(0.744761 -0.0717595 0)
(0.720553 -0.0754408 0)
(0.694059 -0.0787162 0)
(0.665205 -0.0814974 0)
(0.633952 -0.083685 0)
(0.600312 -0.0851746 0)
(0.564361 -0.0858635 0)
(0.526254 -0.0856588 0)
(0.486239 -0.0844868 0)
(0.444664 -0.082304 0)
(0.401981 -0.0791075 0)
(0.358744 -0.0749427 0)
(0.315588 -0.0699088 0)
(0.273206 -0.0641577 0)
(0.232308 -0.0578862 0)
(0.19357 -0.051323 0)
(0.157583 -0.0447113 0)
(0.124811 -0.0382927 0)
(0.0955688 -0.0322954 0)
(0.0700192 -0.0269091 0)
(0.0481797 -0.0221887 0)
(0.0299119 -0.0178032 0)
(0.0149218 -0.0127326 0)
(0.00296149 -0.00534436 0)
(-0.00570728 0.00570042 0)
(-0.0101341 0.0192918 0)
(-0.00916907 0.0290753 0)
(-0.00316244 0.0221389 0)
(0.684066 -0.0273893 0)
(0.670391 -0.0307318 0)
(0.654932 -0.0339315 0)
(0.637643 -0.036925 0)
(0.618498 -0.0396783 0)
(0.597471 -0.0421686 0)
(0.574544 -0.0443665 0)
(0.549721 -0.0462356 0)
(0.523033 -0.0477361 0)
(0.494548 -0.0488263 0)
(0.464374 -0.0494626 0)
(0.432671 -0.049603 0)
(0.399656 -0.0492112 0)
(0.36561 -0.048263 0)
(0.330877 -0.0467512 0)
(0.295858 -0.0446909 0)
(0.261008 -0.0421225 0)
(0.226811 -0.0391135 0)
(0.193763 -0.0357559 0)
(0.162339 -0.032161 0)
(0.132966 -0.0284497 0)
(0.10599 -0.024741 0)
(0.0816516 -0.0211434 0)
(0.0600758 -0.0177522 0)
(0.0412763 -0.0146607 0)
(0.0251746 -0.011971 0)
(0.0116094 -0.00977194 0)
(0.000353905 -0.00802869 0)
(-0.0088338 -0.00634356 0)
(-0.0160594 -0.00377436 0)
(-0.0210024 0.000863847 0)
(-0.0227228 0.00811049 0)
(-0.0200186 0.0164426 0)
(-0.0127603 0.0210464 0)
(-0.00317822 0.0142884 0)
(0.446141 -0.0140795 0)
(0.432733 -0.015691 0)
(0.417691 -0.0171088 0)
(0.401066 -0.0183058 0)
(0.38294 -0.019273 0)
(0.363418 -0.0200118 0)
(0.342625 -0.0205235 0)
(0.320705 -0.0208067 0)
(0.29783 -0.0208604 0)
(0.274199 -0.0206845 0)
(0.250036 -0.0202814 0)
(0.225592 -0.0196565 0)
(0.201141 -0.0188209 0)
(0.176974 -0.0177927 0)
(0.153391 -0.0165975 0)
(0.130684 -0.0152673 0)
(0.109128 -0.0138397 0)
(0.0889641 -0.0123547 0)
(0.0703866 -0.0108519 0)
(0.0535335 -0.00936777 0)
(0.0384881 -0.00793549 0)
(0.025276 -0.00658292 0)
(0.0138649 -0.00533259 0)
(0.00417256 -0.00420685 0)
(-0.00392131 -0.00323922 0)
(-0.0105842 -0.00248399 0)
(-0.0160367 -0.0019898 0)
(-0.0205284 -0.00171869 0)
(-0.0242236 -0.00141833 0)
(-0.0269744 -0.000554121 0)
(-0.0280733 0.00151878 0)
(-0.0262857 0.0050259 0)
(-0.0205982 0.0089695 0)
(-0.0116877 0.0106696 0)
(-0.00257979 0.00671208 0)
(0.171151 -0.00306881 0)
(0.162609 -0.00323737 0)
(0.153303 -0.00332494 0)
(0.143378 -0.00333766 0)
(0.132984 -0.00328886 0)
(0.122263 -0.00319386 0)
(0.111349 -0.00306416 0)
(0.100366 -0.00290696 0)
(0.0894352 -0.00272738 0)
(0.0786725 -0.00253025 0)
(0.0681878 -0.00232034 0)
(0.0580839 -0.00210253 0)
(0.0484545 -0.00188143 0)
(0.0393831 -0.0016611 0)
(0.0309402 -0.00144441 0)
(0.0231824 -0.00123323 0)
(0.0161508 -0.00102874 0)
(0.00987058 -0.000832 0)
(0.00434975 -0.000643536 0)
(-0.000421427 -0.00046436 0)
(-0.00446724 -0.000298559 0)
(-0.00782485 -0.000151338 0)
(-0.0105431 -2.55648e-05 0)
(-0.0126802 7.57739e-05 0)
(-0.0143041 0.000147264 0)
(-0.0155065 0.000178206 0)
(-0.016422 0.000155826 0)
(-0.0172104 7.94306e-05 0)
(-0.0179693 -1.04469e-05 0)
(-0.0185639 -4.39611e-06 0)
(-0.0184382 0.000260148 0)
(-0.0166608 0.000892863 0)
(-0.0125305 0.00173064 0)
(-0.00670622 0.00214146 0)
(-0.00149007 0.00139033 0)
(0.252003 -0.013859 0)
(0.292399 -0.0114562 0)
(0.327404 -0.00850313 0)
(0.355951 -0.00529542 0)
(0.377555 -0.00209606 0)
(0.39222 0.000914391 0)
(0.400288 0.00363342 0)
(0.402318 0.00603912 0)
(0.398579 0.00801589 0)
(0.3903 0.00938553 0)
(0.439469 -0.0704393 0)
(0.494952 -0.0632901 0)
(0.544642 -0.0541933 0)
(0.587547 -0.0439851 0)
(0.623288 -0.0334263 0)
(0.651942 -0.0230725 0)
(0.673866 -0.0133095 0)
(0.689584 -0.0043816 0)
(0.700099 0.00353882 0)
(0.705711 0.010251 0)
(0.595949 -0.129784 0)
(0.651972 -0.117317 0)
(0.701437 -0.101765 0)
(0.743652 -0.0846225 0)
(0.77871 -0.0671449 0)
(0.807098 -0.0502022 0)
(0.829429 -0.034403 0)
(0.846389 -0.0201747 0)
(0.858678 -0.0077383 0)
(0.867122 0.00290284 0)
(0.735532 -0.187528 0)
(0.787288 -0.168565 0)
(0.831526 -0.145691 0)
(0.868034 -0.121301 0)
(0.897506 -0.097058 0)
(0.920787 -0.0739809 0)
(0.938645 -0.0527795 0)
(0.951866 -0.0339143 0)
(0.961268 -0.0175775 0)
(0.967597 -0.00373542 0)
(0.842124 -0.240018 0)
(0.886437 -0.213281 0)
(0.922716 -0.182272 0)
(0.951329 -0.150597 0)
(0.973419 -0.120021 0)
(0.989868 -0.0914715 0)
(1.00141 -0.0656666 0)
(1.00897 -0.0430519 0)
(1.01352 -0.0237405 0)
(1.01596 -0.0076028 0)
(0.903044 -0.28388 0)
(0.940353 -0.249382 0)
(0.968554 -0.210759 0)
(0.987723 -0.172408 0)
(0.999452 -0.135795 0)
(1.0051 -0.101972 0)
(1.00611 -0.0719594 0)
(1.00418 -0.046276 0)
(1.00084 -0.0249089 0)
(0.997159 -0.00753787 0)
(0.914555 -0.316596 0)
(0.94793 -0.275336 0)
(0.963101 -0.229609 0)
(0.961475 -0.183552 0)
(0.949566 -0.139577 0)
(0.932411 -0.100136 0)
(0.913734 -0.066725 0)
(0.896363 -0.0395676 0)
(0.881911 -0.0181504 0)
(0.870897 -0.00167097 0)
(0.878228 -0.347342 0)
(0.889536 -0.289595 0)
(0.857337 -0.225657 0)
(0.803634 -0.163889 0)
(0.748551 -0.110896 0)
(0.700097 -0.0694654 0)
(0.660945 -0.0387119 0)
(0.631929 -0.0163096 0)
(0.611786 -2.46363e-05 0)
(0.599364 0.0114674 0)
(0.765383 -0.383688 0)
(0.676119 -0.262143 0)
(0.540752 -0.15595 0)
(0.431186 -0.0799524 0)
(0.355216 -0.0316478 0)
(0.304843 -0.0045595 0)
(0.274015 0.00902558 0)
(0.258003 0.015483 0)
(0.253416 0.0184919 0)
(0.256361 0.0198578 0)
(0.447161 -0.300462 0)
(0.20041 -0.0871258 0)
(0.0265778 0.00842605 0)
(0.00220503 0.0194809 0)
(-0.00159839 0.0154063 0)
(-0.00282165 0.0114906 0)
(0.0022906 0.00856772 0)
(0.0102468 0.00659216 0)
(0.0194953 0.00536241 0)
(0.0304686 0.00465247 0)
(0.378615 0.0100787 0)
(0.364501 0.0101687 0)
(0.348809 0.00980096 0)
(0.332246 0.00913344 0)
(0.315344 0.00830597 0)
(0.298481 0.00742888 0)
(0.281911 0.00658089 0)
(0.265788 0.00581181 0)
(0.250193 0.00514699 0)
(0.235153 0.0045929 0)
(0.220655 0.00414313 0)
(0.206663 0.00378419 0)
(0.193127 0.00349968 0)
(0.179995 0.00327339 0)
(0.167217 0.00309062 0)
(0.154747 0.00293901 0)
(0.142555 0.0028081 0)
(0.130619 0.00268919 0)
(0.118933 0.00257486 0)
(0.107505 0.00245912 0)
(0.0963581 0.00233746 0)
(0.0855254 0.00220713 0)
(0.075051 0.00206709 0)
(0.0649855 0.00191776 0)
(0.0553826 0.00176055 0)
(0.0462963 0.00159734 0)
(0.037777 0.00143012 0)
(0.0298689 0.00126078 0)
(0.022608 0.00109123 0)
(0.0160197 0.000923316 0)
(0.010118 0.000759293 0)
(0.00490407 0.000601011 0)
(0.000364617 0.00045011 0)
(-0.00352473 0.000310152 0)
(-0.00679831 0.000185536 0)
(0.706806 0.0156636 0)
(0.703855 0.0198175 0)
(0.697349 0.0228411 0)
(0.687767 0.0249043 0)
(0.675559 0.026186 0)
(0.661136 0.0268557 0)
(0.644864 0.0270664 0)
(0.627064 0.0269511 0)
(0.608004 0.0266217 0)
(0.587908 0.0261676 0)
(0.566953 0.0256566 0)
(0.545278 0.0251372 0)
(0.522987 0.0246409 0)
(0.500156 0.0241845 0)
(0.47684 0.0237733 0)
(0.453079 0.0234031 0)
(0.428904 0.0230626 0)
(0.404343 0.0227345 0)
(0.379431 0.0223981 0)
(0.354215 0.0220296 0)
(0.328757 0.0216048 0)
(0.303145 0.0211005 0)
(0.277489 0.0204965 0)
(0.25193 0.0197775 0)
(0.226632 0.0189347 0)
(0.201783 0.0179664 0)
(0.177585 0.0168793 0)
(0.154251 0.0156872 0)
(0.131985 0.0144107 0)
(0.110982 0.013075 0)
(0.0914063 0.0117083 0)
(0.0733903 0.010339 0)
(0.0570237 0.00899342 0)
(0.0423554 0.00769651 0)
(0.0293925 0.00647041 0)
(0.872331 0.0118381 0)
(0.874749 0.0192136 0)
(0.874694 0.0252184 0)
(0.872393 0.0300584 0)
(0.868001 0.0339288 0)
(0.861638 0.0370033 0)
(0.853405 0.0394361 0)
(0.843393 0.0413633 0)
(0.831683 0.0429031 0)
(0.818348 0.0441546 0)
(0.803449 0.0451997 0)
(0.787037 0.0461039 0)
(0.769152 0.0469173 0)
(0.749823 0.047675 0)
(0.729065 0.0483988 0)
(0.706885 0.0490971 0)
(0.683283 0.049767 0)
(0.658255 0.0503939 0)
(0.631797 0.0509532 0)
(0.603915 0.0514107 0)
(0.574631 0.0517244 0)
(0.54399 0.0518466 0)
(0.512069 0.0517262 0)
(0.478982 0.0513127 0)
(0.444893 0.0505596 0)
(0.410013 0.0494295 0)
(0.374606 0.0478977 0)
(0.338986 0.0459565 0)
(0.303511 0.0436181 0)
(0.268572 0.040916 0)
(0.234576 0.0379046 0)
(0.20193 0.0346564 0)
(0.171015 0.031257 0)
(0.142163 0.0277983 0)
(0.115639 0.0243692 0)
(0.971525 0.00780073 0)
(0.973573 0.0173121 0)
(0.974108 0.0251344 0)
(0.973356 0.0315977 0)
(0.971439 0.0369808 0)
(0.968419 0.0415102 0)
(0.964324 0.045376 0)
(0.95916 0.0487383 0)
(0.952912 0.0517289 0)
(0.945552 0.0544536 0)
(0.937039 0.0569984 0)
(0.927326 0.0594329 0)
(0.916354 0.0618127 0)
(0.904055 0.0641795 0)
(0.890352 0.0665616 0)
(0.875156 0.0689737 0)
(0.858368 0.0714159 0)
(0.839884 0.0738735 0)
(0.81959 0.0763163 0)
(0.797373 0.0786988 0)
(0.773125 0.0809597 0)
(0.746747 0.0830239 0)
(0.718165 0.0848041 0)
(0.687333 0.0862038 0)
(0.654252 0.0871219 0)
(0.618976 0.0874583 0)
(0.581624 0.0871201 0)
(0.542394 0.0860291 0)
(0.501566 0.0841294 0)
(0.459508 0.0813949 0)
(0.416672 0.0778358 0)
(0.373587 0.0735028 0)
(0.330838 0.0684887 0)
(0.289044 0.0629256 0)
(0.24882 0.0569771 0)
(1.01699 0.00564772 0)
(1.01715 0.0164382 0)
(1.01672 0.0252734 0)
(1.01584 0.0326086 0)
(1.01451 0.0387867 0)
(1.01273 0.0440688 0)
(1.01047 0.0486719 0)
(1.00773 0.0527798 0)
(1.00446 0.0565438 0)
(1.00063 0.0600864 0)
(0.996182 0.063507 0)
(0.991072 0.0668873 0)
(0.985233 0.0702946 0)
(0.978585 0.0737841 0)
(0.971038 0.077399 0)
(0.962481 0.0811699 0)
(0.952786 0.0851132 0)
(0.941806 0.0892293 0)
(0.929376 0.0934998 0)
(0.915314 0.0978863 0)
(0.899419 0.102329 0)
(0.881484 0.106745 0)
(0.861294 0.111032 0)
(0.83864 0.115063 0)
(0.813327 0.118698 0)
(0.785187 0.121781 0)
(0.754097 0.124148 0)
(0.719993 0.125635 0)
(0.682892 0.126087 0)
(0.642907 0.12537 0)
(0.600264 0.123378 0)
(0.555318 0.120054 0)
(0.508553 0.115393 0)
(0.460579 0.109458 0)
(0.412113 0.10238 0)
(0.993831 0.00631172 0)
(0.991231 0.0173248 0)
(0.989466 0.0262565 0)
(0.988387 0.0336873 0)
(0.987759 0.0399968 0)
(0.987402 0.0454579 0)
(0.987195 0.0502901 0)
(0.987033 0.0546722 0)
(0.986818 0.0587512 0)
(0.986468 0.0626513 0)
(0.985912 0.0664778 0)
(0.98509 0.0703198 0)
(0.983943 0.0742533 0)
(0.982407 0.0783438 0)
(0.980411 0.0826484 0)
(0.977869 0.0872158 0)
(0.974679 0.0920839 0)
(0.970715 0.0972772 0)
(0.96583 0.102803 0)
(0.959851 0.108649 0)
(0.952578 0.11478 0)
(0.943786 0.121133 0)
(0.933224 0.12762 0)
(0.920618 0.134124 0)
(0.905677 0.140502 0)
(0.888099 0.146581 0)
(0.867585 0.152166 0)
(0.843849 0.157042 0)
(0.816643 0.160979 0)
(0.785774 0.163742 0)
(0.751137 0.165105 0)
(0.712741 0.164864 0)
(0.670733 0.162859 0)
(0.625426 0.15899 0)
(0.577305 0.153238 0)
(0.863232 0.0106822 0)
(0.858865 0.0200599 0)
(0.857419 0.0276105 0)
(0.858181 0.0339839 0)
(0.860496 0.039501 0)
(0.863924 0.0443958 0)
(0.868161 0.0488579 0)
(0.872965 0.0530262 0)
(0.878141 0.0570072 0)
(0.883538 0.0608969 0)
(0.889036 0.0647853 0)
(0.894542 0.0687546 0)
(0.899981 0.0728789 0)
(0.905289 0.0772257 0)
(0.910406 0.0818581 0)
(0.915265 0.0868347 0)
(0.919791 0.0922087 0)
(0.92389 0.0980245 0)
(0.927446 0.104314 0)
(0.930321 0.111091 0)
(0.93235 0.118351 0)
(0.933339 0.126062 0)
(0.933062 0.134168 0)
(0.931264 0.142582 0)
(0.927654 0.151188 0)
(0.921912 0.159839 0)
(0.913684 0.168352 0)
(0.902597 0.176513 0)
(0.888261 0.184073 0)
(0.870294 0.190754 0)
(0.84834 0.196256 0)
(0.822102 0.200267 0)
(0.791376 0.202483 0)
(0.756087 0.202632 0)
(0.716324 0.200498 0)
(0.593669 0.0187416 0)
(0.594233 0.0235293 0)
(0.599812 0.027443 0)
(0.608572 0.0310748 0)
(0.619281 0.03455 0)
(0.631309 0.0379463 0)
(0.644238 0.0413365 0)
(0.657743 0.0447621 0)
(0.671598 0.0482475 0)
(0.685655 0.0518216 0)
(0.699815 0.0555246 0)
(0.714005 0.059405 0)
(0.728176 0.0635167 0)
(0.742295 0.0679165 0)
(0.75634 0.0726646 0)
(0.770286 0.0778228 0)
(0.784097 0.0834538 0)
(0.79772 0.0896171 0)
(0.811083 0.0963643 0)
(0.824084 0.103734 0)
(0.836596 0.111746 0)
(0.848462 0.120401 0)
(0.859492 0.129673 0)
(0.869463 0.13951 0)
(0.878114 0.149833 0)
(0.885145 0.160531 0)
(0.890215 0.171461 0)
(0.892938 0.182443 0)
(0.892893 0.193254 0)
(0.889626 0.203625 0)
(0.882665 0.213243 0)
(0.871545 0.221756 0)
(0.855831 0.228779 0)
(0.835158 0.233919 0)
(0.809266 0.236801 0)
(0.264203 0.0178017 0)
(0.279008 0.015971 0)
(0.29877 0.0154882 0)
(0.319897 0.0162234 0)
(0.341044 0.0179108 0)
(0.362115 0.0202712 0)
(0.383117 0.023078 0)
(0.404004 0.0261931 0)
(0.424772 0.0295409 0)
(0.445459 0.0330838 0)
(0.46611 0.0368113 0)
(0.486764 0.0407372 0)
(0.507461 0.0448958 0)
(0.528244 0.0493365 0)
(0.54916 0.0541201 0)
(0.570244 0.0593162 0)
(0.591521 0.0650013 0)
(0.612992 0.0712552 0)
(0.634635 0.078155 0)
(0.656399 0.0857679 0)
(0.6782 0.0941456 0)
(0.699925 0.10332 0)
(0.721423 0.113302 0)
(0.742502 0.124077 0)
(0.762931 0.135606 0)
(0.78243 0.147822 0)
(0.800669 0.160627 0)
(0.817262 0.173887 0)
(0.831771 0.187425 0)
(0.843705 0.201009 0)
(0.852534 0.214352 0)
(0.857704 0.227103 0)
(0.858651 0.238858 0)
(0.854838 0.249168 0)
(0.845778 0.25756 0)
(0.0473982 -0.0103379 0)
(0.0734799 -0.0144099 0)
(0.0993838 -0.0135892 0)
(0.122613 -0.0110854 0)
(0.143813 -0.00776425 0)
(0.163991 -0.00410676 0)
(0.18371 -0.00040457 0)
(0.203228 0.00326861 0)
(0.222718 0.00693557 0)
(0.24235 0.0106273 0)