/*--------------------------------*- C++ -*----------------------------------*\
| =========                 |                                                 |
| \\      /  F ield         | OpenFOAM: The Open Source CFD Toolbox           |
|  \\    /   O peration     | Version:  2406                                  |
|   \\  /    A nd           | Website:  www.openfoam.com                      |
|    \\/     M anipulation  |                                                 |
\*---------------------------------------------------------------------------*/
FoamFile
{
    version     2.0;
    format      ascii;
    arch        "LSB;label=32;scalar=64";
    class       volScalarField;
    location    "46";
    object      p;
}
// * * * * * * * * * * * * * * * * * * * * * * * * * * * * * * * * * * * * * //

dimensions      [0 2 -2 0 0 0 0];

internalField   nonuniform List<scalar> 
1964
(
7.84194
7.83253
7.82037
7.80747
7.79382
7.77942
7.76453
7.74933
7.73394
7.7184
7.70274
7.68699
7.67115
7.65524
7.63928
7.62327
7.60719
7.59107
7.57487
7.55861
7.54225
7.52579
7.50919
7.49243
7.47545
7.45819
7.44056
7.42244
7.40367
7.38402
7.36321
7.34084
7.31634
7.28895
7.25762
7.22082
7.17643
7.12135
7.05112
6.95922
6.83621
6.6686
6.43773
6.11912
5.6843
5.10483
4.36574
7.84903
7.83509
7.8205
7.80727
7.79369
7.77926
7.76431
7.74913
7.73379
7.71828
7.70262
7.68686
7.67105
7.65519
7.63927
7.62327
7.60718
7.59103
7.57482
7.55855
7.54221
7.52579
7.50923
7.49251
7.47557
7.45835
7.44076
7.42269
7.404
7.38447
7.36383
7.3417
7.31755
7.29066
7.26001
7.22417
7.18108
7.12775
7.05977
6.97059
6.85049
6.6852
6.45441
6.13037
5.67944
5.06509
4.26987
7.85371
7.83647
7.81989
7.80659
7.79332
7.77897
7.76399
7.74883
7.73359
7.71816
7.70251
7.68671
7.67088
7.65506
7.63923
7.62332
7.6073
7.59117
7.57496
7.55871
7.54242
7.52609
7.50969
7.49318
7.47652
7.45963
7.44249
7.42498
7.40703
7.38848
7.36917
7.34881
7.32704
7.3033
7.27684
7.24647
7.21045
7.16605
7.10896
7.03237
6.92549
6.77176
6.54629
6.21361
5.72827
5.02913
4.08506
7.85697
7.83832
7.82023
7.80644
7.79315
7.77875
7.76366
7.74847
7.73334
7.71805
7.70243
7.68655
7.67064
7.65485
7.63916
7.62344
7.60759
7.59157
7.57542
7.55922
7.54303
7.5269
7.51082
7.49479
7.47875
7.46269
7.44659
7.43046
7.41428
7.39809
7.38187
7.36563
7.34931
7.33277
7.31573
7.29762
7.27732
7.25272
7.21989
7.17174
7.09584
6.97131
6.76463
6.42709
5.89429
5.0736
3.9294
7.85957
7.84028
7.82106
7.80663
7.79311
7.77856
7.76334
7.74812
7.7331
7.71796
7.70237
7.68639
7.67037
7.65458
7.63904
7.62358
7.60799
7.59218
7.57617
7.5601
7.54408
7.52825
7.51264
7.4973
7.48223
7.46745
7.45301
7.43903
7.42566
7.41315
7.40179
7.39196
7.3841
7.37872
7.37632
7.37732
7.38173
7.38876
7.39572
7.39633
7.37723
7.31301
7.15485
6.82606
6.19304
5.11623
3.53283
7.86161
7.84197
7.82195
7.80699
7.79323
7.77852
7.76314
7.74787
7.73295
7.71794
7.70238
7.6863
7.67014
7.65432
7.63893
7.62374
7.60847
7.59294
7.57716
7.56128
7.54551
7.53003
7.51501
7.50052
7.48665
7.47347
7.46115
7.44991
7.44013
7.4323
7.42712
7.42544
7.42836
7.43721
7.4536
7.4793
7.51615
7.56561
7.6278
7.69984
7.77163
7.81977
7.78662
7.56669
6.86862
5.37116
2.09166
7.86317
7.84333
7.82279
7.80747
7.7935
7.77859
7.76302
7.74767
7.73281
7.71794
7.70243
7.68627
7.66998
7.65412
7.63884
7.6239
7.60894
7.59372
7.57821
7.56258
7.5471
7.53204
7.51763
7.50405
7.49145
7.47999
7.46994
7.46168
7.45579
7.45307
7.45461
7.46181
7.47648
7.50092
7.53798
7.59115
7.66456
7.7628
7.89044
8.05081
8.24308
8.45766
8.65848
8.76957
8.49686
7.36557
2.00642
7.86431
7.84436
7.82348
7.80792
7.7938
7.77869
7.76291
7.74748
7.7327
7.71796
7.70252
7.68631
7.66992
7.65401
7.63879
7.62404
7.60935
7.59442
7.57918
7.5638
7.54861
7.53395
7.52012
7.50738
7.49594
7.48606
7.47811
7.47262
7.47036
7.47241
7.48023
7.49574
7.52144
7.56054
7.61717
7.69654
7.80519
7.95115
8.14398
8.39445
8.71337
9.10952
9.58139
10.114
10.6125
10.9736
9.97098
7.86505
7.84504
7.82396
7.80826
7.79404
7.77879
7.76285
7.74736
7.73264
7.718
7.70262
7.68638
7.66991
7.65394
7.63876
7.62414
7.60964
7.59493
7.5799
7.56474
7.54979
7.53545
7.52207
7.50996
7.49942
7.49075
7.48442
7.48105
7.48159
7.48732
7.49999
7.52194
7.5562
7.60672
7.67863
7.77858
7.91508
8.09905
8.34422
8.66758
9.08919
9.63127
10.3126
11.1412
12.0718
12.9965
13.422
7.86542
7.84538
7.8242
7.80843
7.79418
7.77885
7.76283
7.74731
7.73261
7.71803
7.70267
7.68641
7.66991
7.65391
7.63874
7.62418
7.60979
7.59519
7.58029
7.56526
7.55045
7.53628
7.52315
7.51139
7.50132
7.49331
7.48784
7.48563
7.48768
7.49542
7.51074
7.5362
7.57512
7.63188
7.71217
7.8234
7.97522
8.18013
8.45417
8.81763
9.29529
9.91557
10.7054
11.6797
12.8014
13.9438
14.6535
7.86542
7.84538
7.8242
7.80843
7.79418
7.77885
7.76283
7.74731
7.73261
7.71802
7.70266
7.68641
7.66991
7.65393
7.63875
7.62419
7.60978
7.59518
7.58027
7.56525
7.55045
7.53629
7.52316
7.51141
7.50134
7.49332
7.48785
7.48563
7.48768
7.49541
7.51074
7.53619
7.57512
7.63189
7.71218
7.82341
7.97523
8.18014
8.45419
8.81765
9.29529
9.91559
10.7054
11.6798
12.8014
13.9437
14.6535
7.86505
7.84504
7.82396
7.80826
7.79404
7.77878
7.76286
7.74737
7.73264
7.71798
7.70259
7.68637
7.66993
7.65398
7.63879
7.62415
7.60962
7.59489
7.57986
7.56472
7.54979
7.53547
7.52211
7.51001
7.49946
7.49078
7.48443
7.48105
7.48157
7.4873
7.49998
7.52193
7.55619
7.60672
7.67865
7.7786
7.91511
8.09908
8.34424
8.6676
9.08918
9.63125
10.3127
11.1412
12.0717
12.9967
13.422
7.8643
7.84435
7.82349
7.80792
7.79378
7.77868
7.76292
7.7475
7.7327
7.71792
7.70248
7.6863
7.66996
7.65407
7.63884
7.62405
7.60932
7.59436
7.57911
7.56376
7.54861
7.53398
7.52018
7.50744
7.496
7.4861
7.47813
7.47261
7.47034
7.47238
7.4802
7.49572
7.52144
7.56056
7.6172
7.69658
7.80524
7.9512
8.14402
8.39447
8.71336
9.10951
9.58141
10.1141
10.6126
10.9736
9.97107
7.86316
7.84333
7.82279
7.80746
7.79348
7.77858
7.76303
7.7477
7.73281
7.71789
7.70237
7.68625
7.67003
7.65421
7.6389
7.62392
7.6089
7.59365
7.57814
7.56254
7.5471
7.53208
7.5177
7.50413
7.49151
7.48003
7.46995
7.46167
7.45576
7.45304
7.45459
7.4618
7.47649
7.50095
7.53802
7.5912
7.66461
7.76286
7.89049
8.05084
8.24308
8.45765
8.65847
8.76973
8.49699
7.36529
2.00677
7.8616
7.84197
7.82195
7.80699
7.79321
7.7785
7.76316
7.74791
7.73294
7.71788
7.70231
7.68628
7.67019
7.65441
7.63899
7.62375
7.60843
7.59287
7.5771
7.56125
7.54552
7.53008
7.51508
7.50059
7.4867
7.4735
7.46115
7.4499
7.44011
7.43229
7.42712
7.42545
7.42839
7.43726
7.45365
7.47936
7.51621
7.56567
7.62786
7.69986
7.77162
7.81971
7.78667
7.56666
6.86881
5.37165
2.09138
7.85956
7.84027
7.82106
7.80662
7.79309
7.77855
7.76337
7.74816
7.7331
7.71791
7.70232
7.68638
7.67041
7.65464
7.63908
7.62358
7.60795
7.59213
7.57614
7.56009
7.54411
7.52829
7.5127
7.49735
7.48226
7.46746
7.45301
7.43902
7.42566
7.41315
7.4018
7.39198
7.38414
7.37877
7.37638
7.37737
7.38179
7.38882
7.39578
7.39637
7.37724
7.31305
7.1549
6.82632
6.19325
5.11622
3.53304
7.85696
7.83831
7.82023
7.80643
7.79312
7.77873
7.76367
7.74849
7.73333
7.71802
7.7024
7.68656
7.67068
7.65489
7.63917
7.62343
7.60755
7.59154
7.57541
7.55923
7.54307
7.52694
7.51086
7.49482
7.47877
7.4627
7.4466
7.43046
7.41429
7.3981
7.3819
7.36567
7.34935
7.33281
7.31578
7.29767
7.27737
7.25277
7.21995
7.1718
7.09586
6.97136
6.76472
6.42718
5.8944
5.07362
3.92892
7.8537
7.83646
7.81989
7.80658
7.7933
7.77896
7.76399
7.74884
7.73358
7.71815
7.70251
7.68673
7.6709
7.65508
7.63923
7.62331
7.60729
7.59117
7.57497
7.55873
7.54245
7.52611
7.50971
7.4932
7.47653
7.45964
7.44249
7.42499
7.40705
7.38851
7.3692
7.34885
7.32708
7.30334
7.27687
7.24651
7.21049
7.1661
7.10901
7.03242
6.92554
6.77177
6.54632
6.21364
5.72823
5.02897
4.08502
7.84902
7.83508
7.82049
7.80726
7.79368
7.77925
7.76431
7.74913
7.73379
7.71827
7.70262
7.68687
7.67106
7.65519
7.63926
7.62326
7.60718
7.59104
7.57484
7.55857
7.54223
7.5258
7.50925
7.49252
7.47558
7.45836
7.44078
7.42271
7.40402
7.3845
7.36386
7.34173
7.31759
7.2907
7.26005
7.22421
7.18113
7.1278
7.05983
6.97065
6.85054
6.68524
6.45443
6.1304
5.67948
5.06516
4.26994
7.84193
7.83252
7.82036
7.80746
7.79381
7.77942
7.76452
7.74933
7.73394
7.7184
7.70274
7.68699
7.67115
7.65525
7.63928
7.62327
7.6072
7.59107
7.57488
7.55861
7.54226
7.5258
7.50921
7.49245
7.47547
7.45821
7.44058
7.42246
7.40369
7.38405
7.36324
7.34086
7.31637
7.28899
7.25765
7.22086
7.17647
7.1214
7.05117
6.95927
6.83626
6.66864
6.43777
6.11916
5.68435
5.10491
4.36582
3.47782
2.49591
1.52062
0.642891
-0.103475
-0.730608
3.30461
2.25041
1.24538
0.37256
-0.363074
-0.971394
2.87746
1.60123
0.533679
-0.286747
-0.941432
-1.46919
2.24404
0.502106
-0.672513
-1.39777
-1.91601
-2.28261
0.840163
-1.5389
-2.69154
-3.18251
-3.42308
-3.47764
-3.39217
-5.30215
-5.38061
-5.14291
-4.78057
-4.33344
-9.01051
-7.78129
-6.24069
-5.67354
-5.157
-4.54866
-9.00987
-7.78094
-6.24034
-5.67318
-5.15666
-4.54833
-3.39148
-5.30155
-5.38028
-5.14252
-4.78014
-4.33294
0.839825
-1.53914
-2.69195
-3.18286
-3.42235
-3.47666
2.24372
0.502134
-0.671922
-1.39675
-1.91504
-2.28216
2.87756
1.60194
0.534927
-0.285732
-0.941463
-1.47026
3.30485
2.25079
1.24563
0.372387
-0.363932
-0.972263
3.47789
2.49597
1.52064
0.642881
-0.103464
-0.730497
-1.25567
-1.68498
-2.02555
-2.28747
-2.47996
-2.61036
-2.6854
-2.71184
-2.69639
-2.64573
-2.56643
-2.46489
-2.34716
-2.21874
-2.08442
-1.94814
-1.81295
-1.68102
-1.55376
-1.43196
-1.31599
-1.20594
-1.10174
-1.00325
-0.910331
-0.822819
-0.74058
-0.663488
-0.591438
-0.524318
-0.46199
-0.404322
-0.351206
-0.302532
-0.258161
-0.217943
-0.181719
-0.149325
-0.120586
-0.0953258
-0.0733614
-0.0545086
-0.038586
-0.0254129
-0.0148013
-0.00661238
-0.000173909
-1.45889
-1.84089
-2.13663
-2.36122
-2.52341
-2.62947
-2.68562
-2.69784
-2.67187
-2.61354
-2.52895
-2.42427
-2.30537
-2.17752
-2.04522
-1.91205
-1.78065
-1.65279
-1.52956
-1.41151
-1.29887
-1.19169
-1.08992
-0.993463
-0.902245
-0.816166
-0.735146
-0.659107
-0.58798
-0.521669
-0.460034
-0.402945
-0.350323
-0.30206
-0.258027
-0.218085
-0.182089
-0.14988
-0.121292
-0.0961482
-0.0742721
-0.0554817
-0.0395999
-0.0264645
-0.0158279
-0.00788494
-0.000316917
-1.87812
-2.18667
-2.42193
-2.59817
-2.71825
-2.7859
-2.80781
-2.79041
-2.739
-2.65874
-2.55516
-2.43404
-2.30104
-2.16139
-2.01961
-1.87935
-1.74318
-1.61272
-1.48875
-1.37147
-1.26072
-1.1562
-1.05753
-0.964378
-0.876454
-0.79354
-0.715467
-0.642112
-0.573371
-0.509152
-0.449388
-0.394022
-0.342974
-0.296103
-0.253251
-0.214309
-0.179161
-0.147669
-0.11968
-0.0950362
-0.0735727
-0.0551163
-0.039501
-0.0265457
-0.0160719
-0.00810047
-0.00120173
-2.51663
-2.67826
-2.81389
-2.92387
-2.99553
-3.02613
-3.01827
-2.97419
-2.8963
-2.78871
-2.65691
-2.50695
-2.345
-2.17712
-2.00901
-1.84549
-1.69017
-1.5452
-1.41147
-1.28884
-1.17653
-1.07346
-0.978476
-0.890505
-0.808666
-0.732258
-0.66076
-0.5938
-0.531116
-0.472525
-0.417899
-0.367133
-0.320119
-0.276805
-0.237151
-0.201071
-0.168451
-0.139147
-0.113016
-0.0899283
-0.0697549
-0.0523419
-0.0375592
-0.0251379
-0.0152126
-0.00655402
-0.00394776
-3.40998
-3.35531
-3.36133
-3.37741
-3.37243
-3.34551
-3.29622
-3.21869
-3.1091
-2.96878
-2.80244
-2.61604
-2.41603
-2.20934
-2.00302
-1.80363
-1.61645
-1.445
-1.29097
-1.15448
-1.03448
-0.929201
-0.83658
-0.754542
-0.681194
-0.614934
-0.554477
-0.498845
-0.447322
-0.399406
-0.354753
-0.313139
-0.274419
-0.238517
-0.205382
-0.174951
-0.147165
-0.121996
-0.0994078
-0.0793326
-0.0616874
-0.0463529
-0.0332517
-0.022004
-0.0131722
-0.00372026
-0.00749468
-3.91582
-3.70176
-3.66751
-3.66315
-3.63602
-3.59045
-3.52684
-3.4357
-3.30957
-3.14776
-2.95418
-2.735
-2.49761
-2.25044
-2.00243
-1.76223
-1.53718
-1.33255
-1.15135
-0.994442
-0.860983
-0.748905
-0.655439
-0.577554
-0.512293
-0.45698
-0.409343
-0.367547
-0.330178
-0.296195
-0.264866
-0.235703
-0.208406
-0.182808
-0.158834
-0.136461
-0.115703
-0.096598
-0.0791843
-0.0634816
-0.0494998
-0.0371978
-0.0265885
-0.017267
-0.0100863
-0.00101968
-0.00902661
-3.9908
-3.7642
-3.71977
-3.71183
-3.6937
-3.66111
-3.60859
-3.52591
-3.40503
-3.2432
-3.04233
-2.80792
-2.54814
-2.273
-1.99352
-1.72054
-1.46348
-1.22944
-1.02289
-0.845775
-0.697842
-0.577125
-0.480535
-0.40442
-0.345001
-0.298693
-0.262317
-0.233203
-0.209219
-0.188736
-0.170568
-0.153899
-0.138205
-0.123186
-0.108707
-0.0947437
-0.0813485
-0.0686183
-0.0566701
-0.0456205
-0.0355777
-0.0266063
-0.0187992
-0.0119194
-0.00667787
2.29245e-05
-0.00667538
-3.77237
-3.70818
-3.69504
-3.69972
-3.69514
-3.67259
-3.62621
-3.54834
-3.432
-3.27298
-3.07136
-2.83164
-2.5618
-2.27238
-1.97546
-1.68319
-1.40638
-1.15341
-0.929807
-0.738421
-0.579666
-0.451884
-0.351988
-0.27607
-0.219891
-0.179296
-0.150492
-0.130216
-0.115797
-0.10515
-0.0967201
-0.0894113
-0.0825007
-0.0755616
-0.0683902
-0.0609432
-0.0532869
-0.0455569
-0.0379269
-0.0305837
-0.0237124
-0.017474
-0.0120257
-0.00741484
-0.00385704
-0.000815343
-0.00112249
-3.64221
-3.6433
-3.65814
-3.67081
-3.67123
-3.65169
-3.60617
-3.5286
-3.41281
-3.25411
-3.0519
-2.81088
-2.53868
-2.24549
-1.9435
-1.64512
-1.36157
-1.10181
-0.871886
-0.675118
-0.512205
-0.381699
-0.280662
-0.205166
-0.150843
-0.113305
-0.0885012
-0.07289
-0.0635436
-0.0581424
-0.0549411
-0.0526898
-0.0505566
-0.0480401
-0.0448945
-0.0410594
-0.0366047
-0.0316837
-0.0264988
-0.0212746
-0.0162382
-0.0116162
-0.00759233
-0.00448615
-0.00195972
-0.00222749
0.00484982
-3.57139
-3.58588
-3.60975
-3.62768
-3.63128
-3.61347
-3.56881
-3.49199
-3.3775
-3.22085
-3.02088
-2.78137
-2.51
-2.2174
-1.9159
-1.6181
-1.33523
-1.07524
-0.844387
-0.647167
-0.484113
-0.353749
-0.253174
-0.178487
-0.125288
-0.0891502
-0.0659535
-0.0520964
-0.0445813
-0.0410327
-0.039652
-0.0391511
-0.0386669
-0.0376793
-0.0359307
-0.0333574
-0.0300309
-0.026111
-0.0218093
-0.0173634
-0.013014
-0.00901466
-0.00555167
-0.00309322
-0.000970171
-0.00298053
0.00845733
-3.5713
-3.58574
-3.60959
-3.62741
-3.63101
-3.61335
-3.56885
-3.49208
-3.37757
-3.22088
-3.02089
-2.78136
-2.50998
-2.21738
-1.91589
-1.61811
-1.33525
-1.07527
-0.844431
-0.647228
-0.484186
-0.353824
-0.253245
-0.178549
-0.125339
-0.0891893
-0.0659838
-0.0521201
-0.0446018
-0.0410518
-0.039671
-0.0391702
-0.0386857
-0.0376966
-0.0359454
-0.0333687
-0.0300383
-0.0261146
-0.0218096
-0.0173612
-0.0130105
-0.00900964
-0.00554882
-0.00308812
-0.000969375
-0.00297755
0.00844682
-3.64198
-3.64284
-3.65773
-3.67048
-3.67097
-3.65168
-3.6064
-3.52885
-3.41294
-3.25416
-3.05196
-2.81098
-2.53877
-2.24554
-1.94353
-1.64517
-1.36166
-1.10192
-0.87203
-0.675307
-0.512427
-0.381937
-0.280891
-0.205376
-0.151021
-0.113454
-0.088622
-0.0729914
-0.0636311
-0.0582231
-0.0550173
-0.0527633
-0.0506255
-0.0481025
-0.0449473
-0.0411009
-0.0366337
-0.031701
-0.0265057
-0.0212739
-0.0162322
-0.0116082
-0.00758299
-0.00447958
-0.00195558
-0.00222064
0.00482344
-3.7721
-3.70781
-3.69465
-3.69928
-3.69466
-3.6723
-3.6262
-3.54848
-3.43213
-3.27307
-3.07148
-2.83179
-2.56193
-2.27251
-1.9756
-1.68336
-1.40658
-1.15363
-0.930056
-0.738722
-0.580017
-0.452258
-0.352359
-0.276413
-0.220194
-0.179553
-0.150706
-0.130394
-0.11595
-0.105284
-0.0968416
-0.0895206
-0.0825989
-0.0756459
-0.0684593
-0.0609942
-0.0533202
-0.0455725
-0.0379287
-0.0305746
-0.0236971
-0.0174551
-0.0120071
-0.00739724
-0.00384515
-0.00080153
-0.00114628
-3.99053
-3.76394
-3.71925
-3.71118
-3.69321
-3.66087
-3.60854
-3.52589
-3.40498
-3.24318
-3.04243
-2.80813
-2.54839
-2.27326
-1.99377
-1.72076
-1.46368
-1.22965
-1.02312
-0.84605
-0.698165
-0.577474
-0.480889
-0.404753
-0.345299
-0.298947
-0.262529
-0.233378
-0.209365
-0.188859
-0.170673
-0.153987
-0.138277
-0.12324
-0.108744
-0.0947624
-0.0813502
-0.0686036
-0.0566434
-0.045585
-0.0355389
-0.0265659
-0.0187631
-0.0118847
-0.00665251
4.53232e-05
-0.00668646
-3.91567
-3.70156
-3.66707
-3.6629
-3.63607
-3.59045
-3.52661
-3.43534
-3.30928
-3.14765
-2.95428
-2.73524
-2.4979
-2.25071
-2.00265
-1.76243
-1.53734
-1.33271
-1.15151
-0.994624
-0.861184
-0.749125
-0.655654
-0.577757
-0.512463
-0.45712
-0.409444
-0.367619
-0.330222
-0.296222
-0.264873
-0.235698
-0.208383
-0.182774
-0.158783
-0.136401
-0.11563
-0.0965195
-0.0790988
-0.0633981
-0.0494174
-0.0371245
-0.0265192
-0.017211
-0.010039
-0.000979635
-0.00903275
-3.40932
-3.35515
-3.36144
-3.37764
-3.37255
-3.34531
-3.29578
-3.21827
-3.10885
-2.96873
-2.80254
-2.61622
-2.41623
-2.20953
-2.00319
-1.80378
-1.61657
-1.4451
-1.29106
-1.15456
-1.03456
-0.929275
-0.836644
-0.754586
-0.681213
-0.614926
-0.554442
-0.498785
-0.447241
-0.399307
-0.354642
-0.313017
-0.274288
-0.238378
-0.205237
-0.174804
-0.147021
-0.121854
-0.099272
-0.0792052
-0.0615719
-0.0462492
-0.0331634
-0.0219266
-0.0131121
-0.00366394
-0.00751105
-2.51691
-2.67873
-2.81406
-2.9237
-2.99521
-3.02583
-3.01808
-2.97412
-2.8963
-2.78872
-2.65691
-2.50696
-2.34504
-2.17719
-2.0091
-1.84558
-1.69025
-1.54526
-1.41152
-1.28886
-1.17654
-1.07345
-0.978451
-0.890452
-0.808596
-0.732156
-0.660641
-0.593652
-0.530955
-0.472342
-0.41771
-0.366931
-0.319919
-0.276597
-0.236948
-0.200864
-0.168257
-0.138962
-0.112851
-0.089777
-0.069626
-0.0522279
-0.0374661
-0.0250593
-0.0151516
-0.0064947
-0.00397864
-1.87909
-2.18679
-2.42129
-2.59737
-2.71779
-2.78586
-2.80801
-2.79061
-2.73908
-2.6587
-2.55507
-2.43397
-2.30103
-2.16143
-2.01969
-1.87944
-1.74326
-1.61279
-1.48879
-1.37149
-1.26072
-1.15618
-1.05749
-0.964312
-0.876357
-0.793421
-0.715318
-0.641943
-0.573179
-0.508948
-0.449167
-0.393794
-0.342739
-0.295874
-0.253026
-0.214097
-0.17896
-0.147487
-0.119514
-0.0948914
-0.0734451
-0.0550101
-0.0394125
-0.026474
-0.0160186
-0.00804894
-0.00123401
-1.45904
-1.84022
-2.13567
-2.36054
-2.52322
-2.62963
-2.68584
-2.69796
-2.67185
-2.61345
-2.52887
-2.42425
-2.3054
-2.17759
-2.0453
-1.91214
-1.78073
-1.65286
-1.52962
-1.41155
-1.2989
-1.19169
-1.08989
-0.993416
-0.902168
-0.816064
-0.735015
-0.658953
-0.587802
-0.521474
-0.459826
-0.402732
-0.350106
-0.301847
-0.25782
-0.217889
-0.181906
-0.149714
-0.121142
-0.0960177
-0.0741595
-0.0553889
-0.0395259
-0.0264073
-0.0157877
-0.00785323
-0.00033953
-1.25544
-1.68472
-2.02534
-2.28734
-2.47987
-2.61029
-2.68535
-2.71179
-2.69637
-2.64572
-2.56644
-2.46492
-2.3472
-2.2188
-2.08449
-1.94822
-1.81303
-1.68109
-1.55381
-1.432
-1.31601
-1.20594
-1.10171
-1.0032
-0.910249
-0.82271
-0.740445
-0.66333
-0.591259
-0.524124
-0.461785
-0.404111
-0.350995
-0.302323
-0.25796
-0.217752
-0.181542
-0.149163
-0.120442
-0.0951998
-0.0732545
-0.0544212
-0.0385176
-0.0253629
-0.0147688
-0.00659374
-0.000180171
)
;

boundaryField
{
    inlet
    {
        type            zeroGradient;
    }
    outlet
    {
        type            fixedValue;
        value           uniform 0;
    }
    upperWall
    {
        type            zeroGradient;
    }
    lowerWall
    {
        type            zeroGradient;
    }
    frontAndBack
    {
        type            empty;
    }
}


// ************************************************************************* //
