/*--------------------------------*- C++ -*----------------------------------*\
| =========                 |                                                 |
| \\      /  F ield         | OpenFOAM: The Open Source CFD Toolbox           |
|  \\    /   O peration     | Version:  2406                                  |
|   \\  /    A nd           | Website:  www.openfoam.com                      |
|    \\/     M anipulation  |                                                 |
\*---------------------------------------------------------------------------*/
FoamFile
{
    version     2.0;
    format      ascii;
    arch        "LSB;label=32;scalar=64";
    class       volVectorField;
    location    "82";
    object      U;
}
// * * * * * * * * * * * * * * * * * * * * * * * * * * * * * * * * * * * * * //

dimensions      [0 1 -1 0 0 0 0];

internalField   nonuniform List<vector> 
1916
(
(0.098595 -0.00107295 0)
(0.100496 -0.0011479 0)
(0.102204 -0.000681982 0)
(0.103477 -0.000386496 0)
(0.104361 -0.000244464 0)
(0.105003 -0.000160606 0)
(0.105483 -0.000106253 0)
(0.105845 -7.37576e-05 0)
(0.106125 -5.46979e-05 0)
(0.106347 -4.24098e-05 0)
(0.106528 -3.36954e-05 0)
(0.106677 -2.72215e-05 0)
(0.106801 -2.2178e-05 0)
(0.106905 -1.79942e-05 0)
(0.106992 -1.43257e-05 0)
(0.107063 -1.09561e-05 0)
(0.10712 -7.66172e-06 0)
(0.107164 -4.18858e-06 0)
(0.107194 -2.69284e-07 0)
(0.107209 4.35511e-06 0)
(0.107207 9.96652e-06 0)
(0.107185 1.69091e-05 0)
(0.107137 2.56792e-05 0)
(0.107059 3.69579e-05 0)
(0.106941 5.16394e-05 0)
(0.106772 7.08505e-05 0)
(0.106537 9.60324e-05 0)
(0.106214 0.000129018 0)
(0.105777 0.000172156 0)
(0.105191 0.000228392 0)
(0.104409 0.00030137 0)
(0.103371 0.000395429 0)
(0.102003 0.000515529 0)
(0.100208 0.000666933 0)
(0.0978682 0.000854595 0)
(0.0948424 0.00108199 0)
(0.0909658 0.00134929 0)
(0.0860573 0.0016506 0)
(0.0799331 0.00197049 0)
(0.0724331 0.00228001 0)
(0.063463 0.00253366 0)
(0.0530564 0.00266775 0)
(0.0414511 0.00260485 0)
(0.0291825 0.00226103 0)
(0.0172171 0.00156637 0)
(0.00731382 0.000313231 0)
(0.000252326 -0.000405104 0)
(0.276359 -0.00149208 0)
(0.276314 -0.00243655 0)
(0.276785 -0.00214379 0)
(0.27733 -0.00165946 0)
(0.277951 -0.00127645 0)
(0.278594 -0.000981447 0)
(0.279186 -0.000752746 0)
(0.279699 -0.00058394 0)
(0.280139 -0.000462995 0)
(0.280517 -0.000374781 0)
(0.280841 -0.000308015 0)
(0.28112 -0.000255923 0)
(0.281359 -0.000214162 0)
(0.281564 -0.000179528 0)
(0.28174 -0.000149618 0)
(0.281888 -0.00012266 0)
(0.282012 -9.72274e-05 0)
(0.282111 -7.19507e-05 0)
(0.282185 -4.53676e-05 0)
(0.282232 -1.58397e-05 0)
(0.282249 1.85036e-05 0)
(0.282232 5.99012e-05 0)
(0.282171 0.00011119 0)
(0.282058 0.000176077 0)
(0.281878 0.000259418 0)
(0.281612 0.000367562 0)
(0.281233 0.000508793 0)
(0.280708 0.000693886 0)
(0.27999 0.000936801 0)
(0.279018 0.00125551 0)
(0.277712 0.0016729 0)
(0.275965 0.00221773 0)
(0.273639 0.00292542 0)
(0.270552 0.00383831 0)
(0.266471 0.00500501 0)
(0.261099 0.00647778 0)
(0.254063 0.0083066 0)
(0.244905 0.0105281 0)
(0.233082 0.0131468 0)
(0.217982 0.0161066 0)
(0.198971 0.0192504 0)
(0.175498 0.0222711 0)
(0.147267 0.0246712 0)
(0.114523 0.0257351 0)
(0.0783558 0.0245994 0)
(0.04205 0.0198809 0)
(0.00739385 0.0112749 0)
(0.436622 -0.000802826 0)
(0.436442 -0.00164517 0)
(0.43629 -0.00180153 0)
(0.436024 -0.00170124 0)
(0.435944 -0.0015482 0)
(0.436072 -0.00137137 0)
(0.436297 -0.00118396 0)
(0.436551 -0.00100895 0)
(0.436812 -0.00085857 0)
(0.43707 -0.000732494 0)
(0.437315 -0.000626506 0)
(0.437541 -0.000536911 0)
(0.437748 -0.000460572 0)
(0.437934 -0.000394399 0)
(0.4381 -0.000335482 0)
(0.438245 -0.0002813 0)
(0.43837 -0.000229593 0)
(0.438473 -0.000178046 0)
(0.438554 -0.000124038 0)
(0.438609 -6.45343e-05 0)
(0.438636 4.04318e-06 0)
(0.438629 8.605e-05 0)
(0.43858 0.000187001 0)
(0.438479 0.000314066 0)
(0.438312 0.00047666 0)
(0.43806 0.000687176 0)
(0.437697 0.000961889 0)
(0.43719 0.00132215 0)
(0.436491 0.00179589 0)
(0.435539 0.00241957 0)
(0.434251 0.0032405 0)
(0.432517 0.00431959 0)
(0.430189 0.00573441 0)
(0.42707 0.0075822 0)
(0.422896 0.00998224 0)
(0.417319 0.0130764 0)
(0.409873 0.0170253 0)
(0.399949 0.0219971 0)
(0.386751 0.0281419 0)
(0.369262 0.0355431 0)
(0.346216 0.0441361 0)
(0.316119 0.0535748 0)
(0.277339 0.0630733 0)
(0.228441 0.0711944 0)
(0.168477 0.075897 0)
(0.0998379 0.0730612 0)
(0.0220748 0.0525297 0)
(0.576817 -0.000429427 0)
(0.576803 -0.00105549 0)
(0.5767 -0.00133384 0)
(0.576299 -0.00139945 0)
(0.575951 -0.00138131 0)
(0.575772 -0.00131677 0)
(0.575696 -0.00121766 0)
(0.575669 -0.00110303 0)
(0.57568 -0.000988955 0)
(0.57572 -0.000882017 0)
(0.575781 -0.000783437 0)
(0.575853 -0.000693247 0)
(0.575929 -0.000610994 0)
(0.576006 -0.000535425 0)
(0.57608 -0.000464694 0)
(0.576149 -0.000396783 0)
(0.576211 -0.000329583 0)
(0.576264 -0.000260635 0)
(0.576304 -0.00018685 0)
(0.57633 -0.000104348 0)
(0.576338 -8.32058e-06 0)
(0.576322 0.000107241 0)
(0.576278 0.000250032 0)
(0.576197 0.000430119 0)
(0.576067 0.000660806 0)
(0.575876 0.000959717 0)
(0.575602 0.00135017 0)
(0.57522 0.00186296 0)
(0.574694 0.00253875 0)
(0.573977 0.00343115 0)
(0.573004 0.00461064 0)
(0.571685 0.00616959 0)
(0.569901 0.00822837 0)
(0.567485 0.0109426 0)
(0.564208 0.0145115 0)
(0.559752 0.0191861 0)
(0.553671 0.025276 0)
(0.545342 0.0331505 0)
(0.533885 0.0432281 0)
(0.518063 0.0559378 0)
(0.496139 0.0716375 0)
(0.465722 0.0904336 0)
(0.42356 0.111917 0)
(0.365652 0.1346 0)
(0.286875 0.155767 0)
(0.185101 0.167674 0)
(0.0485486 0.140393 0)
(0.696922 -0.000266672 0)
(0.696995 -0.000715974 0)
(0.697013 -0.000978458 0)
(0.696688 -0.00108668 0)
(0.696324 -0.00111751 0)
(0.696068 -0.00110546 0)
(0.695885 -0.00105991 0)
(0.695733 -0.000992615 0)
(0.695606 -0.000916473 0)
(0.695508 -0.000838906 0)
(0.695434 -0.00076269 0)
(0.695378 -0.000688988 0)
(0.695335 -0.000618307 0)
(0.695302 -0.000550275 0)
(0.695278 -0.000483716 0)
(0.695259 -0.000417039 0)
(0.695242 -0.000348381 0)
(0.695226 -0.000275384 0)
(0.695209 -0.000194874 0)
(0.695189 -0.000102641 0)
(0.695164 6.73366e-06 0)
(0.69513 0.000140179 0)
(0.695084 0.000306667 0)
(0.695022 0.000518014 0)
(0.694937 0.000789925 0)
(0.694823 0.00114333 0)
(0.694668 0.00160607 0)
(0.69446 0.00221523 0)
(0.69418 0.00302008 0)
(0.693801 0.00408618 0)
(0.693289 0.00550072 0)
(0.692592 0.00737964 0)
(0.691639 0.00987689 0)
(0.690328 0.0131965 0)
(0.688508 0.0176079 0)
(0.685961 0.0234658 0)
(0.682354 0.031233 0)
(0.677189 0.0415083 0)
(0.669698 0.0550528 0)
(0.658698 0.0728071 0)
(0.642335 0.0958863 0)
(0.617752 0.12547 0)
(0.58038 0.16265 0)
(0.523637 0.207597 0)
(0.436376 0.25972 0)
(0.307707 0.31123 0)
(0.0962947 0.308075 0)
(0.796987 -0.0001763 0)
(0.797097 -0.000491775 0)
(0.797189 -0.000704904 0)
(0.796944 -0.000815842 0)
(0.796618 -0.000864424 0)
(0.796364 -0.000875575 0)
(0.796162 -0.000857465 0)
(0.795977 -0.000817988 0)
(0.795803 -0.000766797 0)
(0.795649 -0.000710656 0)
(0.795515 -0.000652761 0)
(0.795395 -0.000594619 0)
(0.795289 -0.000536992 0)
(0.795194 -0.000479806 0)
(0.795108 -0.000422169 0)
(0.795032 -0.000362683 0)
(0.794962 -0.000299607 0)
(0.794899 -0.000230676 0)
(0.794842 -0.000152783 0)
(0.79479 -6.17127e-05 0)
(0.794743 4.80605e-05 0)
(0.7947 0.00018368 0)
(0.794662 0.00035445 0)
(0.794628 0.000572655 0)
(0.794598 0.000854673 0)
(0.794574 0.00122241 0)
(0.794557 0.00170517 0)
(0.794546 0.00234215 0)
(0.794543 0.00318581 0)
(0.794548 0.00430647 0)
(0.794561 0.00579856 0)
(0.794579 0.00778921 0)
(0.794593 0.0104498 0)
(0.794585 0.0140122 0)
(0.794517 0.0187906 0)
(0.79432 0.025212 0)
(0.793858 0.0338585 0)
(0.79289 0.045526 0)
(0.79097 0.0613052 0)
(0.78731 0.0826877 0)
(0.780466 0.111727 0)
(0.76795 0.151148 0)
(0.744958 0.204767 0)
(0.704112 0.276533 0)
(0.628895 0.373629 0)
(0.502372 0.488857 0)
(0.197813 0.571003 0)
(0.877029 -0.000117566 0)
(0.877153 -0.000334755 0)
(0.877285 -0.000494881 0)
(0.877095 -0.00059014 0)
(0.876806 -0.000639119 0)
(0.876568 -0.000657608 0)
(0.876371 -0.000652304 0)
(0.876181 -0.000628813 0)
(0.875995 -0.000593946 0)
(0.875823 -0.000553071 0)
(0.875666 -0.000509148 0)
(0.875523 -0.000463715 0)
(0.87539 -0.000417581 0)
(0.875268 -0.000370811 0)
(0.875157 -0.000322729 0)
(0.875056 -0.00027215 0)
(0.874964 -0.000217531 0)
(0.874881 -0.000156839 0)
(0.874808 -8.72623e-05 0)
(0.874746 -4.9583e-06 0)
(0.874698 9.51605e-05 0)
(0.874665 0.000219712 0)
(0.874649 0.000377338 0)
(0.874657 0.000579456 0)
(0.874695 0.000841315 0)
(0.87477 0.00118335 0)
(0.874896 0.001633 0)
(0.875088 0.0022271 0)
(0.875366 0.00301522 0)
(0.875759 0.00406422 0)
(0.876301 0.00546462 0)
(0.877041 0.0073395 0)
(0.878037 0.00985698 0)
(0.879366 0.0132481 0)
(0.881122 0.0178323 0)
(0.883415 0.0240553 0)
(0.88637 0.0325442 0)
(0.890107 0.0441917 0)
(0.894703 0.0602859 0)
(0.900125 0.0827065 0)
(0.905974 0.114279 0)
(0.911411 0.159208 0)
(0.913081 0.224562 0)
(0.907925 0.32038 0)
(0.869182 0.472221 0)
(0.819313 0.724792 0)
(0.302244 1.10583 0)
(0.937055 -7.52178e-05 0)
(0.937185 -0.000216772 0)
(0.937338 -0.000326279 0)
(0.937184 -0.000396455 0)
(0.936922 -0.000435451 0)
(0.936699 -0.000452333 0)
(0.936508 -0.000451799 0)
(0.93632 -0.000437622 0)
(0.936132 -0.000414225 0)
(0.935954 -0.000385346 0)
(0.935789 -0.000353286 0)
(0.935636 -0.000319336 0)
(0.935494 -0.000284191 0)
(0.935363 -0.000247958 0)
(0.935243 -0.000210158 0)
(0.935134 -0.000169885 0)
(0.935036 -0.000125921 0)
(0.93495 -7.6642e-05 0)
(0.934877 -1.98e-05 0)
(0.934821 4.76935e-05 0)
(0.934784 0.00012995 0)
(0.934771 0.000232339 0)
(0.934787 0.000361882 0)
(0.934843 0.000527864 0)
(0.934948 0.000742684 0)
(0.935121 0.00102299 0)
(0.935381 0.00139115 0)
(0.935758 0.00187734 0)
(0.93629 0.00252228 0)
(0.937029 0.00338116 0)
(0.938044 0.00452918 0)
(0.939428 0.00606937 0)
(0.941305 0.00814386 0)
(0.943842 0.0109503 0)
(0.947262 0.0147663 0)
(0.951862 0.0199863 0)
(0.958041 0.027178 0)
(0.966331 0.0371719 0)
(0.977435 0.0512049 0)
(0.992319 0.0711546 0)
(1.01215 0.0999565 0)
(1.03908 0.14226 0)
(1.07406 0.206035 0)
(1.12948 0.304145 0)
(1.19101 0.464259 0)
(1.41626 0.715788 0)
(1.5074 1.26891 0)
(0.977072 -4.14693e-05 0)
(0.977203 -0.000120436 0)
(0.977366 -0.000182669 0)
(0.977233 -0.000223828 0)
(0.976989 -0.000247197 0)
(0.976776 -0.000257279 0)
(0.976592 -0.000256727 0)
(0.976406 -0.0002477 0)
(0.976218 -0.000232672 0)
(0.976038 -0.000213812 0)
(0.97587 -0.000192541 0)
(0.975714 -0.000169691 0)
(0.975568 -0.000145706 0)
(0.975434 -0.00012065 0)
(0.975312 -9.42169e-05 0)
(0.975202 -6.58183e-05 0)
(0.975105 -3.46518e-05 0)
(0.975021 3.53701e-07 0)
(0.974954 4.06761e-05 0)
(0.974907 8.83429e-05 0)
(0.974885 0.000146056 0)
(0.974892 0.000217348 0)
(0.974939 0.000306838 0)
(0.975035 0.000420627 0)
(0.975197 0.000566859 0)
(0.975447 0.000756461 0)
(0.975812 0.00100414 0)
(0.976332 0.00132974 0)
(0.977057 0.0017601 0)
(0.978059 0.00233175 0)
(0.979432 0.0030946 0)
(0.981304 0.0041174 0)
(0.98385 0.00549562 0)
(0.987307 0.00736309 0)
(0.992004 0.0099096 0)
(0.998392 0.013408 0)
(1.0071 0.0182565 0)
(1.01902 0.0250465 0)
(1.03542 0.0346721 0)
(1.05817 0.0485147 0)
(1.08994 0.0687205 0)
(1.13533 0.098761 0)
(1.20012 0.143798 0)
(1.30063 0.212485 0)
(1.44351 0.314669 0)
(1.69882 0.448237 0)
(2.04293 0.678724 0)
(0.997079 -1.19366e-05 0)
(0.997211 -3.51145e-05 0)
(0.997378 -5.25729e-05 0)
(0.997255 -6.33505e-05 0)
(0.997021 -6.83109e-05 0)
(0.996813 -6.87843e-05 0)
(0.996632 -6.55952e-05 0)
(0.996449 -5.9423e-05 0)
(0.996262 -5.10402e-05 0)
(0.996082 -4.11311e-05 6.23666e-34)
(0.995913 -3.01454e-05 0)
(0.995756 -1.8334e-05 0)
(0.995609 -5.80749e-06 0)
(0.995475 7.45308e-06 0)
(0.995354 2.15942e-05 0)
(0.995245 3.68635e-05 6.22506e-34)
(0.99515 5.35931e-05 0)
(0.995071 7.2215e-05 0)
(0.995009 9.33079e-05 0)
(0.99497 0.000117645 0)
(0.994958 0.00014624 0)
(0.99498 0.000180409 0)
(0.995045 0.000221855 0)
(0.995167 0.000272814 -6.20197e-34)
(0.995363 0.000336244 0)
(0.995658 0.00041609 0)
(0.996084 0.000517641 0)
(0.996684 0.00064801 0)
(0.997518 0.000816806 0)
(0.998666 0.00103709 0)
(1.00024 0.00132672 0)
(1.00238 0.00171034 0)
(1.00529 0.00222223 0)
(1.00925 0.00291066 0)
(1.01465 0.00384439 0)
(1.02203 0.00512285 0)
(1.03214 0.00689215 0)
(1.0461 0.009371 0)
(1.06548 0.0128915 0)
(1.09264 0.0179705 0)
(1.13109 0.0253947 0)
(1.18618 0.0364331 -4.97412e-34)
(1.2656 0.052636 0)
(1.38056 0.0765134 0)
(1.54609 0.10731 0)
(1.76914 0.138694 0)
(2.08584 0.164062 0)
(0.997079 1.62873e-05 0)
(0.997211 4.67146e-05 0)
(0.997379 7.30758e-05 0)
(0.997256 9.29254e-05 0)
(0.997022 0.000107135 0)
(0.996815 0.000117079 0)
(0.996635 0.000123647 0)
(0.996452 0.000127598 0)
(0.996266 0.000129789 0)
(0.996087 0.000130989 -6.23643e-34)
(0.99592 0.000131741 0)
(0.995764 0.000132411 0)
(0.99562 0.000133242 0)
(0.995487 0.000134346 0)
(0.995368 0.00013571 0)
(0.995262 0.000137233 -6.22458e-34)
(0.99517 0.000138757 0)
(0.995093 0.000140044 0)
(0.995035 0.000140728 0)
(0.994999 0.000140259 0)
(0.994991 0.000137868 0)
(0.995018 0.000132516 0)
(0.995088 0.000122812 0)
(0.995215 0.00010688 6.20249e-34)
(0.995417 8.21634e-05 0)
(0.995719 4.51798e-05 0)
(0.996152 -8.82288e-06 0)
(0.99676 -8.63209e-05 0)
(0.997604 -0.000196155 0)
(0.998762 -0.000350429 0)
(1.00034 -0.000565802 0)
(1.0025 -0.00086534 0)
(1.00543 -0.00128124 0)
(1.00941 -0.00185888 0)
(1.01483 -0.00266296 0)
(1.02223 -0.00378696 0)
(1.03238 -0.0053681 0)
(1.04638 -0.00761139 0)
(1.06583 -0.0108271 0)
(1.0931 -0.0154966 0)
(1.1317 -0.0223456 0)
(1.18702 -0.0325386 4.97713e-34)
(1.26685 -0.0474338 0)
(1.38244 -0.0691778 0)
(1.54918 -0.0964242 0)
(1.77353 -0.121308 0)
(2.09296 -0.136485 0)
(0.977072 4.57048e-05 0)
(0.977203 0.000131703 0)
(0.977367 0.000202606 0)
(0.977235 0.000252597 0)
(0.976993 0.000284967 0)
(0.976782 0.000304258 0)
(0.976599 0.00031319 0)
(0.976416 0.000313997 0)
(0.976231 0.000309237 0)
(0.976055 0.000301161 0)
(0.975891 0.000291282 0)
(0.975739 0.000280544 0)
(0.975598 0.000269516 0)
(0.97547 0.000258391 0)
(0.975354 0.000246993 0)
(0.975251 0.000234877 0)
(0.975162 0.00022141 0)
(0.975088 0.000205709 0)
(0.97503 0.000186499 0)
(0.974994 0.000161968 0)
(0.974984 0.000129653 0)
(0.975005 8.62864e-05 0)
(0.975065 2.75511e-05 0)
(0.975178 -5.23164e-05 0)
(0.975358 -0.000161075 0)
(0.975627 -0.000309216 0)
(0.976015 -0.000510946 0)
(0.976559 -0.000785516 0)
(0.977312 -0.00115907 0)
(0.978345 -0.00166727 0)
(0.979753 -0.00235897 0)
(0.981665 -0.00330157 0)
(0.984257 -0.00458874 0)
(0.98777 -0.00635194 0)
(0.992532 -0.00877771 0)
(0.999001 -0.0121343 0)
(1.00781 -0.0168131 0)
(1.01987 -0.023396 0)
(1.03645 -0.0327621 0)
(1.05946 -0.0462705 0)
(1.09163 -0.0660312 0)
(1.13765 -0.0954631 0)
(1.20349 -0.139624 0)
(1.3059 -0.207029 0)
(1.45212 -0.307208 0)
(1.71342 -0.436615 0)
(2.06909 -0.661563 0)
(0.937056 7.92238e-05 0)
(0.937186 0.000227379 0)
(0.937339 0.000345093 0)
(0.937187 0.000423625 0)
(0.936928 0.000471128 0)
(0.936708 0.000496704 0)
(0.936521 0.000505111 0)
(0.936337 0.000500195 0)
(0.936154 0.000486457 0)
(0.935981 0.000467716 0)
(0.935823 0.000446359 0)
(0.935678 0.000423784 0)
(0.935544 0.000400803 0)
(0.935422 0.000377642 0)
(0.935313 0.000353947 0)
(0.935216 0.00032895 0)
(0.935131 0.000301591 0)
(0.935059 0.000270419 0)
(0.935003 0.000233374 0)
(0.934964 0.00018757 0)
(0.934947 0.000129117 0)
(0.934956 5.28922e-05 0)
(0.934996 -4.78491e-05 0)
(0.935078 -0.000182085 0)
(0.935213 -0.000361871 0)
(0.935418 -0.000603466 0)
(0.935714 -0.000928817 0)
(0.936131 -0.00136758 0)
(0.936708 -0.00195989 0)
(0.937498 -0.00276028 0)
(0.93857 -0.00384312 0)
(0.940019 -0.00531046 0)
(0.941971 -0.0073032 0)
(0.944595 -0.0100175 0)
(0.948119 -0.0137291 0)
(0.952844 -0.0188299 0)
(0.959179 -0.0258847 0)
(0.967669 -0.0357202 0)
(0.979038 -0.0495692 0)
(0.994287 -0.0693055 0)
(1.01464 -0.0978642 0)
(1.04236 -0.139905 0)
(1.07853 -0.203441 0)
(1.13621 -0.30144 0)
(1.20078 -0.462028 0)
(1.43643 -0.714272 0)
(1.53712 -1.27765 0)
(0.877029 0.000121233 0)
(0.877154 0.000344389 0)
(0.877287 0.000512037 0)
(0.8771 0.000614948 0)
(0.876814 0.0006717 0)
(0.87658 0.000698118 0)
(0.876388 0.000700951 0)
(0.876203 0.000685874 0)
(0.876025 0.000659765 0)
(0.875861 0.000628071 0)
(0.875713 0.000593833 0)
(0.87558 0.000558686 0)
(0.875459 0.000523541 0)
(0.87535 0.000488574 0)
(0.875254 0.000453222 0)
(0.875169 0.000416435 0)
(0.875094 0.000376807 0)
(0.875031 0.00033246 0)
(0.874981 0.000280746 0)
(0.874944 0.000218005 0)
(0.874922 0.000139346 0)
(0.874919 3.83769e-05 0)
(0.874936 -9.33086e-05 0)
(0.874981 -0.000266861 0)
(0.875058 -0.000497246 0)
(0.875178 -0.000804575 0)
(0.875353 -0.00121594 0)
(0.8756 -0.00176779 0)
(0.875939 -0.00250927 0)
(0.8764 -0.00350678 0)
(0.87702 -0.00485035 0)
(0.877846 -0.00666251 0)
(0.878941 -0.00911086 0)
(0.880385 -0.0124259 0)
(0.882274 -0.0169268 0)
(0.884726 -0.023059 0)
(0.887873 -0.0314505 0)
(0.891848 -0.0429959 0)
(0.896746 -0.0589889 0)
(0.902563 -0.0813202 0)
(0.908936 -0.112842 0)
(0.915095 -0.157803 0)
(0.917725 -0.223397 0)
(0.913997 -0.319838 0)
(0.876579 -0.473399 0)
(0.830134 -0.730043 0)
(0.305337 -1.12397 0)
(0.796987 0.000179524 0)
(0.797098 0.000500145 0)
(0.797192 0.000719903 0)
(0.79695 0.00083757 0)
(0.796628 0.000892964 0)
(0.796379 0.000911037 0)
(0.796184 0.000900011 0)
(0.796005 0.000867833 0)
(0.795841 0.000824221 0)
(0.795697 0.00077601 0)
(0.795574 0.000726474 0)
(0.795467 0.000677198 0)
(0.795375 0.000629033 0)
(0.795297 0.000581998 0)
(0.79523 0.000535312 0)
(0.795173 0.000487689 0)
(0.795127 0.000437513 0)
(0.795088 0.000382643 0)
(0.795058 0.000320111 0)
(0.795037 0.000245855 0)
(0.795023 0.000154524 0)
(0.795018 3.91561e-05 0)
(0.795021 -0.000109349 0)
(0.795032 -0.000303071 0)
(0.795052 -0.000558158 0)
(0.795083 -0.000896283 0)
(0.795126 -0.00134649 0)
(0.795183 -0.00194772 0)
(0.795255 -0.00275218 0)
(0.795344 -0.00382995 0)
(0.795451 -0.00527529 0)
(0.795573 -0.00721522 0)
(0.795705 -0.00982128 0)
(0.795832 -0.0133256 0)
(0.795919 -0.0180434 0)
(0.795901 -0.0244035 0)
(0.795651 -0.0329914 0)
(0.794934 -0.0446088 0)
(0.793318 -0.0603572 0)
(0.790029 -0.0817467 0)
(0.783639 -0.110863 0)
(0.771681 -0.150485 0)
(0.749341 -0.204529 0)
(0.709239 -0.277069 0)
(0.634634 -0.375617 0)
(0.508563 -0.492891 0)
(0.201391 -0.578302 0)
(0.696922 0.000269358 0)
(0.696996 0.000722823 0)
(0.697016 0.000990849 0)
(0.696695 0.00110467 0)
(0.696336 0.00114115 0)
(0.696086 0.00113479 0)
(0.695911 0.00109504 0)
(0.695767 0.00103369 0)
(0.69565 0.000963693 0)
(0.695564 0.000892541 0)
(0.695504 0.00082308 0)
(0.695463 0.000756532 0)
(0.695437 0.000693473 0)
(0.695424 0.00063361 0)
(0.695421 0.000575868 0)
(0.695425 0.00051875 0)
(0.695435 0.00046049 0)
(0.695448 0.000398821 0)
(0.695464 0.000330687 0)
(0.695479 0.000251995 0)
(0.695493 0.000157475 0)
(0.695502 4.03304e-05 0)
(0.695504 -0.000108249 0)
(0.695494 -0.00029994 0)
(0.695467 -0.000550273 0)
(0.695416 -0.000880031 0)
(0.695332 -0.00131689 0)
(0.695201 -0.0018978 0)
(0.695007 -0.00267191 0)
(0.694723 -0.00370479 0)
(0.694316 -0.00508368 0)
(0.693737 -0.00692481 0)
(0.692915 -0.00938267 0)
(0.691752 -0.0126623 0)
(0.690099 -0.017035 0)
(0.687739 -0.0228582 0)
(0.684346 -0.0305996 0)
(0.679425 -0.0408652 0)
(0.672213 -0.054428 0)
(0.66153 -0.0722466 0)
(0.645521 -0.0954636 0)
(0.621318 -0.125298 0)
(0.584312 -0.1629 0)
(0.527846 -0.208498 0)
(0.44057 -0.261596 0)
(0.311316 -0.31442 0)
(0.0977578 -0.312668 0)
(0.576817 0.000431494 0)
(0.576804 0.00106061 0)
(0.576704 0.00134324 0)
(0.576307 0.00141315 0)
(0.575964 0.00139929 0)
(0.575792 0.00133903 0)
(0.575724 0.00124424 0)
(0.575708 0.001134 0)
(0.575729 0.00102444 0)
(0.575783 0.000922195 0)
(0.575859 0.000828552 0)
(0.575948 0.000743586 0)
(0.576043 0.000666882 0)
(0.576141 0.000597266 0)
(0.576239 0.000532961 0)
(0.576335 0.000472035 0)
(0.576426 0.00041243 0)
(0.57651 0.000351764 0)
(0.576585 0.00028702 0)
(0.57665 0.000214424 0)
(0.5767 0.000129254 0)
(0.576732 2.56165e-05 0)
(0.576739 -0.000104106 0)
(0.576714 -0.000269863 0)
(0.576647 -0.000484883 0)
(0.576524 -0.000766672 0)
(0.576326 -0.0011385 0)
(0.576027 -0.00163109 0)
(0.575593 -0.00228518 0)
(0.574977 -0.00315442 0)
(0.574115 -0.00430963 0)
(0.572919 -0.00584359 0)
(0.571271 -0.00787754 0)
(0.569005 -0.0105684 0)
(0.565894 -0.0141173 0)
(0.56162 -0.0187784 0)
(0.55574 -0.024866 0)
(0.547629 -0.0327563 0)
(0.536406 -0.0428772 0)
(0.520828 -0.0556714 0)
(0.499144 -0.0715141 0)
(0.46894 -0.0905324 0)
(0.426911 -0.112339 0)
(0.368983 -0.135451 0)
(0.289904 -0.157145 0)
(0.18741 -0.169596 0)
(0.0493212 -0.142512 0)
(0.436622 0.000804208 0)
(0.436444 0.0016484 0)
(0.436294 0.00180765 0)
(0.436033 0.00171021 0)
(0.435958 0.00155994 0)
(0.436093 0.00138584 0)
(0.436327 0.00120114 0)
(0.436592 0.00102887 0)
(0.436865 0.000881264 0)
(0.437136 0.000758071 0)
(0.437396 0.000655112 0)
(0.43764 0.000568716 0)
(0.437866 0.000495776 0)
(0.438074 0.000433253 0)
(0.438264 0.000378293 0)
(0.438435 0.00032842 0)
(0.438589 0.000281405 0)
(0.438724 0.000234978 0)
(0.438839 0.000186572 0)
(0.438933 0.000133212 0)
(0.439002 7.13708e-05 0)
(0.439041 -3.24715e-06 0)
(0.439043 -9.61136e-05 0)
(0.438998 -0.000214337 0)
(0.438893 -0.000367299 0)
(0.438708 -0.000567338 0)
(0.43842 -0.000830735 0)
(0.437994 -0.00117885 0)
(0.437384 -0.00163972 0)
(0.43653 -0.00224997 0)
(0.435349 -0.00305724 0)
(0.433732 -0.00412292 0)
(0.431531 -0.00552538 0)
(0.42855 -0.00736301 0)
(0.424525 -0.00975688 0)
(0.419106 -0.0128512 0)
(0.411828 -0.0168103 0)
(0.402075 -0.0218069 0)
(0.389046 -0.027997 0)
(0.371712 -0.0354713 0)
(0.34879 -0.0441727 0)
(0.318756 -0.0537606 0)
(0.279939 -0.0634486 0)
(0.230852 -0.0717862 0)
(0.170486 -0.0767071 0)
(0.101204 -0.0740398 0)
(0.0224573 -0.053451 0)
(0.276359 0.00149277 0)
(0.276315 0.00243778 0)
(0.276789 0.00214651 0)
(0.277338 0.0016636 0)
(0.277965 0.0012819 0)
(0.278614 0.000988133 0)
(0.279214 0.000760629 0)
(0.279736 0.000592997 0)
(0.280187 0.000473238 0)
(0.280577 0.000386256 0)
(0.280915 0.000320797 0)
(0.281208 0.000270086 0)
(0.281464 0.000229802 0)
(0.281687 0.000196762 0)
(0.281883 0.000168597 0)
(0.282054 0.000143544 0)
(0.282202 0.000120197 0)
(0.282327 9.72005e-05 0)
(0.28243 7.31329e-05 0)
(0.28251 4.63757e-05 0)
(0.282562 1.50803e-05 0)
(0.282583 -2.30174e-05 0)
(0.282565 -7.07159e-05 0)
(0.282499 -0.000131707 0)
(0.282369 -0.000210801 0)
(0.282159 -0.000314372 0)
(0.281841 -0.000450693 0)
(0.281383 -0.000630625 0)
(0.280738 -0.000868181 0)
(0.279845 -0.00118152 0)
(0.278625 -0.00159373 0)
(0.276971 -0.00213397 0)
(0.274744 -0.00283809 0)
(0.271762 -0.00374927 0)
(0.267791 -0.00491706 0)
(0.262531 -0.00639515 0)
(0.255606 -0.00823519 0)
(0.246553 -0.0104759 0)
(0.234819 -0.0131242 0)
(0.219782 -0.0161256 0)
(0.200791 -0.0193241 0)
(0.177277 -0.0224106 0)
(0.148921 -0.024882 0)
(0.115951 -0.0260112 0)
(0.0794491 -0.0249227 0)
(0.0427216 -0.0202143 0)
(0.00754615 -0.0115432 0)
(0.0985951 0.0010731 0)
(0.100496 0.0011483 0)
(0.102207 0.000682616 0)
(0.103482 0.000387295 0)
(0.104369 0.000245413 0)
(0.105015 0.000161709 0)
(0.105499 0.000107507 0)
(0.105866 7.51506e-05 0)
(0.106152 5.62361e-05 0)
(0.106381 4.41008e-05 0)
(0.106569 3.55494e-05 0)
(0.106726 2.92453e-05 0)
(0.106858 2.43941e-05 0)
(0.106971 2.04228e-05 0)
(0.107068 1.69887e-05 0)
(0.10715 1.38669e-05 0)
(0.10722 1.08495e-05 0)
(0.107277 7.68923e-06 0)
(0.107322 4.13626e-06 0)
(0.107353 -7.42131e-08 0)
(0.107369 -5.23728e-06 0)
(0.107366 -1.17305e-05 0)
(0.10734 -2.00338e-05 0)
(0.107285 -3.08111e-05 0)
(0.107193 -4.49395e-05 0)
(0.107051 -6.35608e-05 0)
(0.106846 -8.81255e-05 0)
(0.106556 -0.0001205 0)
(0.106155 -0.000163058 0)
(0.105606 -0.0002188 0)
(0.104865 -0.00029142 0)
(0.103871 -0.00038535 0)
(0.102548 -0.000505658 0)
(0.100799 -0.000657768 0)
(0.098505 -0.000846826 0)
(0.0955227 -0.00107654 0)
(0.0916845 -0.00134732 0)
(0.0868055 -0.00165346 0)
(0.0806974 -0.00197958 0)
(0.0731945 -0.00229654 0)
(0.0641969 -0.00255822 0)
(0.0537328 -0.00269977 0)
(0.0420378 -0.00264216 0)
(0.0296495 -0.00229964 0)
(0.0175425 -0.00160178 0)
(0.00749448 -0.000339793 0)
(0.000284418 0.000381011 0)
(1.78871 0.911834 0)
(1.48017 0.452855 0)
(1.08169 0.183312 0)
(0.921189 0.05814 0)
(0.893438 0.00436539 0)
(0.85928 -0.0297253 0)
(2.48069 0.547409 0)
(2.63688 0.345053 0)
(2.6173 0.236367 0)
(2.56914 0.18168 0)
(2.52592 0.145637 0)
(2.47123 0.123489 0)
(2.45609 0.107379 0)
(2.73669 0.0592792 0)
(2.88162 0.0540101 0)
(2.94675 0.0653039 0)
(2.9806 0.0783525 0)
(2.99273 0.0952677 0)
(2.46515 -0.0606982 0)
(2.74608 0.0126921 0)
(2.89213 0.0463812 0)
(2.96137 0.0674221 0)
(3.0066 0.0929779 0)
(3.0368 0.124466 0)
(2.51973 -0.506766 0)
(2.69553 -0.276118 0)
(2.7109 -0.143957 0)
(2.71389 -0.0682197 0)
(2.73188 -0.00594314 0)
(2.7481 0.0521335 0)
(1.84772 -0.92001 0)
(1.58054 -0.458302 0)
(1.23175 -0.183826 0)
(1.12638 -0.0473864 0)
(1.1754 0.0247553 0)
(1.23962 0.085191 0)
(-0.000843604 0.000722921 0)
(-0.00649823 0.00158845 0)
(-0.0141878 0.0018552 0)
(-0.0221318 0.00176279 0)
(-0.0293769 0.00159605 0)
(-0.0357882 0.00141128 0)
(-0.0413939 0.001221 0)
(-0.0462336 0.00103088 0)
(-0.0503491 0.000845306 0)
(-0.0537847 0.000668319 0)
(-0.0565865 0.000502908 0)
(-0.0588004 0.000351215 0)
(-0.0604714 0.000214675 0)
(-0.0616446 9.42927e-05 0)
(-0.0623664 -9.28516e-06 0)
(-0.0626856 -9.55481e-05 0)
(-0.062655 -0.000163965 0)
(-0.0623317 -0.000213596 0)
(-0.0617793 -0.000243565 0)
(-0.0610642 -0.000253915 0)
(-0.0602525 -0.000245866 0)
(-0.0594079 -0.000220972 0)
(-0.0585903 -0.000181503 0)
(-0.0578536 -0.000130433 0)
(-0.057245 -7.06685e-05 0)
(-0.0568029 -5.33538e-06 0)
(-0.0565573 6.2502e-05 0)
(-0.0565295 0.000130042 0)
(-0.056733 0.000194807 0)
(-0.0571743 0.000254753 0)
(-0.0578525 0.000307791 0)
(-0.0587596 0.0003522 0)
(-0.0598801 0.000386182 0)
(-0.0611917 0.000409804 0)
(-0.0626667 0.000424635 0)
(-0.0642716 0.000432463 0)
(-0.0659631 0.000432013 0)
(-0.0676865 0.000420681 0)
(-0.0693837 0.000402552 0)
(-0.071009 0.000390498 0)
(-0.0725288 0.00038261 0)
(-0.0739077 0.000347569 0)
(-0.0751246 0.000291009 0)
(-0.0762619 0.000298076 0)
(-0.0777172 0.000451404 0)
(-0.0800777 0.000938205 0)
(-0.081786 0.00148341 0)
(-0.00331586 0.00759222 0)
(-0.0197794 0.0142236 0)
(-0.0390902 0.0157959 0)
(-0.0578771 0.0149738 0)
(-0.0746301 0.0134625 0)
(-0.0892373 0.011846 0)
(-0.101834 0.0102807 0)
(-0.112584 0.00880201 0)
(-0.121645 0.00741684 0)
(-0.129164 0.00612512 0)
(-0.135272 0.00492423 0)
(-0.140086 0.00381035 0)
(-0.143715 0.00278081 0)
(-0.146264 0.00183609 0)
(-0.147839 0.000980978 0)
(-0.148555 0.000223635 0)
(-0.148535 -0.000425306 0)
(-0.147916 -0.000954695 0)
(-0.146841 -0.00135547 0)
(-0.145454 -0.00162492 0)
(-0.143902 -0.00176436 0)
(-0.142324 -0.00177958 0)
(-0.14085 -0.0016791 0)
(-0.139598 -0.00147505 0)
(-0.138667 -0.0011826 0)
(-0.138139 -0.000818408 0)
(-0.138076 -0.000399681 0)
(-0.138521 5.82996e-05 0)
(-0.139499 0.000539403 0)
(-0.141011 0.00102834 0)
(-0.143046 0.0015111 0)
(-0.145577 0.00197314 0)
(-0.148558 0.00239958 0)
(-0.151931 0.00277579 0)
(-0.15562 0.00308769 0)
(-0.159538 0.00331945 0)
(-0.163579 0.00345273 0)
(-0.16762 0.00347329 0)
(-0.171541 0.00338212 0)
(-0.17524 0.0031929 0)
(-0.178633 0.00291897 0)
(-0.181629 0.00260184 0)
(-0.184177 0.00236335 0)
(-0.186333 0.00234557 0)
(-0.188602 0.00267759 0)
(-0.19201 0.00337847 0)
(-0.189168 0.00301012 0)
(-0.00608662 0.0225711 0)
(-0.0327495 0.0374863 0)
(-0.0605181 0.0392749 0)
(-0.0858957 0.036233 0)
(-0.107819 0.0320203 0)
(-0.126596 0.0277877 0)
(-0.14262 0.0238362 0)
(-0.156242 0.0202171 0)
(-0.167763 0.0169158 0)
(-0.177421 0.0139041 0)
(-0.185411 0.0111532 0)
(-0.191892 0.00863897 0)
(-0.197 0.00634531 0)
(-0.200856 0.00426737 0)
(-0.203581 0.00241245 0)
(-0.205304 0.000796955 0)
(-0.206165 -0.00055866 0)
(-0.206318 -0.00163424 0)
(-0.205927 -0.00241808 0)
(-0.20516 -0.00290816 0)
(-0.204187 -0.00311086 0)
(-0.20317 -0.00304079 0)
(-0.202266 -0.00272012 0)
(-0.201617 -0.00217864 0)
(-0.201343 -0.00145361 0)
(-0.201544 -0.000584663 0)
(-0.202295 0.000389536 0)
(-0.203643 0.00143004 0)
(-0.205608 0.00249691 0)
(-0.208187 0.00355621 0)
(-0.211362 0.00457568 0)
(-0.21509 0.00552368 0)
(-0.219308 0.00636823 0)
(-0.223934 0.00707948 0)
(-0.228872 0.00762811 0)
(-0.23401 0.00798483 0)
(-0.239216 0.00812013 0)
(-0.244342 0.00801534 0)
(-0.249243 0.00767463 0)
(-0.253802 0.00712369 0)
(-0.257905 0.00640133 0)
(-0.261407 0.00558314 0)
(-0.264222 0.00480699 0)
(-0.266381 0.00423133 0)
(-0.268259 0.00396844 0)
(-0.270767 0.00394374 0)
(-0.268068 0.00334336 0)
(-0.0088949 0.0457411 0)
(-0.043338 0.0687639 0)
(-0.0740565 0.0680938 0)
(-0.0999713 0.0610921 0)
(-0.121706 0.0532155 0)
(-0.140231 0.045829 0)
(-0.156192 0.0392072 0)
(-0.170075 0.0333165 0)
(-0.182218 0.0280503 0)
(-0.192848 0.0233059 0)
(-0.202117 0.0190001 0)
(-0.210128 0.0150717 0)
(-0.216958 0.0114825 0)
(-0.222668 0.00821919 0)
(-0.22732 0.00529171 0)
(-0.230991 0.00272977 0)
(-0.233775 0.000569064 0)
(-0.235792 -0.00115569 0)
(-0.237184 -0.00242267 0)
(-0.238107 -0.00322563 0)
(-0.238718 -0.00357484 0)
(-0.239179 -0.00348795 0)
(-0.239653 -0.00299565 0)
(-0.240294 -0.00214488 0)
(-0.241237 -0.000994886 0)
(-0.242596 0.000389805 0)
(-0.244451 0.00194196 0)
(-0.246847 0.00359108 0)
(-0.249807 0.00527456 0)
(-0.253328 0.00693549 0)
(-0.257387 0.00852086 0)
(-0.261939 0.00997813 0)
(-0.266917 0.0112569 0)
(-0.272237 0.0123079 0)
(-0.277803 0.0130842 0)
(-0.283507 0.0135412 0)
(-0.289221 0.0136393 0)
(-0.294801 0.013354 0)
(-0.300103 0.0126861 0)
(-0.305014 0.0116683 0)
(-0.309405 0.0103659 0)
(-0.313114 0.00888374 0)
(-0.316028 0.0073668 0)
(-0.318122 0.00600396 0)
(-0.319698 0.00504595 0)
(-0.321751 0.0046588 0)
(-0.31972 0.00428739 0)
(-0.0116879 0.0769853 0)
(-0.0477422 0.101914 0)
(-0.0708038 0.0941021 0)
(-0.0876932 0.0822085 0)
(-0.1022 0.0710878 0)
(-0.115455 0.0613175 0)
(-0.1279 0.0529188 0)
(-0.13985 0.0456497 0)
(-0.15145 0.0392291 0)
(-0.162709 0.0334482 0)
(-0.173569 0.0281638 0)
(-0.18394 0.0232809 0)
(-0.193721 0.018746 0)
(-0.202815 0.0145438 0)
(-0.211134 0.010695 0)
(-0.218619 0.00725168 0)
(-0.225239 0.00427944 0)
(-0.231007 0.00183893 0)
(-0.235975 -2.39392e-05 0)
(-0.240236 -0.00128446 0)