/*--------------------------------*- C++ -*----------------------------------*\
| =========                 |                                                 |
| \\      /  F ield         | OpenFOAM: The Open Source CFD Toolbox           |
|  \\    /   O peration     | Version:  2406                                  |
|   \\  /    A nd           | Website:  www.openfoam.com                      |
|    \\/     M anipulation  |                                                 |
\*---------------------------------------------------------------------------*/
FoamFile
{
    version     2.0;
    format      ascii;
    arch        "LSB;label=32;scalar=64";
    class       volScalarField;
    location    "82";
    object      p;
}
// * * * * * * * * * * * * * * * * * * * * * * * * * * * * * * * * * * * * * //

dimensions      [0 2 -2 0 0 0 0];

internalField   nonuniform List<scalar> 
1900
(
-0.0690222
-0.0700906
-0.07229
-0.0752769
-0.0788566
-0.0830015
-0.0877091
-0.0930135
-0.0989308
-0.105564
-0.0659463
-0.0688133
-0.0719779
-0.0751435
-0.0787186
-0.0828486
-0.0874731
-0.0925454
-0.0980119
-0.103576
-0.0629794
-0.0672978
-0.0713741
-0.0746069
-0.0779796
-0.0818806
-0.0861539
-0.0905843
-0.0949031
-0.0985495
-0.0600872
-0.0650095
-0.0696308
-0.0729554
-0.0761471
-0.0797634
-0.0836104
-0.0873925
-0.0908612
-0.0936825
-0.0573315
-0.0624693
-0.0673349
-0.070686
-0.0736952
-0.0770108
-0.0804552
-0.0837313
-0.0866611
-0.0890695
-0.0550785
-0.0602206
-0.0650232
-0.06824
-0.071053
-0.07411
-0.0772379
-0.0801656
-0.0827745
-0.0849834
-0.0537316
-0.0586611
-0.0631104
-0.0660648
-0.0687025
-0.071572
-0.0744835
-0.0772047
-0.079658
-0.081807
-0.0536151
-0.0579338
-0.0617736
-0.0644838
-0.0670403
-0.0697984
-0.0725773
-0.0752003
-0.0776082
-0.0797724
-0.0550034
-0.057892
-0.0608375
-0.0634486
-0.0660978
-0.0688713
-0.0716351
-0.0742695
-0.0767152
-0.0789358
-0.0576537
-0.0587962
-0.0608335
-0.0632999
-0.0659553
-0.0687073
-0.071462
-0.0741202
-0.0766083
-0.0788785
-0.0963914
-0.0965097
-0.0966019
-0.0966189
-0.0965649
-0.0964467
-0.096266
-0.0960212
-0.0957092
-0.0953264
-0.0948695
-0.0943354
-0.0937212
-0.0930245
-0.0922427
-0.0913735
-0.0904148
-0.0893642
-0.0882193
-0.0869778
-0.0856374
-0.0841955
-0.0826497
-0.0809978
-0.0792375
-0.077367
-0.0753847
-0.0732896
-0.0710812
-0.0687601
-0.0663276
-0.0637865
-0.0611406
-0.0583953
-0.0555577
-0.0962579
-0.0963813
-0.0964606
-0.0964633
-0.0964045
-0.096289
-0.096115
-0.0958784
-0.095575
-0.0952007
-0.0947519
-0.0942257
-0.0936191
-0.0929297
-0.0921551
-0.0912931
-0.0903416
-0.0892983
-0.0881609
-0.0869273
-0.0855951
-0.084162
-0.0826256
-0.0809838
-0.0792343
-0.0773753
-0.0754053
-0.0733234
-0.071129
-0.0688226
-0.0664055
-0.06388
-0.0612499
-0.0585204
-0.0556985
-0.096178
-0.096323
-0.096402
-0.0963957
-0.0963348
-0.0962242
-0.0960585
-0.0958316
-0.0955379
-0.0951731
-0.0947333
-0.0942155
-0.0936169
-0.0929354
-0.0921686
-0.0913144
-0.0903709
-0.0893358
-0.0882072
-0.0869829
-0.0856605
-0.0842379
-0.0827128
-0.0810829
-0.0793462
-0.0775007
-0.0755449
-0.0734776
-0.0712982
-0.0690068
-0.0666044
-0.0640933
-0.0614773
-0.0587612
-0.0559518
-0.0962836
-0.0964472
-0.0965285
-0.0965169
-0.0964554
-0.0963479
-0.0961868
-0.0959646
-0.0956754
-0.0953146
-0.0948783
-0.0943639
-0.0937687
-0.0930906
-0.0923276
-0.0914776
-0.0905389
-0.0895094
-0.0883871
-0.0871699
-0.0858555
-0.0844418
-0.0829264
-0.081307
-0.0795814
-0.0777475
-0.0758034
-0.0737476
-0.0715792
-0.0692986
-0.0669065
-0.0644051
-0.0617976
-0.0590887
-0.056285
-0.0966782
-0.0968304
-0.0968896
-0.096857
-0.0967815
-0.0966634
-0.096493
-0.096262
-0.0959645
-0.0955959
-0.0951527
-0.0946322
-0.094032
-0.09335
-0.0925843
-0.0917328
-0.0907937
-0.089765
-0.0886447
-0.0874306
-0.0861204
-0.0847118
-0.0832022
-0.0815892
-0.07987
-0.0780425
-0.0761048
-0.0740554
-0.0718935
-0.0696187
-0.0672315
-0.0647342
-0.0621306
-0.0594251
-0.0566238
-0.0974601
-0.0975316
-0.0975034
-0.0974024
-0.0972768
-0.0971188
-0.0969145
-0.0966543
-0.0963315
-0.0959411
-0.0954794
-0.094943
-0.0943293
-0.093636
-0.0928609
-0.0920019
-0.0910569
-0.0900239
-0.0889006
-0.0876846
-0.0863736
-0.0849647
-0.0834558
-0.0818444
-0.0801274
-0.0783023
-0.076367
-0.0743199
-0.0721599
-0.0698868
-0.0675012
-0.0650051
-0.0624018
-0.0596965
-0.0568958
-0.0987384
-0.0985785
-0.0983222
-0.0980602
-0.0978252
-0.0975876
-0.0973224
-0.0970145
-0.0966537
-0.0962328
-0.0957461
-0.0951895
-0.0945597
-0.0938536
-0.0930681
-0.0922005
-0.0912487
-0.0902104
-0.089083
-0.0878637
-0.0865497
-0.0851381
-0.083626
-0.0820107
-0.0802894
-0.0784597
-0.0765196
-0.0744673
-0.072302
-0.0700235
-0.0676331
-0.0651331
-0.0625275
-0.0598221
-0.0570244
-0.100838
-0.0999823
-0.0991814
-0.0986262
-0.0982265
-0.0978866
-0.0975554
-0.0972038
-0.0968127
-0.0963698
-0.0958663
-0.0952958
-0.0946541
-0.0939383
-0.0931448
-0.0922703
-0.0913119
-0.0902664
-0.0891311
-0.0879031
-0.0865798
-0.0851581
-0.0836352
-0.0820083
-0.080275
-0.0784328
-0.0764799
-0.0744152
-0.0722381
-0.0699494
-0.0675508
-0.0650459
-0.0624396
-0.0597387
-0.0569519
-0.105174
-0.10183
-0.0997576
-0.0988416
-0.0983003
-0.0978676
-0.0974905
-0.0971225
-0.0967255
-0.0962799
-0.095775
-0.0952037
-0.0945605
-0.0938408
-0.0930409
-0.092158
-0.0911891
-0.0901314
-0.0889821
-0.0877386
-0.0863979
-0.0849573
-0.0834141
-0.0817658
-0.0800104
-0.0781462
-0.076172
-0.0740876
-0.0718935
-0.0695916
-0.067185
-0.0646786
-0.0620786
-0.0593934
-0.0566331
-0.112534
-0.1038
-0.099705
-0.0986267
-0.0980793
-0.0975679
-0.0971555
-0.0967993
-0.09642
-0.0959824
-0.0954795
-0.0949068
-0.0942581
-0.093529
-0.0927163
-0.0918174
-0.0908292
-0.089749
-0.0885744
-0.0873029
-0.0859321
-0.0844595
-0.0828831
-0.0812012
-0.0794127
-0.0775171
-0.0755147
-0.0734065
-0.0711946
-0.0688824
-0.0664748
-0.063978
-0.0614002
-0.0587509
-0.0560416
-0.109025
-0.102987
-0.0990501
-0.0981165
-0.097721
-0.0971894
-0.0967144
-0.0963302
-0.0959399
-0.0954891
-0.0949694
-0.094378
-0.0937081
-0.0929545
-0.0921136
-0.0911826
-0.0901587
-0.0890397
-0.0878235
-0.0865086
-0.0850932
-0.0835757
-0.0819551
-0.0802308
-0.0784031
-0.0764734
-0.0744434
-0.0723161
-0.0700953
-0.0677861
-0.065395
-0.0629298
-0.0604
-0.0578163
-0.0551908
-0.105528
-0.102047
-0.0987667
-0.0975755
-0.0970989
-0.0965619
-0.0960357
-0.0955962
-0.0951713
-0.0946933
-0.0941433
-0.0935183
-0.0928127
-0.0920205
-0.0911375
-0.0901609
-0.0890886
-0.087919
-0.0866512
-0.0852847
-0.0838187
-0.082253
-0.0805875
-0.0788235
-0.0769628
-0.0750086
-0.0729646
-0.0708354
-0.0686267
-0.066345
-0.0639982
-0.0615951
-0.0591459
-0.0566617
-0.0541545
-0.100103
-0.0990076
-0.0972346
-0.0962725
-0.0958269
-0.0953823
-0.0948942
-0.0944367
-0.0939857
-0.0934846
-0.092908
-0.0922513
-0.0915106
-0.0906801
-0.0897551
-0.0887331
-0.0876132
-0.0863953
-0.0850798
-0.0836675
-0.0821589
-0.0805552
-0.0788581
-0.0770703
-0.0751955
-0.0732384
-0.0712045
-0.0690999
-0.0669315
-0.064707
-0.0624348
-0.0601243
-0.0577855
-0.0554292
-0.0530665
-0.0953108
-0.0954383
-0.0947498
-0.0941722
-0.0938587
-0.0935671
-0.0932069
-0.0928129
-0.0923883
-0.0919003
-0.091327
-0.0906631
-0.0899064
-0.0890528
-0.0880992
-0.0870445
-0.08589
-0.0846376
-0.0832894
-0.0818475
-0.0803142
-0.078692
-0.0769844
-0.0751956
-0.073331
-0.0713966
-0.0693988
-0.0673449
-0.0652424
-0.0630993
-0.0609241
-0.058726
-0.0565142
-0.0542983
-0.0520881
-0.0907107
-0.0914428
-0.0915399
-0.0914817
-0.0914608
-0.0914003
-0.0912328
-0.0909686
-0.0906221
-0.0901847
-0.0896449
-0.0889994
-0.088248
-0.08739
-0.0864254
-0.0853562
-0.0841857
-0.082918
-0.0815568
-0.0801057
-0.0785683
-0.076949
-0.0752526
-0.0734848
-0.0716517
-0.0697603
-0.0678176
-0.0658309
-0.063808
-0.0617567
-0.0596849
-0.0576009
-0.0555131
-0.0534295
-0.0513581
-0.0866821
-0.0878093
-0.088471
-0.0888825
-0.0891745
-0.0893462
-0.0893704
-0.0892524
-0.0890083
-0.0886429
-0.0881548
-0.0875444
-0.0868145
-0.0859684
-0.08501
-0.083944
-0.0827761
-0.0815115
-0.0801555
-0.078713
-0.0771892
-0.0755895
-0.07392
-0.0721871
-0.0703973
-0.0685579
-0.0666757
-0.0647582
-0.0628124
-0.0608457
-0.0588654
-0.0568787
-0.0548928
-0.0529144
-0.0509501
-0.0835972
-0.0849934
-0.0860292
-0.0867923
-0.0873542
-0.0877343
-0.0879312
-0.0879526
-0.0878137
-0.0875254
-0.0870938
-0.0865246
-0.0858244
-0.0850004
-0.0840597
-0.0830092
-0.0818558
-0.0806062
-0.0792665
-0.0778429
-0.0763416
-0.0747687
-0.0731309
-0.0714347
-0.0696869
-0.0678943
-0.0660638
-0.0642021
-0.062316
-0.0604122
-0.0584973
-0.0565777
-0.0546598
-0.0527493
-0.0508519
-0.0816557
-0.0832313
-0.0845028
-0.0855009
-0.0862581
-0.0867934
-0.0871172
-0.0872421
-0.0871833
-0.086955
-0.0865685
-0.0860339
-0.0853612
-0.08456
-0.083639
-0.0826068
-0.0814709
-0.0802387
-0.0789172
-0.0775131
-0.0760329
-0.0744834
-0.0728711
-0.0712026
-0.0694845
-0.0677234
-0.0659257
-0.064098
-0.0622467
-0.0603781
-0.0584983
-0.0566134
-0.054729
-0.0528508
-0.0509837
-0.0808996
-0.0825844
-0.0839842
-0.0851074
-0.08597
-0.086589
-0.0869801
-0.0871595
-0.0871438
-0.0869485
-0.0865875
-0.0860735
-0.0854179
-0.0846313
-0.0837234
-0.082703
-0.0815782
-0.0803568
-0.0790458
-0.0776524
-0.0761833
-0.0746451
-0.0730443
-0.0713876
-0.0696813
-0.0679317
-0.0661454
-0.0643286
-0.0624876
-0.0606284
-0.0587572
-0.0568798
-0.0550016
-0.0531282
-0.0512645
-0.0808972
-0.0826419
-0.0841023
-0.0852802
-0.0861875
-0.0868406
-0.0872574
-0.087456
-0.0874538
-0.0872676
-0.0869126
-0.0864024
-0.0857494
-0.0849644
-0.0840575
-0.0830376
-0.0819132
-0.0806919
-0.079381
-0.0779876
-0.0765185
-0.07498
-0.0733789
-0.0717214
-0.0700139
-0.0682627
-0.0664742
-0.0646547
-0.0628102
-0.060947
-0.059071
-0.0571879
-0.0553035
-0.0534229
-0.0515512
-0.0526365
-0.0496424
-0.0465878
-0.0434872
-0.0403565
-0.037213
-0.0340755
-0.0309634
-0.0278965
-0.024895
-0.0527929
-0.0498139
-0.0467738
-0.0436866
-0.0405681
-0.0374356
-0.0343076
-0.0312034
-0.0281429
-0.0251461
-0.0530574
-0.0500883
-0.0470564
-0.0439757
-0.0408622
-0.0377329
-0.0346065
-0.0315026
-0.0284413
-0.0254428
-0.0533947
-0.050428
-0.0473971
-0.0443156
-0.0412001
-0.0380683
-0.0349389
-0.0318317
-0.028767
-0.0257653
-0.0537352
-0.0507697
-0.0477395
-0.0446591
-0.0415448
-0.0384147
-0.0352879
-0.0321846
-0.0291256
-0.0261315
-0.0540088
-0.0510461
-0.0480208
-0.0449478
-0.0418439
-0.0387277
-0.0356188
-0.0325375
-0.0295046
-0.0265408
-0.0541441
-0.0511926
-0.0481839
-0.0451335
-0.0420588
-0.0389786
-0.0359128
-0.0328816
-0.0299054
-0.0270043
-0.05409
-0.0511656
-0.0481932
-0.0451892
-0.0421712
-0.0391582
-0.0361696
-0.0332251
-0.0303441
-0.0275451
-0.0538095
-0.0509363
-0.0480286
-0.0451032
-0.0421774
-0.0392697
-0.0363985
-0.033582
-0.0308377
-0.0281819
-0.0532851
-0.0504955
-0.0476882
-0.0448793
-0.0420856
-0.0393239
-0.0366107
-0.0339619
-0.0313924
-0.0289153
-0.0525365
-0.0498675
-0.0471985
-0.0445442
-0.0419197
-0.0393395
-0.0368173
-0.034366
-0.0319971
-0.0297206
-0.0516369
-0.0491218
-0.0466224
-0.0441513
-0.041721
-0.0393432
-0.0370284
-0.0347862
-0.0326245
-0.03055
-0.0507086
-0.0483666
-0.0460515
-0.0437735
-0.0415421
-0.0393659
-0.0372524
-0.035208
-0.0332376
-0.0313451
-0.0498929
-0.0477218
-0.0455831
-0.0434847
-0.0414332
-0.0394347
-0.0374942
-0.0356154
-0.0338012
-0.0320535
-0.0493065
-0.0472817
-0.0452899
-0.0433368
-0.0414272
-0.0395651
-0.0377537
-0.0359954
-0.0342917
-0.0326436
-0.0490059
-0.0470873
-0.0451992
-0.0433458
-0.0415307
-0.0397568
-0.0380265
-0.0363415
-0.0347028
-0.0331112
-0.0489727
-0.0471163
-0.0452868
-0.0434878
-0.0417225
-0.0399934
-0.0383025
-0.0366513
-0.0350412
-0.0334726
-0.0491325
-0.0473016
-0.0454947
-0.0437155
-0.0419667
-0.0402511
-0.0385706
-0.036927
-0.0353214
-0.0337549
-0.0494151
-0.0475844
-0.0457762
-0.0439942
-0.0422412
-0.0405199
-0.0388326
-0.037181
-0.0355666
-0.0339904
-0.0496932
-0.0478532
-0.0460352
-0.0442427
-0.0424788
-0.0407462
-0.0390473
-0.037384
-0.0357576
-0.0341694
-0.0219782
-0.0191647
-0.0164717
-0.0139146
-0.0115067
-0.00925874
-0.00717894
-0.00527299
-0.00354316
-0.00198964
-0.000610814
0.000597772
0.00164252
0.00253145
0.00327389
0.0038802
0.00436136
0.00472876
0.00499387
0.00516801
0.00526215
0.00528676
0.00525166
0.00516596
0.00503795
0.00487512
0.00468413
0.00447085
0.00424033
0.00399692
0.00374426
0.00348536
0.00322266
0.0029581
0.00269314
-0.0222326
-0.019421
-0.0167287
-0.0141712
-0.0117619
-0.00951123
-0.00742787
-0.00551773
-0.00378356
-0.00222559
-0.000841553
0.00037297
0.00142435
0.00232058
0.00307098
0.00368582
0.00417606
0.00455299
0.00482801
0.00501235
0.00511689
0.005152
0.00512739
0.00505208
0.00493427
0.00478137
0.00459998
0.00439587
0.00417407
0.00393887
0.00369389
0.00344211
0.00318597
0.0029274
0.00266787
-0.0225266
-0.0197119
-0.0170163
-0.0144554
-0.0120425
-0.0097884
-0.00770157
-0.00578765
-0.00404948
-0.00248724
-0.0010987
0.000120628
0.00117718
0.00207904
0.00283557
0.00345713
0.0039547
0.00433959
0.00462317
0.00481666
0.00493086
0.00497608
0.00496195
0.00489739
0.0047905
0.00464859
0.00447815
0.00428487
0.00407368
0.00384878
0.00361373
0.00337145
0.00312434
0.00287427
0.00262271
-0.0228466
-0.02003
-0.017333
-0.0147715
-0.0123588
-0.0101059
-0.00802087
-0.00610925
-0.0043736
-0.00281388
-0.00142757
-0.000209894
0.000845835
0.00174793
0.00250596
0.0031304
0.00363234
0.00402312
0.00431411
0.00451646
0.00464091
0.00469763
0.0046961
0.00464507
0.00455247
0.00442542
0.00427023
0.00409241
0.00389673
0.00368724
0.00346735
0.00323986
0.00300707
0.00277078
0.00253237
-0.0232225
-0.0204177
-0.0177344
-0.0151883
-0.0127922
-0.0105567
-0.00848953
-0.00659544
-0.0048765
-0.00333209
-0.00195917
-0.000752503
0.000294996
0.00119193
0.00194808
0.00257402
0.00308084
0.00347982
0.00378217
0.00399882
0.00414024
0.00421628
0.00423609
0.00420808
0.00413982
0.00403809
0.00390886
0.00375733
0.00358799
0.00340463
0.00321044
0.00300802
0.0027995
0.00258654
0.00237044
-0.0236658
-0.0208982
-0.0182549
-0.0157504
-0.0133969
-0.011204
-0.00917817
-0.00732338
-0.00564067
-0.00412855
-0.00278321
-0.00159881
-0.000567818
0.000318658
0.00107051
0.00169829
0.00221291
0.00262534
0.00294639
0.00318651
0.00335562
0.003463
0.0035172
0.00352603
0.00349648
0.00343477
0.00334635
0.00323595
0.00310762
0.00296477
0.00281026
0.00264643
0.00247517
0.00229796
0.00211597
-0.0241971
-0.0215012
-0.0189322
-0.0165031
-0.0142245
-0.0121044
-0.0101479
-0.00835722
-0.00673224
-0.00527033
-0.00396679
-0.00281513
-0.00180741
-0.000934589
-0.000186843
0.000446091
0.000974655
0.0014092
0.00175981
0.00203611
0.00224714
0.00240128
0.00250621
0.00256883
0.00259533
0.00259113
0.00256097
0.00250894
0.00243851
0.00235259
0.00225362
0.00214358
0.00202409
0.00189641
0.00176157
-0.0248454
-0.0222604
-0.0198035
-0.0174858
-0.0153154
-0.0132983
-0.0114374
-0.00973345
-0.00818465
-0.00678722
-0.00553559
-0.00442275
-0.00344057
-0.00258013
-0.00183201
-0.00118657
-0.00063422
-0.000165584
0.000228303
0.000555905
0.000825061
0.00104296
0.0012161
0.00135029
0.00145064
0.00152164
0.00156714
0.00159046
0.00159438
0.00158125
0.00155301
0.00151123
0.00145723
0.0013921
0.0013168
-0.0256294
-0.023193
-0.0208832
-0.0187082
-0.0166738
-0.0147831
-0.0130373
-0.0114349
-0.00997298
-0.0086466
-0.00744961
-0.00637482
-0.00541428
-0.00455958
-0.00380211
-0.00313327
-0.00254468
-0.00202832
-0.00157665
-0.00118266
-0.000839959
-0.000542779
-0.000285965
-6.49823e-05
0.000124134
0.000284797
0.000419932
0.00053201
0.000623113
0.000694963
0.000748995
0.000786439
0.000808395
0.000815721
0.000809018
-0.0265424
-0.0242831
-0.0221449
-0.0201329
-0.0182501
-0.0164975
-0.0148738
-0.0133765
-0.0120012
-0.0107426
-0.00959441
-0.00854965
-0.00760106
-0.00674116
-0.00596256
-0.00525806
-0.0046208
-0.00404435
-0.0035228
-0.00305076
-0.00262338
-0.00223639
-0.00188601
-0.00156898
-0.00128252
-0.00102421
-0.000792081
-0.000584428
-0.000399867
-0.000237214
-9.544e-05
2.62959e-05
0.000128683
0.000212306
0.000277718
-0.0275444
-0.0254749
-0.0235162
-0.0216709
-0.0199395
-0.0183209
-0.0168127
-0.0154111
-0.0141114
-0.0129083
-0.0117958
-0.010768
-0.00981839
-0.00894101
-0.00812989
-0.00737944
-0.00668447
-0.00604023
-0.00544242
-0.00488725
-0.00437135
-0.00389183
-0.0034462
-0.00303235
-0.0026485
-0.00229317
-0.00196517
-0.00166346
-0.00138725
-0.00113593
-0.000908854
-0.000705421
-0.000525129
-0.000367516
-0.000232119
-0.0285675
-0.0266804
-0.0248902
-0.0231974
-0.0216007
-0.020098
-0.0186859
-0.0173606
-0.0161176
-0.0149521
-0.0138591
-0.0128336
-0.0118707
-0.0109658
-0.0101146
-0.00931302
-0.00855748
-0.00784477
-0.00717205
-0.00653689
-0.00593721
-0.00537124
-0.00483754
-0.00433491
-0.0038624
-0.0034192
-0.00300479
-0.00261892
-0.00226114
-0.00193087
-0.00162774
-0.00135142
-0.00110161
-0.000877998
-0.000680207
-0.0295328
-0.027802
-0.0261525
-0.0245833
-0.0230926
-0.0216777
-0.0203354
-0.0190621
-0.0178542
-0.0167076
-0.0156187
-0.0145838
-0.0135993
-0.012662
-0.011769
-0.0109177
-0.0101057
-0.00933119
-0.00859238
-0.00788789
-0.00721659
-0.00657756
-0.00597009
-0.00539361
-0.00484779
-0.00433263
-0.00384806
-0.00339362
-0.002969
-0.00257406
-0.00220872
-0.00187284
-0.00156627
-0.00128875
-0.00103999
-0.0303731
-0.02876
-0.0272134
-0.0257318
-0.0243133
-0.0229554
-0.0216555
-0.0204109
-0.0192187
-0.0180761
-0.0169805
-0.0159294
-0.0149204
-0.0139515
-0.0130208
-0.0121268
-0.0112681
-0.0104437
-0.00965249
-0.00889393
-0.00816744
-0.00747265
-0.00680929
-0.00617747
-0.00557743
-0.00500894
-0.00447172
-0.00396577
-0.00349118
-0.00304803
-0.00263636
-0.0022561
-0.00190719
-0.00158942
-0.00130255
-0.0310512
-0.0295142
-0.0280316
-0.0266021
-0.0252243
-0.0238962
-0.022616
-0.0213818
-0.0201915
-0.0190434
-0.0179357
-0.0168667
-0.0158351
-0.0148395
-0.0138788
-0.0129522
-0.0120588
-0.0111981
-0.0103695
-0.00957293
-0.00880801
-0.00807486
-0.00737376
-0.00670473
-0.00606752
-0.00546224
-0.00488904
-0.00434818
-0.00383978
-0.00336402
-0.00292093
-0.00251057
-0.00213284
-0.00178763
-0.00147469
-0.0315668
-0.0300692
-0.0286179
-0.027212
-0.0258506
-0.0245323
-0.023256
-0.0220204
-0.0208242
-0.0196661
-0.018545
-0.0174599
-0.0164098
-0.015394
-0.0144116
-0.0134621
-0.0125452
-0.0116604
-0.0108075
-0.00998648
-0.00919749
-0.00844059
-0.0077157
-0.00702288
-0.00636231
-0.00573424
-0.00513892
-0.00457658
-0.0040474
-0.00355154
-0.00308909
-0.00266009
-0.0022645
-0.00190223
-0.00157308
-0.0319462
-0.0304617
-0.029019
-0.0276176
-0.0262571
-0.0249364
-0.0236549
-0.0224117
-0.021206
-0.0200367
-0.0189033
-0.0178047
-0.0167405
-0.0157099
-0.0147125
-0.0137479
-0.0128157
-0.0119157
-0.0110479
-0.0102123
-0.00940879
-0.0086374
-0.00789831
-0.00719162
-0.00651767
-0.0058766
-0.00526874
-0.00469421
-0.00415329
-0.00364604
-0.00317267
-0.00273313
-0.00232748
-0.00195555
-0.00161725
-0.032228
-0.030741
-0.0292938
-0.0278864
-0.0265183
-0.0251891
-0.0238982
-0.0226449
-0.0214284
-0.0202483
-0.0191036
-0.0179939
-0.0169185
-0.0158769
-0.0148687
-0.0138936
-0.0129511
-0.0120413
-0.011164
-0.010319
-0.00950642
-0.00872637
-0.00797891
-0.00726433
-0.00658273
-0.00593444
-0.00531957
-0.00473842
-0.00419109
-0.00367781
-0.00319859
-0.00275356
-0.00234261
-0.00196574
-0.0016227
-0.0324531
-0.0309551
-0.0294967
-0.0280777
-0.026698
-0.025357
-0.0240545
-0.0227896
-0.021562
-0.0203708
-0.0192156
-0.0180956
-0.0170103
-0.0159593
-0.0149421
-0.0139583
-0.0130077
-0.0120901
-0.0112053
-0.0103533
-0.00953407
-0.00874776
-0.00799448
-0.00727437
-0.00658765
-0.0059345
-0.00531514
-0.00472976
-0.00417853
-0.00366158
-0.00317901
-0.00273083
-0.00231704
-0.00193753
-0.00159212
-0.0326201
-0.0311103
-0.0296402
-0.0282098
-0.0268188
-0.025467
-0.0241539
-0.0228789
-0.0216415
-0.0204409
-0.0192767
-0.0181481
-0.0170546
-0.0159958
-0.0149712
-0.0139804
-0.0130231
-0.0120992
-0.0112085
-0.0103509
-0.00952645
-0.00873526
-0.00797741
-0.00725306
-0.00656238
-0.00590559
-0.00528286
-0.0046944
-0.00414036
-0.00362087
-0.00313602
-0.00268582
-0.00227024
-0.00188918
-0.00154245
0.00242887
0.002166
0.00190497
0.00164596
0.00138892
0.00113366
0.000879871
0.000627176
0.000374828
0.000119715
0.00240848
0.00214997
0.00189277
0.00163709
0.00138293
0.00113005
0.000878288
0.000627181
0.000377308
0.00011289
0.00237072
0.00211905
0.00186812
0.00161813
0.00136908
0.00112074
0.000872961
0.000624499
0.000379522
0.000102619
0.00229286
0.00205294
0.00181304
0.00157331
0.00133378
0.00109412
0.000854369
0.000611816
0.000376056
8.48373e-05
0.00215214
0.00193227
0.00171124
0.00148921
0.00126625
0.00104189
0.00081673
0.000585733
0.00036673
5.74892e-05
0.00193005
0.0017408
0.00154863
0.00135377
0.00115631
0.000955746
0.000753288
0.000541554
0.000348895
2.02457e-05
0.00162036
0.00147341
0.00132112
0.00116365
0.00100124
0.000833347
0.000662407
0.000478152
0.000320827
-2.16065e-05
0.00123201
0.00113816
0.00103561
0.000924664
0.000805819
0.000678746
0.000546641
0.000397654
0.000280989
-5.87536e-05
0.000788797
0.000755555
0.000709796
0.000651976
0.000582805
0.000502074
0.000413735
0.000305412
0.000229357
-8.12666e-05
0.000325451
0.000356037
0.000370036
0.000368007
0.000350778
0.00031848
0.000274922
0.000209517
0.000169067
-8.26461e-05
-0.000118457
-2.60123e-05
4.58098e-05
9.76563e-05
0.000130428
0.000144542
0.000143245
0.000119298
0.000106447
-6.2085e-05
-0.000507808
-0.000360286
-0.000237026
-0.000137326
-6.02713e-05
-5.15587e-06
3.03227e-05
4.31577e-05
4.98163e-05
-2.44017e-05
-0.00081959
-0.000627051
-0.000461753
-0.00032297
-0.000209822
-0.000121338
-5.62266e-05
-1.33283e-05
6.65916e-06
2.1782e-05
-0.0010462
-0.000819916
-0.00062309
-0.000455015
-0.000314825
-0.000201443
-0.000114123
-4.88883e-05
-1.87606e-05
6.67017e-05
-0.00119374
-0.000944304
-0.000725869
-0.000537708
-0.000379055
-0.000248678
-0.000146164
-6.59994e-05
-2.66884e-05
0.000101867
-0.00127677
-0.00101289
-0.00078097
-0.000580353
-0.000410279
-0.000269624
-0.000157744
-6.93447e-05
-2.09479e-05
0.000121894
-0.00131224
-0.00104024
-0.00080073
-0.000593211
-0.000416925
-0.000270918
-0.000154374
-6.30732e-05
-6.60693e-06
0.000125474
-0.00131332
-0.00103719
-0.000793974
-0.000583094
-0.000404001
-0.000255854
-0.000137925
-4.74452e-05
1.42459e-05
0.000116238
-0.00128057
-0.00100255
-0.00075765
-0.000545409
-0.000365285
-0.000216669
-9.9059e-05
-1.06735e-05
5.23398e-05
0.000107403
-0.0012298
-0.000950888
-0.000705316
-0.000492616
-0.000312278
-0.000163849
-4.71373e-05
3.92273e-05
9.98473e-05
0.000111166
)
;

boundaryField
{
    inlet
    {
        type            zeroGradient;
    }
    outlet
    {
        type            fixedValue;
        value           uniform 0;
    }
    upperWall
    {
        type            zeroGradient;
    }
    lowerWall
    {
        type            zeroGradient;
    }
    frontAndBack
    {
        type            empty;
    }
}


// ************************************************************************* //
