/*--------------------------------*- C++ -*----------------------------------*\
| =========                 |                                                 |
| \\      /  F ield         | OpenFOAM: The Open Source CFD Toolbox           |
|  \\    /   O peration     | Version:  2406                                  |
|   \\  /    A nd           | Website:  www.openfoam.com                      |
|    \\/     M anipulation  |                                                 |
\*---------------------------------------------------------------------------*/
FoamFile
{
    version     2.0;
    format      ascii;
    arch        "LSB;label=32;scalar=64";
    class       volScalarField;
    location    "47";
    object      p;
}
// * * * * * * * * * * * * * * * * * * * * * * * * * * * * * * * * * * * * * //

dimensions      [0 2 -2 0 0 0 0];

internalField   nonuniform List<scalar> 
1800
(
0.16294
0.160243
0.156092
0.15107
0.145225
0.138481
0.130773
0.121939
0.111785
0.0996499
0.166497
0.161741
0.156473
0.151264
0.145461
0.138788
0.131272
0.122902
0.113662
0.103918
0.170113
0.163816
0.157618
0.152431
0.146975
0.140732
0.133876
0.126682
0.119526
0.113211
0.174168
0.167262
0.160546
0.155402
0.150356
0.144717
0.138737
0.132838
0.12741
0.122969
0.178529
0.171415
0.164516
0.159507
0.154896
0.149902
0.144784
0.139988
0.135816
0.132544
0.182546
0.175429
0.168664
0.163936
0.159742
0.15531
0.150902
0.146927
0.1436
0.141047
0.185487
0.178581
0.172229
0.167858
0.163984
0.159957
0.156047
0.152599
0.149758
0.147578
0.186755
0.180468
0.174767
0.170669
0.16693
0.16312
0.159496
0.156315
0.153676
0.151617
0.185898
0.181094
0.176282
0.172229
0.168367
0.164559
0.160998
0.157856
0.155211
0.153109
0.183084
0.180239
0.176429
0.172489
0.168567
0.16474
0.161156
0.157953
0.155223
0.153028
0.111467
0.111257
0.111112
0.111128
0.111299
0.111622
0.112102
0.112758
0.113614
0.114699
0.116049
0.117704
0.119711
0.122122
0.124988
0.128363
0.132294
0.136814
0.141935
0.147639
0.153864
0.160498
0.167362
0.174212
0.18073
0.18653
0.191187
0.194239
0.195186
0.193553
0.188929
0.181009
0.169649
0.154927
0.137189
0.111704
0.11149
0.111372
0.111417
0.111601
0.111922
0.112393
0.113036
0.113874
0.114936
0.116256
0.117871
0.119824
0.122162
0.124936
0.128197
0.131992
0.136358
0.141314
0.146849
0.152908
0.159382
0.166099
0.172812
0.179206
0.184909
0.189482
0.19243
0.193258
0.191489
0.186697
0.178563
0.166931
0.151871
0.133742
0.111817
0.111572
0.111457
0.111517
0.111701
0.112005
0.112451
0.113059
0.113854
0.114864
0.116119
0.117654
0.119507
0.121726
0.124361
0.127466
0.131093
0.135288
0.140075
0.145447
0.151351
0.157678
0.164259
0.170844
0.177105
0.182645
0.187018
0.189727
0.190258
0.18811
0.18283
0.174064
0.161623
0.145561
0.126273
0.111567
0.1113
0.111183
0.111246
0.111419
0.111701
0.112114
0.112681
0.113426
0.114373
0.11555
0.11699
0.118734
0.120826
0.123324
0.126288
0.129779
0.133842
0.138505
0.143763
0.149554
0.155761
0.162204
0.168624
0.174682
0.179964
0.184001
0.186276
0.186245
0.183367
0.177131
0.167112
0.153051
0.13497
0.113368
0.110802
0.11057
0.110499
0.110594
0.11078
0.111063
0.111468
0.112016
0.112731
0.113634
0.114754
0.116125
0.117789
0.119798
0.122214
0.125101
0.128513
0.132493
0.137076
0.142249
0.147951
0.154055
0.160361
0.166588
0.172377
0.177295
0.180852
0.182501
0.181663
0.17773
0.170095
0.158179
0.141548
0.120056
0.0943709
0.109397
0.109326
0.109423
0.10964
0.109911
0.110254
0.110699
0.111273
0.111998
0.112901
0.114012
0.115364
0.117001
0.11898
0.121367
0.124229
0.12763
0.131617
0.13621
0.141388
0.147074
0.153121
0.159311
0.165343
0.170843
0.175362
0.17839
0.179354
0.177624
0.172507
0.163249
0.149046
0.129135
0.102859
0.0707245
0.107225
0.10757
0.108082
0.108592
0.109059
0.109536
0.110075
0.110713
0.111481
0.112412
0.113541
0.114912
0.116579
0.118608
0.121065
0.12402
0.127533
0.131645
0.136363
0.141651
0.147412
0.15348
0.159616
0.16551
0.170777
0.174968
0.177568
0.177989
0.175543
0.169417
0.158617
0.142019
0.118395
0.0865139
0.0464281
0.103798
0.105308
0.106756
0.107771
0.108519
0.109169
0.109818
0.110529
0.111355
0.112341
0.113538
0.115002
0.116797
0.11899
0.121652
0.124845
0.128622
0.133008
0.137994
0.143518
0.149462
0.155642
0.161808
0.167648
0.172793
0.176822
0.179249
0.179509
0.176886
0.170426
0.15874
0.139945
0.111324
0.0708066
0.0174228
0.096804
0.102302
0.105863
0.107488
0.108488
0.109319
0.110068
0.110843
0.111756
0.112875
0.114249
0.115937
0.118009
0.120536
0.123581
0.127194
0.131407
0.136221
0.141599
0.147454
0.153648
0.159984
0.166217
0.172057
0.17718
0.181227
0.183803
0.184438
0.182513
0.177098
0.16658
0.148148
0.115805
0.0619813
-0.0309294
0.0849394
0.0987248
0.105575
0.107601
0.108736
0.109855
0.110852
0.111824
0.112968
0.114385
0.11612
0.118227
0.120775
0.12383
0.127438
0.131626
0.136394
0.141711
0.147511
0.153686
0.160083
0.166512
0.172747
0.178543
0.183647
0.187798
0.190732
0.192156
0.191692
0.188768
0.18231
0.170206
0.14668
0.0984556
-0.0360319
0.0913344
0.10013
0.106704
0.108676
0.109802
0.111214
0.112629
0.114027
0.115618
0.117538
0.119832
0.122544
0.125729
0.129435
0.133686
0.138475
0.14377
0.149511
0.155607
0.161939
0.168355
0.174683
0.180736
0.186329
0.191286
0.195455
0.198706
0.200927
0.202008
0.201804
0.20007
0.196403
0.189688
0.177329
0.145447
0.0991669
0.103618
0.108805
0.111251
0.112748
0.11447
0.116358
0.118327
0.120506
0.123027
0.125947
0.129301
0.133122
0.13743
0.142219
0.147453
0.153074
0.158998
0.165126
0.171336
0.177493
0.183454
0.189079
0.194241
0.19884
0.20281
0.20612
0.208778
0.21083
0.212349
0.213429
0.21417
0.21446
0.213816
0.209157
0.109955
0.111226
0.114284
0.11659
0.118343
0.120291
0.12255
0.12502
0.127731
0.130777
0.134216
0.138076
0.142361
0.147059
0.152137
0.157534
0.163176
0.168971
0.174818
0.18061
0.186234
0.191583
0.196563
0.2011
0.20515
0.208701
0.211775
0.214431
0.216761
0.218891
0.220969
0.223143
0.225425
0.22771
0.228237
0.120406
0.120419
0.122122
0.124074
0.125947
0.128059
0.130535
0.13331
0.136367
0.139753
0.143511
0.147648
0.152142
0.156952
0.162022
0.167281
0.172646
0.178032
0.183348
0.188506
0.193423
0.198029
0.202269
0.206108
0.209536
0.21257
0.215246
0.217629
0.219801
0.22187
0.223955
0.226161
0.228498
0.230894
0.232317
0.130555
0.130156
0.131046
0.132545
0.134327
0.136445
0.138955
0.141819
0.145004
0.148519
0.15237
0.15654
0.160984
0.165645
0.170456
0.175342
0.180229
0.185043
0.189711
0.194171
0.198367
0.20226
0.205823
0.209045
0.211934
0.214511
0.216809
0.218876
0.220772
0.222572
0.224365
0.226224
0.22816
0.230102
0.231435
0.139423
0.13886
0.139273
0.140374
0.141948
0.143942
0.14635
0.14914
0.152273
0.155726
0.159475
0.16348
0.167684
0.172026
0.176438
0.180854
0.185211
0.189451
0.193523
0.197383
0.200999
0.20435
0.207426
0.210226
0.212759
0.215042
0.217097
0.218952
0.220645
0.222229
0.223766
0.225311
0.22686
0.228318
0.229309
0.146124
0.145461
0.145574
0.146349
0.147663
0.149447
0.151663
0.154274
0.157235
0.160503
0.164034
0.167776
0.171672
0.17566
0.179681
0.183681
0.187606
0.191415
0.195068
0.198536
0.201798
0.204841
0.207658
0.21025
0.212622
0.214783
0.216745
0.218522
0.220139
0.22163
0.223036
0.22439
0.22566
0.226719
0.22734
0.15018
0.149407
0.149301
0.149814
0.150879
0.152438
0.154444
0.156852
0.159613
0.162674
0.165985
0.169489
0.173132
0.176858
0.180615
0.184354
0.188034
0.191616
0.195069
0.198366
0.20149
0.204427
0.207169
0.209715
0.212064
0.214221
0.216192
0.217988
0.219624
0.221123
0.222507
0.223778
0.224879
0.225658
0.22599
0.151593
0.150694
0.150417
0.15074
0.15162
0.153009
0.15486
0.157123
0.159747
0.162677
0.165861
0.169242
0.172768
0.176387
0.18005
0.183711
0.187328
0.190866
0.194291
0.197579
0.200709
0.203666
0.206439
0.209025
0.211422
0.213632
0.215662
0.217521
0.219224
0.220786
0.222217
0.223497
0.224538
0.225175
0.225341
0.151412
0.150404
0.150011
0.15022
0.150999
0.152305
0.154087
0.156294
0.158871
0.161765
0.164919
0.16828
0.171796
0.175413
0.179085
0.182764
0.186409
0.189982
0.193451
0.196787
0.19997
0.202983
0.205815
0.208459
0.210914
0.213183
0.215271
0.217193
0.218964
0.220601
0.222106
0.223446
0.224514
0.225131
0.225252
0.117064
0.0954224
0.0732657
0.0515489
0.031024
0.0121577
-0.0047896
-0.0196614
-0.032416
-0.0431231
0.113223
0.0912783
0.0690227
0.0474523
0.0272544
0.00886116
-0.007468
-0.0216568
-0.0337562
-0.0438831
0.104553
0.0816234
0.0589218
0.037538
0.0179987
0.000520581
-0.0147692
-0.0278517
-0.0388427
-0.0479342
0.0892746
0.0644725
0.0410376
0.0200788
0.00167383
-0.0142859
-0.0278266
-0.0390837
-0.0483188
-0.0558006
0.0660019
0.038218
0.0142797
-0.00533779
-0.0216925
-0.0352869
-0.0462095
-0.0547907
-0.0615253
-0.0667769
0.0343809
0.00140349
-0.0222977
-0.0388273
-0.0516588
-0.0616338
-0.0688097
-0.0738099
-0.0773817
-0.0799149
-0.00347311
-0.0452815
-0.0676956
-0.0792224
-0.0868707
-0.0914712
-0.093371
-0.0938234
-0.0937725
-0.0934247
-0.0545683
-0.102873
-0.117564
-0.120723
-0.121087
-0.118512
-0.11416
-0.109996
-0.10685
-0.104388
-0.152534
-0.178467
-0.163961
-0.15158
-0.142038
-0.132399
-0.123762
-0.11725
-0.112993
-0.110495
-0.274265
-0.237506
-0.18854
-0.166442
-0.150841
-0.136775
-0.125741
-0.118137
-0.113426
-0.111248
-0.0519258
-0.0590066
-0.0645652
-0.0688045
-0.0719186
-0.0740823
-0.0754476
-0.0761429
-0.0762754
-0.0759338
-0.0751907
-0.0741059
-0.0727287
-0.0711006
-0.0692568
-0.0672279
-0.0650409
-0.0627199
-0.0602868
-0.057762
-0.0551643
-0.0525115
-0.0498203
-0.0471064
-0.0443847
-0.041669
-0.0389721
-0.0363057
-0.0336804
-0.0311055
-0.0285891
-0.0261381
-0.0237582
-0.0214537
-0.0192281
-0.0521976
-0.0588838
-0.0641386
-0.068159
-0.0711285
-0.0732073
-0.074531
-0.0752144
-0.075354
-0.0750303
-0.07431
-0.0732492
-0.0718952
-0.0702886
-0.0684645
-0.0664536
-0.0642832
-0.0619779
-0.0595599
-0.0570499
-0.0544672
-0.0518298
-0.0491548
-0.0464579
-0.0437544
-0.0410579
-0.0383815
-0.0357366
-0.0331339
-0.0305826
-0.0280906
-0.0256646
-0.02331
-0.0210311
-0.0188307
-0.0553248
-0.0612099
-0.0657909
-0.0692696
-0.0718242
-0.0735953
-0.0746943
-0.0752163
-0.0752424
-0.07484
-0.0740645
-0.0729635
-0.0715786
-0.0699467
-0.0681004
-0.0660689
-0.0638787
-0.0615539
-0.0591168
-0.0565881
-0.0539875
-0.0513335
-0.0486434
-0.0459339
-0.0432202
-0.0405167
-0.0378363
-0.035191
-0.0325911
-0.030046
-0.0275634
-0.0251499
-0.0228105
-0.0205491
-0.0183682
-0.0617559
-0.066378
-0.0698773
-0.0724755
-0.0743475
-0.0756014
-0.0763123
-0.0765485
-0.0763695
-0.0758216
-0.0749409
-0.0737604
-0.0723116
-0.0706244
-0.0687263
-0.0666431
-0.064399
-0.062017
-0.0595186
-0.0569248
-0.0542556
-0.0515306
-0.0487686
-0.0459876
-0.0432042
-0.0404343
-0.0376918
-0.0349897
-0.0323393
-0.0297503
-0.0272311
-0.0247884
-0.0224273
-0.0201514
-0.0179629
-0.0707635
-0.0736522
-0.0756857
-0.0771312
-0.07814
-0.0787496
-0.0789804
-0.0788714
-0.0784558
-0.0777494
-0.0767617
-0.0755066
-0.0740029
-0.0722714
-0.0703328
-0.0682076
-0.0659159
-0.0634775
-0.0609117
-0.0582381
-0.0554765
-0.0526476
-0.0497718
-0.0468695
-0.0439603
-0.0410624
-0.0381928
-0.0353667
-0.0325978
-0.0298981
-0.0272777
-0.0247449
-0.0223058
-0.0199647
-0.0177242
-0.0815048
-0.0822372
-0.0824723
-0.0825929
-0.0826695
-0.0825927
-0.0823113
-0.0818437
-0.0811973
-0.080351
-0.0792822
-0.0779828
-0.0764563
-0.0747129
-0.0727663
-0.0706318
-0.0683248
-0.0658603
-0.0632532
-0.0605194
-0.0576768
-0.0547452
-0.051746
-0.0487018
-0.0456348
-0.0425668
-0.0395185
-0.0365091
-0.0335564
-0.0306764
-0.027883
-0.0251882
-0.0226012
-0.0201291
-0.017776
-0.0924525
-0.0907566
-0.0890261
-0.0878579
-0.0871166
-0.0864525
-0.0857366
-0.084974
-0.0841466
-0.0832019
-0.0820937
-0.0807942
-0.0792905
-0.0775804
-0.0756702
-0.073571
-0.0712941
-0.0688499
-0.0662478
-0.0634986
-0.060616
-0.0576169
-0.0545218
-0.0513535
-0.0481358
-0.0448932
-0.0416496
-0.0384287
-0.0352531
-0.032144
-0.0291212
-0.0262023
-0.0234024
-0.0207331
-0.0182033
-0.101265
-0.0971536
-0.0937182
-0.0916964
-0.09048
-0.0894822
-0.0885535
-0.0876727
-0.0867803
-0.0858095
-0.084715
-0.0834636
-0.0820297
-0.0803994
-0.0785721
-0.076555
-0.0743561
-0.0719816
-0.0694362
-0.0667252
-0.0638575
-0.060846
-0.057708
-0.0544644
-0.0511386
-0.0477552
-0.0443404
-0.0409205
-0.0375224
-0.0341727
-0.0308977
-0.027722
-0.0246679
-0.0217546
-0.0189976
-0.10657
-0.100149
-0.0956269
-0.0934868
-0.0922343
-0.0911901
-0.0903025
-0.0895067
-0.0886856
-0.0877742
-0.0867489
-0.0855854
-0.0842545
-0.0827368
-0.0810271
-0.0791288
-0.0770465
-0.0747826
-0.0723377
-0.0697131
-0.0669132
-0.0639466
-0.0608266
-0.0575701
-0.0541978
-0.0507327
-0.0472
-0.0436272
-0.0400436
-0.03648
-0.0329681
-0.0295395
-0.0262245
-0.0230509
-0.0200427
-0.108236
-0.100491
-0.0958098
-0.0940325
-0.0929598
-0.092016
-0.0912598
-0.0905941
-0.0898744
-0.0890468
-0.0881036
-0.087029
-0.085797
-0.0843892
-0.0827989
-0.081026
-0.0790709
-0.0769323
-0.0746078
-0.0720959
-0.0693975
-0.0665174
-0.0634641
-0.0602501
-0.0568913
-0.0534071
-0.0498201
-0.0461562
-0.0424451
-0.0387196
-0.0350151
-0.0313688
-0.0278182
-0.0243996
-0.0211461
-0.108183
-0.100124
-0.0958428
-0.0942578
-0.0933032
-0.0925025
-0.091852
-0.091249
-0.0905812
-0.0898079
-0.0889202
-0.0879031
-0.0867365
-0.0854064
-0.0839062
-0.0822324
-0.0803821
-0.078351
-0.0761352
-0.0737312
-0.0711379
-0.0683565
-0.0653915
-0.0622503
-0.0589439
-0.0554867
-0.0518972
-0.0481983
-0.0444179
-0.0405885
-0.0367471
-0.0329345
-0.0291935
-0.0255672
-0.0220976
-0.100814
-0.0976027
-0.0953677
-0.0941934
-0.0934099
-0.0927627
-0.0921802
-0.0915919
-0.0909392
-0.0901913
-0.0893316
-0.0883439
-0.0872129
-0.0859282
-0.0844829
-0.082872
-0.0810904
-0.0791331
-0.0769952
-0.074673
-0.072164
-0.0694672
-0.0665836
-0.0635167
-0.0602728
-0.0568617
-0.0532973
-0.0495988
-0.0457911
-0.0419047
-0.0379764
-0.034048
-0.0301655
-0.0263773
-0.0227319
-0.0962082
-0.0953273
-0.0944191
-0.0937185
-0.0931639
-0.0926657
-0.0921629
-0.0916127
-0.0909841
-0.0902551
-0.0894103
-0.088438
-0.0873268
-0.0860681
-0.0846536
-0.0830778
-0.0813352
-0.0794212
-0.0773309
-0.0750608
-0.0726075
-0.0699691
-0.0671445
-0.0641346
-0.0609422
-0.0575736
-0.054039
-0.0503539
-0.0465398
-0.0426248
-0.0386439
-0.0346386
-0.030656
-0.0267475
-0.0229665
-0.0937558
-0.0935987
-0.0932895
-0.0929363
-0.0925878
-0.0922224
-0.0918054
-0.0913123
-0.0907243
-0.090026
-0.0892056
-0.0882526
-0.0871584
-0.085916
-0.084519
-0.0829616
-0.0812393
-0.0793472
-0.0772817
-0.0750391
-0.0726163
-0.0700104
-0.0672196
-0.0642433
-0.0610827
-0.0577416
-0.0542278
-0.050554
-0.0467386
-0.0428073
-0.038793
-0.034736
-0.0306833
-0.0266873
-0.0228047
-0.0921849
-0.0922924
-0.092253
-0.0920923
-0.0918744
-0.0916012
-0.0912522
-0.0908111
-0.0902637
-0.0895976
-0.0888022
-0.087869
-0.0867907
-0.0855602
-0.0841721
-0.0826227
-0.0809082
-0.0790238
-0.0769668
-0.0747341
-0.0723225
-0.0697292
-0.0669515
-0.0639884
-0.0608399
-0.0575092
-0.0540024
-0.0503307
-0.0465103
-0.0425651
-0.0385259
-0.034432
-0.030329
-0.0262701
-0.0223126
-0.0911898
-0.0913982
-0.0914707
-0.0913933
-0.0912356
-0.0910057
-0.0906894
-0.0902736
-0.089746
-0.0890962
-0.0883146
-0.0873933
-0.0863248
-0.0851028
-0.083721
-0.0821751
-0.080461
-0.0785752
-0.0765147
-0.0742771
-0.0718594
-0.069258
-0.0664714
-0.0635003
-0.0603453
-0.0570093
-0.053498
-0.0498202
-0.0459904
-0.0420309
-0.0379715
-0.0338496
-0.0297108
-0.025607
-0.0215967
-0.0906687
-0.0908947
-0.0909984
-0.0909495
-0.0908097
-0.0905889
-0.0902766
-0.0898618
-0.0893335
-0.0886818
-0.0878973
-0.0869722
-0.0858993
-0.0846719
-0.0832842
-0.0817309
-0.0800076
-0.0781105
-0.0760365
-0.0737833
-0.0713485
-0.0687299
-0.0659259
-0.0629362
-0.0597625
-0.0564076
-0.0528774
-0.0491788
-0.0453276
-0.0413469
-0.0372672
-0.0331244
-0.0289621
-0.0248297
-0.0207856
-0.0905225
-0.0907255
-0.090828
-0.0907888
-0.0906512
-0.0904245
-0.0901015
-0.0896726
-0.0891291
-0.0884615
-0.0876613
-0.0867206
-0.0856322
-0.0843896
-0.0829866
-0.0814178
-0.0796783
-0.0777635
-0.0756697
-0.0733939
-0.0709337
-0.0682872
-0.0654533
-0.0624321
-0.0592252
-0.0558376
-0.0522763
-0.0485515
-0.0446783
-0.0406782
-0.0365785
-0.0324141
-0.0282272
-0.0240707
-0.0200019
-0.0906325
-0.0908084
-0.090913
-0.0908896
-0.0907573
-0.0905237
-0.090187
-0.089741
-0.089178
-0.0884901
-0.0876697
-0.0867089
-0.0856006
-0.084338
-0.0829149
-0.0813257
-0.079565
-0.077628
-0.0755103
-0.0732082
-0.0707188
-0.06804
-0.0651707
-0.0621116
-0.0588646
-0.0554346
-0.0518295
-0.0480613
-0.0441466
-0.0401077
-0.0359732
-0.0317783
-0.0275654
-0.0233842
-0.0192907
-0.0908216
-0.0909926
-0.0911183
-0.091119
-0.0909968
-0.090761
-0.0904144
-0.0899548
-0.0893766
-0.0886728
-0.0878358
-0.0868582
-0.0857329
-0.0844533
-0.083013
-0.0814062
-0.0796274
-0.0776715
-0.0755339
-0.0732104
-0.0706974
-0.0679924
-0.065094
-0.0620023
-0.0587196
-0.0552509
-0.0516046
-0.0477931
-0.043834
-0.0397508
-0.0355735
-0.0313384
-0.0270886
-0.0228736
-0.0187493
-0.0170834
-0.0150211
-0.0130416
-0.0111448
-0.00933004
-0.00759582
-0.00593959
-0.00436807
-0.00288527
-0.00123245
-0.0167109
-0.0146727
-0.0127162
-0.0108408
-0.00904542
-0.00732791
-0.00568849
-0.00413881
-0.00269671
-0.00117625
-0.0162694
-0.0142532
-0.0123192
-0.0104666
-0.00869414
-0.00700095
-0.00538812
-0.00387641
-0.00251144
-0.00120995
-0.0158629
-0.0138512
-0.0119271
-0.0100894
-0.00833773
-0.00667265
-0.00509858
-0.00364162
-0.00234659
-0.00132253
-0.0155851
-0.0135469
-0.0116085
-0.00976877
-0.00802733
-0.00638745
-0.00485287
-0.00345866
-0.0022027
-0.00151726
-0.015544
-0.0134331
-0.0114422
-0.0095701
-0.0078162
-0.00618415
-0.0046737
-0.00333319
-0.00206749
-0.00178247
-0.0158181
-0.0135799
-0.0114886
-0.00954348
-0.00774259
-0.0060891
-0.00457301
-0.00326119
-0.00192986
-0.00207086
-0.0164078
-0.0139924
-0.0117543
-0.00969406
-0.00780868
-0.00610048
-0.0045446
-0.00323115
-0.00179442
-0.00230089
-0.017219
-0.0145939
-0.0121757
-0.00996841
-0.00796931
-0.00617897
-0.00456192
-0.00321981
-0.00167978
-0.00237632
-0.0180862
-0.0152428
-0.0126321
-0.0102636
-0.00813715
-0.00625471
-0.0045716
-0.00319145
-0.00160317
-0.00221733
-0.0188225
-0.0157747
-0.0129795
-0.0104545
-0.00820578
-0.00623635
-0.00450671
-0.00309538
-0.001556
-0.00179199
-0.0192759
-0.0160514
-0.0130942
-0.0104312
-0.00807722
-0.0060408
-0.00429347
-0.00287514
-0.00149582
-0.0011301
-0.0193664
-0.0159979
-0.0129063
-0.0101292
-0.00769236
-0.00561095
-0.00387741
-0.00248352
-0.00135162
-0.000315618
-0.0190935
-0.0156115
-0.0124126
-0.00954415
-0.00704401
-0.00493653
-0.00323746
-0.00189796
-0.00105473
0.000540233
-0.0185185
-0.0149495
-0.011667
-0.00872643
-0.00617764
-0.00405513
-0.0023969
-0.00113483
-0.00056345
0.0013298
-0.0177426
-0.0141101
-0.0107645
-0.00776855
-0.00518057
-0.00304725
-0.00142348
-0.000248617
0.000112767
0.00197036
-0.0168923
-0.0132176
-0.00982781
-0.00679164
-0.00417173
-0.00202831
-0.000424097
0.000666761
0.000908545
0.0024059
-0.016085
-0.0123844
-0.00896898
-0.00590548
-0.00326434
-0.00110915
0.000487541
0.00151248
0.00172456
0.00260125
-0.015347
-0.0116201
-0.00817786
-0.00508979
-0.00242514
-0.000253214
0.001353
0.00234831
0.00260615
0.0026533
-0.0147769
-0.0110217
-0.00755218
-0.00443724
-0.0017436
0.000457812
0.00208785
0.00308455
0.00341643
0.00273301
)
;

boundaryField
{
    inlet
    {
        type            zeroGradient;
    }
    outlet
    {
        type            fixedValue;
        value           uniform 0;
    }
    upperWall
    {
        type            zeroGradient;
    }
    lowerWall
    {
        type            zeroGradient;
    }
    frontAndBack
    {
        type            empty;
    }
}


// ************************************************************************* //
