/*--------------------------------*- C++ -*----------------------------------*\
| =========                 |                                                 |
| \\      /  F ield         | OpenFOAM: The Open Source CFD Toolbox           |
|  \\    /   O peration     | Version:  2406                                  |
|   \\  /    A nd           | Website:  www.openfoam.com                      |
|    \\/     M anipulation  |                                                 |
\*---------------------------------------------------------------------------*/
FoamFile
{
    version     2.0;
    format      ascii;
    arch        "LSB;label=32;scalar=64";
    class       volVectorField;
    location    "47";
    object      U;
}
// * * * * * * * * * * * * * * * * * * * * * * * * * * * * * * * * * * * * * //

dimensions      [0 1 -1 0 0 0 0];

internalField   nonuniform List<vector> 
1800
(
(0.190944 -0.00261576 0)
(0.19683 -0.00370545 0)
(0.203092 -0.00310573 0)
(0.209008 -0.00264771 0)
(0.215105 -0.0026085 0)
(0.2219 -0.00286663 0)
(0.22985 -0.00345462 0)
(0.239486 -0.00457478 0)
(0.252524 -0.00706102 0)
(0.265676 -0.0223677 0)
(0.507315 -0.00345396 0)
(0.508083 -0.00731051 0)
(0.511113 -0.00876873 0)
(0.515276 -0.00964646 0)
(0.520974 -0.0107931 0)
(0.528453 -0.0124377 0)
(0.537807 -0.0148367 0)
(0.549234 -0.0185194 0)
(0.563234 -0.0242193 0)
(0.578072 -0.034872 0)
(0.748025 -0.00268349 0)
(0.748571 -0.0068512 0)
(0.750123 -0.00986592 0)
(0.751979 -0.0125716 0)
(0.755016 -0.0155417 0)
(0.759651 -0.0190353 0)
(0.765812 -0.0233482 0)
(0.773329 -0.0289783 0)
(0.781922 -0.0365702 0)
(0.790575 -0.047248 0)
(0.908344 -0.00235622 0)
(0.908792 -0.00668732 0)
(0.909677 -0.0105443 0)
(0.910179 -0.0142886 0)
(0.911155 -0.0183112 0)
(0.913054 -0.0228694 0)
(0.91574 -0.0282155 0)
(0.918919 -0.0346727 0)
(0.922238 -0.0425504 0)
(0.925091 -0.0520449 0)
(0.988429 -0.00212108 0)
(0.988586 -0.00624721 0)
(0.988766 -0.0102739 0)
(0.988038 -0.0143863 0)
(0.987175 -0.0188045 0)
(0.986613 -0.0237142 0)
(0.986177 -0.0292947 0)
(0.985538 -0.0357256 0)
(0.984369 -0.0431244 0)
(0.982263 -0.0514686 0)
(0.98838 -0.00173928 0)
(0.988151 -0.00525949 0)
(0.987535 -0.00897585 0)
(0.985561 -0.012959 0)
(0.982983 -0.0172478 0)
(0.980201 -0.0219342 0)
(0.977006 -0.027135 0)
(0.973065 -0.0329387 0)
(0.968087 -0.0393672 0)
(0.961776 -0.0463392 0)
(0.908199 -0.00109923 0)
(0.907509 -0.00361942 0)
(0.906053 -0.00668073 0)
(0.902893 -0.0101359 0)
(0.898815 -0.0138396 0)
(0.894163 -0.0178209 0)
(0.888691 -0.0221557 0)
(0.88207 -0.0268713 0)
(0.874046 -0.0319366 0)
(0.864393 -0.0372589 0)
(0.747793 -3.68716e-06 0)
(0.746525 -0.00114562 0)
(0.744362 -0.00342306 0)
(0.740416 -0.00614627 0)
(0.735453 -0.00896625 0)
(0.729715 -0.0119102 0)
(0.72291 -0.0150414 0)
(0.714719 -0.0183481 0)
(0.704922 -0.0217757 0)
(0.693344 -0.0252455 0)
(0.507043 0.00173693 0)
(0.505577 0.00231393 0)
(0.504018 0.000663463 0)
(0.501066 -0.00151497 0)
(0.497063 -0.00356389 0)
(0.492057 -0.00549908 0)
(0.48578 -0.00738379 0)
(0.478002 -0.00920766 0)
(0.468609 -0.0109446 0)
(0.457539 -0.0125703 0)
(0.190685 0.001918 0)
(0.194682 0.00208187 0)
(0.19713 0.000856179 0)
(0.197378 -0.000117831 0)
(0.196063 -0.000704795 0)
(0.193577 -0.0011297 0)
(0.189998 -0.00148272 0)
(0.18537 -0.00176764 0)
(0.179774 -0.00198884 0)
(0.173297 -0.00215946 0)
(-7.40264e-05 5.821e-05 0)
(-0.00149529 0.000445415 0)
(-0.0041496 0.00069354 0)
(-0.00746702 0.000788171 0)
(-0.0110032 0.00082578 0)
(-0.0146083 0.000852616 0)
(-0.0182608 0.000885638 0)
(-0.0219781 0.000929613 0)
(-0.0257833 0.000985014 0)
(-0.0296931 0.00105078 0)
(-0.0337119 0.00112556 0)
(-0.0378268 0.00120661 0)
(-0.0420011 0.00128893 0)
(-0.0461668 0.00136446 0)
(-0.0502162 0.0014215 0)
(-0.0539947 0.00144413 0)
(-0.0572951 0.00141286 0)
(-0.0598564 0.00130499 0)
(-0.0613668 0.00109618 0)
(-0.0614696 0.000767775 0)
(-0.0597853 0.000308154 0)
(-0.0559455 -0.00029037 0)
(-0.0495978 -0.00102604 0)
(-0.0404385 -0.0018856 0)
(-0.0282396 -0.00285112 0)
(-0.0128791 -0.00390232 0)
(0.00566625 -0.00497709 0)
(0.0273442 -0.0059878 0)
(0.0519659 -0.00689045 0)
(0.0791713 -0.00763037 0)
(0.108444 -0.00813299 0)
(0.139096 -0.00831291 0)
(0.170238 -0.0080821 0)
(0.200779 -0.00736135 0)
(0.229451 -0.00610987 0)
(-0.00063189 0.00160835 0)
(-0.00494765 0.00429791 0)
(-0.0115301 0.00593811 0)
(-0.0192626 0.00665356 0)
(-0.0273101 0.0069102 0)
(-0.0353671 0.00701153 0)
(-0.0433455 0.00709491 0)
(-0.0512286 0.00720429 0)
(-0.0590125 0.00734085 0)
(-0.0666772 0.0074869 0)
(-0.0741699 0.00761308 0)
(-0.0813933 0.00767887 0)
(-0.0881944 0.00763046 0)
(-0.0943554 0.00740061 0)
(-0.0995879 0.00690924 0)
(-0.103533 0.00606767 0)
(-0.10577 0.00478347 0)
(-0.105828 0.00297093 0)
(-0.103203 0.000566786 0)
(-0.0974275 -0.00246238 0)
(-0.0880677 -0.00611235 0)
(-0.0747354 -0.0103414 0)
(-0.0571348 -0.0150714 0)
(-0.035075 -0.0201945 0)
(-0.00849514 -0.0255784 0)
(0.0225549 -0.0310594 0)
(0.057952 -0.0364368 0)
(0.0974529 -0.0415021 0)
(0.140673 -0.046059 0)
(0.187112 -0.0498886 0)
(0.23614 -0.0527368 0)
(0.286961 -0.0543131 0)
(0.338586 -0.0543046 0)
(0.389798 -0.0524003 0)
(0.439149 -0.0483765 0)
(-0.00117649 0.00513374 0)
(-0.00808654 0.01143 0)
(-0.0176412 0.0148162 0)
(-0.0282711 0.0161679 0)
(-0.0389169 0.0165046 0)
(-0.0492119 0.0164509 0)
(-0.0590212 0.0162931 0)
(-0.0682803 0.0161236 0)
(-0.0769336 0.01594 0)
(-0.0849005 0.0156933 0)
(-0.0920558 0.0153063 0)
(-0.0982193 0.014678 0)
(-0.103148 0.013686 0)
(-0.106537 0.0121903 0)
(-0.108024 0.0100419 0)
(-0.107202 0.00709626 0)
(-0.103638 0.00322967 0)
(-0.0969002 -0.00164106 0)
(-0.0866404 -0.00755152 0)
(-0.0725215 -0.0144728 0)
(-0.0542814 -0.0223247 0)
(-0.0317437 -0.0309852 0)
(-0.00482788 -0.0402859 0)
(0.0264462 -0.0500129 0)
(0.0619796 -0.0599233 0)
(0.101595 -0.0697471 0)
(0.145032 -0.0792024 0)
(0.191968 -0.0880165 0)
(0.242019 -0.0958931 0)
(0.294733 -0.102501 0)
(0.349576 -0.107456 0)
(0.405894 -0.110302 0)
(0.462869 -0.11052 0)
(0.519438 -0.107552 0)
(0.57425 -0.10096 0)
(-0.00160547 0.0103008 0)
(-0.010371 0.0210374 0)
(-0.021603 0.0260565 0)
(-0.0333523 0.0276417 0)
(-0.0444545 0.0275733 0)
(-0.0545658 0.0268396 0)
(-0.0635558 0.0258781 0)
(-0.0713451 0.0248236 0)
(-0.0778522 0.0236613 0)
(-0.0829638 0.0223027 0)
(-0.0865214 0.020618 0)
(-0.0883174 0.0184485 0)
(-0.0880983 0.0156155 0)
(-0.0855722 0.0119311 0)
(-0.0804213 0.00721775 0)
(-0.0723165 0.00132989 0)
(-0.0609782 -0.00582245 0)
(-0.0461895 -0.0142777 0)
(-0.0277305 -0.0240202 0)
(-0.00545227 -0.0349691 0)
(0.0207027 -0.0469766 0)
(0.0507084 -0.0598332 0)
(0.084482 -0.0732847 0)
(0.121869 -0.0870355 0)
(0.162647 -0.100766 0)
(0.206549 -0.114154 0)
(0.253272 -0.126877 0)
(0.302494 -0.138612 0)
(0.353888 -0.149019 0)
(0.407124 -0.157725 0)
(0.461857 -0.164271 0)
(0.51767 -0.16807 0)
(0.574031 -0.168393 0)
(0.630082 -0.164313 0)
(0.684547 -0.155029 0)
(-0.00194942 0.0165604 0)
(-0.011691 0.0318397 0)
(-0.0229647 0.0378216 0)
(-0.0337013 0.0388274 0)
(-0.0428655 0.03758 0)
(-0.0502637 0.0354382 0)
(-0.0558482 0.032966 0)
(-0.0595835 0.0303214 0)
(-0.061412 0.0274674 0)
(-0.0612374 0.0242761 0)
(-0.0589216 0.0205757 0)
(-0.0542917 0.016173 0)
(-0.047151 0.0108661 0)
(-0.037286 0.00445586 0)
(-0.0244896 -0.00322671 0)
(-0.00859589 -0.0122989 0)
(0.0105334 -0.0228171 0)
(0.0329751 -0.0347827 0)
(0.0587593 -0.0481231 0)
(0.0878616 -0.0626925 0)
(0.120182 -0.0782789 0)
(0.155548 -0.0946003 0)
(0.193729 -0.111329 0)
(0.234442 -0.128114 0)
(0.277365 -0.144592 0)
(0.322162 -0.160415 0)
(0.368505 -0.175255 0)
(0.416102 -0.188803 0)
(0.464726 -0.200754 0)
(0.514232 -0.210766 0)
(0.564565 -0.21839 0)
(0.615697 -0.222985 0)
(0.667617 -0.223644 0)
(0.719815 -0.218912 0)
(0.771316 -0.207409 0)
(-0.00226387 0.0234756 0)
(-0.012071 0.0424479 0)
(-0.0213365 0.0480382 0)
(-0.0284756 0.0473111 0)
(-0.0330282 0.0439914 0)
(-0.03514 0.0397175 0)
(-0.0349249 0.0351111 0)
(-0.032436 0.0303173 0)
(-0.0276719 0.0252608 0)
(-0.020581 0.0197734 0)
(-0.0110698 0.0136528 0)
(0.000983178 0.00668386 0)
(0.0156947 -0.00135038 0)
(0.0331828 -0.0106409 0)
(0.0535276 -0.0213251 0)
(0.0767765 -0.0334825 0)
(0.102927 -0.0471383 0)
(0.131914 -0.062239 0)
(0.163605 -0.0786444 0)
(0.197803 -0.0961368 0)
(0.234241 -0.11443 0)
(0.272589 -0.133179 0)
(0.312472 -0.152006 0)
(0.353484 -0.170525 0)
(0.395215 -0.188366 0)
(0.437278 -0.205198 0)
(0.479351 -0.220745 0)
(0.521211 -0.234787 0)
(0.562779 -0.247137 0)
(0.60417 -0.257591 0)
(0.645716 -0.265813 0)
(0.687956 -0.27124 0)
(0.731735 -0.272799 0)
(0.777172 -0.268477 0)
(0.824971 -0.256479 0)
(-0.00257951 0.0310054 0)
(-0.011191 0.0512589 0)
(-0.0154885 0.0540962 0)
(-0.0156313 0.0502674 0)
(-0.0124615 0.0441428 0)
(-0.00662435 0.0372975 0)
(0.00160949 0.0302584 0)
(0.0121174 0.0230945 0)
(0.0248713 0.015666 0)
(0.0399001 0.00775576 0)
(0.0572629 -0.000873516 0)
(0.0770634 -0.0104542 0)
(0.0993624 -0.0211889 0)
(0.124164 -0.0332306 0)
(0.151434 -0.0466737 0)
(0.18108 -0.0615463 0)
(0.212944 -0.077803 0)
(0.246796 -0.0953178 0)
(0.282334 -0.113881 0)
(0.31919 -0.133209 0)
(0.356938 -0.152953 0)
(0.395109 -0.172724 0)
(0.433214 -0.192117 0)
(0.47077 -0.210747 0)
(0.507324 -0.228273 0)
(0.542495 -0.244435 0)
(0.576008 -0.259069 0)
(0.607753 -0.272122 0)
(0.63784 -0.283634 0)
(0.666702 -0.293695 0)
(0.695131 -0.302277 0)
(0.724483 -0.309114 0)
(0.756613 -0.312917 0)
(0.793055 -0.311239 0)
(0.839188 -0.302025 0)
(-0.00279131 0.039398 0)
(-0.00677084 0.0556641 0)
(-0.000794638 0.0521668 0)
(0.0109144 0.0441437 0)
(0.0254317 0.0351084 0)
(0.041839 0.0258325 0)
(0.0599719 0.0165706 0)
(0.0797828 0.00725868 0)
(0.101333 -0.00234529 0)
(0.124729 -0.0125026 0)
(0.150051 -0.0234435 0)
(0.177298 -0.0353604 0)
(0.206432 -0.0484053 0)
(0.237359 -0.062676 0)
(0.269915 -0.0782075 0)
(0.303869 -0.0949611 0)
(0.338915 -0.112819 0)
(0.374676 -0.131582 0)
(0.410711 -0.150977 0)
(0.446533 -0.170664 0)
(0.481618 -0.190257 0)
(0.515434 -0.209351 0)
(0.547459 -0.227549 0)
(0.577209 -0.244501 0)
(0.604265 -0.259936 0)
(0.628303 -0.273699 0)
(0.649137 -0.285784 0)
(0.666769 -0.296364 0)
(0.68147 -0.305811 0)
(0.693955 -0.314701 0)
(0.705466 -0.323726 0)
(0.718547 -0.333567 0)
(0.736036 -0.343727 0)
(0.764268 -0.352534 0)
(0.812254 -0.357111 0)
(0.00186303 0.0412241 0)
(0.012509 0.0474719 0)
(0.0376975 0.0361166 0)
(0.0668905 0.0246144 0)
(0.0956533 0.0138672 0)
(0.123962 0.0032053 0)
(0.152475 -0.00745858 0)
(0.181545 -0.0182156 0)
(0.211334 -0.0293092 0)
(0.241959 -0.0409981 0)
(0.273493 -0.0534762 0)
(0.305925 -0.066876 0)
(0.339158 -0.0812828 0)
(0.373013 -0.0967262 0)
(0.40724 -0.11317 0)
(0.441511 -0.130502 0)
(0.475434 -0.148538 0)
(0.508554 -0.167019 0)
(0.54038 -0.185626 0)
(0.570393 -0.20399 0)
(0.59807 -0.221718 0)
(0.622908 -0.238421 0)
(0.644439 -0.253739 0)
(0.662258 -0.267385 0)
(0.676036 -0.279174 0)
(0.685548 -0.289068 0)
(0.690695 -0.297218 0)
(0.691545 -0.304018 0)
(0.688392 -0.310182 0)
(0.681949 -0.316851 0)
(0.67349 -0.325786 0)
(0.66631 -0.339588 0)
(0.66403 -0.361762 0)
(0.684503 -0.396709 0)
(0.72397 -0.445298 0)
(0.0560259 0.00804636 0)
(0.0951368 0.00563664 0)
(0.139869 -0.00401161 0)
(0.184182 -0.0134176 0)
(0.223793 -0.0222362 0)
(0.260063 -0.0314332 0)
(0.294719 -0.0412795 0)
(0.328529 -0.0517438 0)
(0.361798 -0.0628648 0)
(0.394716 -0.0747383 0)
(0.427381 -0.0874422 0)
(0.459765 -0.101012 0)
(0.491732 -0.115441 0)
(0.523057 -0.130671 0)
(0.55344 -0.146587 0)
(0.582523 -0.16301 0)
(0.60989 -0.1797 0)
(0.635092 -0.196358 0)
(0.657659 -0.212642 0)
(0.677121 -0.228184 0)
(0.69303 -0.242608 0)
(0.704975 -0.255561 0)
(0.712602 -0.266742 0)
(0.715632 -0.275936 0)
(0.713866 -0.283047 0)
(0.707202 -0.28814 0)
(0.69563 -0.291481 0)
(0.679235 -0.293607 0)
(0.658193 -0.29542 0)
(0.632813 -0.298376 0)
(0.603505 -0.304907 0)
(0.571787 -0.319149 0)
(0.539328 -0.349372 0)
(0.52827 -0.409954 0)
(0.500388 -0.505868 0)
(0.305002 -0.0469538 0)
(0.329234 -0.050897 0)
(0.357445 -0.0524936 0)
(0.390273 -0.056013 0)
(0.422715 -0.0612871 0)
(0.453607 -0.068033 0)
(0.483505 -0.0760906 0)
(0.512681 -0.0852769 0)
(0.541101 -0.0954434 0)
(0.5687 -0.106503 0)
(0.595401 -0.118395 0)
(0.621058 -0.13105 0)
(0.645448 -0.14437 0)
(0.668282 -0.158219 0)
(0.689227 -0.172418 0)
(0.707909 -0.186736 0)
(0.723927 -0.200899 0)
(0.736869 -0.214593 0)
(0.746328 -0.227476 0)
(0.75192 -0.239201 0)
(0.753305 -0.249431 0)
(0.750201 -0.257869 0)
(0.742403 -0.264287 0)
(0.729789 -0.268548 0)
(0.712327 -0.270645 0)
(0.690067 -0.270722 0)
(0.66312 -0.269113 0)
(0.63162 -0.266383 0)
(0.595641 -0.263406 0)
(0.555075 -0.261497 0)
(0.5093 -0.262741 0)
(0.456821 -0.2706 0)
(0.393079 -0.292353 0)
(0.310419 -0.339801 0)
(0.12765 -0.36125 0)
(0.590719 -0.051302 0)
(0.599246 -0.062807 0)
(0.610263 -0.0704188 0)
(0.625608 -0.0773109 0)
(0.643036 -0.0844536 0)
(0.661004 -0.092002 0)
(0.679099 -0.100135 0)
(0.697066 -0.108973 0)
(0.714554 -0.11852 0)
(0.731234 -0.128722 0)
(0.746815 -0.139505 0)
(0.761005 -0.150773 0)
(0.773482 -0.162398 0)
(0.783903 -0.17421 0)
(0.791905 -0.186 0)
(0.797118 -0.197522 0)
(0.799174 -0.208495 0)
(0.797722 -0.218617 0)
(0.79244 -0.227575 0)
(0.78306 -0.235067 0)
(0.76938 -0.240818 0)
(0.751282 -0.244611 0)
(0.728741 -0.246303 0)
(0.701832 -0.245853 0)
(0.670721 -0.243338 0)
(0.635648 -0.23897 0)
(0.596888 -0.233106 0)
(0.554686 -0.226263 0)
(0.509157 -0.219133 0)
(0.460114 -0.21262 0)
(0.406772 -0.207912 0)
(0.347359 -0.206561 0)
(0.277817 -0.210749 0)
(0.191332 -0.219255 0)
(0.0580301 -0.19578 0)
(0.797391 -0.0601253 0)
(0.801865 -0.0711158 0)
(0.806162 -0.079802 0)
(0.811791 -0.0877151 0)
(0.818392 -0.0956141 0)
(0.825232 -0.103629 0)
(0.831939 -0.111857 0)
(0.838261 -0.120405 0)
(0.843881 -0.129301 0)
(0.848449 -0.138508 0)
(0.851628 -0.147952 0)
(0.853091 -0.157532 0)
(0.852504 -0.16711 0)
(0.849531 -0.176512 0)
(0.843838 -0.185529 0)
(0.83511 -0.193924 0)
(0.823057 -0.201441 0)
(0.807433 -0.207814 0)
(0.788051 -0.21279 0)
(0.764802 -0.216136 0)
(0.737668 -0.217669 0)
(0.706732 -0.217269 0)
(0.672186 -0.214898 0)
(0.63432 -0.210615 0)
(0.593508 -0.204578 0)
(0.550178 -0.197048 0)
(0.504759 -0.188372 0)
(0.457617 -0.178972 0)
(0.408952 -0.169312 0)
(0.358666 -0.159861 0)
(0.306156 -0.15104 0)
(0.250107 -0.143148 0)
(0.187932 -0.136242 0)
(0.117299 -0.127287 0)
(0.0293532 -0.0948422 0)
(0.926576 -0.0625835 0)
(0.926304 -0.0726191 0)
(0.925015 -0.0814953 0)
(0.923556 -0.08966 0)
(0.921981 -0.0975681 0)
(0.91993 -0.105364 0)
(0.917115 -0.113105 0)
(0.913324 -0.12085 0)
(0.908312 -0.128625 0)
(0.901792 -0.136397 0)
(0.893475 -0.144095 0)
(0.883081 -0.151614 0)
(0.870338 -0.158817 0)
(0.854987 -0.165538 0)
(0.836791 -0.171587 0)
(0.81555 -0.176761 0)
(0.791115 -0.18085 0)
(0.763404 -0.183657 0)
(0.732417 -0.185005 0)
(0.698247 -0.184761 0)
(0.661093 -0.182845 0)
(0.621252 -0.179245 0)
(0.57912 -0.174027 0)
(0.53517 -0.167335 0)
(0.489924 -0.159383 0)
(0.443916 -0.150443 0)
(0.39764 -0.140816 0)
(0.351494 -0.130796 0)
(0.3057 -0.120615 0)
(0.260217 -0.110366 0)
(0.214633 -0.0999317 0)
(0.168111 -0.0889504 0)
(0.119349 -0.0769115 0)
(0.0683621 -0.0621686 0)
(0.0143602 -0.0380352 0)
(0.978728 -0.0604135 0)
(0.97351 -0.0692133 0)
(0.966856 -0.0773343 0)
(0.959163 -0.0848195 0)
(0.95052 -0.0919068 0)
(0.940752 -0.0987177 0)
(0.929654 -0.105288 0)
(0.917057 -0.111641 0)
(0.902779 -0.117784 0)
(0.886612 -0.123683 0)
(0.868349 -0.129268 0)
(0.847803 -0.134438 0)
(0.824808 -0.139074 0)
(0.799231 -0.143035 0)
(0.770981 -0.146174 0)
(0.740025 -0.148341 0)
(0.706398 -0.1494 0)
(0.670216 -0.149236 0)
(0.631682 -0.147767 0)
(0.591091 -0.144961 0)
(0.548824 -0.140837 0)
(0.505336 -0.135472 0)
(0.46114 -0.129004 0)
(0.416777 -0.121616 0)
(0.372785 -0.113532 0)
(0.329662 -0.104983 0)
(0.287829 -0.0961831 0)
(0.247592 -0.0872799 0)
(0.209094 -0.0782882 0)
(0.172274 -0.0690134 0)
(0.13684 -0.0590129 0)
(0.102328 -0.0477204 0)
(0.068307 -0.0348933 0)
(0.0357402 -0.0210322 0)
(0.00616951 -0.0081986 0)
(0.953825 -0.0536116 0)
(0.944047 -0.0607681 0)
(0.932492 -0.0674552 0)
(0.919328 -0.0735961 0)
(0.904625 -0.0792792 0)
(0.888311 -0.0845746 0)
(0.870272 -0.0895015 0)
(0.850407 -0.0940639 0)
(0.828618 -0.0982557 0)
(0.804804 -0.102047 0)
(0.778878 -0.105383 0)
(0.750781 -0.108187 0)
(0.720494 -0.110375 0)
(0.688043 -0.111855 0)
(0.65351 -0.112539 0)
(0.617041 -0.112347 0)
(0.578849 -0.111223 0)
(0.539218 -0.109133 0)
(0.498501 -0.106082 0)
(0.45711 -0.10211 0)
(0.4155 -0.0973 0)
(0.374152 -0.09177 0)
(0.333549 -0.0856705 0)
(0.294145 -0.0791707 0)
(0.256346 -0.0724437 0)
(0.220487 -0.0656448 0)
(0.186813 -0.0588809 0)
(0.155468 -0.0521638 0)
(0.126483 -0.0453444 0)
(0.0997769 -0.0380527 0)
(0.0751915 -0.0297279 0)
(0.0526041 -0.0198955 0)
(0.0321323 -0.0088445 0)
(0.0147802 0.0013767 0)
(0.00182434 0.0051861 0)
(0.852893 -0.0426652 0)
(0.839403 -0.0479074 0)
(0.823915 -0.0527582 0)
(0.806514 -0.0571208 0)
(0.787271 -0.0610102 0)
(0.766204 -0.0644629 0)
(0.743305 -0.0674954 0)
(0.718579 -0.0701129 0)
(0.692045 -0.0723145 0)
(0.663736 -0.0740882 0)
(0.633707 -0.075407 0)
(0.602046 -0.0762345 0)
(0.568882 -0.0765308 0)
(0.534387 -0.0762585 0)
(0.498779 -0.0753881 0)
(0.462323 -0.0739031 0)
(0.42533 -0.0718048 0)
(0.388147 -0.0691162 0)
(0.35115 -0.065883 0)
(0.314725 -0.0621743 0)
(0.279258 -0.0580787 0)
(0.245107 -0.0536999 0)
(0.212593 -0.0491492 0)
(0.18198 -0.0445377 0)
(0.15347 -0.0399649 0)
(0.127193 -0.0355043 0)
(0.103218 -0.0311781 0)
(0.0815557 -0.0269143 0)
(0.0621801 -0.0224897 0)
(0.0450617 -0.0174963 0)
(0.0302354 -0.011429 0)
(0.017889 -0.00402983 0)
(0.00839866 0.0040249 0)
(0.00227539 0.0102379 0)
(-0.000307128 0.00892603 0)
(0.67984 -0.0286452 0)
(0.664331 -0.0318308 0)
(0.646837 -0.0346683 0)
(0.627463 -0.0370899 0)
(0.606341 -0.0390993 0)
(0.583592 -0.0407279 0)
(0.559332 -0.0420028 0)
(0.533686 -0.0429433 0)
(0.506789 -0.0435641 0)
(0.478791 -0.0438739 0)
(0.449853 -0.0438729 0)
(0.420156 -0.0435567 0)
(0.389906 -0.04292 0)
(0.359328 -0.0419614 0)
(0.328672 -0.0406854 0)
(0.2982 -0.0391053 0)
(0.268188 -0.0372441 0)
(0.238911 -0.0351353 0)
(0.210636 -0.0328218 0)
(0.18361 -0.0303544 0)
(0.158046 -0.0277886 0)
(0.134122 -0.0251817 0)
(0.111965 -0.0225895 0)
(0.0916545 -0.0200627 0)
(0.0732243 -0.0176419 0)
(0.0566657 -0.0153491 0)
(0.0419418 -0.0131687 0)
(0.0290095 -0.0110141 0)
(0.0178572 -0.0086851 0)
(0.00856149 -0.00585682 0)
(0.00135276 -0.00217654 0)
(-0.00336745 0.00244166 0)
(-0.00519461 0.00731121 0)
(-0.00417863 0.0103364 0)
(-0.00119872 0.00747577 0)
(0.444772 -0.014048 0)
(0.430349 -0.015325 0)
(0.414384 -0.0163533 0)
(0.397061 -0.0171176 0)
(0.378583 -0.0176401 0)
(0.359151 -0.017958 0)
(0.338948 -0.0181029 0)
(0.318145 -0.0180968 0)
(0.29691 -0.0179559 0)
(0.275404 -0.0176912 0)
(0.253784 -0.0173095 0)
(0.232208 -0.0168145 0)
(0.210839 -0.0162107 0)
(0.189837 -0.0155039 0)
(0.169366 -0.0147029 0)
(0.149581 -0.013819 0)
(0.130631 -0.0128666 0)
(0.11265 -0.0118626 0)
(0.0957527 -0.0108261 0)
(0.08003 -0.00977654 0)
(0.0655466 -0.00873392 0)
(0.0523391 -0.00771668 0)
(0.0404155 -0.00674169 0)
(0.0297575 -0.00582339 0)
(0.0203244 -0.00497322 0)
(0.0120581 -0.00419496 0)
(0.00489479 -0.00347437 0)
(-0.00120952 -0.0027597 0)
(-0.00623349 -0.001937 0)
(-0.010028 -0.000826265 0)
(-0.0122643 0.000758053 0)
(-0.0124659 0.00284355 0)
(-0.0102801 0.00501024 0)
(-0.0061095 0.00607951 0)
(-0.00135189 0.00403745 0)
(0.166024 -0.00228508 0)
(0.15806 -0.00236069 0)
(0.149538 -0.00238129 0)
(0.14061 -0.00235288 0)
(0.131419 -0.00229115 0)
(0.122087 -0.00221157 0)
(0.112708 -0.00212268 0)
(0.103363 -0.00202737 0)
(0.0941182 -0.00192597 0)
(0.0850361 -0.00181807 0)
(0.0761726 -0.00170305 0)
(0.067581 -0.00158105 0)
(0.0593124 -0.00145312 0)
(0.0514151 -0.00132104 0)
(0.0439331 -0.00118676 0)
(0.0369054 -0.00105225 0)
(0.0303639 -0.000919345 0)
(0.024333 -0.000789869 0)
(0.0188282 -0.00066551 0)
(0.0138557 -0.000547938 0)
(0.00941255 -0.000438575 0)
(0.0054867 -0.00033865 0)
(0.00205775 -0.000248957 0)
(-0.000902559 -0.000170182 0)
(-0.0034291 -0.000103395 0)
(-0.00556142 -4.94846e-05 0)
(-0.00733853 -6.96703e-06 0)
(-0.00878415 3.164e-05 0)
(-0.00987813 8.53289e-05 0)
(-0.0105153 0.000187749 0)
(-0.0104689 0.000379738 0)
(-0.00941239 0.00068235 0)
(-0.00711655 0.00104271 0)
(-0.00392382 0.00123413 0)
(-0.000877586 0.000872022 0)
(0.254899 -0.00435845 0)
(0.275849 -0.00224926 0)
(0.291358 -4.00565e-05 0)
(0.301035 0.001993 0)
(0.305083 0.00367371 0)
(0.303968 0.00490578 0)
(0.298606 0.00564274 0)
(0.289996 0.00591575 0)
(0.279066 0.00582871 0)
(0.266644 0.00550271 0)
(0.485013 -0.0421891 0)
(0.525741 -0.0341288 0)
(0.559982 -0.0249044 0)
(0.586995 -0.0153992 0)
(0.606632 -0.00632666 0)
(0.619274 0.00184584 0)
(0.625308 0.00879036 0)
(0.625242 0.0143205 0)
(0.619864 0.0184255 0)
(0.610035 0.0212207 0)
(0.625656 -0.0905636 0)
(0.671863 -0.0767942 0)
(0.711474 -0.0609087 0)
(0.743957 -0.0444157 0)
(0.769496 -0.0284478 0)
(0.788547 -0.0136924 0)
(0.801671 -0.000548474 0)
(0.809408 0.010754 0)
(0.812218 0.020126 0)
(0.8106 0.0276113 0)
(0.735599 -0.139997 0)
(0.781002 -0.119911 0)
(0.81916 -0.0970392 0)
(0.849902 -0.0737257 0)
(0.873964 -0.0513946 0)
(0.892161 -0.030811 0)
(0.905181 -0.012456 0)
(0.913741 0.00345177 0)
(0.918522 0.0169187 0)
(0.92004 0.0280812 0)
(0.819994 -0.187404 0)
(0.862531 -0.159969 0)
(0.896689 -0.129391 0)
(0.92274 -0.0991663 0)
(0.942051 -0.0707955 0)
(0.955744 -0.0449835 0)
(0.964743 -0.0222216 0)
(0.970004 -0.00268266 0)
(0.972477 0.0137878 0)
(0.972798 0.0274899 0)
(0.872643 -0.231941 0)
(0.913265 -0.19631 0)
(0.94208 -0.157254 0)
(0.960238 -0.119544 0)
(0.970673 -0.0847152 0)
(0.97549 -0.0536702 0)
(0.976397 -0.0270071 0)
(0.97499 -0.0046973 0)
(0.972467 0.0137526 0)
(0.969379 0.028951 0)
(0.891061 -0.272215 0)
(0.929644 -0.226308 0)
(0.944972 -0.176944 0)
(0.943675 -0.130014 0)
(0.934362 -0.0878079 0)
(0.921936 -0.051965 0)
(0.909372 -0.0229169 0)
(0.898635 0.000170414 0)
(0.890345 0.0186178 0)
(0.884341 0.0336219 0)
(0.869343 -0.312071 0)
(0.883467 -0.241855 0)
(0.85434 -0.172884 0)
(0.810954 -0.113375 0)
(0.770814 -0.0659621 0)
(0.73854 -0.030704 0)
(0.715006 -0.00526163 0)
(0.700096 0.013307 0)
(0.692847 0.0274209 0)
(0.691138 0.0392558 0)
(0.765272 -0.350996 0)
(0.684273 -0.215355 0)
(0.570841 -0.11436 0)
(0.488737 -0.0496064 0)
(0.439631 -0.0116178 0)
(0.411996 0.00848208 0)
(0.400081 0.0186225 0)
(0.4001 0.0242841 0)
(0.408404 0.02858 0)
(0.420992 0.0345781 0)
(0.447591 -0.275674 0)
(0.232065 -0.0688794 0)
(0.104754 0.00389626 0)
(0.0846353 0.0145855 0)
(0.0875295 0.013258 0)
(0.0938024 0.0107184 0)
(0.104031 0.00873644 0)
(0.117408 0.00775033 0)
(0.133121 0.00842659 0)
(0.148843 0.0176082 0)
(0.25342 0.00504127 0)
(0.239932 0.00452088 0)
(0.226579 0.00399529 0)
(0.213635 0.00350249 0)
(0.201265 0.00306664 0)
(0.189545 0.00269782 0)
(0.17849 0.00239448 0)
(0.168077 0.00214891 0)
(0.158263 0.00195142 0)
(0.148997 0.00179221 0)
(0.140225 0.00166209 0)
(0.131898 0.00155329 0)
(0.123971 0.00145973 0)
(0.116405 0.001377 0)
(0.109168 0.00130195 0)
(0.102234 0.0012324 0)
(0.0955839 0.00116675 0)
(0.0892001 0.00110389 0)
(0.0830713 0.00104297 0)
(0.0771893 0.000983411 0)
(0.0715489 0.000924781 0)
(0.066147 0.000866856 0)
(0.0609827 0.000809567 0)
(0.0560561 0.000752967 0)
(0.0513679 0.000697196 0)
(0.046919 0.000642449 0)
(0.0427102 0.000588957 0)
(0.0387413 0.000536971 0)
(0.0350117 0.000486766 0)
(0.0315193 0.000438631 0)
(0.0282609 0.000392842 0)
(0.0252317 0.000349669 0)
(0.0224259 0.000309321 0)
(0.0198359 0.000271985 0)
(0.0174528 0.000237749 0)
(0.596619 0.0228891 0)
(0.58044 0.0236359 0)
(0.562257 0.0236696 0)
(0.542735 0.0231939 0)
(0.52242 0.0223938 0)
(0.501738 0.0214186 0)
(0.481003 0.0203754 0)
(0.460438 0.0193349 0)
(0.440192 0.0183407 0)
(0.42036 0.0174166 0)
(0.400991 0.0165711 0)
(0.382106 0.0158033 0)
(0.363709 0.0151068 0)
(0.345791 0.0144723 0)
(0.32834 0.01389 0)
(0.311341 0.01335 0)
(0.294781 0.0128429 0)
(0.27865 0.0123603 0)
(0.262943 0.011895 0)
(0.247658 0.0114406 0)
(0.232798 0.010992 0)
(0.218371 0.010545 0)
(0.204389 0.0100968 0)
(0.190864 0.00964544 0)
(0.177813 0.00918997 0)
(0.165252 0.00873037 0)
(0.153199 0.00826745 0)
(0.141668 0.00780266 0)
(0.130673 0.00733806 0)
(0.120226 0.00687611 0)
(0.110335 0.00641964 0)
(0.101002 0.00597162 0)
(0.0922291 0.00553511 0)
(0.0840099 0.0051131 0)
(0.0763349 0.00470848 0)
(0.805052 0.0333387 0)
(0.796073 0.0374815 0)
(0.784168 0.0402486 0)
(0.769833 0.0418839 0)
(0.753518 0.0426413 0)
(0.735609 0.0427499 0)
(0.71644 0.0423976 0)
(0.696295 0.0417336 0)
(0.675414 0.0408742 0)
(0.653993 0.0399064 0)
(0.63219 0.0388907 0)
(0.610128 0.037867 0)
(0.587908 0.0368591 0)
(0.565609 0.0358793 0)
(0.543294 0.0349315 0)
(0.521017 0.0340135 0)
(0.498822 0.0331196 0)
(0.47675 0.0322417 0)
(0.454839 0.0313706 0)
(0.433128 0.0304972 0)
(0.411655 0.0296125 0)
(0.390462 0.0287091 0)
(0.369593 0.0277806 0)
(0.349093 0.0268224 0)
(0.329011 0.0258321 0)
(0.309396 0.0248088 0)
(0.290297 0.0237537 0)
(0.271763 0.0226698 0)
(0.253842 0.0215619 0)
(0.236577 0.0204361 0)
(0.220007 0.0193 0)
(0.204164 0.0181619 0)
(0.189074 0.017031 0)
(0.174757 0.0159168 0)
(0.16122 0.014829 0)
(0.91868 0.0371196 0)
(0.914759 0.0442212 0)
(0.908575 0.0496075 0)
(0.900398 0.0535543 0)
(0.890436 0.0563509 0)
(0.87884 0.0582489 0)
(0.865739 0.0594513 0)
(0.851259 0.060124 0)
(0.835523 0.0604033 0)
(0.818643 0.0603958 0)
(0.800724 0.0601813 0)
(0.781863 0.0598185 0)
(0.762152 0.0593491 0)
(0.741677 0.0588013 0)
(0.720516 0.058193 0)
(0.698745 0.057533 0)
(0.676434 0.0568239 0)
(0.653652 0.0560636 0)
(0.630467 0.0552464 0)
(0.606946 0.0543645 0)
(0.583158 0.0534092 0)
(0.559175 0.0523717 0)
(0.535071 0.051244 0)
(0.510924 0.0500197 0)
(0.486816 0.0486943 0)
(0.462831 0.0472659 0)
(0.439056 0.0457356 0)
(0.41558 0.0441074 0)
(0.392492 0.0423885 0)
(0.369879 0.0405893 0)
(0.347826 0.038723 0)
(0.326412 0.0368054 0)
(0.305707 0.0348545 0)
(0.285774 0.0328896 0)
(0.266664 0.0309312 0)
(0.971355 0.0387095 0)
(0.968442 0.0476758 0)
(0.964341 0.054671 0)
(0.959265 0.0600753 0)
(0.95329 0.0642608 0)
(0.946391 0.0675108 0)
(0.938529 0.0700341 0)
(0.929673 0.0719974 0)
(0.919798 0.0735351 0)
(0.908882 0.0747481 0)
(0.896912 0.0757093 0)
(0.883883 0.0764706 0)
(0.869801 0.077069 0)
(0.854678 0.0775292 0)
(0.838533 0.0778663 0)
(0.82139 0.0780876 0)
(0.803277 0.0781941 0)
(0.78423 0.0781818 0)
(0.764289 0.0780429 0)
(0.7435 0.0777667 0)
(0.721916 0.0773408 0)
(0.699596 0.0767521 0)
(0.676609 0.0759876 0)
(0.653029 0.0750355 0)
(0.62894 0.0738863 0)
(0.604435 0.072533 0)
(0.579613 0.0709724 0)
(0.554583 0.0692057 0)
(0.529459 0.0672385 0)
(0.50436 0.0650819 0)
(0.479406 0.062752 0)
(0.45472 0.0602697 0)
(0.430418 0.0576608 0)
(0.406613 0.0549551 0)
(0.383408 0.0521853 0)
(0.965904 0.0413213 0)
(0.962181 0.0510883 0)
(0.958467 0.0586214 0)
(0.954925 0.0644788 0)
(0.951474 0.0691527 0)
(0.947921 0.0729638 0)
(0.944094 0.0761289 0)
(0.939868 0.0788177 0)
(0.935129 0.0811609 0)
(0.929763 0.0832506 0)
(0.923674 0.0851489 0)
(0.916782 0.0868977 0)
(0.909022 0.0885232 0)
(0.900335 0.0900394 0)
(0.890674 0.0914513 0)
(0.879999 0.0927565 0)
(0.868276 0.093947 0)
(0.855482 0.0950103 0)
(0.8416 0.0959298 0)
(0.826621 0.096686 0)
(0.810546 0.097257 0)
(0.793386 0.0976197 0)
(0.775163 0.0977506 0)
(0.75591 0.0976266 0)
(0.735672 0.0972265 0)
(0.71451 0.0965316 0)
(0.692496 0.0955272 0)
(0.669718 0.0942035 0)
(0.646277 0.0925569 0)
(0.622286 0.0905905 0)
(0.597873 0.0883153 0)
(0.57317 0.0857501 0)
(0.54832 0.0829215 0)
(0.523464 0.079864 0)
(0.498746 0.0766185 0)
(0.87999 0.0457 0)
(0.876922 0.054853 0)
(0.875266 0.0616355 0)
(0.875017 0.0668917 0)
(0.87576 0.0711952 0)
(0.877008 0.0748448 0)
(0.878443 0.0780385 0)
(0.879855 0.0809299 0)
(0.881068 0.0836246 0)
(0.881923 0.0861901 0)
(0.882292 0.0886717 0)
(0.882071 0.0911 0)
(0.881171 0.093492 0)
(0.879514 0.0958535 0)
(0.877029 0.0981815 0)
(0.873649 0.100466 0)
(0.869313 0.102692 0)
(0.863962 0.104838 0)
(0.857543 0.106882 0)
(0.850006 0.108795 0)
(0.841309 0.110546 0)
(0.831413 0.112102 0)
(0.820291 0.113428 0)
(0.807923 0.114487 0)
(0.794303 0.115245 0)
(0.779436 0.115667 0)
(0.763342 0.11572 0)
(0.74606 0.11538 0)
(0.727644 0.114624 0)
(0.708168 0.113439 0)
(0.687725 0.111821 0)
(0.666423 0.109776 0)
(0.64439 0.107322 0)
(0.621762 0.104486 0)
(0.598688 0.101309 0)
(0.692494 0.0491405 0)
(0.695818 0.0558713 0)
(0.70158 0.0603907 0)
(0.709585 0.0640245 0)
(0.718861 0.0673003 0)
(0.72862 0.0703529 0)
(0.738472 0.0732898 0)
(0.748187 0.0761979 0)
(0.757577 0.0791142 0)
(0.766498 0.0820509 0)
(0.774848 0.0850185 0)
(0.782556 0.0880268 0)
(0.789559 0.0910807 0)
(0.795805 0.0941783 0)
(0.801244 0.0973119 0)
(0.805829 0.100469 0)
(0.809511 0.103632 0)
(0.812238 0.106779 0)
(0.813958 0.109885 0)
(0.814615 0.112918 0)
(0.814153 0.115846 0)
(0.812517 0.118631 0)
(0.809651 0.121232 0)
(0.805505 0.123604 0)
(0.800033 0.125701 0)
(0.793196 0.127477 0)
(0.784965 0.128886 0)
(0.775326 0.129882 0)
(0.764279 0.130426 0)
(0.751841 0.130485 0)
(0.73805 0.130033 0)
(0.722966 0.129056 0)
(0.706668 0.127552 0)
(0.689257 0.125534 0)
(0.670851 0.123029 0)
(0.434878 0.0419652 0)
(0.44873 0.0459101 0)
(0.465989 0.0480602 0)
(0.486039 0.050231 0)
(0.506703 0.0527679 0)
(0.526965 0.0555937 0)
(0.546627 0.0586747 0)
(0.565602 0.0619769 0)
(0.583792 0.0654433 0)
(0.601154 0.0690271 0)
(0.617685 0.0727041 0)
(0.63339 0.0764646 0)
(0.648268 0.0803033 0)
(0.662314 0.0842157 0)
(0.675521 0.0881951 0)
(0.687878 0.0922318 0)
(0.699366 0.0963125 0)
(0.709957 0.10042 0)
(0.719619 0.104532 0)
(0.72831 0.108623 0)
(0.735982 0.112665 0)
(0.742582 0.116621 0)
(0.748053 0.120454 0)
(0.752334 0.124117 0)
(0.755361 0.127564 0)
(0.757073 0.130741 0)
(0.757409 0.133595 0)
(0.756315 0.136069 0)
(0.753747 0.138109 0)
(0.749673 0.139664 0)
(0.744077 0.140689 0)
(0.73696 0.141148 0)
(0.728345 0.141018 0)
(0.718278 0.140289 0)
(0.706823 0.138967 0)
(0.182373 0.0258247 0)
(0.208682 0.0233067 0)
(0.238059 0.0224567 0)
(0.268953 0.0239649 0)
(0.298194 0.0268588 0)
(0.325441 0.0305646 0)
(0.351234 0.0347383 0)
(0.375845 0.0391486 0)
(0.399379 0.0436694 0)
(0.421943 0.048249 0)
(0.443647 0.0528708 0)
(0.464563 0.0575325 0)
(0.484738 0.062239 0)
(0.504199 0.0669973 0)