/*--------------------------------*- C++ -*----------------------------------*\
| =========                 |                                                 |
| \\      /  F ield         | OpenFOAM: The Open Source CFD Toolbox           |
|  \\    /   O peration     | Version:  2406                                  |
|   \\  /    A nd           | Website:  www.openfoam.com                      |
|    \\/     M anipulation  |                                                 |
\*---------------------------------------------------------------------------*/
FoamFile
{
    version     2.0;
    format      ascii;
    arch        "LSB;label=32;scalar=64";
    class       volScalarField;
    location    "153";
    object      p;
}
// * * * * * * * * * * * * * * * * * * * * * * * * * * * * * * * * * * * * * //

dimensions      [0 2 -2 0 0 0 0];

internalField   nonuniform List<scalar> 
190000
(
1.52146
1.51799
1.51355
1.50859
1.50336
1.498
1.49259
1.48715
1.4817
1.47624
1.47078
1.46533
1.45987
1.45442
1.44897
1.44352
1.43807
1.43262
1.42716
1.42171
1.41624
1.41078
1.40531
1.39983
1.39434
1.38884
1.38334
1.37782
1.37229
1.36674
1.36118
1.35561
1.35002
1.34441
1.33878
1.33313
1.32746
1.32176
1.31605
1.31031
1.30454
1.29874
1.29292
1.28707
1.2812
1.27529
1.26935
1.26338
1.25738
1.25134
1.24528
1.23918
1.23304
1.22688
1.22068
1.21444
1.20817
1.20187
1.19553
1.18916
1.18275
1.17631
1.16984
1.16333
1.15679
1.15022
1.14362
1.137
1.13034
1.12366
1.11696
1.11023
1.10349
1.09674
1.08998
1.08321
1.07646
1.06971
1.06299
1.05631
1.04968
1.04313
1.03668
1.03036
1.02421
1.01828
1.01264
1.00737
1.00259
0.998437
0.995104
0.992838
0.991952
0.992818
0.995739
1.0003
1.00476
1.01201
1.03568
0.949879
1.52427
1.5189
1.51373
1.50858
1.50329
1.49792
1.4925
1.48705
1.4816
1.47613
1.47067
1.4652
1.45974
1.45427
1.44881
1.44334
1.43787
1.43241
1.42694
1.42146
1.41598
1.4105
1.40501
1.39951
1.394
1.38849
1.38296
1.37742
1.37187
1.36631
1.36073
1.35514
1.34953
1.3439
1.33825
1.33258
1.32689
1.32118
1.31544
1.30968
1.3039
1.29809
1.29225
1.28638
1.28048
1.27456
1.2686
1.26261
1.2566
1.25054
1.24446
1.23834
1.23219
1.226
1.21978
1.21352
1.20723
1.20091
1.19454
1.18815
1.18171
1.17524
1.16874
1.1622
1.15562
1.14902
1.14237
1.1357
1.12899
1.12226
1.1155
1.10871
1.10189
1.09506
1.0882
1.08134
1.07446
1.06759
1.06072
1.05387
1.04705
1.04027
1.03356
1.02692
1.0204
1.01401
1.00781
1.00184
0.996152
0.990823
0.98592
0.981512
0.977634
0.974231
0.970985
0.966863
0.959845
0.947957
0.921484
0.813648
1.52566
1.51948
1.5139
1.5086
1.50326
1.49785
1.49241
1.48696
1.48149
1.47602
1.47054
1.46507
1.45959
1.45411
1.44862
1.44314
1.43766
1.43217
1.42668
1.42119
1.41569
1.41019
1.40467
1.39916
1.39363
1.38809
1.38255
1.37699
1.37142
1.36583
1.36023
1.35462
1.34899
1.34334
1.33767
1.33198
1.32627
1.32054
1.31478
1.309
1.3032
1.29737
1.29151
1.28563
1.27971
1.27377
1.26779
1.26179
1.25575
1.24968
1.24357
1.23744
1.23126
1.22506
1.21881
1.21254
1.20622
1.19987
1.19348
1.18706
1.18059
1.17409
1.16755
1.16098
1.15436
1.14771
1.14102
1.1343
1.12754
1.12074
1.11391
1.10704
1.10015
1.09322
1.08626
1.07928
1.07228
1.06525
1.05822
1.05117
1.04413
1.03709
1.03006
1.02306
1.0161
1.00919
1.00234
0.995559
0.988853
0.982209
0.975586
0.968887
0.961913
0.954271
0.94521
0.93332
0.916257
0.890565
0.848274
0.767184
1.52625
1.51984
1.51408
1.50868
1.50327
1.49782
1.49235
1.48688
1.4814
1.47592
1.47043
1.46494
1.45945
1.45395
1.44846
1.44296
1.43746
1.43196
1.42645
1.42094
1.41542
1.4099
1.40437
1.39884
1.39329
1.38774
1.38217
1.3766
1.37101
1.36541
1.35979
1.35416
1.34851
1.34284
1.33715
1.33144
1.32572
1.31997
1.3142
1.3084
1.30258
1.29673
1.29085
1.28495
1.27902
1.27306
1.26707
1.26104
1.25499
1.2489
1.24278
1.23662
1.23043
1.2242
1.21794
1.21164
1.2053
1.19893
1.19252
1.18606
1.17957
1.17304
1.16647
1.15986
1.15321
1.14652
1.13978
1.13301
1.12619
1.11933
1.11244
1.1055
1.09852
1.0915
1.08444
1.07735
1.07021
1.06305
1.05584
1.04861
1.04134
1.03404
1.02671
1.01935
1.01196
1.00454
0.997057
0.989508
0.981846
0.974006
0.965875
0.957265
0.947868
0.937186
0.924412
0.908275
0.886901
0.8578
0.817087
0.757864
1.52657
1.52007
1.51423
1.50875
1.50329
1.4978
1.49231
1.48681
1.48132
1.47582
1.47032
1.46481
1.45931
1.4538
1.44829
1.44278
1.43727
1.43175
1.42623
1.4207
1.41517
1.40963
1.40409
1.39853
1.39297
1.3874
1.38182
1.37622
1.37062
1.365
1.35936
1.35371
1.34805
1.34236
1.33666
1.33094
1.32519
1.31943
1.31364
1.30782
1.30199
1.29612
1.29023
1.28431
1.27837
1.27239
1.26638
1.26034
1.25427
1.24816
1.24203
1.23585
1.22964
1.2234
1.21711
1.21079
1.20444
1.19804
1.1916
1.18512
1.1786
1.17204
1.16544
1.1588
1.15211
1.14537
1.13859
1.13177
1.1249
1.11799
1.11102
1.10401
1.09695
1.08984
1.08268
1.07547
1.06821
1.0609
1.05353
1.0461
1.03861
1.03106
1.02343
1.01572
1.00792
0.999999
0.991931
0.983671
0.97515
0.966269
0.956877
0.946753
0.935568
0.922842
0.907886
0.889735
0.867145
0.838693
0.802767
0.757654
1.52674
1.52021
1.51432
1.50881
1.5033
1.49778
1.49226
1.48675
1.48124
1.47572
1.47021
1.46469
1.45917
1.45365
1.44813
1.4426
1.43708
1.43154
1.42601
1.42047
1.41492
1.40937
1.40381
1.39824
1.39266
1.38707
1.38147
1.37586
1.37024
1.36461
1.35895
1.35329
1.34761
1.3419
1.33619
1.33045
1.32469
1.31891
1.3131
1.30727
1.30142
1.29554
1.28963
1.2837
1.27774
1.27175
1.26572
1.25967
1.25358
1.24746
1.24131
1.23512
1.22889
1.22263
1.21632
1.20998
1.20361
1.19719
1.19072
1.18422
1.17768
1.17109
1.16445
1.15777
1.15105
1.14427
1.13745
1.13058
1.12366
1.11669
1.10966
1.10258
1.09544
1.08824
1.08098
1.07366
1.06627
1.05881
1.05128
1.04367
1.03597
1.02817
1.02026
1.01222
1.00403
0.995657
0.987058
0.978173
0.96892
0.959182
0.948801
0.937556
0.925147
0.911168
0.895094
0.876266
0.853945
0.827443
0.796286
0.760609
1.52682
1.52028
1.51437
1.50883
1.5033
1.49775
1.49222
1.48669
1.48116
1.47563
1.4701
1.46457
1.45904
1.45351
1.44797
1.44243
1.43689
1.43135
1.4258
1.42024
1.41468
1.40911
1.40354
1.39795
1.39236
1.38676
1.38114
1.37552
1.36988
1.36423
1.35856
1.35288
1.34718
1.34147
1.33573
1.32998
1.32421
1.31841
1.31259
1.30675
1.30088
1.29499
1.28907
1.28312
1.27714
1.27114
1.2651
1.25903
1.25293
1.24679
1.24062
1.23442
1.22817
1.22189
1.21557
1.20922
1.20282
1.19638
1.18989
1.18337
1.17679
1.17018
1.16351
1.1568
1.15004
1.14323
1.13637
1.12945
1.12248
1.11544
1.10836
1.1012
1.09399
1.08671
1.07935
1.07193
1.06442
1.05682
1.04914
1.04135
1.03345
1.02542
1.01725
1.00892
1.00038
0.991615
0.982563
0.97316
0.963319
0.952924
0.941825
0.929825
0.916674
0.902062
0.885619
0.866938
0.845634
0.821466
0.794496
0.765397
1.52683
1.5203
1.51439
1.50883
1.50328
1.49772
1.49217
1.48663
1.48108
1.47554
1.47
1.46446
1.45892
1.45337
1.44782
1.44227
1.43672
1.43116
1.42559
1.42003
1.41445
1.40887
1.40328
1.39768
1.39207
1.38646
1.38083
1.37519
1.36954
1.36387
1.35819
1.3525
1.34678
1.34105
1.33531
1.32954
1.32375
1.31794
1.31211
1.30625
1.30037
1.29447
1.28853
1.28257
1.27658
1.27056
1.26451
1.25843
1.25231
1.24616
1.23998
1.23376
1.2275
1.2212
1.21487
1.20849
1.20207
1.19561
1.18911
1.18256
1.17596
1.16932
1.16263
1.15589
1.14909
1.14224
1.13534
1.12838
1.12136
1.11428
1.10713
1.09991
1.09262
1.08526
1.07782
1.07029
1.06267
1.05495
1.04713
1.03918
1.0311
1.02287
1.01447
1.00588
0.997052
0.987956
0.978538
0.96873
0.958449
0.947589
0.936018
0.923575
0.910068
0.895274
0.878958
0.860896
0.840932
0.819071
0.795588
0.771204
1.52681
1.52029
1.51438
1.50881
1.50325
1.49768
1.49212
1.48656
1.48101
1.47546
1.4699
1.46435
1.4588
1.45324
1.44768
1.44212
1.43655
1.43098
1.4254
1.41982
1.41423
1.40864
1.40303
1.39742
1.3918
1.38617
1.38053
1.37488
1.36921
1.36353
1.35784
1.35213
1.3464
1.34066
1.3349
1.32912
1.32332
1.3175
1.31165
1.30579
1.29989
1.29397
1.28803
1.28206
1.27605
1.27002
1.26396
1.25786
1.25174
1.24557
1.23937
1.23314
1.22687
1.22056
1.21421
1.20781
1.20138
1.1949
1.18838
1.1818
1.17519
1.16852
1.1618
1.15503
1.14821
1.14132
1.13438
1.12738
1.12032
1.11318
1.10598
1.09871
1.09135
1.08392
1.0764
1.06878
1.06106
1.05323
1.04528
1.03719
1.02896
1.02055
1.01196
1.00315
0.994089
0.984736
0.97504
0.964939
0.954357
0.943204
0.931372
0.918737
0.90516
0.890496
0.874611
0.857405
0.838861
0.819102
0.798461
0.77756
1.52676
1.52025
1.51434
1.50878
1.50322
1.49764
1.49207
1.4865
1.48094
1.47538
1.46981
1.46425
1.45868
1.45311
1.44754
1.44197
1.43639
1.43081
1.42522
1.41963
1.41403
1.40842
1.4028
1.39718
1.39155
1.3859
1.38025
1.37458
1.36891
1.36321
1.35751
1.35179
1.34605
1.34029
1.33452
1.32873
1.32292
1.31708
1.31123
1.30535
1.29944
1.29351
1.28756
1.28157
1.27556
1.26952
1.26344
1.25734
1.2512
1.24502
1.23881
1.23257
1.22628
1.21995
1.21359
1.20718
1.20073
1.19424
1.18769
1.18111
1.17447
1.16778
1.16104
1.15424
1.14739
1.14047
1.1335
1.12646
1.11936
1.11218
1.10493
1.0976
1.09019
1.08269
1.0751
1.0674
1.05959
1.05166
1.04361
1.0354
1.02704
1.01849
1.00975
1.00077
0.991531
0.98199
0.972101
0.96181
0.951053
0.939754
0.927833
0.915198
0.901757
0.887427
0.872143
0.855889
0.838721
0.82081
0.802478
0.784229
1.5267
1.5202
1.5143
1.50874
1.50318
1.49759
1.49202
1.48644
1.48087
1.4753
1.46973
1.46415
1.45858
1.453
1.44742
1.44183
1.43624
1.43065
1.42505
1.41945
1.41383
1.40821
1.40259
1.39695
1.39131
1.38565
1.37999
1.37431
1.36862
1.36292
1.3572
1.35147
1.34572
1.33995
1.33417
1.32836
1.32254
1.3167
1.31083
1.30494
1.29903
1.29309
1.28712
1.28113
1.2751
1.26905
1.26297
1.25685
1.2507
1.24451
1.23829
1.23203
1.22574
1.2194
1.21302
1.2066
1.20014
1.19363
1.18707
1.18046
1.17381
1.1671
1.16034
1.15352
1.14664
1.1397
1.1327
1.12563
1.11848
1.11127
1.10398
1.0966
1.08914
1.08159
1.07393
1.06617
1.05829
1.05028
1.04214
1.03384
1.02537
1.01672
1.00786
0.998762
0.9894
0.979737
0.969735
0.959346
0.948519
0.937196
0.925319
0.912826
0.899663
0.88579
0.871193
0.855902
0.840012
0.823704
0.807263
0.791087
1.52664
1.52015
1.51426
1.5087
1.50313
1.49755
1.49197
1.48639
1.48081
1.47523
1.46965
1.46407
1.45848
1.45289
1.4473
1.44171
1.43611
1.4305
1.42489
1.41928
1.41366
1.40803
1.40239
1.39674
1.39109
1.38542
1.37974
1.37406
1.36836
1.36264
1.35691
1.35117
1.34541
1.33963
1.33384
1.32803
1.32219
1.31634
1.31046
1.30457
1.29864
1.29269
1.28672
1.28071
1.27468
1.26862
1.26253
1.2564
1.25024
1.24405
1.23782
1.23155
1.22524
1.21889
1.21251
1.20607
1.1996
1.19307
1.1865
1.17988
1.17321
1.16649
1.1597
1.15287
1.14597
1.139
1.13198
1.12488
1.11771
1.11046
1.10314
1.09572
1.08822
1.08062
1.07292
1.0651
1.05716
1.04909
1.04088
1.03252
1.02398
1.01525
1.00631
0.997137
0.987705
0.977982
0.967935
0.957528
0.946719
0.935469
0.923737
0.911487
0.898693
0.885346
0.871465
0.857105
0.842377
0.827452
0.812575
0.798057
1.52657
1.52009
1.51421
1.50866
1.50309
1.4975
1.49192
1.48633
1.48075
1.47516
1.46958
1.46399
1.45839
1.4528
1.4472
1.4416
1.43599
1.43037
1.42475
1.41913
1.41349
1.40786
1.40221
1.39655
1.39088
1.38521
1.37952
1.37382
1.36811
1.36239
1.35665
1.3509
1.34513
1.33934
1.33354
1.32772
1.32188
1.31601
1.31013
1.30422
1.29829
1.29233
1.28635
1.28034
1.2743
1.26823
1.26213
1.25599
1.24983
1.24362
1.23739
1.23111
1.22479
1.21844
1.21204
1.2056
1.19911
1.19258
1.186
1.17937
1.17268
1.16594
1.15915
1.15229
1.14537
1.13839
1.13135
1.12423
1.11703
1.10976
1.10241
1.09497
1.08743
1.0798
1.07206
1.0642
1.05622
1.04811
1.03985
1.03144
1.02286
1.01408
1.00511
0.9959
0.986445
0.976716
0.966685
0.956325
0.945607
0.934503
0.92299
0.911051
0.89868
0.885891
0.87272
0.859237
0.845552
0.831823
0.818254
0.80509
1.52651
1.52004
1.51417
1.50862
1.50306
1.49747
1.49188
1.48629
1.4807
1.47511
1.46952
1.46392
1.45832
1.45272
1.44711
1.4415
1.43588
1.43026
1.42463
1.41899
1.41335
1.4077
1.40204
1.39638
1.3907
1.38502
1.37932
1.37361
1.36789
1.36216
1.35641
1.35065
1.34488
1.33908
1.33327
1.32744
1.32159
1.31572
1.30983
1.30391
1.29797
1.29201
1.28602
1.28
1.27395
1.26788
1.26177
1.25563
1.24946
1.24325
1.237
1.23072
1.2244
1.21803
1.21163
1.20518
1.19869
1.19215
1.18555
1.17891
1.17222
1.16547
1.15866
1.1518
1.14487
1.13787
1.13081
1.12368
1.11647
1.10918
1.1018
1.09434
1.08678
1.07912
1.07136
1.06348
1.05547
1.04734
1.03906
1.03062
1.02202
1.01323
1.00425
0.995048
0.985612
0.975923
0.965958
0.955699
0.945126
0.934224
0.922982
0.911397
0.899478
0.887253
0.874767
0.862096
0.849345
0.836653
0.824189
0.812149
1.52647
1.52
1.51413
1.50859
1.50303
1.49744
1.49185
1.48626
1.48066
1.47507
1.46947
1.46386
1.45826
1.45265
1.44703
1.44141
1.43579
1.43016
1.42452
1.41888
1.41323
1.40757
1.4019
1.39623
1.39054
1.38485
1.37914
1.37343
1.3677
1.36196
1.3562
1.35043
1.34465
1.33885
1.33303
1.32719
1.32133
1.31546
1.30956
1.30364
1.29769
1.29172
1.28572
1.2797
1.27365
1.26757
1.26145
1.25531
1.24913
1.24292
1.23667
1.23038
1.22405
1.21768
1.21127
1.20482
1.19832
1.19177
1.18518
1.17853
1.17183
1.16507
1.15826
1.15138
1.14445
1.13744
1.13037
1.12323
1.11601
1.10871
1.10132
1.09385
1.08628
1.07861
1.07083
1.06294
1.05493
1.04678
1.0385
1.03006
1.02146
1.01269
1.00373
0.994569
0.985189
0.975578
0.965722
0.955606
0.945221
0.93456
0.923623
0.912416
0.90096
0.889288
0.877452
0.865527
0.85361
0.84182
0.830301
0.819208
1.52643
1.51997
1.51411
1.50857
1.50301
1.49742
1.49183
1.48623
1.48064
1.47504
1.46943
1.46382
1.45821
1.45259
1.44697
1.44134
1.43571
1.43007
1.42443
1.41878
1.41312
1.40745
1.40178
1.3961
1.3904
1.3847
1.37899
1.37327
1.36753
1.36178
1.35602
1.35024
1.34445
1.33864
1.33282
1.32697
1.32111
1.31523
1.30932
1.3034
1.29744
1.29147
1.28547
1.27944
1.27338
1.2673
1.26118
1.25503
1.24885
1.24263
1.23638
1.23009
1.22376
1.21739
1.21097
1.20452
1.19801
1.19146
1.18486
1.17821
1.17151
1.16475
1.15793
1.15105
1.14411
1.13711
1.13003
1.12288
1.11566
1.10835
1.10097
1.09349
1.08592
1.07825
1.07047
1.06258
1.05458
1.04644
1.03817
1.02976
1.02119
1.01245
1.00354
0.994449
0.985156
0.975656
0.96594
0.956001
0.945834
0.935441
0.924828
0.914011
0.903014
0.891876
0.880651
0.869407
0.858234
0.847236
0.836531
0.826245
1.52641
1.51996
1.51409
1.50856
1.503
1.49741
1.49182
1.48622
1.48062
1.47502
1.46941
1.4638
1.45818
1.45255
1.44693
1.44129
1.43565
1.43001
1.42436
1.4187
1.41303
1.40736
1.40168
1.39599
1.39029
1.38458
1.37886
1.37313
1.36739
1.36163
1.35586
1.35008
1.34428
1.33847
1.33264
1.32679
1.32092
1.31503
1.30912
1.30319
1.29724
1.29126
1.28525
1.27922
1.27316
1.26707
1.26095
1.2548
1.24862
1.2424
1.23614
1.22985
1.22352
1.21715
1.21073
1.20427
1.19777
1.19122
1.18462
1.17797
1.17127
1.16451
1.15769
1.15081
1.14387
1.13687
1.12979
1.12265
1.11543
1.10813
1.10074
1.09327
1.08571
1.07805
1.07029
1.06241
1.05443
1.04632
1.03808
1.0297
1.02118
1.01251
1.00367
0.994669
0.985489
0.976126
0.966576
0.956837
0.94691
0.936801
0.926523
0.916096
0.905547
0.894918
0.88426
0.873639
0.863132
0.85283
0.842833
0.833243
1.52641
1.51996
1.5141
1.50857
1.50301
1.49742
1.49183
1.48623
1.48063
1.47502
1.4694
1.46379
1.45816
1.45253
1.4469
1.44126
1.43561
1.42996
1.4243
1.41864
1.41297
1.40729
1.4016
1.3959
1.3902
1.38448
1.37876
1.37302
1.36727
1.36151
1.35573
1.34995
1.34414
1.33832
1.33249
1.32663
1.32076
1.31487
1.30896
1.30302
1.29706
1.29108
1.28507
1.27904
1.27298
1.26689
1.26077
1.25462
1.24843
1.24221
1.23596
1.22966
1.22333
1.21696
1.21055
1.20409
1.19759
1.19104
1.18445
1.1778
1.1711
1.16434
1.15753
1.15066
1.14372
1.13673
1.12966
1.12252
1.11531
1.10802
1.10065
1.09319
1.08565
1.07801
1.07027
1.06243
1.05447
1.0464
1.03821
1.02989
1.02144
1.01284
1.0041
0.995209
0.986161
0.976956
0.967591
0.958069
0.948395
0.93858
0.928639
0.918596
0.90848
0.898331
0.888199
0.878144
0.868235
0.85855
0.849172
0.840187
1.52643
1.51998
1.51412
1.50859
1.50303
1.49744
1.49185
1.48625
1.48064
1.47503
1.46941
1.46379
1.45816
1.45253
1.44689
1.44125
1.43559
1.42994
1.42427
1.4186
1.41292
1.40724
1.40154
1.39584
1.39013
1.38441
1.37868
1.37294
1.36718
1.36142
1.35564
1.34984
1.34403
1.33821
1.33237
1.32651
1.32064
1.31474
1.30883
1.30289
1.29693
1.29094
1.28494
1.2789
1.27284
1.26675
1.26063
1.25448
1.24829
1.24207
1.23582
1.22953
1.2232
1.21683
1.21042
1.20397
1.19748
1.19093
1.18434
1.1777
1.17101
1.16426
1.15745
1.15059
1.14367
1.13668
1.12963
1.1225
1.11531
1.10804
1.10069
1.09326
1.08574
1.07813
1.07042
1.06262
1.05471
1.04669
1.03856
1.03031
1.02194
1.01344
1.00481
0.996046
0.987147
0.978114
0.968948
0.959654
0.950241
0.940722
0.931115
0.921445
0.911742
0.902044
0.892399
0.88286
0.873488
0.864351
0.855519
0.847065
1.52647
1.52002
1.51416
1.50863
1.50307
1.49749
1.49189
1.48629
1.48068
1.47506
1.46944
1.46382
1.45818
1.45255
1.4469
1.44125
1.4356
1.42993
1.42426
1.41859
1.4129
1.40721
1.40151
1.39581
1.39009
1.38436
1.37863
1.37288
1.36712
1.36135
1.35557
1.34977
1.34396
1.33813
1.33229
1.32643
1.32055
1.31465
1.30873
1.30279
1.29683
1.29085
1.28484
1.2788
1.27274
1.26665
1.26053
1.25438
1.2482
1.24199
1.23574
1.22945
1.22313
1.21676
1.21036
1.20391
1.19742
1.19089
1.18431
1.17767
1.17099
1.16425
1.15746
1.15061
1.14371
1.13673
1.1297
1.1226
1.11542
1.10818
1.10086
1.09345
1.08597
1.0784
1.07074
1.06298
1.05513
1.04718
1.03912
1.03095
1.02268
1.01429
1.00578
0.997157
0.988419
0.979569
0.97061
0.961551
0.952401
0.943177
0.933897
0.924586
0.915275
0.905999
0.896803
0.887734
0.878847
0.8702
0.861852
0.853865
1.52653
1.52008
1.51422
1.50869
1.50314
1.49754
1.49195
1.48634
1.48073
1.47511
1.46949
1.46386
1.45822
1.45258
1.44693
1.44128
1.43562
1.42995
1.42428
1.41859
1.41291
1.40721
1.40151
1.39579
1.39007
1.38434
1.3786
1.37285
1.36709
1.36131
1.35553
1.34973
1.34391
1.33808
1.33223
1.32637
1.32049
1.31459
1.30867
1.30274
1.29677
1.29079
1.28478
1.27875
1.27269
1.2666
1.26048
1.25434
1.24816
1.24195
1.2357
1.22942
1.22311
1.21675
1.21035
1.20392
1.19744
1.19091
1.18434
1.17772
1.17105
1.16433
1.15756
1.15072
1.14383
1.13689
1.12987
1.1228
1.11565
1.10844
1.10115
1.09379
1.08634
1.07882
1.07121
1.06352
1.05573
1.04785
1.03988
1.0318
1.02363
1.01536
1.00699
0.998518
0.989951
0.98129
0.972544
0.963722
0.954835
0.9459
0.936936
0.927969
0.919028
0.910146
0.901364
0.892724
0.884275
0.876067
0.86815
0.860578
1.52662
1.52016
1.5143
1.50877
1.50322
1.49762
1.49202
1.48642
1.4808
1.47518
1.46956
1.46392
1.45828
1.45264
1.44698
1.44132
1.43566
1.42999
1.42431
1.41862
1.41293
1.40723
1.40152
1.39581
1.39008
1.38435
1.3786
1.37285
1.36708
1.36131
1.35552
1.34971
1.3439
1.33806
1.33222
1.32635
1.32047
1.31457
1.30865
1.30272
1.29675
1.29077
1.28477
1.27873
1.27268
1.26659
1.26048
1.25434
1.24817
1.24196
1.23572
1.22945
1.22314
1.2168
1.21041
1.20398
1.19752
1.191
1.18445
1.17784
1.17119
1.16449
1.15773
1.15092
1.14406
1.13713
1.13015
1.1231
1.11599
1.10881
1.10157
1.09425
1.08685
1.07939
1.07184
1.06421
1.0565
1.0487
1.04082
1.03285
1.02479
1.01665
1.00842
1.00011
0.991715
0.983249
0.974718
0.966131
0.957503
0.948849
0.940191
0.931551
0.922958
0.914443
0.906042
0.897794
0.889742
0.881929
0.874398
0.867195
1.52673
1.52027
1.51441
1.50888
1.50332
1.49772
1.49212
1.48651
1.48089
1.47527
1.46964
1.464
1.45836
1.45271
1.44706
1.44139
1.43572
1.43005
1.42437
1.41868
1.41298
1.40728
1.40157
1.39585
1.39012
1.38438
1.37863
1.37288
1.36711
1.36133
1.35554
1.34973
1.34391
1.33808
1.33223
1.32637
1.32049
1.31459
1.30867
1.30273
1.29677
1.29079
1.28479
1.27876
1.27271
1.26663
1.26052
1.25439
1.24822
1.24203
1.2358
1.22953
1.22323
1.2169
1.21052
1.20411
1.19766
1.19116
1.18462
1.17803
1.1714
1.16472
1.15799
1.1512
1.14437
1.13747
1.13052
1.12351
1.11644
1.1093
1.1021
1.09483
1.0875
1.08009
1.07261
1.06506
1.05743
1.04972
1.04194
1.03408
1.02614
1.01813
1.01005
1.0019
0.993687
0.985417
0.9771
0.968747
0.960371
0.95199
0.943623
0.935293
0.927027
0.918853
0.910804
0.902915
0.895223
0.887766
0.880582
0.87371
1.52686
1.5204
1.51453
1.509
1.50344
1.49784
1.49224
1.48663
1.48101
1.47538
1.46975
1.46411
1.45846
1.45281
1.44715
1.44148
1.43581
1.43013
1.42445
1.41876
1.41306
1.40735
1.40163
1.39591
1.39018
1.38444
1.37869
1.37293
1.36716
1.36138
1.35559
1.34978
1.34396
1.33813
1.33228
1.32642
1.32054
1.31464
1.30872
1.30279
1.29683
1.29086
1.28486
1.27883
1.27279
1.26671
1.26061
1.25448
1.24833
1.24214
1.23592
1.22967
1.22338
1.21706
1.2107
1.2043
1.19786
1.19138
1.18486
1.1783
1.17169
1.16503
1.15833
1.15157
1.14477
1.13791
1.13099
1.12402
1.11699
1.1099
1.10275
1.09554
1.08827
1.08093
1.07352
1.06605
1.0585
1.05089
1.04322
1.03547
1.02766
1.01979
1.01186
1.00388
0.995842
0.987768
0.979663
0.971538
0.963408
0.955289
0.9472
0.939163
0.931202
0.923345
0.91562
0.90806
0.900696
0.893561
0.886691
0.880115
1.52702
1.52055
1.51468
1.50915
1.50358
1.49798
1.49237
1.48676
1.48114
1.47551
1.46987
1.46423
1.45858
1.45293
1.44726
1.4416
1.43592
1.43024
1.42455
1.41886
1.41315
1.40744
1.40173
1.396
1.39027
1.38453
1.37878
1.37301
1.36724
1.36146
1.35567
1.34986
1.34404
1.33821
1.33236
1.3265
1.32062
1.31473
1.30881
1.30288
1.29693
1.29096
1.28496
1.27895
1.2729
1.26684
1.26075
1.25463
1.24848
1.2423
1.23609
1.22985
1.22358
1.21727
1.21093
1.20455
1.19813
1.19167
1.18517
1.17863
1.17205
1.16542
1.15874
1.15202
1.14525
1.13843
1.13155
1.12463
1.11765
1.11061
1.10352
1.09637
1.08916
1.08189
1.07456
1.06717
1.05972
1.05221
1.04464
1.03702
1.02934
1.02161
1.01383
1.00601
0.998159
0.990279
0.982381
0.974479
0.966585
0.958717
0.950892
0.943131
0.935457
0.927893
0.920468
0.913208
0.906143
0.899302
0.892713
0.886405
1.5272
1.52073
1.51485
1.50931
1.50375
1.49814
1.49253
1.48692
1.48129
1.47566
1.47002
1.46438
1.45872
1.45307
1.4474
1.44173
1.43605
1.43037
1.42468
1.41898
1.41328
1.40756
1.40185
1.39612
1.39038
1.38464
1.37889
1.37313
1.36735
1.36157
1.35578
1.34997
1.34415
1.33832
1.33248
1.32662
1.32074
1.31485
1.30894
1.30301
1.29706
1.2911
1.28511
1.2791
1.27306
1.26701
1.26092
1.25481
1.24868
1.24251
1.23632
1.23009
1.22383
1.21754
1.21122
1.20486
1.19846
1.19202
1.18555
1.17903
1.17248
1.16588
1.15924
1.15255
1.14582
1.13904
1.13221
1.12533
1.1184
1.11142
1.10438
1.0973
1.09016
1.08297
1.07572
1.06842
1.06107
1.05366
1.04621
1.0387
1.03116
1.02357
1.01595
1.00829
1.00062
0.992925
0.98523
0.977543
0.969878
0.962249
0.954674
0.947172
0.939765
0.932474
0.925325
0.918341
0.911549
0.904974
0.898641
0.892575
1.5274
1.52093
1.51504
1.5095
1.50393
1.49833
1.49271
1.48709
1.48147
1.47583
1.47019
1.46454
1.45889
1.45323
1.44756
1.44189
1.43621
1.43052
1.42483
1.41913
1.41342
1.40771
1.40199
1.39626
1.39052
1.38478
1.37903
1.37327
1.36749
1.36171
1.35592
1.35011
1.3443
1.33847
1.33262
1.32677
1.32089
1.31501
1.3091
1.30318
1.29724
1.29128
1.28529
1.27929
1.27327
1.26722
1.26115
1.25505
1.24892
1.24277
1.23659
1.23038
1.22414
1.21787
1.21156
1.20522
1.19885
1.19244
1.18599
1.1795
1.17298
1.16641
1.1598
1.15316
1.14646
1.13973
1.13294
1.12611
1.11924
1.11232
1.10535
1.09833
1.09127
1.08415
1.07699
1.06978
1.06253
1.05523
1.04789
1.04051
1.0331
1.02566
1.01819
1.0107
1.00319
0.995688
0.988189
0.98071
0.973262
0.96586
0.958522
0.951264
0.944106
0.937069
0.930174
0.923444
0.916901
0.910569
0.904468
0.898621
1.52763
1.52115
1.51526
1.50971
1.50414
1.49853
1.49291
1.48729
1.48166
1.47602
1.47038
1.46473
1.45907
1.45341
1.44774
1.44206
1.43638
1.43069
1.425
1.4193
1.41359
1.40788
1.40216
1.39643
1.39069
1.38495
1.37919
1.37343
1.36766
1.36188
1.35609
1.35028
1.34447
1.33864
1.3328
1.32695
1.32108
1.3152
1.3093
1.30338
1.29745
1.29149
1.28552
1.27952
1.27351
1.26747
1.26141
1.25532
1.24921
1.24308
1.23691
1.23072
1.2245
1.21824
1.21196
1.20564
1.19929
1.19291
1.18649
1.18004
1.17354
1.16701
1.16044
1.15383
1.14718
1.14049
1.13376
1.12699
1.12017
1.11331
1.10641
1.09946
1.09247
1.08544
1.07837
1.07125
1.0641
1.05691
1.04969
1.04243
1.03515
1.02785
1.02053
1.0132
1.00587
0.998546
0.991238
0.983957
0.976717
0.969531
0.962416
0.955386
0.948461
0.941659
0.935
0.928503
0.922189
0.916077
0.910188
0.904539
1.52788
1.52139
1.51549
1.50995
1.50437
1.49875
1.49313
1.48751
1.48187
1.47623
1.47059
1.46493
1.45928
1.45361
1.44794
1.44226
1.43658
1.43089
1.42519
1.41949
1.41378
1.40807
1.40235
1.39662
1.39088
1.38514
1.37939
1.37362
1.36785
1.36208
1.35629
1.35049
1.34467
1.33885
1.33301
1.32716
1.3213
1.31542
1.30953
1.30362
1.29769
1.29174
1.28578
1.2798
1.27379
1.26777
1.26172
1.25565
1.24955
1.24343
1.23728
1.23111
1.2249
1.21867
1.21241
1.20612
1.1998
1.19344
1.18705
1.18063
1.17417
1.16768
1.16115
1.15458
1.14798
1.14134
1.13466
1.12794
1.12118
1.11438
1.10755
1.10068
1.09377
1.08682
1.07983
1.07282
1.06577
1.05869
1.05158
1.04445
1.0373
1.03014
1.02297
1.0158
1.00863
1.00148
0.994358
0.987268
0.980225
0.973244
0.966338
0.959523
0.952815
0.946231
0.939788
0.933506
0.927401
0.921492
0.915795
0.910327
1.52815
1.52166
1.51575
1.5102
1.50462
1.499
1.49337
1.48774
1.48211
1.47647
1.47082
1.46516
1.4595
1.45383
1.44816
1.44248
1.4368
1.43111
1.42541
1.41971
1.414
1.40828
1.40256
1.39683
1.3911
1.38535
1.3796
1.37384
1.36808
1.3623
1.35651
1.35071
1.34491
1.33909
1.33325
1.32741
1.32155
1.31568
1.30979
1.30389
1.29797
1.29203
1.28608
1.28011
1.27411
1.2681
1.26207
1.25601
1.24993
1.24382
1.23769
1.23154
1.22536
1.21915
1.21291
1.20665
1.20035
1.19403
1.18767
1.18128
1.17486
1.16841
1.16192
1.1554
1.14884
1.14225
1.13562
1.12896
1.12227
1.11554
1.10877
1.10197
1.09514
1.08828
1.08139
1.07447
1.06752
1.06055
1.05356
1.04656
1.03954
1.03251
1.02549
1.01847
1.01147
1.00448
0.997533
0.990624
0.98377
0.976981
0.970273
0.963658
0.957152
0.95077
0.944529
0.938444
0.932531
0.926806
0.921285
0.915981
1.52844
1.52194
1.51603
1.51047
1.50488
1.49926
1.49363
1.488
1.48236
1.47672
1.47106
1.46541
1.45974
1.45408
1.4484
1.44272
1.43704
1.43134
1.42565
1.41994
1.41424
1.40852
1.4028
1.39707
1.39134
1.3856
1.37985
1.37409
1.36832
1.36255
1.35676
1.35097
1.34517
1.33935
1.33352
1.32769
1.32183
1.31597
1.31009
1.30419
1.29828
1.29236
1.28641
1.28045
1.27447
1.26847
1.26245
1.25641
1.25035
1.24426
1.23815
1.23202
1.22586
1.21968
1.21346
1.20723
1.20096
1.19467
1.18834
1.18199
1.17561
1.16919
1.16275
1.15627
1.14977
1.14323
1.13666
1.13006
1.12342
1.11676
1.11007
1.10335
1.0966
1.08982
1.08302
1.0762
1.06935
1.06249
1.05562
1.04873
1.04184
1.03495
1.02807
1.0212
1.01435
1.00753
1.00075
0.994012
0.987336
0.98073
0.974206
0.967779
0.961461
0.955267
0.949211
0.943307
0.937571
0.932015
0.926654
0.9215
1.52875
1.52225
1.51633
1.51076
1.50517
1.49954
1.49391
1.48828
1.48263
1.47699
1.47133
1.46567
1.46001
1.45434
1.44866
1.44298
1.43729
1.4316
1.42591
1.4202
1.41449
1.40878
1.40306
1.39733
1.3916
1.38586
1.38011
1.37436
1.36859
1.36282
1.35704
1.35125
1.34545
1.33964
1.33382
1.32799
1.32215
1.31629
1.31042
1.30453
1.29863
1.29272
1.28678
1.28083
1.27487
1.26888
1.26288
1.25685
1.25081
1.24474
1.23865
1.23254
1.22641
1.22025
1.21406
1.20785
1.20162
1.19536
1.18907
1.18275
1.17641
1.17004
1.16364
1.15721
1.15075
1.14427
1.13776
1.13121
1.12465
1.11805
1.11143
1.10479
1.09812
1.09143
1.08472
1.07799
1.07125
1.0645
1.05774
1.05097
1.04421
1.03745
1.03071
1.02398
1.01728
1.01061
1.00399
0.997418
0.99091
0.984475
0.978126
0.971873
0.965731
0.959711
0.953826
0.94809
0.942515
0.937115
0.9319
0.926881
1.52908
1.52257
1.51664
1.51107
1.50547
1.49984
1.49421
1.48857
1.48292
1.47727
1.47162
1.46595
1.46029
1.45462
1.44894
1.44326
1.43757
1.43188
1.42618
1.42048
1.41477
1.40906
1.40334
1.39762
1.39188
1.38615
1.3804
1.37465
1.36889
1.36312
1.35735
1.35156
1.34577
1.33996
1.33415
1.32832
1.32249
1.31664
1.31078
1.3049
1.29901
1.29311
1.28719
1.28125
1.2753
1.26933
1.26334
1.25733
1.25131
1.24526
1.23919
1.2331
1.22699
1.22086
1.2147
1.20852
1.20232
1.19609
1.18984
1.18356
1.17726
1.17093
1.16458
1.1582
1.15179
1.14536
1.13891
1.13243
1.12593
1.1194
1.11285
1.10629
1.0997
1.0931
1.08648
1.07985
1.07321
1.06656
1.05991
1.05326
1.04662
1.03999
1.03338
1.02679
1.02023
1.01372
1.00724
1.00083
0.994481
0.988207
0.982021
0.975932
0.969952
0.964093
0.958367
0.952786
0.94736
0.942101
0.937019
0.932125
1.52943
1.52291
1.51697
1.5114
1.5058
1.50016
1.49452
1.48888
1.48323
1.47758
1.47192
1.46625
1.46059
1.45491
1.44924
1.44355
1.43787
1.43218
1.42648
1.42078
1.41507
1.40936
1.40364
1.39792
1.39219
1.38645
1.38071
1.37496
1.36921
1.36345
1.35768
1.3519
1.34611
1.34031
1.3345
1.32868
1.32286
1.31701
1.31116
1.3053
1.29942
1.29353
1.28762
1.2817
1.27576
1.26981
1.26384
1.25785
1.25184
1.24581
1.23977
1.23371
1.22762
1.22151
1.21539
1.20924
1.20307
1.19688
1.19066
1.18442
1.17816
1.17188
1.16557
1.15924
1.15289
1.14651
1.14012
1.1337
1.12726
1.12081
1.11433
1.10784
1.10134
1.09482
1.08829
1.08175
1.07521
1.06867
1.06213
1.05559
1.04907
1.04257
1.03608
1.02963
1.02321
1.01683
1.0105
1.00424
0.998037
0.991915
0.985881
0.979945
0.974117
0.968408
0.962828
0.957389
0.952099
0.94697
0.942011
0.93723
1.5298
1.52327
1.51732
1.51174
1.50614
1.5005
1.49485
1.4892
1.48355
1.4779
1.47224
1.46657
1.4609
1.45523
1.44955
1.44387
1.43818
1.43249
1.42679
1.42109
1.41539
1.40968
1.40396
1.39824
1.39251
1.38678
1.38105
1.3753
1.36955
1.36379
1.35803
1.35225
1.34647
1.34068
1.33488
1.32907
1.32325
1.31742
1.31158
1.30572
1.29986
1.29398
1.28808
1.28218
1.27625
1.27032
1.26436
1.2584
1.25241
1.24641
1.24038
1.23434
1.22829
1.22221
1.21611
1.20999
1.20386
1.1977
1.19152
1.18532
1.1791
1.17286
1.1666
1.16032
1.15403
1.14771
1.14137
1.13501
1.12864
1.12226
1.11585
1.10944
1.10302
1.09658
1.09014
1.0837
1.07726
1.07082
1.06438
1.05796
1.05155
1.04517
1.0388
1.03248
1.02619
1.01995
1.01376
1.00763
1.00157
0.995591
0.989699
0.983905
0.978218
0.972648
0.967203
0.961895
0.956731
0.951721
0.946874
0.942196
1.53018
1.52364
1.51769
1.5121
1.50649
1.50084
1.4952
1.48955
1.48389
1.47823
1.47257
1.4669
1.46123
1.45556
1.44988
1.4442
1.43851
1.43282
1.42712
1.42142
1.41572
1.41001
1.4043
1.39858
1.39286
1.38713
1.3814
1.37566
1.36991
1.36416
1.3584
1.35263
1.34686
1.34107
1.33528
1.32948
1.32367
1.31785
1.31202
1.30617
1.30032
1.29445
1.28858
1.28268
1.27678
1.27086
1.26492
1.25898
1.25301
1.24703
1.24103
1.23502
1.22899
1.22294
1.21687
1.21079
1.20468
1.19856
1.19242
1.18626
1.18009
1.17389
1.16768
1.16145
1.15521
1.14894
1.14267
1.13637
1.13007
1.12375
1.11742
1.11108
1.10474
1.09839
1.09204
1.08568
1.07934
1.07299
1.06666
1.06035
1.05405
1.04778
1.04154
1.03533
1.02917
1.02305
1.01699
1.011
1.00507
0.999225
0.993467
0.987806
0.98225
0.976808
0.971488
0.9663
0.961252
0.956351
0.951606
0.947022
1.53057
1.52403
1.51807
1.51247
1.50686
1.50121
1.49555
1.4899
1.48424
1.47858
1.47292
1.46725
1.46158
1.4559
1.45022
1.44454
1.43885
1.43316
1.42747