/*--------------------------------*- C++ -*----------------------------------*\
| =========                 |                                                 |
| \\      /  F ield         | OpenFOAM: The Open Source CFD Toolbox           |
|  \\    /   O peration     | Version:  2406                                  |
|   \\  /    A nd           | Website:  www.openfoam.com                      |
|    \\/     M anipulation  |                                                 |
\*---------------------------------------------------------------------------*/
FoamFile
{
    version     2.0;
    format      ascii;
    arch        "LSB;label=32;scalar=64";
    class       volScalarField;
    location    "39";
    object      p;
}
// * * * * * * * * * * * * * * * * * * * * * * * * * * * * * * * * * * * * * //

dimensions      [0 2 -2 0 0 0 0];

internalField   nonuniform List<scalar> 
1800
(
0.239439
0.234294
0.227428
0.219757
0.211149
0.201448
0.190551
0.178206
0.164093
0.146962
0.243472
0.235904
0.227734
0.21988
0.211356
0.201764
0.191131
0.179424
0.166585
0.153073
0.247267
0.238037
0.228891
0.221133
0.213062
0.204016
0.194224
0.18405
0.173978
0.165047
0.251504
0.241634
0.231952
0.224327
0.216822
0.20857
0.199913
0.191422
0.183632
0.177232
0.256124
0.246045
0.236192
0.228793
0.22187
0.214448
0.206892
0.199815
0.19365
0.188761
0.26042
0.250342
0.240656
0.233604
0.227203
0.220492
0.213835
0.207795
0.202686
0.198669
0.263594
0.253733
0.244504
0.237841
0.231807
0.225595
0.219567
0.214185
0.20966
0.206053
0.264997
0.255782
0.247254
0.240856
0.234946
0.228985
0.223309
0.218254
0.213955
0.210451
0.264074
0.256443
0.248843
0.24244
0.236368
0.230411
0.224822
0.219819
0.215499
0.211912
0.260794
0.255464
0.249026
0.242703
0.236511
0.230503
0.224869
0.219778
0.215335
0.211616
0.164786
0.16445
0.164265
0.164404
0.164864
0.165636
0.166731
0.168171
0.169987
0.172214
0.174886
0.178038
0.181696
0.18588
0.190594
0.195826
0.201537
0.207661
0.214096
0.220702
0.227298
0.233664
0.239544
0.244647
0.248663
0.251255
0.25207
0.250758
0.246982
0.240436
0.23087
0.218124
0.202173
0.183181
0.161545
0.16516
0.164819
0.164676
0.164855
0.165324
0.166075
0.16713
0.168519
0.170272
0.172424
0.17501
0.178063
0.181608
0.185667
0.190245
0.195331
0.200891
0.206862
0.213142
0.219597
0.226049
0.232279
0.238032
0.243025
0.246932
0.249409
0.25011
0.248681
0.244781
0.238095
0.228362
0.215407
0.199194
0.179881
0.157889
0.165291
0.16491
0.164773
0.164972
0.16543
0.166142
0.167138
0.168452
0.170119
0.172173
0.17465
0.177582
0.180998
0.18492
0.18936
0.194309
0.199735
0.205576
0.211732
0.218068
0.224411
0.230539
0.236186
0.241058
0.244836
0.247174
0.247715
0.2461
0.241969
0.234985
0.224851
0.211347
0.19439
0.174115
0.15098
0.164811
0.164408
0.164277
0.164486
0.164929
0.165605
0.166549
0.167797
0.169388
0.171356
0.173739
0.176571
0.179884
0.183705
0.188046
0.192901
0.198239
0.204001
0.210086
0.216348
0.222603
0.22863
0.234162
0.238898
0.242509
0.244646
0.244939
0.243013
0.238481
0.230957
0.22007
0.205504
0.187076
0.164859
0.139398
0.163512
0.163189
0.163153
0.16343
0.163909
0.164596
0.165533
0.16676
0.168317
0.170241
0.172573
0.175349
0.178607
0.182376
0.186669
0.191473
0.19676
0.202465
0.208488
0.214679
0.22085
0.226766
0.232154
0.236709
0.240097
0.241962
0.241928
0.239592
0.234526
0.226263
0.214308
0.198158
0.177415
0.151937
0.122401
0.161248
0.161205
0.161466
0.161962
0.162593
0.163385
0.164394
0.165668
0.167254
0.169195
0.171528
0.174299
0.177547
0.181306
0.185589
0.190391
0.195676
0.201374
0.207373
0.213517
0.219609
0.225411
0.230648
0.235015
0.23818
0.239787
0.239449
0.236739
0.231163
0.222147
0.209007
0.190963
0.167211
0.137074
0.100976
0.157856
0.158483
0.159422
0.160393
0.161341
0.162347
0.163501
0.164874
0.166526
0.168514
0.170891
0.17371
0.177015
0.180838
0.185192
0.190065
0.195414
0.201159
0.20718
0.213314
0.219358
0.225077
0.230198
0.23443
0.237452
0.238921
0.238449
0.235586
0.229764
0.220254
0.206093
0.186089
0.158865
0.123007
0.0781919
0.152616
0.155004
0.157388
0.159141
0.16053
0.161817
0.163146
0.16463
0.166374
0.168459
0.170947
0.17389
0.177335
0.181312
0.185828
0.19086
0.196355
0.202218
0.208321
0.214493
0.220536
0.226218
0.23129
0.235482
0.238507
0.240052
0.23976
0.237179
0.231692
0.222387
0.207877
0.186117
0.154217
0.109372
0.0496002
0.142153
0.15032
0.155848
0.158564
0.160368
0.161959
0.163479
0.165096
0.166989
0.16926
0.171964
0.175146
0.178846
0.183089
0.187872
0.193158
0.198874
0.204914
0.211137
0.217376
0.223439
0.229118
0.234193
0.238436
0.241615
0.243479
0.243738
0.24201
0.237731
0.229967
0.21705
0.195912
0.160441
0.101113
0.00034775
0.125102
0.144749
0.154967
0.158467
0.160605
0.162668
0.164572
0.166474
0.168651
0.17125
0.174316
0.177874
0.181953
0.186565
0.191692
0.19728
0.203238
0.209449
0.215769
0.222038
0.228085
0.233732
0.238803
0.243129
0.246542
0.248877
0.249948
0.249518
0.247223
0.24244
0.233978
0.219394
0.192594
0.137316
-0.00515053
0.134613
0.146853
0.156473
0.159874
0.162024
0.164453
0.166853
0.169228
0.171861
0.174927
0.178468
0.18249
0.187004
0.192005
0.197458
0.203295
0.209413
0.215691
0.221991
0.228171
0.234086
0.239598
0.244582
0.248923
0.252528
0.255313
0.257201
0.258105
0.257903
0.256394
0.253225
0.247783
0.23867
0.22211
0.188761
0.146194
0.152201
0.159418
0.1631
0.16555
0.168235
0.17108
0.173993
0.177146
0.180694
0.184683
0.189115
0.193979
0.199254
0.20489
0.210807
0.216902
0.223057
0.229149
0.235059
0.240676
0.245902
0.250657
0.254879
0.258527
0.261581
0.26404
0.265914
0.267225
0.267994
0.268227
0.267901
0.266753
0.264325
0.259161
0.160277
0.161882
0.16604
0.169285
0.171823
0.174562
0.177628
0.180908
0.184437
0.18831
0.192573
0.197222
0.202234
0.207568
0.213161
0.21893
0.224774
0.230591
0.236278
0.241742
0.246906
0.251705
0.256097
0.260054
0.263571
0.266661
0.269355
0.271704
0.27377
0.275634
0.277376
0.279054
0.280608
0.282149
0.282391
0.173433
0.173213
0.175305
0.177747
0.180095
0.182724
0.18577
0.189138
0.192789
0.196755
0.201061
0.205696
0.210622
0.215784
0.221112
0.226523
0.231931
0.237247
0.242395
0.247308
0.251934
0.256237
0.260197
0.263808
0.267078
0.270031
0.272702
0.275138
0.277398
0.27955
0.281657
0.283752
0.285813
0.288008
0.289525
0.185642
0.184684
0.185448
0.187011
0.188944
0.191299
0.194117
0.197323
0.200852
0.204692
0.208837
0.21326
0.217912
0.222729
0.227641
0.232574
0.237454
0.242215
0.2468
0.251164
0.255275
0.259114
0.262671
0.265949
0.268958
0.271716
0.27425
0.276591
0.278779
0.280856
0.282862
0.284813
0.286711
0.288694
0.290278
0.195918
0.194583
0.194524
0.195357
0.196797
0.198766
0.201231
0.204123
0.207374
0.210943
0.214798
0.218894
0.223177
0.227581
0.23204
0.236493
0.240879
0.245149
0.249261
0.253186
0.256901
0.260393
0.263657
0.266694
0.26951
0.272114
0.274521
0.276747
0.278814
0.280746
0.282566
0.284284
0.285905
0.287496
0.288754
0.203424
0.201835
0.201254
0.201527
0.202491
0.204045
0.206123
0.208657
0.211579
0.214834
0.21837
0.222133
0.226064
0.230102
0.234187
0.238267
0.242292
0.246224
0.250028
0.253681
0.257163
0.260463
0.263572
0.266488
0.269211
0.271744
0.274091
0.27626
0.278259
0.280101
0.281797
0.283348
0.28474
0.28596
0.286814
0.207777
0.205975
0.205041
0.204912
0.205491
0.206693
0.208445
0.210678
0.213324
0.216321
0.219609
0.223127
0.226817
0.230619
0.23448
0.238351
0.242191
0.245961
0.249631
0.253176
0.256577
0.25982
0.262893
0.26579
0.268508
0.271044
0.273401
0.275578
0.277581
0.279413
0.281073
0.282549
0.283797
0.284737
0.285252
0.209104
0.207113
0.20594
0.205552
0.205882
0.20686
0.208414
0.210474
0.212971
0.215839
0.219012
0.222428
0.226027
0.229752
0.233551
0.237377
0.241186
0.244943
0.248614
0.252174
0.2556
0.258877
0.261992
0.264936
0.267703
0.270292
0.272701
0.274933
0.276989
0.27887
0.280569
0.282057
0.283262
0.28406
0.284372
0.208673
0.206541
0.205223
0.204694
0.204902
0.205783
0.207263
0.20927
0.211731
0.214577
0.217738
0.221153
0.224759
0.228501
0.232327
0.236188
0.240041
0.243847
0.247574
0.251194
0.254683
0.258023
0.261202
0.264209
0.267038
0.269688
0.272157
0.274451
0.276572
0.278523
0.280294
0.28185
0.283102
0.28389
0.284141
0.137919
0.113176
0.0883104
0.0642568
0.0417237
0.0211634
0.00284311
-0.0131102
-0.0267014
-0.0380357
0.13393
0.108985
0.0841588
0.0604072
0.0383785
0.0184648
0.000853956
-0.01441
-0.0273809
-0.0381861
0.125829
0.0999326
0.07473
0.0512305
0.029877
0.0108461
-0.00575472
-0.0199459
-0.0318658
-0.0417058
0.111792
0.083969
0.0580324
0.0349401
0.0146313
-0.00304972
-0.0181328
-0.0307378
-0.0411082
-0.0495051
0.0903665
0.0594411
0.0329567
0.0111338
-0.00728276
-0.0228469
-0.0356622
-0.0460085
-0.0542919
-0.0608085
0.0606737
0.0244815
-0.00173453
-0.0205346
-0.0355844
-0.0478001
-0.0572744
-0.0645722
-0.070287
-0.0746337
0.0233963
-0.0213066
-0.0455823
-0.0590255
-0.0688335
-0.0759164
-0.0806218
-0.0840822
-0.0870017
-0.0892701
-0.0288567
-0.0790296
-0.0941015
-0.0984087
-0.100827
-0.101081
-0.100207
-0.0999384
-0.100801
-0.102054
-0.127537
-0.154213
-0.139049
-0.127862
-0.121026
-0.114782
-0.109952
-0.10772
-0.108255
-0.110861
-0.254009
-0.217199
-0.165627
-0.143617
-0.130156
-0.119263
-0.112094
-0.10896
-0.109369
-0.113452
-0.0472814
-0.0546404
-0.0603314
-0.0645776
-0.067594
-0.0695759
-0.0706937
-0.0710921
-0.0708938
-0.0702014
-0.0691007
-0.067663
-0.0659483
-0.0640076
-0.0618842
-0.0596159
-0.0572354
-0.0547712
-0.0522488
-0.0496902
-0.0471151
-0.0445405
-0.0419815
-0.0394509
-0.0369598
-0.0345174
-0.0321314
-0.0298079
-0.0275518
-0.0253667
-0.023255
-0.0212183
-0.0192575
-0.0173724
-0.0155626
-0.0469988
-0.0540144
-0.0594439
-0.0635039
-0.0664005
-0.0683156
-0.0694044
-0.0698002
-0.0696171
-0.0689513
-0.0678838
-0.0664829
-0.0648066
-0.0629049
-0.0608209
-0.058592
-0.0562509
-0.0538263
-0.0513436
-0.0488249
-0.0462899
-0.0437557
-0.0412372
-0.0387472
-0.0362966
-0.0338945
-0.0315484
-0.0292642
-0.0270463
-0.0248983
-0.0228222
-0.0208196
-0.0188908
-0.0170359
-0.0152542
-0.0496552
-0.0559082
-0.0606793
-0.0641987
-0.066676
-0.0682764
-0.0691312
-0.0693547
-0.0690472
-0.0682934
-0.0671639
-0.0657192
-0.0640121
-0.0620889
-0.0599906
-0.0577531
-0.0554083
-0.0529845
-0.0505068
-0.047997
-0.0454746
-0.0429565
-0.0404574
-0.03799
-0.035565
-0.0331913
-0.0308757
-0.0286238
-0.0264396
-0.024326
-0.0222848
-0.0203167
-0.0184221
-0.0166003
-0.0148506
-0.0561279
-0.061153
-0.0648163
-0.0674021
-0.0691404
-0.0701673
-0.0705736
-0.0704463
-0.0698665
-0.0688998
-0.0675989
-0.0660109
-0.0641797
-0.0621459
-0.059947
-0.057617
-0.0551872
-0.0526857
-0.0501376
-0.0475649
-0.0449872
-0.0424217
-0.0398832
-0.0373848
-0.0349372
-0.032549
-0.0302271
-0.0279764
-0.0258001
-0.0237002
-0.0216777
-0.0197325
-0.017864
-0.016071
-0.0143517
-0.0656915
-0.0690488
-0.0711836
-0.0725105
-0.0732856
-0.0735721
-0.0733957
-0.0728136
-0.0718846
-0.0706459
-0.0691235
-0.0673446
-0.0653404
-0.0631431
-0.0607854
-0.0582993
-0.0557159
-0.0530642
-0.0503706
-0.0476586
-0.0449489
-0.0422603
-0.0396093
-0.03701
-0.0344747
-0.032013
-0.0296319
-0.0273364
-0.0251293
-0.0230116
-0.0209832
-0.0190427
-0.0171882
-0.0154171
-0.0137267
-0.0774837
-0.0787533
-0.0789474
-0.0787787
-0.0784922
-0.0779802
-0.0771733
-0.0761068
-0.0748155
-0.0733004
-0.0715552
-0.0695843
-0.0674021
-0.0650291
-0.0624907
-0.0598164
-0.0570373
-0.0541842
-0.0512857
-0.0483679
-0.0454543
-0.0425667
-0.0397249
-0.0369467
-0.0342473
-0.0316391
-0.0291315
-0.0267304
-0.0244392
-0.0222588
-0.0201879
-0.0182242
-0.0163639
-0.0146029
-0.0129366
-0.0900749
-0.0888979
-0.0868131
-0.0850952
-0.0838309
-0.082603
-0.0812419
-0.0797675
-0.0781799
-0.0764395
-0.0745139
-0.0723895
-0.0700637
-0.0675426
-0.064842
-0.0619873
-0.0590091
-0.0559398
-0.0528102
-0.0496495
-0.0464848
-0.0433423
-0.0402466
-0.037221
-0.0342863
-0.0314598
-0.0287552
-0.0261821
-0.023746
-0.0214489
-0.0192899
-0.0172659
-0.0153721
-0.0136026
-0.0119507
-0.101346
-0.0974025
-0.0930135
-0.0901196
-0.0882047
-0.0864872
-0.0847883
-0.0831084
-0.081379
-0.079522
-0.0774984
-0.0752904
-0.0728838
-0.0702711
-0.0674586
-0.0644664
-0.0613236
-0.0580625
-0.0547153
-0.0513135
-0.0478878
-0.044469
-0.0410877
-0.0377739
-0.0345554
-0.0314567
-0.0284981
-0.0256949
-0.0230571
-0.0205903
-0.0182955
-0.0161705
-0.0142104
-0.012408
-0.0107551
-0.11018
-0.102699
-0.0962617
-0.0929955
-0.0909212
-0.089013
-0.0872556
-0.0856124
-0.08392
-0.0820757
-0.080054
-0.0778444
-0.0754284
-0.0727907
-0.0699305
-0.0668633
-0.0636145
-0.0602145
-0.056695
-0.0530884
-0.0494279
-0.0457486
-0.0420868
-0.0384793
-0.0349616
-0.0315666
-0.0283224
-0.0252518
-0.0223717
-0.0196931
-0.0172216
-0.0149577
-0.0128981
-0.0110361
-0.00936249
-0.115623
-0.104689
-0.0971198
-0.0941439
-0.0922177
-0.0903624
-0.0887351
-0.0872441
-0.0856692
-0.0839094
-0.0819536
-0.079797
-0.0774205
-0.074807
-0.0719524
-0.0688677
-0.0655734
-0.0620954
-0.0584626
-0.0547065
-0.0508614
-0.0469652
-0.0430587
-0.0391846
-0.0353857
-0.0317025
-0.0281714
-0.0248236
-0.0216841
-0.018771
-0.0160963
-0.0136656
-0.0114789
-0.00953189
-0.00781618
-0.119
-0.10507
-0.097519
-0.0946268
-0.0927661
-0.091098
-0.0896496
-0.0882748
-0.0867849
-0.085103
-0.0832183
-0.0811212
-0.0787937
-0.0762202
-0.0733963
-0.0703279
-0.0670297
-0.0635213
-0.0598274
-0.0559765
-0.0520027
-0.0479448
-0.0438465
-0.0397543
-0.0357162
-0.0317793
-0.0279871
-0.024379
-0.0209879
-0.0178401
-0.0149548
-0.0123442
-0.0100137
-0.00796273
-0.00618552
-0.106509
-0.100697
-0.0965751
-0.0943725
-0.0928044
-0.0914261
-0.0901452
-0.0888399
-0.0873993
-0.0857716
-0.0839388
-0.081886
-0.0795968
-0.0770593
-0.0742686
-0.0712271
-0.0679434
-0.0644315
-0.0607109
-0.0568075
-0.0527532
-0.0485866
-0.0443518
-0.0400973
-0.035874
-0.0317333
-0.0277243
-0.0238928
-0.020279
-0.0169168
-0.0138328
-0.0110463
-0.00856886
-0.00640508
-0.00455317
-0.0985564
-0.0968495
-0.0950574
-0.0936505
-0.0924674
-0.0913499
-0.0902047
-0.0889581
-0.0875572
-0.0859703
-0.0841756
-0.0821561
-0.0798971
-0.0773893
-0.0746276
-0.071612
-0.0683469
-0.0648426
-0.0611149
-0.0571869
-0.0530886
-0.0488568
-0.0445348
-0.0401711
-0.0358177
-0.0315282
-0.0273552
-0.0233489
-0.0195554
-0.0160146
-0.0127599
-0.00981696
-0.00720361
-0.00492998
-0.00299916
-0.0943735
-0.0939625
-0.0932575
-0.0924625
-0.0916449
-0.0907661
-0.0897708
-0.0886193
-0.0872839
-0.0857443
-0.0839863
-0.0819974
-0.0797663
-0.0772844
-0.0745474
-0.0715533
-0.0683058
-0.0648125
-0.0610878
-0.0571527
-0.0530355
-0.048771
-0.0444011
-0.0399732
-0.0355393
-0.0311533
-0.0268696
-0.0227409
-0.0188171
-0.0151426
-0.0117559
-0.0086877
-0.00596141
-0.00359223
-0.00158808
-0.0916562
-0.0917441
-0.0915548
-0.0911302
-0.0905677
-0.0898679
-0.0890012
-0.0879431
-0.0866764
-0.0851878
-0.0834668
-0.0815049
-0.0792956
-0.076834
-0.0741157
-0.071139
-0.0679067
-0.0644263
-0.0607103
-0.0567787
-0.0526586
-0.0483839
-0.0439945
-0.0395374
-0.0350629
-0.0306252
-0.0262783
-0.0220764
-0.0180709
-0.0143097
-0.0108335
-0.00767761
-0.00486857
-0.00242662
-0.000362898
-0.0898739
-0.0901712
-0.0902132
-0.0899658
-0.0895352
-0.0889341
-0.0881426
-0.0871425
-0.0859207
-0.0844669
-0.0827729
-0.0808321
-0.0786388
-0.0761888
-0.073479
-0.0705092
-0.0672825
-0.063806
-0.0600923
-0.0561633
-0.0520475
-0.0477764
-0.043388
-0.0389268
-0.0344422
-0.0299872
-0.0256157
-0.0213814
-0.017337
-0.0135308
-0.0100058
-0.00679876
-0.00393951
-0.00145037
0.000653637
-0.0888806
-0.0892325
-0.0893523
-0.0891722
-0.0887901
-0.0882225
-0.0874539
-0.0864696
-0.0852574
-0.0838079
-0.0821136
-0.0801689
-0.0779688
-0.0755103
-0.0727916
-0.0698135
-0.0665807
-0.0631012
-0.0593893
-0.0554646
-0.051353
-0.0470858
-0.0427013
-0.0382415
-0.0337579
-0.0293046
-0.0249342
-0.0206969
-0.016645
-0.0128262
-0.00928485
-0.00605736
-0.00317618
-0.000663971
0.00146094
-0.0885391
-0.0888669
-0.0889948
-0.0888367
-0.0884639
-0.0878923
-0.0871117
-0.08611
-0.0848774
-0.0834048
-0.0816853
-0.0797134
-0.077485
-0.0749975
-0.0722502
-0.0692454
-0.0659876
-0.0624865
-0.0587565
-0.0548176
-0.0506956
-0.0464235
-0.0420387
-0.0375848
-0.033109
-0.0286623
-0.0242945
-0.0200592
-0.0160083
-0.0121923
-0.00865131
-0.00542304
-0.00253756
-2.08833e-05
0.00211083
-0.0886746
-0.088966
-0.0890999
-0.0889664
-0.088598
-0.08801
-0.0872011
-0.0861646
-0.0848932
-0.0833798
-0.0816176
-0.0796011
-0.0773263
-0.074791
-0.0719951
-0.0689414
-0.065636
-0.0620893
-0.0583165
-0.0543385
-0.0501819
-0.0458791
-0.0414684
-0.0369927
-0.0324993
-0.0280383
-0.0236615
-0.0194209
-0.0153672
-0.0115465
-0.00800096
-0.00476897
-0.00188248
0.000634895
0.00276563
-0.0889875
-0.0892731
-0.0894398
-0.0893415
-0.0889827
-0.0883812
-0.0875453
-0.0864756
-0.0851681
-0.0836165
-0.0818144
-0.0797559
-0.0774368
-0.0748545
-0.0720093
-0.0689042
-0.065546
-0.0619459
-0.0581201
-0.0540901
-0.0498831
-0.0455321
-0.0410757
-0.0365578
-0.0320258
-0.0275305
-0.0231239
-0.0188578
-0.0147824
-0.0109447
-0.00738709
-0.00414644
-0.00125308
0.00126968
0.00340393
-0.0138271
-0.0121644
-0.0105728
-0.00904992
-0.00759322
-0.00619888
-0.00486168
-0.00358164
-0.00235515
-0.000997609
-0.0135445
-0.0119052
-0.0103344
-0.00882953
-0.00738771
-0.00600542
-0.00468151
-0.00341944
-0.00221815
-0.000941242
-0.0131714
-0.0115609
-0.0100171
-0.00853756
-0.00711954
-0.00576103
-0.00446257
-0.00323491
-0.00209314
-0.000965319
-0.0127044
-0.0111268
-0.00961652
-0.00817145
-0.00678975
-0.00547071
-0.00421751
-0.00304592
-0.00197685
-0.00103713
-0.0121141
-0.0105761
-0.00910995
-0.00771342
-0.00638515
-0.00512622
-0.00393978
-0.00284649
-0.00185301
-0.00114031
-0.0113604
-0.00986981
-0.0084607
-0.00713004
-0.00587616
-0.00470017
-0.00360384
-0.00261168
-0.00169808
-0.00125406
-0.0104095
-0.00897231
-0.00763298
-0.0063865
-0.0052293
-0.00416115
-0.00317971
-0.00231274
-0.0014902
-0.00134339
-0.00924251
-0.00786081
-0.00660096
-0.00545495
-0.00441589
-0.00348059
-0.00263949
-0.00192419
-0.00121583
-0.0013633
-0.00786649
-0.00653624
-0.00535964
-0.00432502
-0.00342133
-0.00264035
-0.0019665
-0.00142797
-0.000871732
-0.00126923
-0.00632043
-0.00503126
-0.00393393
-0.00301344
-0.0022542
-0.00164354
-0.00115763
-0.000819789
-0.000464583
-0.00102979
-0.00467195
-0.00340846
-0.00237905
-0.00156616
-0.000950832
-0.000514828
-0.000231977
-0.000109157
-4.51217e-06
-0.000638795
-0.00300578
-0.00175081
-0.000772578
-5.25091e-05
0.000430407
0.000697392
0.000777349
0.000680297
0.00049734
-0.000119483
-0.00140747
-0.000145829
0.00079979
0.00144704
0.00181709
0.00193335
0.00182206
0.00151445
0.00103306
0.000478093
5.05264e-05
0.00132896
0.00225836
0.00285413
0.0031359
0.00312654
0.00284956
0.00235199
0.00159103
0.00108725
0.00131718
0.00261616
0.00354072
0.00410411
0.00432209
0.00421641
0.00380552
0.00314649
0.00215399
0.00163617
0.00236469
0.00368116
0.00460719
0.00515181
0.00532793
0.00515309
0.00464224
0.00385313
0.00269196
0.00205928
0.00318991
0.00451724
0.00544596
0.00598011
0.00613119
0.00590951
0.00532905
0.00443874
0.00317182
0.00230886
0.00384455
0.00517641
0.00610407
0.00663313
0.00676793
0.00651827
0.00589103
0.00492607
0.00359513
0.00238039
0.00449849
0.00582731
0.00675132
0.00727305
0.00739761
0.00712945
0.00647404
0.00545813
0.0040809
0.00238788
0.00513795
0.00646619
0.00738805
0.00790642
0.0080262
0.00775097
0.00708004
0.00602388
0.00461671
0.0025184
)
;

boundaryField
{
    inlet
    {
        type            zeroGradient;
    }
    outlet
    {
        type            fixedValue;
        value           uniform 0;
    }
    upperWall
    {
        type            zeroGradient;
    }
    lowerWall
    {
        type            zeroGradient;
    }
    frontAndBack
    {
        type            empty;
    }
}


// ************************************************************************* //
