/*--------------------------------*- C++ -*----------------------------------*\
| =========                 |                                                 |
| \\      /  F ield         | OpenFOAM: The Open Source CFD Toolbox           |
|  \\    /   O peration     | Version:  2406                                  |
|   \\  /    A nd           | Website:  www.openfoam.com                      |
|    \\/     M anipulation  |                                                 |
\*---------------------------------------------------------------------------*/
FoamFile
{
    version     2.0;
    format      ascii;
    arch        "LSB;label=32;scalar=64";
    class       volScalarField;
    location    "23";
    object      p;
}
// * * * * * * * * * * * * * * * * * * * * * * * * * * * * * * * * * * * * * //

dimensions      [0 2 -2 0 0 0 0];

internalField   nonuniform List<scalar> 
1700
(
4.32993
4.25484
4.17703
4.09923
4.0184
3.93389
3.84462
3.74951
3.64805
3.49543
4.34639
4.25948
4.17655
4.09723
4.01567
3.93042
3.84088
3.74577
3.64109
3.51172
4.35569
4.2632
4.17709
4.09749
4.01639
3.93192
3.84422
3.7533
3.6588
3.56075
4.36243
4.26782
4.18017
4.10124
4.0218
3.93984
3.85629
3.77241
3.68959
3.61045
4.36881
4.27326
4.18511
4.10717
4.02974
3.95078
3.87173
3.79433
3.72019
3.6515
4.37401
4.27824
4.19042
4.11345
4.03774
3.96139
3.88598
3.81325
3.74455
3.68132
4.37675
4.28154
4.19475
4.11849
4.04382
3.96922
3.89617
3.82617
3.76026
3.69939
4.37576
4.28241
4.19732
4.1213
4.04684
3.97295
3.90089
3.83187
3.76673
3.70622
4.36807
4.28008
4.1977
4.12157
4.04656
3.97236
3.90001
3.83049
3.76456
3.70299
4.35068
4.27412
4.19593
4.12008
4.04433
3.96927
3.89593
3.82513
3.75765
3.69434
3.3462
3.34707
3.35225
3.36172
3.37369
3.38637
3.3983
3.4084
3.41595
3.42056
3.42211
3.4207
3.41653
3.40991
3.40116
3.39061
3.37857
3.36527
3.35092
3.33564
3.3195
3.30248
3.28446
3.26524
3.24452
3.22183
3.19658
3.16798
3.13506
3.09666
3.05149
2.99826
2.93586
2.86372
2.78211
3.34553
3.34634
3.35107
3.35953
3.37022
3.38161
3.39242
3.40166
3.40865
3.41299
3.41453
3.4133
3.40946
3.40326
3.39497
3.38487
3.37323
3.36027
3.34615
3.33097
3.31478
3.29753
3.2791
3.25928
3.23774
3.21402
3.18754
3.15755
3.12314
3.08323
3.03668
2.98236
2.91936
2.84726
2.76647
3.34029
3.34168
3.34682
3.35528
3.36563
3.37652
3.38682
3.39562
3.40231
3.4065
3.40804
3.40693
3.40332
3.39741
3.38946
3.37971
3.36839
3.3557
3.34179
3.32674
3.31057
3.29322
3.27457
3.25439
3.23234
3.208
3.18076
3.1499
3.11453
3.07362
3.02602
2.97065
2.9066
2.83351
2.7519
3.32925
3.3324
3.3394
3.34929
3.36063
3.3721
3.38267
3.39154
3.39818
3.40228
3.40374
3.40259
3.39898
3.39314
3.3853
3.37572
3.3646
3.35212
3.33842
3.32357
3.30759
3.29041
3.27189
3.25181
3.22985
3.20555
3.17833
3.14743
3.11192
3.07068
3.02243
2.96587
2.89987
2.82395
2.73875
3.31202
3.3185
3.32906
3.34186
3.35532
3.3682
3.37959
3.38883
3.39554
3.39954
3.40082
3.39948
3.39573
3.3898
3.38196
3.37244
3.36146
3.3492
3.33579
3.32128
3.30569
3.28894
3.27093
3.2514
3.23005
3.20642
3.1799
3.14966
3.1147
3.07365
3.02496
2.96685
2.89775
2.81667
2.72452
3.28773
3.29996
3.31635
3.33365
3.35022
3.3651
3.37758
3.38728
3.39402
3.3978
3.39875
3.39708
3.39304
3.38692
3.37899
3.3695
3.35869
3.34671
3.33368
3.31968
3.3047
3.2887
3.27153
3.253
3.23276
3.21039
3.18521
3.15636
3.12263
3.08244
3.0337
2.97401
2.90079
2.81232
2.7091
3.25506
3.2766
3.30216
3.32571
3.34618
3.36334
3.37695
3.38697
3.39352
3.39687
3.39729
3.39511
3.39065
3.38424
3.37618
3.36673
3.35612
3.3445
3.33199
3.31867
3.30454
3.28955
3.27358
3.25643
3.2378
3.21725
3.19409
3.16741
3.13582
3.09745
3.04964
2.98898
2.91152
2.81381
2.69538
3.2062
3.24624
3.28746
3.31943
3.3443
3.36368
3.37811
3.38806
3.39407
3.39665
3.39629
3.39342
3.38842
3.38166
3.37345
3.36406
3.3537
3.34254
3.33069
3.3182
3.30511
3.29137
3.27688
3.26146
3.24486
3.22663
3.20617
3.1825
3.15421
3.11912
3.07404
3.01424
2.93371
2.8259
2.68757
3.11112
3.20518
3.27482
3.31729
3.34628
3.36715
3.38163
3.39082
3.39572
3.39713
3.3957
3.39195
3.3863
3.37913
3.37077
3.36146
3.35142
3.3408
3.3297
3.31819
3.30628
3.29396
3.28114
3.2677
3.25342
3.23795
3.22075
3.20097
3.17729
3.14758
3.10834
3.0538
2.9753
2.8605
2.69539
3.0073
3.18522
3.28053
3.32733
3.35612
3.37567
3.38834
3.39556
3.39856
3.3983
3.39548
3.39065
3.38425
3.37664
3.36813
3.35895
3.34929
3.33927
3.32899
3.31851
3.30786
3.29703
3.28598
3.27463
3.26282
3.25032
3.23675
3.22152
3.2037
3.1818
3.15319
3.1133
3.0552
2.96666
2.80219
3.25156
3.28237
3.33256
3.35986
3.3777
3.39054
3.39858
3.40228
3.4025
3.40004
3.39553
3.38947
3.38225
3.3742
3.36556
3.35653
3.34727
3.33788
3.32845
3.31901
3.30962
3.30026
3.29094
3.28161
3.27222
3.26262
3.25266
3.24206
3.23049
3.21757
3.2029
3.18673
3.17356
3.18438
3.26933
3.38389
3.37055
3.38641
3.39683
3.40376
3.40867
3.41085
3.41015
3.40703
3.40203
3.39566
3.3883
3.38025
3.37175
3.36301
3.35416
3.34531
3.33655
3.32793
3.31949
3.31126
3.30327
3.29552
3.28802
3.28077
3.27374
3.2669
3.26022
3.25374
3.24767
3.24254
3.24014
3.24685
3.28023
3.34914
3.47621
3.44484
3.43776
3.43406
3.43083
3.42765
3.42357
3.41813
3.41145
3.40383
3.39557
3.38693
3.37809
3.36921
3.36041
3.35176
3.34332
3.33515
3.32728
3.31972
3.31252
3.30569
3.29927
3.29328
3.28778
3.28279
3.27836
3.27458
3.27164
3.26987
3.26994
3.27346
3.28478
3.31214
3.34835
3.54365
3.50448
3.48301
3.46798
3.45573
3.44506
3.43501
3.42501
3.41493
3.40485
3.39487
3.3851
3.37561
3.36644
3.35763
3.3492
3.34117
3.33353
3.3263
3.3195
3.31313
3.30723
3.30185
3.29702
3.29281
3.28929
3.28654
3.28468
3.28391
3.28458
3.28721
3.29297
3.30453
3.32603
3.35186
3.59264
3.54963
3.5191
3.4954
3.47569
3.45871
3.44354
3.42962
3.41665
3.40452
3.39316
3.38253
3.37258
3.36327
3.35455
3.34638
3.33872
3.33156
3.32487
3.31865
3.31293
3.30771
3.30306
3.29903
3.29568
3.29309
3.29137
3.29064
3.29108
3.29295
3.29666
3.30294
3.31339
3.33035
3.3499
3.62577
3.58038
3.54406
3.51414
3.48881
3.467
3.44794
3.43105
3.41594
3.40236
3.39009
3.37896
3.36882
3.35955
3.35102
3.34316
3.33587
3.32913
3.32288
3.31711
3.31183
3.30707
3.30288
3.2993
3.29643
3.29434
3.29315
3.29297
3.29395
3.29631
3.30029
3.30632
3.31529
3.32833
3.34252
3.64476
3.59753
3.55745
3.52336
3.49419
3.46913
3.44749
3.42873
3.41236
3.39802
3.38538
3.37417
3.36415
3.35513
3.34694
3.33945
3.33256
3.32619
3.3203
3.31486
3.30987
3.30536
3.30138
3.29799
3.29527
3.29334
3.29229
3.29227
3.29342
3.29588
3.29982
3.30542
3.31299
3.32289
3.33285
3.65116
3.60229
3.55974
3.52305
3.49159
3.46472
3.44181
3.42227
3.40555
3.39119
3.37877
3.36792
3.35836
3.34984
3.34216
3.33515
3.32869
3.3227
3.31712
3.31192
3.3071
3.30269
3.29872
3.29528
3.29246
3.29038
3.2892
3.28905
3.29012
3.29255
3.29644
3.30179
3.3085
3.31621
3.32306
3.64657
3.59605
3.55176
3.51358
3.48107
3.45365
3.43063
3.41136
3.39519
3.38155
3.36996
3.35997
3.35126
3.34352
3.33655
3.33016
3.32423
3.31866
3.31338
3.30837
3.30362
3.29916
3.29504
3.29134
3.28817
3.28569
3.28407
3.28354
3.28434
3.28667
3.29068
3.29629
3.30305
3.30992
3.315
3.63619
3.58407
3.53851
3.49953
3.46673
3.4395
3.41706
3.39865
3.38352
3.37099
3.36052
3.35162
3.3439
3.33707
3.33089
3.32517
3.31978
3.31463
3.30964
3.30479
3.30008
3.29553
3.29119
3.28714
3.28353
3.28052
3.27835
3.27731
3.27774
3.27998
3.28426
3.29054
3.2982
3.3056
3.31038
2.69241
2.59711
2.49918
2.40136
2.30581
2.21411
2.12728
2.04601
1.9708
1.90213
2.67839
2.58547
2.49047
2.39581
2.30337
2.21455
2.13035
2.05148
1.97848
1.91185
2.66344
2.57104
2.47765
2.38531
2.29549
2.20925
2.12745
2.0507
1.97964
1.91483
2.64661
2.55201
2.45848
2.36747
2.27961
2.19542
2.11537
2.03996
1.96988
1.90599
2.6246
2.52525
2.43085
2.34128
2.25556
2.17341
2.09468
2.01971
1.94925
1.88481
2.59584
2.48944
2.39499
2.30816
2.2256
2.14583
2.06813
1.99233
1.91942
1.85165
2.5601
2.44517
2.35367
2.27224
2.19431
2.11758
2.04058
1.96248
1.88411
1.80813
2.51554
2.39306
2.31109
2.23895
2.16751
2.09486
2.0188
1.93768
1.8506
1.75778
2.44772
2.3278
2.26964
2.21197
2.14956
2.08286
2.00963
1.92756
1.83275
1.71054
2.32618
2.25214
2.23795
2.19468
2.14085
2.08061
2.01117
1.93127
1.84127
1.69745
1.84048
1.78627
1.73958
1.70012
1.66724
1.64015
1.61797
1.59986
1.58502
1.57278
1.56255
1.55385
1.54632
1.53964
1.53358
1.52796
1.52265
1.51755
1.51262
1.50781
1.50313
1.4986
1.49428
1.49025
1.48665
1.48364
1.48148
1.48044
1.48086
1.4831
1.48737
1.49365
1.5013
1.50869
1.51346
1.85205
1.7994
1.75387
1.71504
1.68228
1.65483
1.63193
1.61284
1.59689
1.58346
1.57206
1.56225
1.55369
1.54609
1.53923
1.53293
1.52708
1.52156
1.51634
1.51137
1.50666
1.50222
1.49812
1.49443
1.49128
1.4888
1.48718
1.48666
1.48745
1.48978
1.49379
1.49939
1.50614
1.51301
1.51807
1.85685
1.80612
1.76244
1.72512
1.69334
1.66637
1.64348
1.62404
1.60746
1.59325
1.58097
1.57027
1.56084
1.55243
1.54484
1.53791
1.53153
1.5256
1.52007
1.51491
1.51012
1.50573
1.50178
1.49835
1.49555
1.49348
1.49229
1.49215
1.49322
1.49565
1.49953
1.50489
1.51159
1.51929
1.52613
1.84937
1.80092
1.76011
1.72561
1.69622
1.67108
1.64945
1.63075
1.61448
1.60024
1.58772
1.57661
1.5667
1.55776
1.54966
1.54224
1.53541
1.52909
1.52324
1.51784
1.51288
1.5084
1.50444
1.50106
1.49835
1.49642
1.49538
1.49537
1.49651
1.49898
1.50292
1.5085
1.51607
1.52597
1.5359
1.82854
1.78279
1.7463
1.71631
1.69096
1.66916
1.65013
1.6333
1.61826
1.60475
1.59256
1.58151
1.57145
1.56224
1.55378
1.54598
1.53875
1.53204
1.52583
1.5201
1.51485
1.51011
1.50593
1.50237
1.49951
1.49743
1.49624
1.49606
1.49705
1.49941
1.50338
1.50941
1.51838
1.53139
1.54556
1.79351
1.75105
1.72091
1.69748
1.67795
1.66107
1.64598
1.63211
1.61918
1.6071
1.59579
1.58521
1.57531
1.56605
1.55737
1.54924
1.54163
1.5345
1.52784
1.52165
1.51595
1.51076
1.50612
1.5021
1.49876
1.49618
1.49447
1.49374
1.49418
1.49605
1.49976
1.50604
1.51646
1.53341
1.55295
1.74341
1.70545
1.68473
1.67017
1.65821
1.6477
1.63773
1.62776
1.61771
1.60764
1.59768
1.58793
1.57845
1.56931
1.56053
1.55212
1.54412
1.5365
1.5293
1.52251
1.51617
1.51029
1.50492
1.5001
1.4959
1.49239
1.48964
1.48779
1.48703
1.48769
1.49034
1.49608
1.50764
1.52912
1.55491
1.67637
1.64636
1.63993
1.63667
1.63371
1.63066
1.62662
1.62118
1.61448
1.60684
1.59856
1.58991
1.58106
1.57218
1.56338
1.55474
1.54632
1.53816
1.5303
1.52276
1.51557
1.50875
1.50234
1.49638
1.49088
1.4859
1.48148
1.47771
1.47477
1.47301
1.47309
1.47662
1.48793
1.51525
1.55141
1.58642
1.57371
1.58961
1.60016
1.60719
1.61211
1.61426
1.61351
1.61031
1.60526
1.59884
1.59143
1.58334
1.57482
1.56606
1.55721
1.54836
1.5396
1.53099
1.52255
1.51433
1.50634
1.4986
1.49112
1.48387
1.47685
1.47003
1.46336
1.4569
1.45084
1.44573
1.44334
1.45004
1.48339
1.55211
1.45809
1.48786
1.53708
1.56406
1.58173
1.59443
1.60234
1.60592
1.60603
1.60347
1.59888
1.59275
1.58547
1.57737
1.56869
1.55964
1.55037
1.54097
1.53153
1.5221
1.5127
1.50335
1.49403
1.48472
1.47533
1.46574
1.45579
1.44521
1.43366
1.42077
1.40614
1.39002
1.37693
1.38769
1.47241
1.21834
1.39254
1.48614
1.53224
1.56064
1.57993
1.59239
1.59944
1.6023
1.60191
1.59898
1.59406
1.58758
1.57991
1.57135
1.56213
1.55243
1.54239
1.5321
1.52161
1.51096
1.50013
1.48908
1.47773
1.46592
1.45343
1.43987
1.42466
1.40688
1.38502
1.35648
1.31674
1.25887
1.17076
1.00712
1.31935
1.41185
1.48049
1.52241
1.55104
1.57163
1.58588
1.59488
1.59962
1.60089
1.59933
1.59546
1.58972
1.58247
1.57405
1.56469
1.55461
1.54396
1.53283
1.5213
1.50938
1.49705
1.48423
1.47079
1.45651
1.44105
1.42386
1.40409
1.38044
1.35078
1.31162
1.25725
1.17906
1.06483
0.90064
1.4125
1.45214
1.49292
1.52455
1.54913
1.56826
1.58248
1.59224
1.59808
1.60052
1.60002
1.59703
1.59192
1.58507
1.57679
1.56733
1.55692
1.54572
1.53383
1.52133
1.50821
1.49446
1.47996
1.46454
1.44792
1.4297
1.40924
1.38558
1.35731
1.32227
1.27723
1.21758
1.13728
1.02991
0.892369
1.46059
1.48202
1.5074
1.53074
1.55101
1.56797
1.58139
1.59122
1.59761
1.6008
1.60109
1.59878
1.59421
1.5877
1.57956
1.57004
1.55936
1.5477
1.53516
1.5218
1.50764
1.49263
1.47664
1.45949
1.44085
1.42028
1.39712
1.37042
1.33885
1.30048
1.25269
1.19207
1.11474
1.01725
0.899231
1.49287
1.50509
1.52141
1.53858
1.55501
1.56972
1.58205
1.59158
1.59816
1.60179
1.6026
1.6008
1.59664
1.59042
1.5824
1.57284
1.56195
1.54992
1.53685
1.52281
1.5078
1.49177
1.47458
1.45603
1.43578
1.41338
1.38819
1.35931
1.32557
1.28533
1.23657
1.17682
1.10357
1.01504
0.911858
1.51691
1.52345
1.53398
1.54672
1.56007
1.57282
1.58406
1.59315
1.59971
1.60356
1.6047
1.60323
1.59936
1.59333
1.58539
1.57579
1.56475
1.55243
1.53896
1.52441
1.50878
1.49201
1.47396
1.45442
1.43304
1.40938
1.38283
1.35256
1.31754
1.27643
1.22764
1.16941
1.10011
1.01879
0.926241
1.53403
1.53724
1.54424
1.5541
1.56535
1.57672
1.58715
1.59588
1.60237
1.60633
1.60764
1.60636
1.60263
1.59669
1.58875
1.57908
1.56788
1.55535
1.54159
1.52671
1.51068
1.49347
1.47491
1.45481
1.43281
1.40849
1.38122
1.35028
1.3147
1.27337
1.22498
1.16822
1.10193
1.02558
0.939757
1.54503
1.54646
1.55163
1.56005
1.57034
1.58113
1.59131
1.59997
1.60652
1.61056
1.61196
1.61071
1.60698
1.60096
1.59291
1.58306
1.57168
1.55892
1.54496
1.52986
1.51365
1.49627
1.47759
1.45737
1.43531
1.41092
1.38365
1.35273
1.31729
1.27627
1.22852
1.17291
1.10853
1.03493
0.952572
1.55029
1.55113
1.55588
1.56431
1.57494
1.58623
1.59691
1.60601
1.61285
1.61705
1.61844
1.61708
1.61311
1.6068
1.5984
1.58822
1.57651
1.56348
1.5493
1.53408
1.51785
1.50057
1.48212
1.46227
1.4407
1.41695
1.39044
1.3604
1.32592
1.28592
1.23922
1.18469
1.12136
1.04878
0.96726
1.551
1.55192
1.55711
1.56656
1.57846
1.59103
1.60283
1.61278
1.62017
1.62462
1.62603
1.62447
1.62017
1.61343
1.60458
1.59395
1.58182
1.56846
1.55406
1.53874
1.52257
1.50551
1.48747
1.46823
1.44749
1.42478
1.3995
1.37086
1.33789
1.29941
1.25413
1.20072
1.13807
1.06553
0.983323
0.533269
0.460427
0.447666
0.406732
0.356576
0.302291
0.242903
0.178704
0.11079
0.0390396
0.654664
0.536512
0.480412
0.425726
0.367816
0.30796
0.245255
0.179381
0.110194
0.0383175
0.721688
0.600922
0.521154
0.451997
0.384887
0.318403
0.251167
0.182357
0.111164
0.0383337
0.764703
0.6509
0.560876
0.48146
0.406223
0.333078
0.260589
0.187791
0.113523
0.0385846
0.798681
0.692512
0.598364
0.511923
0.429728
0.350173
0.272129
0.194757
0.116738
0.0389666
0.825859
0.725858
0.630583
0.539699
0.452081
0.366984
0.283805
0.201976
0.120183
0.0394226
0.846712
0.750834
0.655497
0.56192
0.470427
0.381054
0.293734
0.208191
0.123191
0.0398396
0.862998
0.769026
0.673352
0.577824
0.48351
0.391049
0.300726
0.212498
0.125203
0.0401064
0.878116
0.783644
0.686422
0.588615
0.491781
0.396882
0.304422
0.214413
0.125848
0.0400996
0.892737
0.796138
0.696326
0.595826
0.496519
0.399578
0.305555
0.214433
0.125674
0.039956
)
;

boundaryField
{
    inlet
    {
        type            zeroGradient;
    }
    outlet
    {
        type            fixedValue;
        value           uniform 0;
    }
    upperWall
    {
        type            zeroGradient;
    }
    lowerWall
    {
        type            zeroGradient;
    }
    frontAndBack
    {
        type            empty;
    }
}


// ************************************************************************* //
