/*--------------------------------*- C++ -*----------------------------------*\
| =========                 |                                                 |
| \\      /  F ield         | OpenFOAM: The Open Source CFD Toolbox           |
|  \\    /   O peration     | Version:  2406                                  |
|   \\  /    A nd           | Website:  www.openfoam.com                      |
|    \\/     M anipulation  |                                                 |
\*---------------------------------------------------------------------------*/
FoamFile
{
    version     2.0;
    format      ascii;
    arch        "LSB;label=32;scalar=64";
    class       volVectorField;
    location    "23";
    object      U;
}
// * * * * * * * * * * * * * * * * * * * * * * * * * * * * * * * * * * * * * //

dimensions      [0 1 -1 0 0 0 0];

internalField   nonuniform List<vector> 
1700
(
(0.18671 -0.00112383 0)
(0.194528 -0.000817397 0)
(0.19796 -0.000744626 0)
(0.20049 -0.000797594 0)
(0.203764 -0.00102612 0)
(0.208402 -0.00161314 0)
(0.215484 -0.00293187 0)
(0.2277 -0.00610674 0)
(0.253904 -0.0176785 0)
(0.2971 -0.0700634 0)
(0.502456 -0.00353665 0)
(0.510218 -0.00494719 0)
(0.51472 -0.0048831 0)
(0.518551 -0.00560837 0)
(0.524206 -0.00740641 0)
(0.532283 -0.0108678 0)
(0.543872 -0.0174055 0)
(0.561219 -0.0299131 0)
(0.588176 -0.0551114 0)
(0.620251 -0.110114 0)
(0.742635 -0.00335274 0)
(0.749165 -0.00651505 0)
(0.752828 -0.00827509 0)
(0.755805 -0.0106168 0)
(0.76078 -0.0143896 0)
(0.768009 -0.0205491 0)
(0.77776 -0.0307814 0)
(0.790506 -0.0479563 0)
(0.805929 -0.0769909 0)
(0.818083 -0.125261 0)
(0.902955 -0.00295078 0)
(0.908554 -0.00708425 0)
(0.91096 -0.0103366 0)
(0.91203 -0.0141326 0)
(0.914542 -0.019437 0)
(0.918434 -0.027287 0)
(0.923228 -0.0391836 0)
(0.928255 -0.0572256 0)
(0.931776 -0.0840653 0)
(0.929064 -0.121841 0)
(0.983067 -0.00249148 0)
(0.987871 -0.00668316 0)
(0.988905 -0.0106005 0)
(0.987796 -0.0151111 0)
(0.987313 -0.021009 0)
(0.987176 -0.0291844 0)
(0.986488 -0.0407477 0)
(0.984127 -0.0569864 0)
(0.978216 -0.0790795 0)
(0.965469 -0.107202 0)
(0.982993 -0.00173367 0)
(0.987143 -0.00524409 0)
(0.986927 -0.00908674 0)
(0.983932 -0.0135394 0)
(0.980841 -0.0191058 0)
(0.977215 -0.0264461 0)
(0.971993 -0.0362826 0)
(0.964004 -0.0493072 0)
(0.951659 -0.0659363 0)
(0.932793 -0.0857571 0)
(0.90275 -0.000566536 0)
(0.906552 -0.00291643 0)
(0.90553 -0.00623107 0)
(0.901419 -0.0100542 0)
(0.896721 -0.0145952 0)
(0.890876 -0.0203088 0)
(0.88284 -0.0276184 0)
(0.871582 -0.0368536 0)
(0.855902 -0.0480986 0)
(0.834428 -0.0608932 0)
(0.742356 0.00106682 0)
(0.746468 -0.00014281 0)
(0.745507 -0.00286163 0)
(0.74144 -0.00574324 0)
(0.736499 -0.00885579 0)
(0.730099 -0.0125404 0)
(0.721362 -0.0170385 0)
(0.709504 -0.0224949 0)
(0.693703 -0.0288968 0)
(0.673142 -0.0359311 0)
(0.502227 0.00257291 0)
(0.507845 0.00193224 0)
(0.5081 -0.000261379 0)
(0.505353 -0.00201714 0)
(0.501613 -0.00360264 0)
(0.496461 -0.00530816 0)
(0.489335 -0.00726533 0)
(0.479768 -0.0095396 0)
(0.46728 -0.0121259 0)
(0.451443 -0.0148895 0)
(0.186668 0.00103124 0)
(0.193589 0.000444824 0)
(0.195002 0.000112461 0)
(0.194313 -0.000129176 0)
(0.192901 -0.000344641 0)
(0.190714 -0.000546681 0)
(0.187578 -0.000764853 0)
(0.183349 -0.00100421 0)
(0.177869 -0.00126034 0)
(0.171006 -0.00152085 0)
(-0.000494531 0.000484167 0)
(-0.0024605 0.000726935 0)
(-0.00440272 0.000596122 0)
(-0.00535465 0.00028394 0)
(-0.00476047 -6.75795e-05 0)
(-0.00258197 -0.000389782 0)
(0.000956856 -0.000646317 0)
(0.00552217 -0.000824686 0)
(0.0107571 -0.000927837 0)
(0.0163324 -0.000966908 0)
(0.0219726 -0.000956088 0)
(0.0274662 -0.000909936 0)
(0.0326658 -0.000841698 0)
(0.0374824 -0.000762727 0)
(0.0418775 -0.000682123 0)
(0.045854 -0.000607 0)
(0.0494482 -0.000542637 0)
(0.0527228 -0.000493057 0)
(0.0557614 -0.000461279 0)
(0.0586649 -0.000449949 0)
(0.0615496 -0.00046149 0)
(0.0645462 -0.000498658 0)
(0.0678004 -0.000564481 0)
(0.0714738 -0.00066259 0)
(0.0757441 -0.000796696 0)
(0.0808036 -0.000970296 0)
(0.0868539 -0.00118513 0)
(0.0940934 -0.00143945 0)
(0.102694 -0.0017247 0)
(0.112766 -0.00202199 0)
(0.124302 -0.00229804 0)
(0.137113 -0.00250391 0)
(0.150767 -0.00257854 0)
(0.16455 -0.00246312 0)
(0.177519 -0.00212551 0)
(-0.000830091 0.00251229 0)
(-0.00430965 0.00386244 0)
(-0.00698973 0.00267211 0)
(-0.00714683 8.14183e-05 0)
(-0.00384806 -0.00293731 0)
(0.00288993 -0.00575979 0)
(0.0125528 -0.0080501 0)
(0.0244074 -0.009679 0)
(0.0376778 -0.0106495 0)
(0.0516487 -0.0110387 0)
(0.0657203 -0.0109592 0)
(0.0794293 -0.0105333 0)
(0.0924498 -0.00987862 0)
(0.104582 -0.00909975 0)
(0.115737 -0.00828555 0)
(0.125919 -0.00750865 0)
(0.135207 -0.0068274 0)
(0.143744 -0.00628825 0)
(0.151722 -0.00592909 0)
(0.159376 -0.005782 0)
(0.16698 -0.00587647 0)
(0.174839 -0.00624116 0)
(0.183296 -0.00690576 0)
(0.192728 -0.00790024 0)
(0.203543 -0.00925318 0)
(0.216178 -0.0109853 0)
(0.231085 -0.0131001 0)
(0.248701 -0.0155664 0)
(0.2694 -0.0182963 0)
(0.293419 -0.0211165 0)
(0.320747 -0.0237429 0)
(0.350993 -0.0257686 0)
(0.383244 -0.0266969 0)
(0.415984 -0.0260377 0)
(0.447158 -0.0234935 0)
(-0.000916347 0.00503638 0)
(-0.00430836 0.00698302 0)
(-0.00559311 0.00347895 0)
(-0.00293112 -0.00286046 0)
(0.0044759 -0.00996641 0)
(0.0163348 -0.0165001 0)
(0.0318262 -0.0217455 0)
(0.0499301 -0.0254358 0)
(0.0696254 -0.0275929 0)
(0.0900012 -0.0284019 0)
(0.110309 -0.0281242 0)
(0.12998 -0.0270419 0)
(0.148618 -0.0254261 0)
(0.165986 -0.0235191 0)
(0.181986 -0.0215284 0)
(0.196636 -0.0196261 0)
(0.210049 -0.0179521 0)
(0.22242 -0.0166203 0)
(0.23401 -0.0157243 0)
(0.245134 -0.0153446 0)
(0.25616 -0.0155542 0)
(0.2675 -0.0164235 0)
(0.279613 -0.0180225 0)
(0.293 -0.0204208 0)
(0.308205 -0.0236817 0)
(0.32581 -0.0278494 0)
(0.346414 -0.0329272 0)
(0.370606 -0.0388404 0)
(0.398904 -0.0453876 0)
(0.43167 -0.0521762 0)
(0.46897 -0.0585619 0)
(0.510391 -0.0636134 0)
(0.554833 -0.0661661 0)
(0.60033 -0.0650266 0)
(0.644061 -0.0593997 0)
(-0.000930355 0.00740639 0)
(-0.00316966 0.00871645 0)
(-0.0014093 0.00138413 0)
(0.00584509 -0.0100382 0)
(0.0187733 -0.0221973 0)
(0.0365327 -0.0330322 0)
(0.0579122 -0.0415055 0)
(0.0816495 -0.0472912 0)
(0.106597 -0.0505003 0)
(0.131796 -0.0514829 0)
(0.156496 -0.0506912 0)
(0.180149 -0.048599 0)
(0.202393 -0.0456534 0)
(0.22303 -0.042253 0)
(0.241999 -0.0387384 0)
(0.259355 -0.0353934 0)
(0.27525 -0.0324509 0)
(0.289916 -0.0301016 0)
(0.303654 -0.0285046 0)
(0.316822 -0.027797 0)
(0.329829 -0.0281033 0)
(0.343136 -0.0295435 0)
(0.357252 -0.0322353 0)
(0.372733 -0.0362958 0)
(0.390186 -0.0418309 0)
(0.410262 -0.0489183 0)
(0.433647 -0.0575702 0)
(0.461035 -0.0676803 0)
(0.49308 -0.0789382 0)
(0.530308 -0.0907265 0)
(0.572967 -0.101996 0)
(0.620797 -0.111183 0)
(0.672718 -0.116236 0)
(0.726478 -0.114933 0)
(0.778496 -0.105621 0)
(-0.000925365 0.00907174 0)
(-0.00099036 0.00765518 0)
(0.00563404 -0.00542124 0)
(0.0194481 -0.0230994 0)
(0.0394317 -0.0407217 0)
(0.0639275 -0.0557077 0)
(0.091288 -0.0669328 0)
(0.120087 -0.0741929 0)
(0.149186 -0.0778103 0)
(0.177721 -0.0783666 0)
(0.205076 -0.0765365 0)
(0.230841 -0.072992 0)
(0.254779 -0.0683527 0)
(0.276792 -0.0631625 0)
(0.296902 -0.057884 0)
(0.315226 -0.0529022 0)
(0.33196 -0.048534 0)
(0.347367 -0.0450408 0)
(0.361764 -0.0426421 0)
(0.375523 -0.0415288 0)
(0.389057 -0.041876 0)
(0.402827 -0.0438517 0)
(0.417341 -0.0476243 0)
(0.433154 -0.053361 0)
(0.450876 -0.0612197 0)
(0.471174 -0.0713248 0)
(0.494769 -0.0837245 0)
(0.522431 -0.0983158 0)
(0.554944 -0.114732 0)
(0.593038 -0.132178 0)
(0.637242 -0.14923 0)
(0.687611 -0.163627 0)
(0.743266 -0.172207 0)
(0.801772 -0.171237 0)
(0.858592 -0.157605 0)
(-0.000780464 0.00952496 0)
(0.00297921 0.00217252 0)
(0.0170552 -0.0190692 0)
(0.0398704 -0.043929 0)
(0.0685026 -0.0667502 0)
(0.100344 -0.0849457 0)
(0.133435 -0.097714 0)
(0.166387 -0.105233 0)
(0.198263 -0.108176 0)
(0.228467 -0.107413 0)
(0.256646 -0.103849 0)
(0.282625 -0.0983342 0)
(0.30636 -0.0916326 0)
(0.327905 -0.0844011 0)
(0.347392 -0.0771934 0)
(0.365013 -0.0704689 0)
(0.38101 -0.0646057 0)
(0.395667 -0.0599175 0)
(0.409305 -0.0566695 0)
(0.422278 -0.055095 0)
(0.434975 -0.0554106 0)
(0.447818 -0.0578269 0)
(0.461272 -0.062559 0)
(0.475843 -0.0698255 0)
(0.492096 -0.0798437 0)
(0.510658 -0.092803 0)
(0.532239 -0.108821 0)
(0.557634 -0.127854 0)
(0.58773 -0.14956 0)
(0.623465 -0.173071 0)
(0.66571 -0.196675 0)
(0.714978 -0.217408 0)
(0.77083 -0.230738 0)
(0.830813 -0.230724 0)
(0.889224 -0.211667 0)
(-0.000135391 0.00808542 0)
(0.0109348 -0.0102693 0)
(0.0365031 -0.0424916 0)
(0.0712438 -0.0746555 0)
(0.109739 -0.101259 0)
(0.148734 -0.120685 0)
(0.18643 -0.133003 0)
(0.221861 -0.139039 0)
(0.254559 -0.139906 0)
(0.284366 -0.136764 0)
(0.311302 -0.130707 0)
(0.335491 -0.122716 0)
(0.357118 -0.113641 0)
(0.376405 -0.104201 0)
(0.3936 -0.0949966 0)
(0.408969 -0.0865237 0)
(0.42279 -0.0791904 0)
(0.435354 -0.0733363 0)
(0.446965 -0.0692513 0)
(0.457938 -0.0671943 0)
(0.468608 -0.0674085 0)
(0.47933 -0.0701373 0)
(0.490485 -0.075633 0)
(0.502493 -0.0841636 0)
(0.515822 -0.0960066 0)
(0.531008 -0.111432 0)
(0.548676 -0.130656 0)
(0.569575 -0.153756 0)
(0.594605 -0.180511 0)
(0.624839 -0.210125 0)
(0.661461 -0.240765 0)
(0.705527 -0.268874 0)
(0.757299 -0.28834 0)
(0.814736 -0.290058 0)
(0.871146 -0.263679 0)
(0.00198218 0.00219491 0)
(0.028192 -0.0350377 0)
(0.0712574 -0.0800509 0)
(0.120493 -0.117314 0)
(0.168469 -0.144301 0)
(0.212615 -0.161688 0)
(0.252238 -0.170864 0)
(0.287305 -0.173369 0)
(0.318071 -0.170686 0)
(0.344925 -0.164163 0)
(0.368295 -0.154979 0)
(0.388604 -0.144154 0)
(0.406251 -0.132548 0)
(0.421605 -0.120884 0)
(0.435008 -0.109757 0)
(0.446773 -0.0996573 0)
(0.457194 -0.0909885 0)
(0.466545 -0.0840882 0)
(0.475091 -0.0792475 0)
(0.483087 -0.0767304 0)
(0.490787 -0.0767909 0)
(0.498452 -0.079689 0)
(0.506352 -0.0857027 0)
(0.514781 -0.0951367 0)
(0.524065 -0.108323 0)
(0.534584 -0.125609 0)
(0.546797 -0.147323 0)
(0.561283 -0.1737 0)
(0.578798 -0.204726 0)
(0.600342 -0.239836 0)
(0.627198 -0.277342 0)
(0.660834 -0.313421 0)
(0.702395 -0.340522 0)
(0.750992 -0.345419 0)
(0.800332 -0.309232 0)
(0.0147478 -0.024618 0)
(0.0695279 -0.0857795 0)
(0.135468 -0.137553 0)
(0.197782 -0.172264 0)
(0.250659 -0.193502 0)
(0.29476 -0.204543 0)
(0.331496 -0.207719 0)
(0.362035 -0.204865 0)
(0.387362 -0.197517 0)
(0.40834 -0.186985 0)
(0.425712 -0.174387 0)
(0.440112 -0.160673 0)
(0.452075 -0.146641 0)
(0.462056 -0.132955 0)
(0.470436 -0.120161 0)
(0.477537 -0.108706 0)
(0.483633 -0.0989582 0)
(0.488953 -0.0912278 0)
(0.493697 -0.0857854 0)
(0.498038 -0.082881 0)
(0.50213 -0.0827617 0)
(0.506116 -0.0856868 0)
(0.510135 -0.0919422 0)
(0.514324 -0.101849 0)
(0.518828 -0.115772 0)
(0.523813 -0.134109 0)
(0.529477 -0.157275 0)
(0.536081 -0.185639 0)
(0.543995 -0.219402 0)
(0.553773 -0.258314 0)
(0.566264 -0.301098 0)
(0.582688 -0.344275 0)
(0.604665 -0.379904 0)
(0.633451 -0.391364 0)
(0.667431 -0.346546 0)
(0.0957405 -0.0986494 0)
(0.179077 -0.173212 0)
(0.253908 -0.211383 0)
(0.314152 -0.231632 0)
(0.359699 -0.24092 0)
(0.39463 -0.242459 0)
(0.421753 -0.23808 0)
(0.442766 -0.229174 0)
(0.458897 -0.216953 0)
(0.47114 -0.202494 0)
(0.480317 -0.186742 0)
(0.487106 -0.170511 0)
(0.492057 -0.154486 0)
(0.495618 -0.139238 0)
(0.498145 -0.125232 0)
(0.499916 -0.112848 0)
(0.501141 -0.102398 0)
(0.501979 -0.0941449 0)
(0.502537 -0.088323 0)
(0.50289 -0.0851528 0)
(0.503077 -0.0848581 0)
(0.503114 -0.0876809 0)
(0.502991 -0.0938932 0)
(0.502676 -0.103807 0)
(0.502112 -0.117779 0)
(0.50121 -0.136206 0)
(0.499842 -0.159507 0)
(0.497822 -0.188071 0)
(0.494887 -0.222148 0)
(0.490678 -0.261603 0)
(0.484712 -0.305409 0)
(0.47634 -0.350542 0)
(0.465173 -0.389632 0)
(0.453544 -0.405935 0)
(0.45314 -0.360924 0)
(0.394193 -0.204076 0)
(0.413101 -0.24726 0)
(0.438964 -0.265454 0)
(0.466502 -0.272634 0)
(0.488336 -0.272245 0)
(0.504344 -0.266145 0)
(0.515558 -0.25566 0)
(0.522784 -0.241888 0)
(0.526752 -0.225824 0)
(0.528166 -0.208373 0)
(0.527667 -0.190335 0)
(0.525804 -0.1724 0)
(0.523025 -0.155143 0)
(0.519683 -0.139034 0)
(0.516044 -0.124449 0)
(0.512292 -0.111694 0)
(0.508543 -0.101013 0)
(0.504854 -0.0926156 0)
(0.501228 -0.0866885 0)
(0.497627 -0.0834127 0)
(0.493971 -0.0829772 0)
(0.490146 -0.0855914 0)
(0.485996 -0.0914939 0)
(0.481326 -0.100958 0)
(0.475882 -0.114289 0)
(0.469332 -0.131813 0)
(0.461227 -0.153843 0)
(0.450932 -0.180597 0)
(0.437517 -0.212052 0)
(0.419567 -0.247629 0)
(0.394809 -0.285568 0)
(0.359337 -0.321591 0)
(0.306288 -0.345747 0)
(0.22721 -0.333826 0)
(0.121001 -0.21771 0)
(0.640373 -0.202256 0)
(0.629226 -0.252732 0)
(0.620355 -0.274499 0)
(0.616335 -0.281319 0)
(0.612461 -0.278793 0)
(0.607243 -0.269876 0)
(0.600549 -0.256572 0)
(0.592459 -0.240335 0)
(0.583204 -0.222296 0)
(0.573128 -0.203385 0)
(0.562608 -0.184364 0)
(0.551989 -0.165856 0)
(0.541551 -0.148354 0)
(0.531502 -0.132246 0)
(0.521974 -0.117831 0)
(0.513028 -0.105339 0)
(0.504663 -0.0949521 0)
(0.496821 -0.0868233 0)
(0.489394 -0.0810904 0)
(0.482229 -0.0778908 0)
(0.475132 -0.0773726 0)
(0.46787 -0.0797029 0)
(0.46016 -0.0850725 0)
(0.451668 -0.0936941 0)
(0.441983 -0.105791 0)
(0.430592 -0.121567 0)
(0.416828 -0.141146 0)
(0.399791 -0.164452 0)
(0.378233 -0.190988 0)
(0.350386 -0.219421 0)
(0.313698 -0.246814 0)
(0.264498 -0.267201 0)
(0.198319 -0.268939 0)
(0.115954 -0.230331 0)
(0.0279975 -0.119274 0)
(0.813377 -0.188519 0)
(0.788867 -0.232717 0)
(0.760743 -0.25593 0)
(0.734795 -0.264549 0)
(0.710371 -0.262998 0)
(0.68682 -0.254342 0)
(0.663985 -0.240929 0)
(0.641813 -0.224528 0)
(0.620345 -0.206467 0)
(0.599714 -0.187759 0)
(0.580091 -0.169184 0)
(0.561633 -0.151333 0)
(0.544448 -0.134646 0)
(0.528587 -0.119447 0)
(0.514039 -0.105967 0)
(0.500733 -0.0943765 0)
(0.488547 -0.0848008 0)
(0.477309 -0.0773421 0)
(0.466803 -0.0720934 0)
(0.456776 -0.0691503 0)
(0.446936 -0.0686194 0)
(0.436948 -0.070623 0)
(0.426436 -0.0752991 0)
(0.414964 -0.0827923 0)
(0.402023 -0.0932328 0)
(0.387004 -0.106692 0)
(0.369156 -0.123102 0)
(0.347533 -0.142107 0)
(0.320935 -0.162825 0)
(0.287859 -0.183432 0)
(0.246507 -0.200519 0)
(0.195057 -0.208137 0)
(0.133101 -0.196614 0)
(0.0670454 -0.152283 0)
(0.00966121 -0.0649086 0)
(0.912485 -0.166038 0)
(0.881278 -0.200996 0)
(0.84368 -0.22206 0)
(0.805117 -0.231116 0)
(0.767224 -0.230811 0)
(0.730607 -0.223593 0)
(0.695662 -0.211631 0)
(0.662612 -0.196705 0)
(0.631588 -0.18019 0)
(0.602692 -0.163124 0)
(0.575994 -0.146278 0)
(0.551523 -0.130207 0)
(0.529249 -0.115302 0)
(0.509087 -0.101832 0)
(0.490898 -0.0899731 0)
(0.474493 -0.0798445 0)
(0.45964 -0.0715263 0)
(0.446069 -0.0650796 0)
(0.433478 -0.0605599 0)
(0.421532 -0.058027 0)
(0.409865 -0.0575506 0)
(0.398076 -0.0592121 0)
(0.385725 -0.0631005 0)
(0.372324 -0.0692986 0)
(0.357323 -0.0778554 0)
(0.340098 -0.0887346 0)
(0.319927 -0.101727 0)
(0.295976 -0.116307 0)
(0.267307 -0.131413 0)
(0.232938 -0.145132 0)
(0.192031 -0.154303 0)
(0.144402 -0.154126 0)
(0.0918944 -0.138133 0)
(0.0417596 -0.0997089 0)
(0.00483193 -0.0384008 0)
(0.941825 -0.138048 0)
(0.906948 -0.163792 0)
(0.865162 -0.180555 0)
(0.820579 -0.188368 0)
(0.775553 -0.18858 0)
(0.731483 -0.182886 0)
(0.689301 -0.173011 0)
(0.649585 -0.160488 0)
(0.612661 -0.14656 0)
(0.578693 -0.132172 0)
(0.547731 -0.11802 0)
(0.519731 -0.10459 0)
(0.494572 -0.0922118 0)
(0.472066 -0.0810963 0)
(0.451977 -0.0713734 0)
(0.434025 -0.0631195 0)
(0.4179 -0.0563799 0)
(0.403262 -0.0511852 0)
(0.389749 -0.047563 0)
(0.376977 -0.0455455 0)
(0.364535 -0.0451734 0)
(0.351992 -0.0464955 0)
(0.338881 -0.049562 0)
(0.324706 -0.0544092 0)
(0.308929 -0.0610303 0)
(0.290967 -0.0693252 0)
(0.2702 -0.0790183 0)
(0.245986 -0.0895367 0)
(0.217716 -0.0998409 0)
(0.184936 -0.108223 0)
(0.147587 -0.112129 0)
(0.106476 -0.108145 0)
(0.0642146 -0.0924925 0)
(0.0270114 -0.0627338 0)
(0.00259538 -0.0219002 0)
(0.905259 -0.106549 0)
(0.868969 -0.124194 0)
(0.826379 -0.13608 0)
(0.780441 -0.141745 0)
(0.733455 -0.141833 0)
(0.687099 -0.137441 0)
(0.642582 -0.129808 0)
(0.600708 -0.120107 0)
(0.561953 -0.109321 0)
(0.526544 -0.0982095 0)
(0.494533 -0.0873264 0)
(0.465839 -0.0770539 0)
(0.440283 -0.0676411 0)
(0.417617 -0.0592399 0)
(0.397544 -0.0519356 0)
(0.379735 -0.0457717 0)
(0.363834 -0.0407682 0)
(0.349471 -0.0369352 0)
(0.33626 -0.0342819 0)
(0.3238 -0.032822 0)
(0.311678 -0.0325764 0)
(0.299462 -0.0335708 0)
(0.286701 -0.0358297 0)
(0.272924 -0.0393617 0)
(0.257641 -0.0441334 0)
(0.240352 -0.0500262 0)
(0.220568 -0.0567696 0)
(0.197852 -0.0638477 0)
(0.171896 -0.0703827 0)
(0.142665 -0.075024 0)
(0.110608 -0.0759079 0)
(0.0769882 -0.070821 0)
(0.0443971 -0.057804 0)
(0.0175422 -0.0365567 0)
(0.0014128 -0.0110605 0)
(0.806053 -0.0738533 0)
(0.770894 -0.0847958 0)
(0.730535 -0.0921726 0)
(0.68712 -0.095568 0)
(0.642625 -0.0953039 0)
(0.598661 -0.0920607 0)
(0.556453 -0.0866527 0)
(0.516843 -0.0798729 0)
(0.480337 -0.0723966 0)
(0.447175 -0.0647489 0)
(0.417395 -0.0573088 0)
(0.390891 -0.0503331 0)
(0.367456 -0.0439831 0)
(0.346819 -0.0383521 0)
(0.328665 -0.033487 0)
(0.312654 -0.0294068 0)
(0.298434 -0.0261154 0)
(0.285641 -0.0236114 0)
(0.273905 -0.0218943 0)
(0.262852 -0.0209674 0)
(0.252096 -0.0208395 0)
(0.241246 -0.0215229 0)
(0.229895 -0.0230282 0)
(0.217632 -0.0253526 0)
(0.204041 -0.0284607 0)
(0.18872 -0.0322523 0)
(0.171309 -0.0365141 0)
(0.151547 -0.0408553 0)
(0.129356 -0.044635 0)
(0.104968 -0.0469071 0)
(0.0790916 -0.0464414 0)
(0.0531012 -0.041919 0)
(0.0292369 -0.0324537 0)
(0.0107931 -0.0186299 0)
(0.000690398 -0.0042298 0)
(0.647305 -0.0428449 0)
(0.61645 -0.0485658 0)
(0.581716 -0.0523091 0)
(0.544682 -0.0538502 0)
(0.506914 -0.0533695 0)
(0.469749 -0.0512555 0)
(0.434225 -0.0479719 0)
(0.401055 -0.0439689 0)
(0.370663 -0.0396279 0)
(0.343231 -0.0352421 0)
(0.318764 -0.031019 0)
(0.297141 -0.0270952 0)
(0.278154 -0.0235527 0)
(0.261547 -0.0204351 0)
(0.247031 -0.0177606 0)
(0.234302 -0.015533 0)
(0.223051 -0.0137487 0)
(0.212968 -0.0124024 0)
(0.203739 -0.0114899 0)
(0.195051 -0.0110106 0)
(0.186588 -0.0109676 0)
(0.178028 -0.0113661 0)
(0.169044 -0.0122109 0)
(0.159306 -0.0134989 0)
(0.148491 -0.0152073 0)
(0.136297 -0.0172743 0)
(0.122479 -0.0195698 0)
(0.106899 -0.0218568 0)
(0.0896102 -0.0237505 0)
(0.0709593 -0.0246917 0)
(0.0517099 -0.0239757 0)
(0.0331339 -0.0208973 0)
(0.017024 -0.0151073 0)
(0.00553928 -0.00730948 0)
(0.000140634 -0.000438719 0)
(0.43207 -0.017527 0)
(0.409456 -0.0196267 0)
(0.38441 -0.0209008 0)
(0.358016 -0.0212852 0)
(0.331351 -0.0208782 0)
(0.305338 -0.0198528 0)
(0.280679 -0.0184041 0)
(0.257843 -0.0167135 0)
(0.23709 -0.0149302 0)
(0.21851 -0.0131646 0)
(0.202072 -0.011492 0)
(0.187659 -0.00995908 0)
(0.175101 -0.00859147 0)
(0.164196 -0.00740043 0)
(0.154729 -0.00638835 0)
(0.14648 -0.00555286 0)
(0.139227 -0.00488971 0)
(0.132753 -0.00439466 0)
(0.126842 -0.00406475 0)
(0.121279 -0.0038988 0)
(0.115848 -0.00389765 0)
(0.110334 -0.00406351 0)
(0.104513 -0.00439893 0)
(0.0981666 -0.00490373 0)
(0.0910764 -0.00557047 0)
(0.0830452 -0.00637581 0)
(0.0739192 -0.0072682 0)
(0.0636314 -0.00815032 0)
(0.0522636 -0.00886023 0)
(0.0401292 -0.00915869 0)
(0.027857 -0.00874146 0)
(0.0164427 -0.00730664 0)
(0.00719159 -0.00472649 0)
(0.00142059 -0.00141615 0)
(-0.000320907 0.000939918 0)
(0.162728 -0.00175446 0)
(0.153207 -0.00191564 0)
(0.142813 -0.00197884 0)
(0.132013 -0.00194923 0)
(0.121255 -0.00184742 0)
(0.110904 -0.00169722 0)
(0.101224 -0.00152067 0)
(0.0923765 -0.00133586 0)
(0.0844363 -0.00115565 0)
(0.0774135 -0.000988124 0)
(0.0712717 -0.00083761 0)
(0.0659456 -0.000705907 0)
(0.0613538 -0.000593199 0)
(0.0574065 -0.000498748 0)
(0.0540124 -0.000421363 0)
(0.0510808 -0.000359721 0)
(0.0485234 -0.000312606 0)
(0.046255 -0.000279014 0)
(0.0441919 -0.000258258 0)
(0.0422522 -0.000249979 0)
(0.0403537 -0.000254181 0)
(0.0384134 -0.000271196 0)
(0.0363466 -0.000301624 0)
(0.0340671 -0.000346131 0)
(0.0314894 -0.000405016 0)
(0.0285337 -0.000477419 0)
(0.0251365 -0.000559881 0)
(0.0212694 -0.000644148 0)
(0.0169683 -0.000714295 0)
(0.0123731 -0.000744129 0)
(0.00777141 -0.000696369 0)
(0.00362997 -0.000526126 0)
(0.000566146 -0.000196933 0)
(-0.00085801 0.000252526 0)
(-0.000520742 0.000523386 0)
(0.188655 -0.00158947 0)
(0.197156 -0.000953094 0)
(0.20265 -0.000328447 0)
(0.205194 0.00021515 0)
(0.205103 0.000655382 0)
(0.20278 0.00100054 0)
(0.198595 0.00127488 0)
(0.192815 0.00150778 0)
(0.185595 0.00172035 0)
(0.177022 0.0019157 0)
(0.474484 -0.0191746 0)
(0.496087 -0.0137296 0)
(0.511033 -0.0079937 0)
(0.51932 -0.00260306 0)
(0.521522 0.00212257 0)
(0.518427 0.00612922 0)
(0.510775 0.00954293 0)
(0.499099 0.0125626 0)
(0.483693 0.0153548 0)
(0.464698 0.0179551 0)
(0.682717 -0.0494315 0)
(0.713572 -0.0366402 0)
(0.735418 -0.0230104 0)
(0.748426 -0.0100449 0)
(0.753483 0.00148651 0)
(0.751651 0.0114332 0)
(0.743847 0.0200745 0)
(0.730643 0.0278805 0)
(0.712223 0.035261 0)
(0.688507 0.0423161 0)
(0.824197 -0.0883704 0)
(0.859951 -0.0661675 0)
(0.884782 -0.0427626 0)
(0.89968 -0.0207439 0)
(0.906239 -0.00130138 0)
(0.905914 0.0154641 0)
(0.899713 0.0301652 0)
(0.888047 0.0437401 0)
(0.870696 0.0570025 0)
(0.846967 0.0701976 0)
(0.907084 -0.130985 0)
(0.942425 -0.0972298 0)
(0.964882 -0.0628886 0)
(0.97741 -0.0317069 0)
(0.982863 -0.00493617 0)
(0.983181 0.0177801 0)
(0.979356 0.0377697 0)
(0.971425 0.0567495 0)
(0.958464 0.0762283 0)
(0.938691 0.0967776 0)
(0.935653 -0.172001 0)
(0.963588 -0.123747 0)
(0.976812 -0.0779423 0)
(0.982 -0.0390014 0)
(0.98354 -0.00729311 0)
(0.983555 0.018751 0)
(0.982703 0.041688 0)
(0.980431 0.064399 0)
(0.974921 0.0895131 0)
(0.962792 0.118386 0)
(0.908964 -0.204102 0)
(0.919772 -0.137591 0)
(0.91589 -0.0815568 0)
(0.90959 -0.0387281 0)
(0.905745 -0.00665438 0)
(0.905478 0.0184164 0)
(0.908565 0.0406051 0)
(0.913841 0.0641623 0)
(0.918861 0.0933605 0)
(0.91829 0.131532 0)
(0.818859 -0.216051 0)
(0.799342 -0.12852 0)
(0.772066 -0.0681805 0)
(0.754002 -0.0290424 0)
(0.746316 -0.00310022 0)
(0.747121 0.0158822 0)
(0.754985 0.0330987 0)
(0.768765 0.0536451 0)
(0.786816 0.0838391 0)
(0.802314 0.131967 0)
(0.644705 -0.193772 0)
(0.581505 -0.0896967 0)
(0.534045 -0.0389677 0)
(0.511986 -0.0135509 0)
(0.505328 0.000637473 0)
(0.508517 0.0102671 0)
(0.519718 0.0197047 0)
(0.539144 0.0333265 0)
(0.569279 0.0586296 0)
(0.604917 0.113124 0)
(0.331232 -0.121397 0)
(0.243497 -0.0253094 0)
(0.203035 -0.00535297 0)
(0.191884 -0.000932158 0)
(0.19036 0.000921831 0)
(0.193873 0.00211394 0)
(0.201857 0.00358034 0)
(0.215869 0.00670892 0)
(0.244041 0.0180906 0)
(0.28914 0.0699379 0)
(0.167211 0.0020739 0)
(0.156405 0.00215998 0)
(0.14499 0.00215641 0)
(0.133415 0.0020725 0)
(0.12209 0.00192934 0)
(0.111339 0.00174928 0)
(0.101387 0.00155188 0)
(0.0923617 0.00135301 0)
(0.0843119 0.00116354 0)
(0.0772265 0.000990208 0)
(0.0710542 0.000836156 0)
(0.0657185 0.000702535 0)
(0.0611302 0.00058886 0)
(0.0571943 0.000494144 0)
(0.0538159 0.000416813 0)
(0.0509018 0.00035551 0)
(0.0483626 0.000308781 0)
(0.0461117 0.000275685 0)
(0.0440652 0.000255368 0)
(0.0421408 0.000247564 0)
(0.0402562 0.000252142 0)
(0.0383286 0.000269535 0)
(0.0362731 0.00030023 0)
(0.0340039 0.000344999 0)
(0.0314354 0.000404065 0)
(0.028488 0.000476637 0)
(0.0250985 0.00055914 0)
(0.0212386 0.000643366 0)
(0.0169443 0.000713455 0)
(0.0123557 0.000743317 0)
(0.00776045 0.000695544 0)
(0.00362466 0.00052552 0)
(0.000564964 0.00019624 0)
(-0.000857028 -0.000252679 0)
(-0.000520014 -0.000522732 0)
(0.44231 0.0202127 0)
(0.417044 0.0218416 0)
(0.389799 0.0226405 0)
(0.361662 0.0225969 0)
(0.33367 0.0218313 0)
(0.306682 0.0205212 0)
(0.281329 0.0188555 0)
(0.258017 0.0170052 0)
(0.236951 0.0151078 0)
(0.218177 0.0132631 0)
(0.201628 0.0115373 0)
(0.187162 0.00996962 0)
(0.174589 0.00858029 0)
(0.163694 0.00737649 0)
(0.154252 0.00635765 0)
(0.146037 0.00551934 0)
(0.138822 0.00485586 0)
(0.132387 0.004362 0)
(0.126514 0.00403412 0)
(0.120987 0.00387062 0)
(0.11559 0.00387201 0)
(0.110106 0.00404037 0)
(0.104314 0.00437806 0)
(0.0979929 0.0048849 0)
(0.090926 0.00555332 0)
(0.0829161 0.00636003 0)
(0.0738099 0.00725343 0)
(0.0635406 0.00813633 0)
(0.0521907 0.00884678 0)
(0.0400736 0.0091459 0)
(0.027818 0.00872957 0)
(0.016419 0.00729676 0)
(0.00718087 0.00472008 0)
(0.00141758 0.00141381 0)
(-0.000319975 -0.00093894 0)
(0.659482 0.0486609 0)
(0.625708 0.0535178 0)
(0.588472 0.056314 0)
(0.549393 0.056955 0)
(0.510018 0.0556898 0)
(0.471633 0.0529312 0)
(0.435211 0.049141 0)
(0.401403 0.0447538 0)
(0.370574 0.0401302 0)
(0.342856 0.0355419 0)
(0.318216 0.0311776 0)
(0.296498 0.0271581 0)
(0.277474 0.0235529 0)
(0.260865 0.0203959 0)
(0.246372 0.0176984 0)
(0.233681 0.0154589 0)
(0.222476 0.01367 0)
(0.212442 0.0123239 0)
(0.203263 0.0114145 0)
(0.194624 0.01094 0)
(0.186206 0.0109024 0)
(0.177689 0.0113066 0)
(0.168743 0.0121568 0)
(0.159042 0.0134498 0)
(0.14826 0.0151625 0)
(0.136096 0.017233 0)
(0.122307 0.019531 0)
(0.106754 0.0218199 0)
(0.0894907 0.0237149 0)
(0.0708653 0.0246573 0)
(0.051641 0.0239434 0)
(0.033089 0.0208692 0)
(0.017 0.0150859 0)
(0.00553064 0.00729797 0)
(0.000140717 0.000437207 0)
(0.816203 0.0825477 0)
(0.778788 0.0923523 0)
(0.736434 0.0984018 0)
(0.691336 0.100491 0)
(0.64547 0.0990557 0)
(0.600424 0.0948266 0)
(0.557388 0.088626 0)
(0.517167 0.081231 0)
(0.480225 0.0732915 0)
(0.446766 0.065304 0)
(0.416795 0.057621 0)
(0.390181 0.050476 0)
(0.366695 0.0440118 0)
(0.346048 0.0383064 0)
(0.327911 0.0333956 0)
(0.311937 0.0292896 0)
(0.297763 0.0259862 0)
(0.285022 0.0234794 0)
(0.27334 0.0217652 0)
(0.26234 0.0208447 0)
(0.251635 0.0207251 0)
(0.240832 0.0214176 0)
(0.229526 0.0229319 0)
(0.217304 0.0252647 0)
(0.203751 0.0283802 0)
(0.188464 0.0321777 0)
(0.171086 0.036444 0)
(0.151355 0.0407883 0)
(0.129194 0.0445699 0)
(0.104837 0.0468434 0)
(0.0789917 0.0463804 0)
(0.0530324 0.0418634 0)
(0.0291979 0.0324097 0)
(0.0107775 0.0186024 0)
(0.000690013 0.00422279 0)
(0.91018 0.116993 0)
(0.872945 0.133384 0)
(0.829475 0.143759 0)
(0.782734 0.147907 0)
(0.735034 0.14661 0)
(0.688062 0.141027 0)
(0.643035 0.132417 0)
(0.600753 0.121941 0)
(0.561687 0.110558 0)
(0.526054 0.0989975 0)
(0.493892 0.0877857 0)
(0.465106 0.0772786 0)
(0.439505 0.0677031 0)
(0.416829 0.059193 0)
(0.396772 0.0518194 0)
(0.378995 0.0456146 0)
(0.363138 0.0405902 0)
(0.348824 0.0367501 0)
(0.335664 0.0340986 0)
(0.323257 0.0326462 0)
(0.311185 0.0324113 0)
(0.299016 0.0334179 0)
(0.286299 0.0356893 0)
(0.272562 0.0392331 0)
(0.257316 0.0440153 0)
(0.240062 0.0499166 0)
(0.22031 0.0566663 0)
(0.197624 0.0637484 0)
(0.171699 0.0702852 0)
(0.142499 0.0749272 0)
(0.110476 0.075812 0)
(0.0768937 0.0707314 0)
(0.04434 0.0577278 0)
(0.0175176 0.0365054 0)
(0.00141089 0.0110439 0)
(0.939863 0.148648 0)
(0.905662 0.173164 0)
(0.864397 0.188469 0)
(0.820141 0.194813 0)
(0.775265 0.193666 0)
(0.731219 0.186781 0)
(0.68898 0.175904 0)
(0.649168 0.162566 0)
(0.612141 0.14799 0)
(0.578082 0.133103 0)
(0.54705 0.118575 0)
(0.519006 0.10487 0)
(0.493826 0.0922953 0)
(0.471322 0.0810451 0)
(0.45125 0.0712339 0)
(0.433329 0.0629262 0)
(0.417242 0.0561577 0)
(0.402648 0.0509516 0)
(0.389181 0.0473299 0)
(0.376454 0.0453206 0)
(0.364057 0.0449613 0)
(0.351554 0.0462985 0)
(0.338483 0.0493808 0)
(0.324343 0.0542431 0)
(0.308597 0.0608778 0)
(0.290664 0.0691837 0)
(0.269924 0.0788848 0)
(0.245736 0.0894075 0)
(0.217491 0.0997125 0)
(0.184739 0.108093 0)
(0.147423 0.111996 0)
(0.106351 0.108014 0)
(0.0641338 0.092375 0)
(0.0269748 0.06265 0)
(0.00259134 0.0218683 0)
(0.904062 0.17508 0)
(0.875062 0.20899 0)
(0.839278 0.228903 0)
(0.802064 0.236811 0)
(0.765112 0.23542 0)
(0.729112 0.227218 0)
(0.694547 0.214395 0)
(0.661715 0.198738 0)
(0.630807 0.181621 0)
(0.601967 0.164073 0)
(0.575297 0.146851 0)
(0.55084 0.130496 0)
(0.528581 0.115383 0)
(0.508437 0.101766 0)
(0.490272 0.0898087 0)
(0.473896 0.0796183 0)
(0.459075 0.0712659 0)
(0.445541 0.0648049 0)
(0.432987 0.060285 0)
(0.421077 0.0577611 0)
(0.409445 0.0572994 0)
(0.397688 0.0589789 0)
(0.385366 0.0628861 0)
(0.371991 0.0691026 0)
(0.357013 0.077676 0)
(0.339807 0.0885689 0)
(0.319652 0.101571 0)
(0.295717 0.116156 0)
(0.267063 0.13126 0)
(0.232713 0.144973 0)
(0.191831 0.154135 0)
(0.144238 0.153951 0)
(0.0917805 0.137966 0)
(0.0417021 0.0995805 0)
(0.00482544 0.0383484 0)
(0.801089 0.194552 0)
(0.779762 0.238095 0)
(0.754197 0.260712 0)
(0.730153 0.268719 0)
(0.707104 0.266535 0)
(0.684518 0.257246 0)
(0.662339 0.243229 0)
(0.640598 0.226274 0)
(0.619406 0.207725 0)
(0.598947 0.188607 0)
(0.579432 0.169697 0)
(0.561042 0.151583 0)
(0.543903 0.134698 0)
(0.528076 0.119354 0)
(0.513558 0.105775 0)
(0.50028 0.0941207 0)
(0.488121 0.0845093 0)
(0.47691 0.0770357 0)
(0.46643 0.0717871 0)
(0.456428 0.0688542 0)
(0.44661 0.0683401 0)
(0.436643 0.0703644 0)
(0.426149 0.0750624 0)
(0.414691 0.0825774 0)
(0.40176 0.0930379 0)
(0.386748 0.106514 0)
(0.368903 0.122935 0)
(0.347281 0.141947 0)
(0.320683 0.162662 0)
(0.287608 0.183257 0)
(0.246264 0.200325 0)
(0.194838 0.207922 0)
(0.132931 0.196389 0)
(0.0669486 0.152094 0)
(0.00964664 0.0648233 0)
(0.628444 0.204673 0)
(0.620395 0.255088 0)
(0.6139 0.276944 0)
(0.611621 0.283748 0)
(0.609049 0.281067 0)
(0.604797 0.271888 0)
(0.5988 0.258254 0)
(0.5912 0.241663 0)
(0.582283 0.22328 0)
(0.572434 0.204054 0)
(0.562066 0.184763 0)
(0.551546 0.166031 0)
(0.541174 0.148355 0)
(0.53117 0.132116 0)
(0.521674 0.117609 0)
(0.512752 0.105058 0)
(0.504408 0.0946376 0)
(0.496582 0.0864956 0)
(0.489169 0.0807643 0)
(0.482017 0.0775769 0)
(0.47493 0.0770779 0)
(0.467675 0.0794316 0)
(0.45997 0.0848264 0)
(0.451479 0.0934734 0)
(0.441791 0.105594 0)
(0.430393 0.121391 0)
(0.416616 0.140985 0)
(0.399562 0.1643 0)
(0.377982 0.190834 0)
(0.350111 0.219252 0)
(0.313402 0.246614 0)
(0.264196 0.266954 0)
(0.198048 0.268646 0)
(0.115766 0.230032 0)
(0.0279395 0.119088 0)
(0.386882 0.203511 0)
(0.407432 0.247411 0)
(0.43453 0.266218 0)
(0.463018 0.273757 0)
(0.485669 0.273512 0)
(0.50236 0.267392 0)
(0.514117 0.256774 0)
(0.521758 0.242806 0)
(0.526033 0.226517 0)
(0.527668 0.208842 0)
(0.527323 0.190598 0)
(0.525565 0.172486 0)
(0.522856 0.155084 0)