/*--------------------------------*- C++ -*----------------------------------*\
| =========                 |                                                 |
| \\      /  F ield         | OpenFOAM: The Open Source CFD Toolbox           |
|  \\    /   O peration     | Version:  2406                                  |
|   \\  /    A nd           | Website:  www.openfoam.com                      |
|    \\/     M anipulation  |                                                 |
\*---------------------------------------------------------------------------*/
FoamFile
{
    version     2.0;
    format      ascii;
    arch        "LSB;label=32;scalar=64";
    class       volScalarField;
    location    "966";
    object      p;
}
// * * * * * * * * * * * * * * * * * * * * * * * * * * * * * * * * * * * * * //

dimensions      [0 2 -2 0 0 0 0];

internalField   nonuniform List<scalar> 
190000
(
-0.241364
-0.238918
-0.238464
-0.23913
-0.240232
-0.241551
-0.242998
-0.244523
-0.246097
-0.247704
-0.249338
-0.250991
-0.252661
-0.254345
-0.256043
-0.257752
-0.259473
-0.261204
-0.262946
-0.264697
-0.266458
-0.268229
-0.27001
-0.2718
-0.273599
-0.275408
-0.277226
-0.279054
-0.280891
-0.282738
-0.284594
-0.286461
-0.288337
-0.290224
-0.29212
-0.294027
-0.295945
-0.297873
-0.299811
-0.301761
-0.303722
-0.305695
-0.307679
-0.309674
-0.311682
-0.313702
-0.315735
-0.31778
-0.319838
-0.32191
-0.323995
-0.326095
-0.328208
-0.330336
-0.332479
-0.334638
-0.336812
-0.339003
-0.34121
-0.343434
-0.345675
-0.347935
-0.350214
-0.352511
-0.354829
-0.357167
-0.359526
-0.361907
-0.364311
-0.366738
-0.36919
-0.371667
-0.374171
-0.376702
-0.379263
-0.381853
-0.384476
-0.387131
-0.389821
-0.392549
-0.395315
-0.398122
-0.400974
-0.403871
-0.406818
-0.409817
-0.412873
-0.415988
-0.419165
-0.422409
-0.425723
-0.42911
-0.432579
-0.436143
-0.43985
-0.443839
-0.448403
-0.453712
-0.460318
-0.480313
-0.237438
-0.237662
-0.238217
-0.239151
-0.240334
-0.241673
-0.243116
-0.24463
-0.246192
-0.247791
-0.249417
-0.251065
-0.252731
-0.254413
-0.256108
-0.257816
-0.259536
-0.261267
-0.263009
-0.264761
-0.266523
-0.268294
-0.270076
-0.271867
-0.273667
-0.275477
-0.277297
-0.279126
-0.280964
-0.282813
-0.284671
-0.286539
-0.288417
-0.290305
-0.292204
-0.294112
-0.296032
-0.297962
-0.299903
-0.301855
-0.303818
-0.305792
-0.307779
-0.309777
-0.311787
-0.313809
-0.315844
-0.317892
-0.319953
-0.322028
-0.324116
-0.326219
-0.328335
-0.330467
-0.332613
-0.334775
-0.336953
-0.339147
-0.341358
-0.343586
-0.345832
-0.348097
-0.35038
-0.352682
-0.355005
-0.357348
-0.359713
-0.362101
-0.364511
-0.366945
-0.369404
-0.371889
-0.374402
-0.376942
-0.379512
-0.382113
-0.384747
-0.387415
-0.390119
-0.392861
-0.395644
-0.39847
-0.401342
-0.404263
-0.407238
-0.410269
-0.413363
-0.416524
-0.41976
-0.423077
-0.426488
-0.430007
-0.433658
-0.437478
-0.441539
-0.445978
-0.451021
-0.457005
-0.465292
-0.480807
-0.235359
-0.236753
-0.237933
-0.23909
-0.240363
-0.241741
-0.243196
-0.244711
-0.246271
-0.247865
-0.249488
-0.251132
-0.252796
-0.254476
-0.256171
-0.257878
-0.259598
-0.261329
-0.263071
-0.264823
-0.266586
-0.268358
-0.270141
-0.271933
-0.273734
-0.275546
-0.277366
-0.279197
-0.281037
-0.282887
-0.284747
-0.286617
-0.288497
-0.290387
-0.292287
-0.294198
-0.296119
-0.298051
-0.299994
-0.301948
-0.303913
-0.30589
-0.307879
-0.309879
-0.311892
-0.313917
-0.315955
-0.318005
-0.320069
-0.322146
-0.324238
-0.326343
-0.328463
-0.330597
-0.332747
-0.334913
-0.337094
-0.339292
-0.341507
-0.34374
-0.34599
-0.348259
-0.350546
-0.352854
-0.355182
-0.357531
-0.359901
-0.362294
-0.364711
-0.367152
-0.369618
-0.372111
-0.374631
-0.377181
-0.37976
-0.382371
-0.385016
-0.387695
-0.390413
-0.393169
-0.395968
-0.398812
-0.401704
-0.404648
-0.407648
-0.41071
-0.413839
-0.417043
-0.420332
-0.423716
-0.427213
-0.430843
-0.43464
-0.43865
-0.442945
-0.447635
-0.452862
-0.458803
-0.465858
-0.474722
-0.234393
-0.236156
-0.237622
-0.238937
-0.240301
-0.241732
-0.243216
-0.244745
-0.246311
-0.247909
-0.249533
-0.251178
-0.252842
-0.254522
-0.256216
-0.257924
-0.259644
-0.261375
-0.263118
-0.264871
-0.266634
-0.268408
-0.270191
-0.271984
-0.273787
-0.275599
-0.277422
-0.279253
-0.281095
-0.282946
-0.284808
-0.286679
-0.28856
-0.290452
-0.292354
-0.294266
-0.296189
-0.298123
-0.300067
-0.302023
-0.303991
-0.305969
-0.30796
-0.309962
-0.311977
-0.314004
-0.316044
-0.318097
-0.320163
-0.322243
-0.324336
-0.326444
-0.328566
-0.330704
-0.332856
-0.335025
-0.337209
-0.33941
-0.341628
-0.343864
-0.346117
-0.348389
-0.350681
-0.352992
-0.355324
-0.357677
-0.360052
-0.36245
-0.364871
-0.367317
-0.369789
-0.372288
-0.374814
-0.37737
-0.379956
-0.382574
-0.385227
-0.387915
-0.390642
-0.393408
-0.396218
-0.399074
-0.401979
-0.404938
-0.407956
-0.411037
-0.414189
-0.41742
-0.420739
-0.42416
-0.427698
-0.431376
-0.435221
-0.439269
-0.443565
-0.448158
-0.453087
-0.45833
-0.463776
-0.469106
-0.233804
-0.23572
-0.237342
-0.238766
-0.240207
-0.241688
-0.243203
-0.24475
-0.246328
-0.247932
-0.249559
-0.251207
-0.252872
-0.254553
-0.256249
-0.257957
-0.259678
-0.26141
-0.263154
-0.264907
-0.266672
-0.268446
-0.27023
-0.272025
-0.273828
-0.275642
-0.277465
-0.279298
-0.281141
-0.282994
-0.284856
-0.286729
-0.288612
-0.290504
-0.292408
-0.294321
-0.296246
-0.298181
-0.300127
-0.302085
-0.304053
-0.306034
-0.308026
-0.31003
-0.312046
-0.314075
-0.316117
-0.318172
-0.32024
-0.322321
-0.324417
-0.326527
-0.328651
-0.330791
-0.332945
-0.335116
-0.337303
-0.339506
-0.341726
-0.343965
-0.346221
-0.348496
-0.35079
-0.353104
-0.355439
-0.357795
-0.360173
-0.362575
-0.364999
-0.367449
-0.369925
-0.372427
-0.374958
-0.377518
-0.380109
-0.382732
-0.385389
-0.388083
-0.390815
-0.393588
-0.396404
-0.399266
-0.402179
-0.405145
-0.40817
-0.41126
-0.41442
-0.417658
-0.420985
-0.42441
-0.427947
-0.431612
-0.435422
-0.439394
-0.44354
-0.447854
-0.452294
-0.456733
-0.460918
-0.464393
-0.233397
-0.235387
-0.237102
-0.238603
-0.240102
-0.241626
-0.24317
-0.244736
-0.246326
-0.247938
-0.249571
-0.251222
-0.25289
-0.254572
-0.256269
-0.257979
-0.259701
-0.261434
-0.263178
-0.264933
-0.266698
-0.268473
-0.270259
-0.272054
-0.273859
-0.275673
-0.277498
-0.279332
-0.281176
-0.283029
-0.284893
-0.286767
-0.28865
-0.290545
-0.292449
-0.294364
-0.29629
-0.298226
-0.300174
-0.302132
-0.304102
-0.306084
-0.308077
-0.310083
-0.312101
-0.314131
-0.316174
-0.31823
-0.3203
-0.322383
-0.32448
-0.326591
-0.328717
-0.330858
-0.333015
-0.335187
-0.337375
-0.33958
-0.341802
-0.344042
-0.3463
-0.348577
-0.350873
-0.35319
-0.355526
-0.357884
-0.360265
-0.362668
-0.365095
-0.367547
-0.370024
-0.372529
-0.375062
-0.377624
-0.380217
-0.382842
-0.385502
-0.388197
-0.390931
-0.393705
-0.396522
-0.399384
-0.402297
-0.405262
-0.408285
-0.41137
-0.414522
-0.41775
-0.421058
-0.424456
-0.427952
-0.431552
-0.435263
-0.439081
-0.442992
-0.446952
-0.450874
-0.454595
-0.457851
-0.460252
-0.233101
-0.235125
-0.236896
-0.238448
-0.239991
-0.241551
-0.243121
-0.244706
-0.246308
-0.247929
-0.249568
-0.251223
-0.252894
-0.254579
-0.256278
-0.257989
-0.259712
-0.261446
-0.263191
-0.264947
-0.266713
-0.268489
-0.270275
-0.272071
-0.273877
-0.275692
-0.277518
-0.279353
-0.281197
-0.283052
-0.284917
-0.286791
-0.288676
-0.290571
-0.292476
-0.294392
-0.296319
-0.298256
-0.300205
-0.302164
-0.304135
-0.306118
-0.308113
-0.310119
-0.312138
-0.314169
-0.316213
-0.31827
-0.320341
-0.322425
-0.324523
-0.326635
-0.328762
-0.330904
-0.333062
-0.335235
-0.337425
-0.339631
-0.341854
-0.344095
-0.346354
-0.348631
-0.350928
-0.353245
-0.355583
-0.357942
-0.360323
-0.362727
-0.365154
-0.367606
-0.370084
-0.372589
-0.375121
-0.377683
-0.380275
-0.382899
-0.385557
-0.38825
-0.390981
-0.393751
-0.396563
-0.39942
-0.402324
-0.405279
-0.408288
-0.411355
-0.414484
-0.417681
-0.420948
-0.42429
-0.427709
-0.431204
-0.434769
-0.438386
-0.44202
-0.445609
-0.449048
-0.452174
-0.454758
-0.456507
-0.232866
-0.234905
-0.236712
-0.238299
-0.239877
-0.241466
-0.243058
-0.24466
-0.246275
-0.247905
-0.249551
-0.251211
-0.252885
-0.254573
-0.256273
-0.257986
-0.25971
-0.261445
-0.263191
-0.264948
-0.266715
-0.268492
-0.270279
-0.272075
-0.273882
-0.275698
-0.277524
-0.27936
-0.281205
-0.283061
-0.284926
-0.286801
-0.288687
-0.290582
-0.292489
-0.294405
-0.296332
-0.298271
-0.30022
-0.30218
-0.304152
-0.306135
-0.30813
-0.310137
-0.312157
-0.314188
-0.316233
-0.318291
-0.320362
-0.322446
-0.324545
-0.326658
-0.328785
-0.330928
-0.333085
-0.335259
-0.337449
-0.339655
-0.341878
-0.344119
-0.346378
-0.348656
-0.350952
-0.353269
-0.355606
-0.357964
-0.360344
-0.362747
-0.365173
-0.367624
-0.3701
-0.372602
-0.375132
-0.37769
-0.380279
-0.382898
-0.385551
-0.388238
-0.390961
-0.393721
-0.396522
-0.399365
-0.402253
-0.405188
-0.408172
-0.411208
-0.414299
-0.417446
-0.420651
-0.423913
-0.427229
-0.43059
-0.433981
-0.437373
-0.440721
-0.443954
-0.446968
-0.449617
-0.451719
-0.453065
-0.232664
-0.23471
-0.23654
-0.238152
-0.239756
-0.241369
-0.242982
-0.244599
-0.246227
-0.247866
-0.249518
-0.251183
-0.252861
-0.254552
-0.256254
-0.257969
-0.259694
-0.261431
-0.263178
-0.264935
-0.266703
-0.268481
-0.270268
-0.272066
-0.273873
-0.275689
-0.277516
-0.279352
-0.281198
-0.283054
-0.28492
-0.286796
-0.288682
-0.290578
-0.292484
-0.294401
-0.296329
-0.298268
-0.300217
-0.302178
-0.30415
-0.306133
-0.308129
-0.310136
-0.312155
-0.314187
-0.316232
-0.31829
-0.320361
-0.322445
-0.324544
-0.326656
-0.328784
-0.330926
-0.333083
-0.335256
-0.337445
-0.339651
-0.341873
-0.344113
-0.346371
-0.348647
-0.350943
-0.353257
-0.355593
-0.357949
-0.360326
-0.362726
-0.365149
-0.367596
-0.370068
-0.372566
-0.37509
-0.377642
-0.380224
-0.382835
-0.385478
-0.388154
-0.390864
-0.39361
-0.396393
-0.399216
-0.402079
-0.404984
-0.407933
-0.410926
-0.413965
-0.417048
-0.420174
-0.423337
-0.42653
-0.429739
-0.432942
-0.436104
-0.439175
-0.442085
-0.444737
-0.447012
-0.448766
-0.449854
-0.232476
-0.234526
-0.236374
-0.238004
-0.239627
-0.24126
-0.242891
-0.244523
-0.246162
-0.24781
-0.249469
-0.25114
-0.252822
-0.254516
-0.256221
-0.257937
-0.259664
-0.261402
-0.26315
-0.264908
-0.266676
-0.268455
-0.270243
-0.272041
-0.273848
-0.275665
-0.277492
-0.279329
-0.281175
-0.283031
-0.284897
-0.286773
-0.28866
-0.290556
-0.292462
-0.29438
-0.296307
-0.298246
-0.300195
-0.302156
-0.304128
-0.306111
-0.308106
-0.310113
-0.312133
-0.314164
-0.316208
-0.318266
-0.320336
-0.32242
-0.324518
-0.326629
-0.328756
-0.330897
-0.333053
-0.335224
-0.337412
-0.339616
-0.341837
-0.344074
-0.34633
-0.348604
-0.350896
-0.353208
-0.35554
-0.357892
-0.360266
-0.362661
-0.365079
-0.36752
-0.369986
-0.372476
-0.374992
-0.377535
-0.380106
-0.382706
-0.385335
-0.387995
-0.390688
-0.393413
-0.396173
-0.398968
-0.401798
-0.404665
-0.407569
-0.410509
-0.413484
-0.41649
-0.419524
-0.422576
-0.425636
-0.428684
-0.431696
-0.434634
-0.437448
-0.440072
-0.442424
-0.444403
-0.445904
-0.446824
-0.232293
-0.234346
-0.236207
-0.237849
-0.239488
-0.241138
-0.242784
-0.244429
-0.246079
-0.247737
-0.249403
-0.251079
-0.252765
-0.254463
-0.25617
-0.257889
-0.259617
-0.261356
-0.263105
-0.264865
-0.266634
-0.268412
-0.270201
-0.271999
-0.273807
-0.275624
-0.277451
-0.279288
-0.281135
-0.282991
-0.284857
-0.286733
-0.288619
-0.290515
-0.292422
-0.294338
-0.296266
-0.298204
-0.300153
-0.302113
-0.304085
-0.306067
-0.308062
-0.310068
-0.312087
-0.314117
-0.316161
-0.318217
-0.320286
-0.322368
-0.324465
-0.326575
-0.328699
-0.330839
-0.332993
-0.335162
-0.337347
-0.339549
-0.341766
-0.344001
-0.346253
-0.348523
-0.350812
-0.353119
-0.355446
-0.357793
-0.36016
-0.362549
-0.36496
-0.367393
-0.369849
-0.37233
-0.374835
-0.377366
-0.379923
-0.382507
-0.385118
-0.387759
-0.390428
-0.393128
-0.395858
-0.398619
-0.40141
-0.404231
-0.407082
-0.40996
-0.412861
-0.415782
-0.418714
-0.421648
-0.424569
-0.427455
-0.430281
-0.433008
-0.435589
-0.437967
-0.440069
-0.441817
-0.44313
-0.443937
-0.232108
-0.234163
-0.236034
-0.237687
-0.239337
-0.241001
-0.24266
-0.244317
-0.245978
-0.247644
-0.249317
-0.250999
-0.25269
-0.254391
-0.256102
-0.257822
-0.259553
-0.261293
-0.263043
-0.264803
-0.266573
-0.268352
-0.270141
-0.27194
-0.273748
-0.275565
-0.277392
-0.279229
-0.281075
-0.282931
-0.284797
-0.286673
-0.288558
-0.290454
-0.29236
-0.294276
-0.296203
-0.298141
-0.300089
-0.302048
-0.304019
-0.306
-0.307994
-0.309999
-0.312016
-0.314045
-0.316087
-0.318141
-0.320209
-0.322289
-0.324383
-0.326491
-0.328613
-0.33075
-0.332901
-0.335067
-0.337249
-0.339447
-0.34166
-0.343891
-0.346138
-0.348403
-0.350686
-0.352988
-0.355308
-0.357648
-0.360007
-0.362388
-0.364789
-0.367212
-0.369657
-0.372125
-0.374616
-0.377131
-0.379671
-0.382236
-0.384826
-0.387442
-0.390085
-0.392753
-0.395448
-0.398169
-0.400915
-0.403684
-0.406474
-0.409283
-0.412105
-0.414933
-0.41776
-0.420571
-0.423352
-0.426081
-0.428729
-0.431263
-0.433637
-0.435802
-0.437698
-0.439264
-0.440437
-0.441167
-0.231915
-0.233973
-0.235854
-0.237513
-0.239172
-0.240848
-0.242519
-0.244187
-0.245857
-0.247531
-0.249211
-0.250899
-0.252595
-0.2543
-0.256013
-0.257736
-0.259469
-0.261211
-0.262962
-0.264723
-0.266493
-0.268273
-0.270062
-0.271861
-0.273669
-0.275486
-0.277313
-0.27915
-0.280996
-0.282851
-0.284716
-0.286592
-0.288477
-0.290372
-0.292277
-0.294192
-0.296118
-0.298054
-0.300001
-0.301959
-0.303928
-0.305909
-0.3079
-0.309904
-0.311919
-0.313946
-0.315986
-0.318038
-0.320103
-0.322181
-0.324272
-0.326377
-0.328495
-0.330628
-0.332776
-0.334938
-0.337115
-0.339308
-0.341517
-0.343742
-0.345983
-0.348242
-0.350518
-0.352812
-0.355124
-0.357455
-0.359805
-0.362174
-0.364564
-0.366974
-0.369406
-0.371858
-0.374333
-0.37683
-0.379349
-0.381891
-0.384456
-0.387044
-0.389655
-0.392289
-0.394944
-0.39762
-0.400315
-0.403026
-0.405751
-0.408486
-0.411223
-0.413956
-0.416674
-0.419363
-0.422008
-0.424585
-0.427069
-0.429426
-0.431619
-0.433602
-0.435329
-0.436748
-0.437815
-0.438493
-0.231713
-0.233772
-0.235662
-0.237327
-0.238993
-0.240679
-0.24236
-0.244037
-0.245715
-0.247397
-0.249084
-0.250778
-0.252478
-0.254187
-0.255904
-0.257629
-0.259364
-0.261107
-0.26286
-0.264622
-0.266393
-0.268173
-0.269963
-0.271761
-0.273569
-0.275386
-0.277213
-0.279049
-0.280894
-0.282749
-0.284614
-0.286488
-0.288372
-0.290266
-0.29217
-0.294084
-0.296009
-0.297944
-0.299889
-0.301846
-0.303813
-0.305791
-0.307781
-0.309782
-0.311794
-0.313819
-0.315856
-0.317905
-0.319967
-0.322041
-0.324129
-0.32623
-0.328344
-0.330472
-0.332615
-0.334772
-0.336944
-0.339131
-0.341334
-0.343552
-0.345786
-0.348037
-0.350305
-0.352589
-0.354892
-0.357212
-0.359551
-0.361908
-0.364284
-0.366679
-0.369095
-0.37153
-0.373985
-0.37646
-0.378956
-0.381472
-0.384009
-0.386565
-0.389141
-0.391735
-0.394346
-0.396973
-0.399612
-0.402262
-0.404918
-0.407575
-0.410226
-0.412861
-0.415471
-0.418041
-0.420554
-0.422989
-0.425322
-0.427521
-0.429554
-0.431383
-0.432969
-0.434272
-0.435258
-0.435899
-0.231497
-0.233559
-0.235456
-0.237126
-0.238798
-0.240491
-0.242181
-0.243866
-0.245552
-0.247241
-0.248935
-0.250634
-0.252339
-0.254052
-0.255772
-0.2575
-0.259237
-0.260982
-0.262736
-0.264499
-0.266271
-0.268051
-0.269841
-0.27164
-0.273447
-0.275264
-0.27709
-0.278926
-0.28077
-0.282625
-0.284488
-0.286361
-0.288244
-0.290137
-0.292039
-0.293952
-0.295874
-0.297808
-0.299751
-0.301705
-0.30367
-0.305646
-0.307633
-0.309631
-0.311641
-0.313662
-0.315695
-0.317741
-0.319799
-0.321869
-0.323952
-0.326048
-0.328158
-0.330281
-0.332418
-0.334569
-0.336734
-0.338914
-0.341109
-0.34332
-0.345545
-0.347787
-0.350045
-0.352319
-0.35461
-0.356918
-0.359243
-0.361586
-0.363947
-0.366325
-0.368722
-0.371137
-0.37357
-0.376022
-0.378491
-0.380978
-0.383483
-0.386004
-0.388541
-0.391093
-0.393657
-0.396231
-0.398813
-0.401398
-0.403982
-0.40656
-0.409122
-0.411661
-0.414165
-0.41662
-0.419008
-0.421311
-0.423505
-0.425564
-0.427458
-0.429156
-0.430625
-0.431834
-0.432756
-0.433372
-0.231266
-0.233331
-0.235235
-0.236908
-0.238585
-0.240285
-0.241982
-0.243674
-0.245367
-0.247063
-0.248763
-0.250467
-0.252177
-0.253893
-0.255617
-0.257348
-0.259087
-0.260834
-0.262589
-0.264353
-0.266125
-0.267906
-0.269696
-0.271495
-0.273302
-0.275119
-0.276944
-0.278779
-0.280623
-0.282476
-0.284338
-0.28621
-0.288091
-0.289982
-0.291882
-0.293793
-0.295714
-0.297644
-0.299585
-0.301537
-0.303499
-0.305472
-0.307455
-0.30945
-0.311456
-0.313474
-0.315503
-0.317544
-0.319598
-0.321663
-0.323741
-0.325832
-0.327936
-0.330052
-0.332183
-0.334327
-0.336484
-0.338656
-0.340843
-0.343044
-0.34526
-0.347491
-0.349738
-0.352
-0.354278
-0.356572
-0.358882
-0.361208
-0.363551
-0.365911
-0.368287
-0.37068
-0.373089
-0.375514
-0.377954
-0.38041
-0.38288
-0.385364
-0.387859
-0.390365
-0.392879
-0.395398
-0.39792
-0.400439
-0.40295
-0.405447
-0.407923
-0.410367
-0.412768
-0.415112
-0.417384
-0.419565
-0.421634
-0.423568
-0.425341
-0.426926
-0.428297
-0.42943
-0.430304
-0.430903
-0.231019
-0.233087
-0.234997
-0.236673
-0.238353
-0.240059
-0.241762
-0.243461
-0.24516
-0.246862
-0.248567
-0.250276
-0.251991
-0.253711
-0.255438
-0.257171
-0.258913
-0.260661
-0.262418
-0.264183
-0.265956
-0.267737
-0.269527
-0.271326
-0.273133
-0.274949
-0.276773
-0.278607
-0.280449
-0.282301
-0.284162
-0.286032
-0.287911
-0.2898
-0.291699
-0.293607
-0.295525
-0.297453
-0.299391
-0.30134
-0.303299
-0.305268
-0.307248
-0.309239
-0.311241
-0.313254
-0.315278
-0.317315
-0.319363
-0.321422
-0.323494
-0.325579
-0.327676
-0.329785
-0.331908
-0.334044
-0.336193
-0.338356
-0.340533
-0.342724
-0.344928
-0.347148
-0.349382
-0.35163
-0.353894
-0.356172
-0.358466
-0.360774
-0.363098
-0.365436
-0.36779
-0.370158
-0.372541
-0.374937
-0.377347
-0.379769
-0.382202
-0.384645
-0.387097
-0.389555
-0.392017
-0.39448
-0.396939
-0.39939
-0.401828
-0.404246
-0.406636
-0.408988
-0.41129
-0.413531
-0.415694
-0.417764
-0.41972
-0.421542
-0.423209
-0.424699
-0.425989
-0.427059
-0.427894
-0.428483
-0.230755
-0.232824
-0.23474
-0.236419
-0.238102
-0.239813
-0.241521
-0.243226
-0.244931
-0.246638
-0.248348
-0.250061
-0.25178
-0.253504
-0.255233
-0.25697
-0.258713
-0.260464
-0.262222
-0.263987
-0.265761
-0.267543
-0.269333
-0.271131
-0.272937
-0.274753
-0.276576
-0.278409
-0.28025
-0.2821
-0.283959
-0.285827
-0.287705
-0.289591
-0.291487
-0.293393
-0.295308
-0.297233
-0.299168
-0.301113
-0.303068
-0.305033
-0.307009
-0.308995
-0.310993
-0.313001
-0.31502
-0.31705
-0.319092
-0.321146
-0.323211
-0.325288
-0.327378
-0.329479
-0.331593
-0.33372
-0.33586
-0.338013
-0.340178
-0.342358
-0.34455
-0.346756
-0.348976
-0.35121
-0.353457
-0.355719
-0.357994
-0.360283
-0.362585
-0.364901
-0.36723
-0.369572
-0.371926
-0.374292
-0.376669
-0.379055
-0.381449
-0.383851
-0.386257
-0.388666
-0.391074
-0.393479
-0.395876
-0.39826
-0.400625
-0.402964
-0.405271
-0.407534
-0.409743
-0.411886
-0.413949
-0.415916
-0.417771
-0.419495
-0.42107
-0.422477
-0.423698
-0.424717
-0.425522
-0.426104
-0.230471
-0.232543
-0.234464
-0.236145
-0.23783
-0.239545
-0.241259
-0.242968
-0.244678
-0.246389
-0.248104
-0.249822
-0.251544
-0.253271
-0.255004
-0.256743
-0.258488
-0.26024
-0.261999
-0.263766
-0.26554
-0.267322
-0.269112
-0.27091
-0.272716
-0.27453
-0.276353
-0.278184
-0.280024
-0.281872
-0.283729
-0.285595
-0.28747
-0.289354
-0.291247
-0.29315
-0.295062
-0.296983
-0.298914
-0.300855
-0.302806
-0.304767
-0.306738
-0.308719
-0.310711
-0.312713
-0.314726
-0.316751
-0.318786
-0.320832
-0.32289
-0.324959
-0.32704
-0.329133
-0.331238
-0.333355
-0.335484
-0.337625
-0.339779
-0.341945
-0.344125
-0.346316
-0.348521
-0.350738
-0.352968
-0.355211
-0.357467
-0.359734
-0.362014
-0.364306
-0.366609
-0.368923
-0.371247
-0.37358
-0.375922
-0.378271
-0.380625
-0.382983
-0.385342
-0.387701
-0.390055
-0.392401
-0.394735
-0.397052
-0.399346
-0.401609
-0.403835
-0.406013
-0.408134
-0.410186
-0.412156
-0.414031
-0.415794
-0.417431
-0.418925
-0.420261
-0.421424
-0.422402
-0.423183
-0.423762
-0.230167
-0.232241
-0.234168
-0.235851
-0.237538
-0.239256
-0.240974
-0.242687
-0.244401
-0.246117
-0.247835
-0.249557
-0.251283
-0.253013
-0.254748
-0.25649
-0.258237
-0.25999
-0.261751
-0.263518
-0.265293
-0.267075
-0.268865
-0.270662
-0.272467
-0.274281
-0.276102
-0.277931
-0.279769
-0.281616
-0.283471
-0.285334
-0.287206
-0.289087
-0.290977
-0.292877
-0.294785
-0.296702
-0.298629
-0.300566
-0.302512
-0.304468
-0.306433
-0.308409
-0.310395
-0.312391
-0.314398
-0.316415
-0.318443
-0.320481
-0.322531
-0.324591
-0.326663
-0.328746
-0.33084
-0.332946
-0.335064
-0.337193
-0.339334
-0.341487
-0.343651
-0.345827
-0.348016
-0.350215
-0.352427
-0.35465
-0.356884
-0.359129
-0.361385
-0.363651
-0.365926
-0.368211
-0.370503
-0.372803
-0.375109
-0.377419
-0.379731
-0.382045
-0.384357
-0.386664
-0.388964
-0.391252
-0.393523
-0.395774
-0.397998
-0.400188
-0.402336
-0.404434
-0.406472
-0.408439
-0.410324
-0.412114
-0.413795
-0.415355
-0.416779
-0.418053
-0.419167
-0.42011
-0.420872
-0.42145
-0.229842
-0.231919
-0.233851
-0.235535
-0.237223
-0.238945
-0.240666
-0.242383
-0.2441
-0.24582
-0.247542
-0.249267
-0.250996
-0.252729
-0.254467
-0.25621
-0.257959
-0.259714
-0.261475
-0.263243
-0.265018
-0.266801
-0.26859
-0.270387
-0.272191
-0.274003
-0.275823
-0.277651
-0.279487
-0.281331
-0.283183
-0.285044
-0.286913
-0.288791
-0.290678
-0.292573
-0.294477
-0.29639
-0.298313
-0.300244
-0.302185
-0.304135
-0.306095
-0.308065
-0.310044
-0.312034
-0.314033
-0.316042
-0.318062
-0.320092
-0.322133
-0.324184
-0.326245
-0.328318
-0.330401
-0.332495
-0.3346
-0.336716
-0.338843
-0.340981
-0.34313
-0.34529
-0.34746
-0.349641
-0.351833
-0.354035
-0.356247
-0.358468
-0.360698
-0.362937
-0.365184
-0.367438
-0.369698
-0.371963
-0.374231
-0.376501
-0.378771
-0.38104
-0.383303
-0.385559
-0.387804
-0.390035
-0.392245
-0.394432
-0.396587
-0.398706
-0.400781
-0.402803
-0.404763
-0.406652
-0.408458
-0.410171
-0.411779
-0.41327
-0.414632
-0.415854
-0.416925
-0.417839
-0.418587
-0.419166
-0.229497
-0.231575
-0.233512
-0.235197
-0.236887
-0.238611
-0.240335
-0.242055
-0.243776
-0.245499
-0.247224
-0.248952
-0.250683
-0.252419
-0.254159
-0.255904
-0.257655
-0.259411
-0.261173
-0.262942
-0.264717
-0.266499
-0.268287
-0.270083
-0.271887
-0.273697
-0.275516
-0.277342
-0.279175
-0.281017
-0.282866
-0.284724
-0.28659
-0.288464
-0.290347
-0.292238
-0.294138
-0.296047
-0.297964
-0.29989
-0.301825
-0.30377
-0.305723
-0.307686
-0.309659
-0.311641
-0.313632
-0.315633
-0.317644
-0.319665
-0.321696
-0.323737
-0.325788
-0.327849
-0.32992
-0.332001
-0.334093
-0.336195
-0.338307
-0.340429
-0.342561
-0.344703
-0.346855
-0.349017
-0.351187
-0.353367
-0.355555
-0.357752
-0.359956
-0.362167
-0.364383
-0.366606
-0.368832
-0.371061
-0.373291
-0.375521
-0.377748
-0.379971
-0.382186
-0.384391
-0.386582
-0.388755
-0.390906
-0.39303
-0.39512
-0.397171
-0.399175
-0.401126
-0.403013
-0.404829
-0.406564
-0.408207
-0.409749
-0.411179
-0.412486
-0.413662
-0.414698
-0.415586
-0.416323
-0.416905
-0.229129
-0.23121
-0.23315
-0.234837
-0.236528
-0.238254
-0.239981
-0.241704
-0.243427
-0.245153
-0.246881
-0.248611
-0.250345
-0.252083
-0.253825
-0.255572
-0.257323
-0.25908
-0.260843
-0.262612
-0.264387
-0.266169
-0.267957
-0.269752
-0.271554
-0.273363
-0.275179
-0.277003
-0.278835
-0.280673
-0.28252
-0.284374
-0.286237
-0.288107
-0.289986
-0.291872
-0.293767
-0.295671
-0.297583
-0.299503
-0.301432
-0.30337
-0.305317
-0.307273
-0.309238
-0.311212
-0.313195
-0.315187
-0.317189
-0.319199
-0.32122
-0.32325
-0.325289
-0.327338
-0.329397
-0.331464
-0.333542
-0.335629
-0.337725
-0.339831
-0.341945
-0.344069
-0.346201
-0.348342
-0.350491
-0.352647
-0.354811
-0.356982
-0.359158
-0.36134
-0.363526
-0.365716
-0.367907
-0.3701
-0.372291
-0.37448
-0.376665
-0.378842
-0.381009
-0.383163
-0.385301
-0.387418
-0.389511
-0.391574
-0.393601
-0.395587
-0.397526
-0.399409
-0.401229
-0.402977
-0.404646
-0.406226
-0.407708
-0.409083
-0.410342
-0.411478
-0.412483
-0.413351
-0.414079
-0.414664
-0.22874
-0.230822
-0.232767
-0.234454
-0.236146
-0.237874
-0.239603
-0.241329
-0.243054
-0.244782
-0.246513
-0.248245
-0.249981
-0.251721
-0.253464
-0.255212
-0.256965
-0.258723
-0.260486
-0.262255
-0.26403
-0.265811
-0.267599
-0.269392
-0.271193
-0.273
-0.274815
-0.276636
-0.278465
-0.2803
-0.282144
-0.283995
-0.285853
-0.287719
-0.289593
-0.291475
-0.293365
-0.295263
-0.297169
-0.299083
-0.301006
-0.302937
-0.304877
-0.306825
-0.308781
-0.310747
-0.312721
-0.314703
-0.316695
-0.318696
-0.320705
-0.322723
-0.32475
-0.326787
-0.328831
-0.330885
-0.332948
-0.335019
-0.337098
-0.339187
-0.341283
-0.343387
-0.345499
-0.347618
-0.349744
-0.351877
-0.354015
-0.356159
-0.358307
-0.360459
-0.362614
-0.36477
-0.366927
-0.369083
-0.371235
-0.373383
-0.375524
-0.377656
-0.379775
-0.38188
-0.383965
-0.386028
-0.388064
-0.390069
-0.392036
-0.393961
-0.395836
-0.397656
-0.399413
-0.4011
-0.402708
-0.404231
-0.405659
-0.406985
-0.408202
-0.409302
-0.410281
-0.411132
-0.411853
-0.412442
-0.228328
-0.230412
-0.232361
-0.234049
-0.235741
-0.237471
-0.239202
-0.240929
-0.242657
-0.244387
-0.24612
-0.247854
-0.249592
-0.251333
-0.253078
-0.254827
-0.25658
-0.258339
-0.260102
-0.261871
-0.263646
-0.265426
-0.267212
-0.269005
-0.270803
-0.272609
-0.274421
-0.27624
-0.278065
-0.279898
-0.281738
-0.283585
-0.285439
-0.287301
-0.28917
-0.291046
-0.292931
-0.294823
-0.296723
-0.298631
-0.300546
-0.30247
-0.304402
-0.306342
-0.30829
-0.310246
-0.31221
-0.314183
-0.316164
-0.318154
-0.320151
-0.322157
-0.324172
-0.326194
-0.328225
-0.330264
-0.332311
-0.334365
-0.336428
-0.338498
-0.340575
-0.342659
-0.344749
-0.346846
-0.348949
-0.351057
-0.353169
-0.355285
-0.357405
-0.359527
-0.361649
-0.363772
-0.365894
-0.368012
-0.370126
-0.372232
-0.374331
-0.376417
-0.37849
-0.380545
-0.38258
-0.38459
-0.386571
-0.388519
-0.390429
-0.392295
-0.394112
-0.395873
-0.397571
-0.399201
-0.400754
-0.402224
-0.403604
-0.404886
-0.406065
-0.407135
-0.40809
-0.408927
-0.409643
-0.410236
-0.227894
-0.22998
-0.231932
-0.233621
-0.235314
-0.237045
-0.238778
-0.240507
-0.242236
-0.243968
-0.245702
-0.247438
-0.249177
-0.250919
-0.252665
-0.254415
-0.256169
-0.257928
-0.259691
-0.26146
-0.263234
-0.265013
-0.266798
-0.268589
-0.270386
-0.272189
-0.273998
-0.275814
-0.277637
-0.279466
-0.281302
-0.283145
-0.284994
-0.286851
-0.288715
-0.290587
-0.292465
-0.294351
-0.296244
-0.298145
-0.300053
-0.301969
-0.303893
-0.305824
-0.307763
-0.30971
-0.311664
-0.313626
-0.315596
-0.317574
-0.31956
-0.321553
-0.323554
-0.325562
-0.327578
-0.329601
-0.331632
-0.333669
-0.335714
-0.337765
-0.339822
-0.341885
-0.343954
-0.346028
-0.348106
-0.350189
-0.352275
-0.354363
-0.356453
-0.358544
-0.360635
-0.362724
-0.364809
-0.36689
-0.368965
-0.371031
-0.373087
-0.375129
-0.377155
-0.379163
-0.381148
-0.383107
-0.385036
-0.38693
-0.388785
-0.390596
-0.392357
-0.394063
-0.395707
-0.397284
-0.398786
-0.400208
-0.401544
-0.402788
-0.403933
-0.404975
-0.405911
-0.406735
-0.407447
-0.408045
-0.227438
-0.229525
-0.23148
-0.233171
-0.234863
-0.236595
-0.23833
-0.24006
-0.241791
-0.243524
-0.24526
-0.246997
-0.248737
-0.250481
-0.252227
-0.253978
-0.255732
-0.257491
-0.259254
-0.261022
-0.262794
-0.264573
-0.266356
-0.268145
-0.26994
-0.271741
-0.273547
-0.27536
-0.277179
-0.279005
-0.280837
-0.282675
-0.28452
-0.286372
-0.28823
-0.290096
-0.291968
-0.293847
-0.295734
-0.297627
-0.299528
-0.301435
-0.30335
-0.305272
-0.307202
-0.309138
-0.311082
-0.313034
-0.314992
-0.316958
-0.31893
-0.32091
-0.322897
-0.324891
-0.326891
-0.328898
-0.330912
-0.332932
-0.334958
-0.336989
-0.339026
-0.341068
-0.343114
-0.345164
-0.347218
-0.349275
-0.351334
-0.353394
-0.355454
-0.357514
-0.359572
-0.361627
-0.363677
-0.365721
-0.367757
-0.369783
-0.371796
-0.373795
-0.375776
-0.377737
-0.379674
-0.381584
-0.383462
-0.385305
-0.387108
-0.388867
-0.390576
-0.39223
-0.393824
-0.395351
-0.396807
-0.398186
-0.399482
-0.40069
-0.401806
-0.402824
-0.403742
-0.404556
-0.405266
-0.405869
-0.226959
-0.229048
-0.231007
-0.232698
-0.23439
-0.236123
-0.237859
-0.239591
-0.241323
-0.243057
-0.244793
-0.246532
-0.248273
-0.250017
-0.251764
-0.253515
-0.255269
-0.257027
-0.25879
-0.260557
-0.262329
-0.264105
-0.265887
-0.267674
-0.269467
-0.271265
-0.273068
-0.274878
-0.276693
-0.278515
-0.280342
-0.282176
-0.284016
-0.285862
-0.287715
-0.289574
-0.29144
-0.293312
-0.295191
-0.297077
-0.298969
-0.300869
-0.302775
-0.304687
-0.306607
-0.308533
-0.310466
-0.312406
-0.314352
-0.316305
-0.318264
-0.32023
-0.322203
-0.324181
-0.326166
-0.328156
-0.330152
-0.332154
-0.33416
-0.336172
-0.338188
-0.340208
-0.342231
-0.344258
-0.346286
-0.348317
-0.350348
-0.35238
-0.35441
-0.356439
-0.358464
-0.360485
-0.3625
-0.364507
-0.366505
-0.368491
-0.370463
-0.372419
-0.374356
-0.376272
-0.378162
-0.380024
-0.381854
-0.383648
-0.385402
-0.387112
-0.388772
-0.390377
-0.391924
-0.393407
-0.39482
-0.396159
-0.397419
-0.398595
-0.399684
-0.400681
-0.401584
-0.40239
-0.403097
-0.403705
-0.226459
-0.228549
-0.230511
-0.232202
-0.233895
-0.235629
-0.237366
-0.239098
-0.240831
-0.242566
-0.244304
-0.246043
-0.247784
-0.249529
-0.251276
-0.253027
-0.254781
-0.256539
-0.2583
-0.260066
-0.261837
-0.263612
-0.265392
-0.267177
-0.268966
-0.270761
-0.272562
-0.274368
-0.276179
-0.277996
-0.279819
-0.281648
-0.283483
-0.285323
-0.28717
-0.289023
-0.290882
-0.292747
-0.294618
-0.296496
-0.29838
-0.30027
-0.302166
-0.304069
-0.305978
-0.307894
-0.309815
-0.311743
-0.313677
-0.315617
-0.317562
-0.319514
-0.321471
-0.323434
-0.325402
-0.327376
-0.329354
-0.331337
-0.333324
-0.335315
-0.337309
-0.339307
-0.341307
-0.343309
-0.345313
-0.347317
-0.349321
-0.351323
-0.353324
-0.355321
-0.357314
-0.359301
-0.361281
-0.363251
-0.365211
-0.367158
-0.36909
-0.371004
-0.372899
-0.37477
-0.376616
-0.378432
-0.380216
-0.381964
-0.383671
-0.385334
-0.386948
-0.388508
-0.390012
-0.391452
-0.392826
-0.394129
-0.395356
-0.396504
-0.397569
-0.398547
-0.399436
-0.400235
-0.400941
-0.401555
-0.225937
-0.228029
-0.229993
-0.231685
-0.233378
-0.235112
-0.23685
-0.238583
-0.240317
-0.242053
-0.243791
-0.24553
-0.247272
-0.249017
-0.250764
-0.252514
-0.254268
-0.256025
-0.257786
-0.259551
-0.261319
-0.263093
-0.26487
-0.266653
-0.26844
-0.270231
-0.272028
-0.27383
-0.275638
-0.27745
-0.279268
-0.281092
-0.282921
-0.284756
-0.286596
-0.288442
-0.290294
-0.292151