/*--------------------------------*- C++ -*----------------------------------*\
| =========                 |                                                 |
| \\      /  F ield         | OpenFOAM: The Open Source CFD Toolbox           |
|  \\    /   O peration     | Version:  2406                                  |
|   \\  /    A nd           | Website:  www.openfoam.com                      |
|    \\/     M anipulation  |                                                 |
\*---------------------------------------------------------------------------*/
FoamFile
{
    version     2.0;
    format      ascii;
    arch        "LSB;label=32;scalar=64";
    class       volVectorField;
    location    "87";
    object      U;
}
// * * * * * * * * * * * * * * * * * * * * * * * * * * * * * * * * * * * * * //

dimensions      [0 1 -1 0 0 0 0];

internalField   nonuniform List<vector> 
1916
(
(0.0992799 -0.00136337 0)
(0.101225 -0.00165311 0)
(0.103272 -0.0011044 0)
(0.1051 -0.000667895 0)
(0.10645 -0.00042741 0)
(0.107437 -0.000284138 0)
(0.108193 -0.00019205 0)
(0.108782 -0.000135081 0)
(0.109247 -0.000100488 0)
(0.109622 -7.82553e-05 0)
(0.10993 -6.27618e-05 0)
(0.110187 -5.134e-05 0)
(0.110404 -4.24803e-05 0)
(0.110589 -3.52269e-05 0)
(0.110745 -2.8935e-05 0)
(0.110878 -2.32253e-05 0)
(0.110988 -1.77303e-05 0)
(0.111079 -1.2118e-05 0)
(0.111148 -5.98351e-06 0)
(0.111197 1.03554e-06 0)
(0.111221 9.42812e-06 0)
(0.111218 1.96907e-05 0)
(0.111182 3.24814e-05 0)
(0.111107 4.86182e-05 0)
(0.11098 6.93148e-05 0)
(0.11079 9.60501e-05 0)
(0.110518 0.000130766 0)
(0.11014 0.000175818 0)
(0.109624 0.000234254 0)
(0.108929 0.00030977 0)
(0.108002 0.000406933 0)
(0.106776 0.000530993 0)
(0.105164 0.000687841 0)
(0.10306 0.000883352 0)
(0.100335 0.00112259 0)
(0.0968354 0.00140801 0)
(0.0923884 0.00173707 0)
(0.0868104 0.00209856 0)
(0.0799261 0.00246851 0)
(0.0716013 0.00280606 0)
(0.0617923 0.00305173 0)
(0.0506145 0.00312835 0)
(0.0384234 0.00294885 0)
(0.0259271 0.00241774 0)
(0.0143436 0.00144221 0)
(0.00556386 -0.000127073 0)
(-0.000113065 -0.000852779 0)
(0.276571 -0.00161084 0)
(0.276051 -0.00285455 0)
(0.276171 -0.00273841 0)
(0.276658 -0.00228584 0)
(0.277353 -0.00185477 0)
(0.278117 -0.00148435 0)
(0.278859 -0.00117755 0)
(0.279541 -0.00093802 0)
(0.280152 -0.000757574 0)
(0.280694 -0.000621411 0)
(0.281171 -0.000516506 0)
(0.281591 -0.000433904 0)
(0.28196 -0.000367404 0)
(0.282284 -0.000312438 0)
(0.282567 -0.000265461 0)
(0.282813 -0.000223823 0)
(0.283025 -0.000185355 0)
(0.283204 -0.000148175 0)
(0.28335 -0.000110315 0)
(0.283461 -6.97217e-05 0)
(0.283535 -2.39776e-05 0)
(0.283565 2.96494e-05 0)
(0.283545 9.45353e-05 0)
(0.283463 0.000174892 0)
(0.283304 0.000276326 0)
(0.283048 0.000406033 0)
(0.282666 0.000573421 0)
(0.282123 0.000790515 0)
(0.281369 0.00107286 0)
(0.28034 0.00144015 0)
(0.278952 0.00191736 0)
(0.277092 0.0025354 0)
(0.274617 0.00333193 0)
(0.271337 0.00435121 0)
(0.267014 0.00564299 0)
(0.261339 0.00725884 0)
(0.25393 0.009245 0)
(0.244321 0.011629 0)
(0.231961 0.0143984 0)
(0.216235 0.0174677 0)
(0.196522 0.0206354 0)
(0.172315 0.0235287 0)
(0.14342 0.0255601 0)
(0.110312 0.0258911 0)
(0.0745408 0.0235863 0)
(0.0398136 0.0177474 0)
(0.00746033 0.0098295 0)
(0.436822 -0.000850925 0)
(0.436423 -0.00181086 0)
(0.436021 -0.0020721 0)
(0.435592 -0.00204303 0)
(0.435373 -0.00193117 0)
(0.43538 -0.00177331 0)
(0.435521 -0.0015866 0)
(0.43573 -0.00139803 0)
(0.435975 -0.00122523 0)
(0.436238 -0.00107265 0)
(0.436506 -0.00093899 0)
(0.436767 -0.00082207 0)
(0.437015 -0.000719631 0)
(0.437248 -0.000629079 0)
(0.437463 -0.000547625 0)
(0.437658 -0.000472551 0)
(0.437832 -0.000401274 0)
(0.437984 -0.00033113 0)
(0.438111 -0.000259143 0)
(0.438211 -0.000181833 0)
(0.438279 -9.51073e-05 0)
(0.438309 5.97927e-06 0)
(0.438294 0.000127596 0)
(0.438223 0.000277676 0)
(0.438081 0.000466521 0)
(0.437848 0.000707585 0)
(0.437499 0.0010184 0)
(0.436998 0.00142183 0)
(0.436298 0.00194753 0)
(0.435338 0.00263397 0)
(0.434033 0.00353064 0)
(0.432272 0.00470085 0)
(0.429909 0.00622453 0)
(0.426746 0.00820105 0)
(0.422521 0.0107511 0)
(0.416885 0.0140165 0)
(0.409376 0.0181549 0)
(0.399384 0.0233269 0)
(0.386113 0.0296668 0)
(0.368544 0.0372286 0)
(0.345404 0.0458969 0)
(0.315197 0.0552362 0)
(0.276296 0.0643091 0)
(0.227343 0.0714152 0)
(0.167682 0.0742573 0)
(0.100054 0.0696785 0)
(0.0242251 0.051726 0)
(0.576991 -0.000466218 0)
(0.576841 -0.00116834 0)
(0.576592 -0.00151897 0)
(0.576117 -0.00163627 0)
(0.575691 -0.00164751 0)
(0.575417 -0.00159869 0)
(0.575245 -0.00150686 0)
(0.575133 -0.0013926 0)
(0.575065 -0.00127359 0)
(0.575037 -0.00115835 0)
(0.575039 -0.00104936 0)
(0.575062 -0.000947232 0)
(0.575097 -0.00085192 0)
(0.575141 -0.000762612 0)
(0.57519 -0.000677775 0)
(0.575239 -0.000595472 0)
(0.575286 -0.000513516 0)
(0.575328 -0.000429344 0)
(0.575361 -0.000339738 0)
(0.575382 -0.000240604 0)
(0.575388 -0.00012679 0)
(0.575372 8.18044e-06 0)
(0.575328 0.000172581 0)
(0.575248 0.000377158 0)
(0.575121 0.000636013 0)
(0.574931 0.00096771 0)
(0.57466 0.00139668 0)
(0.574281 0.00195502 0)
(0.57376 0.00268487 0)
(0.573049 0.00364142 0)
(0.572086 0.00489683 0)
(0.570783 0.00654507 0)
(0.569024 0.0087079 0)
(0.566647 0.0115418 0)
(0.563429 0.0152458 0)
(0.55906 0.0200692 0)
(0.553107 0.0263173 0)
(0.544958 0.0343508 0)
(0.533748 0.044573 0)
(0.518257 0.0573866 0)
(0.49676 0.0731057 0)
(0.466872 0.091754 0)
(0.425322 0.11278 0)
(0.368077 0.134373 0)
(0.290092 0.153367 0)
(0.189206 0.163191 0)
(0.0543964 0.142127 0)
(0.697078 -0.00029507 0)
(0.697041 -0.000800636 0)
(0.696942 -0.00111777 0)
(0.696578 -0.00126651 0)
(0.696177 -0.00131951 0)
(0.695866 -0.00131785 0)
(0.695622 -0.00127651 0)
(0.695412 -0.00120882 0)
(0.695227 -0.00112857 0)
(0.695072 -0.00104464 0)
(0.694942 -0.000960914 0)
(0.694832 -0.000878984 0)
(0.694737 -0.00079952 0)
(0.694655 -0.000722335 0)
(0.694583 -0.000646387 0)
(0.694519 -0.000570026 0)
(0.69446 -0.000491192 0)
(0.694405 -0.000407303 0)
(0.694352 -0.000314993 0)
(0.694298 -0.000209824 0)
(0.694242 -8.60575e-05 0)
(0.69418 6.36704e-05 0)
(0.694108 0.000248863 0)
(0.694023 0.000481945 0)
(0.693918 0.000779302 0)
(0.693787 0.00116263 0)
(0.69362 0.00166066 0)
(0.693403 0.00231143 0)
(0.69312 0.00316522 0)
(0.692746 0.00428862 0)
(0.692247 0.00576966 0)
(0.691577 0.00772482 0)
(0.690667 0.010308 0)
(0.689422 0.0137221 0)
(0.687699 0.0182342 0)
(0.685287 0.0241938 0)
(0.681871 0.0320559 0)
(0.676967 0.0424058 0)
(0.669831 0.0559854 0)
(0.65931 0.0737044 0)
(0.643579 0.0966361 0)
(0.619827 0.125882 0)
(0.583492 0.162437 0)
(0.527993 0.206196 0)
(0.442067 0.256098 0)
(0.313986 0.306281 0)
(0.104929 0.3189 0)
(0.79713 -0.000197551 0)
(0.797145 -0.000554059 0)
(0.797132 -0.000807905 0)
(0.796857 -0.000951615 0)
(0.796506 -0.00101999 0)
(0.796209 -0.00104098 0)
(0.795961 -0.00102688 0)
(0.795731 -0.000987092 0)
(0.795516 -0.000931983 0)
(0.79532 -0.000869541 0)
(0.795144 -0.000804104 0)
(0.794984 -0.000737761 0)
(0.794837 -0.000671522 0)
(0.794702 -0.000605525 0)
(0.794578 -0.00053904 0)
(0.794463 -0.000470653 0)
(0.794356 -0.000398439 0)
(0.794256 -0.000319899 0)
(0.794163 -0.000231705 0)
(0.794077 -0.000129416 0)
(0.793997 -7.2066e-06 0)
(0.793923 0.000142468 0)
(0.793856 0.000329399 0)
(0.793796 0.000566415 0)
(0.793743 0.000870476 0)
(0.7937 0.00126411 0)
(0.793667 0.00177727 0)
(0.793648 0.00244982 0)
(0.793643 0.00333485 0)
(0.793656 0.00450314 0)
(0.793687 0.00604931 0)
(0.793738 0.00810007 0)
(0.793802 0.0108256 0)
(0.793868 0.0144551 0)
(0.793903 0.0192979 0)
(0.793845 0.0257733 0)
(0.79357 0.0344513 0)
(0.792848 0.0461088 0)
(0.791254 0.06181 0)
(0.788026 0.0830038 0)
(0.781746 0.111695 0)
(0.769999 0.1505 0)
(0.748002 0.203209 0)
(0.708546 0.273339 0)
(0.635272 0.368407 0)
(0.51094 0.479461 0)
(0.221615 0.58168 0)
(0.877163 -0.000132936 0)
(0.877202 -0.000379321 0)
(0.877236 -0.000568856 0)
(0.87702 -0.000689188 0)
(0.876712 -0.00075453 0)
(0.876435 -0.000781657 0)
(0.876194 -0.000780081 0)
(0.875963 -0.000756732 0)
(0.87574 -0.000718957 0)
(0.87553 -0.000672956 0)
(0.875336 -0.000622582 0)
(0.875157 -0.000569909 0)
(0.874991 -0.000516002 0)
(0.874837 -0.000461139 0)
(0.874694 -0.000404827 0)
(0.874562 -0.000345925 0)
(0.874441 -0.000282783 0)
(0.874329 -0.000213188 0)
(0.874229 -0.000134158 0)
(0.874141 -4.1675e-05 0)
(0.874068 6.95772e-05 0)
(0.874012 0.000206531 0)
(0.873976 0.000378217 0)
(0.873966 0.000596492 0)
(0.873989 0.000877053 0)
(0.874054 0.0012408 0)
(0.874175 0.00171562 0)
(0.874368 0.00233877 0)
(0.874655 0.00316013 0)
(0.875065 0.00424666 0)
(0.875637 0.0056886 0)
(0.87642 0.00760809 0)
(0.877476 0.0101713 0)
(0.878884 0.0136058 0)
(0.880742 0.0182253 0)
(0.883165 0.0244661 0)
(0.886279 0.0329414 0)
(0.890212 0.0445216 0)
(0.895042 0.0604633 0)
(0.900755 0.0825918 0)
(0.906931 0.113675 0)
(0.912873 0.157738 0)
(0.914932 0.221854 0)
(0.911362 0.315141 0)
(0.87127 0.46389 0)
(0.83109 0.707531 0)
(0.296297 1.14635 0)
(0.937184 -8.55052e-05 0)
(0.937234 -0.000246213 0)
(0.937293 -0.000375267 0)
(0.937116 -0.000462643 0)
(0.936838 -0.000513397 0)
(0.936579 -0.000536724 0)
(0.936346 -0.00053906 0)
(0.936118 -0.000525153 0)
(0.935892 -0.000499778 0)
(0.935677 -0.000467173 0)
(0.935475 -0.000430239 0)
(0.935288 -0.00039067 0)
(0.935113 -0.000349371 0)
(0.93495 -0.000306615 0)
(0.934801 -0.000262072 0)
(0.934664 -0.000214894 0)
(0.934541 -0.000163802 0)
(0.93443 -0.000107054 0)
(0.934335 -4.22804e-05 0)
(0.934259 3.37248e-05 0)
(0.934203 0.000125227 0)
(0.934174 0.00023781 0)
(0.934178 0.000378771 0)
(0.934224 0.0005577 0)
(0.934324 0.00078731 0)
(0.934496 0.00108455 0)
(0.934761 0.00147209 0)
(0.935149 0.0019803 0)
(0.935702 0.00265002 0)
(0.93647 0.00353634 0)
(0.937527 0.00471401 0)
(0.938965 0.00628497 0)
(0.94091 0.00838938 0)
(0.943531 0.0112215 0)
(0.94705 0.0150536 0)
(0.951766 0.0202713 0)
(0.958072 0.0274293 0)
(0.966497 0.0373377 0)
(0.977727 0.0512037 0)
(0.99273 0.0708556 0)
(1.01256 0.0991663 0)
(1.03959 0.140634 0)
(1.07374 0.203188 0)
(1.13033 0.298835 0)
(1.18512 0.457318 0)
(1.42279 0.694287 0)
(1.4929 1.28097 0)
(0.977197 -4.71766e-05 0)
(0.977252 -0.000136254 0)
(0.977325 -0.000209143 0)
(0.97717 -0.000259871 0)
(0.976912 -0.000289891 0)
(0.976665 -0.000303563 0)
(0.976439 -0.000304446 0)
(0.976214 -0.000295271 0)
(0.975988 -0.00027872 0)
(0.97577 -0.000257228 0)
(0.975566 -0.000232558 0)
(0.975374 -0.000205791 0)
(0.975195 -0.000177502 0)
(0.97503 -0.000147855 0)
(0.974878 -0.000116633 0)
(0.974741 -8.32881e-05 0)
(0.974619 -4.69866e-05 0)
(0.974513 -6.58789e-06 0)
(0.974425 3.94589e-05 0)
(0.97436 9.32511e-05 0)
(0.974322 0.000157578 0)
(0.974318 0.000236097 0)
(0.974355 0.000333585 0)
(0.974447 0.000456326 0)
(0.974609 0.000612643 0)
(0.974864 0.000813634 0)
(0.975241 0.00107415 0)
(0.975781 0.00141413 0)
(0.976534 0.00186044 0)
(0.977574 0.00244945 0)
(0.978996 0.00323069 0)
(0.980929 0.00427209 0)
(0.983548 0.00566768 0)
(0.987091 0.00754887 0)
(0.991883 0.0101016 0)
(0.998373 0.0135928 0)
(1.00718 0.0184114 0)
(1.01919 0.0251357 0)
(1.03563 0.0346386 0)
(1.05835 0.048276 0)
(1.08991 0.0681432 0)
(1.135 0.0976833 0)
(1.19874 0.14194 0)
(1.29873 0.209334 0)
(1.4378 0.310926 0)
(1.69185 0.436697 0)
(2.02808 0.671765 0)
(0.997202 -1.3351e-05 0)
(0.99726 -3.81447e-05 0)
(0.997338 -5.79345e-05 0)
(0.997194 -7.08817e-05 0)
(0.996946 -7.71603e-05 0)
(0.996706 -7.79659e-05 0)
(0.996484 -7.43963e-05 0)
(0.996262 -6.73154e-05 0)
(0.996037 -5.75589e-05 0)
(0.995819 -4.58887e-05 6.71319e-34)
(0.995614 -3.28603e-05 0)
(0.995421 -1.88024e-05 0)
(0.995242 -3.86692e-06 0)
(0.995076 1.19373e-05 0)
(0.994925 2.87304e-05 0)
(0.994789 4.67492e-05 6.70846e-34)
(0.99467 6.63354e-05 0)
(0.994568 8.79458e-05 0)
(0.994487 0.000112183 0)
(0.994431 0.000139845 0)
(0.994405 0.000171972 0)
(0.994416 0.000209919 0)
(0.994475 0.000255438 0)
(0.994594 0.000310823 -6.69205e-34)
(0.994793 0.000379088 0)
(0.995096 0.000464231 0)
(0.995537 0.000571583 0)
(0.996161 0.000708281 0)
(0.997027 0.000883929 0)
(0.998218 0.00111153 0)
(0.999841 0.00140879 0)
(1.00205 0.00180007 0)
(1.00503 0.00231917 0)
(1.00908 0.00301351 0)
(1.01457 0.00395055 0)
(1.02204 0.00522772 0)
(1.03224 0.00698808 0)
(1.04625 0.00944616 0)
(1.06563 0.0129273 0)
(1.0927 0.0179433 0)
(1.13089 0.0252629 0)
(1.18546 0.0361757 -5.30371e-34)
(1.26398 0.0521574 0)
(1.37712 0.0757867 0)
(1.54022 0.106296 0)
(1.7573 0.135972 0)
(2.06505 0.159554 0)
(0.997202 1.90626e-05 0)
(0.99726 5.61734e-05 0)
(0.997339 8.83263e-05 0)
(0.997195 0.000113304 0)
(0.996948 0.000131574 0)
(0.996709 0.00014455 0)
(0.996487 0.000153411 0)
(0.996266 0.000159112 0)
(0.996042 0.000162599 0)
(0.995826 0.000164742 -6.71283e-34)
(0.995622 0.000166211 0)
(0.995431 0.000167463 0)
(0.995254 0.000168793 0)
(0.995091 0.000170355 0)
(0.994942 0.000172173 0)
(0.99481 0.000174167 -6.70775e-34)
(0.994693 0.00017617 0)
(0.994595 0.000177925 0)
(0.994518 0.000179043 0)
(0.994466 0.00017895 0)
(0.994444 0.000176846 0)
(0.994461 0.000171647 0)
(0.994525 0.000161902 0)
(0.994651 0.000145672 6.69261e-34)
(0.994856 0.000120336 0)
(0.995167 8.2352e-05 0)
(0.995617 2.69164e-05 0)
(0.996249 -5.24765e-05 0)
(0.997126 -0.000164665 0)
(0.998328 -0.000321687 0)
(0.999964 -0.000540031 0)
(1.00218 -0.000842426 0)
(1.00519 -0.00126048 0)
(1.00926 -0.0018386 0)
(1.01477 -0.00263992 0)
(1.02227 -0.00375555 0)
(1.03251 -0.00531902 0)
(1.04657 -0.00753012 0)
(1.06602 -0.0106906 0)
(1.0932 -0.0152738 0)
(1.13155 -0.0219825 0)
(1.18637 -0.0319918 5.30741e-34)
(1.26534 -0.0465724 0)
(1.37916 -0.0678925 0)
(1.54358 -0.0945871 0)
(1.76198 -0.117172 0)
(2.07261 -0.129872 0)
(0.977197 5.27451e-05 0)
(0.977252 0.000153847 0)
(0.977326 0.000238804 0)
(0.977172 0.000301263 0)
(0.976916 0.000342968 0)
(0.976672 0.00036849 0)
(0.976448 0.00038147 0)
(0.976226 0.000384729 0)
(0.976005 0.000381057 0)
(0.975791 0.000372992 0)
(0.975591 0.000362414 0)
(0.975405 0.000350523 0)
(0.975232 0.000338036 0)
(0.975074 0.000325255 0)
(0.97493 0.000312107 0)
(0.974801 0.000298193 0)
(0.974689 0.000282856 0)
(0.974593 0.000265144 0)
(0.974517 0.000243716 0)
(0.974465 0.000216684 0)
(0.974441 0.000181498 0)
(0.974451 0.000134755 0)
(0.974506 7.19739e-05 0)
(0.974616 -1.28008e-05 0)
(0.974799 -0.000127512 0)
(0.975076 -0.000282836 0)
(0.975478 -0.000493128 0)
(0.976044 -0.000777753 0)
(0.976829 -0.00116287 0)
(0.977903 -0.00168401 0)
(0.979363 -0.00238959 0)
(0.98134 -0.00334619 0)
(0.984009 -0.00464595 0)
(0.987612 -0.00641783 0)
(0.992474 -0.00884432 0)
(0.999051 -0.0121874 0)
(1.00797 -0.016829 0)
(1.02012 -0.0233366 0)
(1.03676 -0.0325674 0)
(1.05976 -0.045853 0)
(1.09176 -0.065249 0)
(1.13753 -0.0941428 0)
(1.2024 -0.137465 0)
(1.30445 -0.203476 0)
(1.44719 -0.30296 0)
(1.7076 -0.424095 0)
(2.05651 -0.653336 0)
(0.937184 9.07886e-05 0)
(0.937235 0.000262939 0)
(0.937295 0.000403476 0)
(0.93712 0.000501989 0)
(0.936845 0.000563816 0)
(0.93659 0.000598357 0)
(0.936362 0.00061213 0)
(0.936139 0.000609963 0)
(0.935919 0.000596739 0)
(0.935711 0.000576794 0)
(0.935517 0.00055314 0)
(0.935339 0.000527584 0)
(0.935174 0.000501167 0)
(0.935024 0.000474287 0)
(0.934887 0.000446755 0)
(0.934764 0.000417861 0)
(0.934656 0.000386496 0)
(0.934563 0.00035109 0)
(0.934487 0.000309472 0)
(0.934431 0.000258627 0)
(0.934399 0.000194515 0)
(0.934395 0.000111783 0)
(0.934426 3.41518e-06 0)
(0.934502 -0.000139893 0)
(0.934636 -0.000330508 0)
(0.934844 -0.000585017 0)
(0.93515 -0.000925649 0)
(0.935584 -0.00138231 0)
(0.936186 -0.00199525 0)
(0.937011 -0.00281892 0)
(0.938129 -0.00392722 0)
(0.939638 -0.00542114 0)
(0.941665 -0.00743958 0)
(0.944381 -0.0101753 0)
(0.948012 -0.0138984 0)
(0.952862 -0.0189922 0)
(0.959336 -0.0260082 0)
(0.967976 -0.0357523 0)
(0.97949 -0.0494273 0)
(0.994888 -0.0688573 0)
(1.01528 -0.0969149 0)
(1.04318 -0.138108 0)
(1.07859 -0.200418 0)
(1.13769 -0.295939 0)
(1.19563 -0.45503 0)
(1.44497 -0.692472 0)
(1.52513 -1.29063 0)
(0.877163 0.000137797 0)
(0.877203 0.000394764 0)
(0.877239 0.00059491 0)
(0.877026 0.000725495 0)
(0.876722 0.000800998 0)
(0.87645 0.000838401 0)
(0.876215 0.000847276 0)
(0.875992 0.000834648 0)
(0.875777 0.000807942 0)
(0.875577 0.000773471 0)
(0.875395 0.00073517 0)
(0.875228 0.000695239 0)
(0.875077 0.000654841 0)
(0.874938 0.000614397 0)
(0.874813 0.000573514 0)
(0.8747 0.000531212 0)
(0.8746 0.000485958 0)
(0.874512 0.000435731 0)
(0.874438 0.000377684 0)
(0.87438 0.000308011 0)
(0.874338 0.000221554 0)
(0.874316 0.000111635 0)
(0.874319 -3.05834e-05 0)
(0.87435 -0.00021666 0)
(0.874419 -0.000462061 0)
(0.874535 -0.000787336 0)
(0.874711 -0.00122008 0)
(0.874965 -0.00179715 0)
(0.87532 -0.00256807 0)
(0.875806 -0.00359931 0)
(0.876463 -0.00498071 0)
(0.877341 -0.00683384 0)
(0.878505 -0.00932445 0)
(0.880037 -0.0126795 0)
(0.88204 -0.0172126 0)
(0.884633 -0.0233599 0)
(0.887955 -0.0317354 0)
(0.892144 -0.0432118 0)
(0.8973 -0.0590517 0)
(0.903439 -0.0810924 0)
(0.910181 -0.11213 0)
(0.916908 -0.156239 0)
(0.920002 -0.220632 0)
(0.918021 -0.314598 0)
(0.879315 -0.465268 0)
(0.843043 -0.713194 0)
(0.299599 -1.16691 0)
(0.79713 0.000201858 0)
(0.797146 0.000567824 0)
(0.797136 0.000831138 0)
(0.796865 0.000983938 0)
(0.796519 0.00106127 0)
(0.796228 0.00109129 0)
(0.795988 0.00108636 0)
(0.795767 0.00105594 0)
(0.795563 0.00101049 0)
(0.79538 0.000958088 0)
(0.795218 0.000903156 0)
(0.795074 0.000847886 0)
(0.794945 0.000793376 0)
(0.79483 0.000739882 0)
(0.794728 0.000686775 0)
(0.794637 0.000632776 0)
(0.794557 0.000576073 0)
(0.794487 0.000514315 0)
(0.794427 0.000444298 0)
(0.794376 0.00036175 0)
(0.794336 0.000260994 0)
(0.794306 0.000134684 0)
(0.794286 -2.67948e-05 0)
(0.794278 -0.000236048 0)
(0.794283 -0.000509845 0)
(0.794302 -0.000870467 0)
(0.794339 -0.00134766 0)
(0.794395 -0.00198104 0)
(0.794475 -0.00282349 0)
(0.79458 -0.00394558 0)
(0.794715 -0.00544183 0)
(0.794881 -0.00743892 0)
(0.795076 -0.0101072 0)
(0.795288 -0.0136764 0)
(0.795492 -0.018457 0)
(0.795628 -0.0248703 0)
(0.795581 -0.0334901 0)
(0.795132 -0.0450999 0)
(0.793866 -0.0607754 0)
(0.791039 -0.0819859 0)
(0.785252 -0.110772 0)
(0.774112 -0.149808 0)
(0.752827 -0.203 0)
(0.714187 -0.273995 0)
(0.641597 -0.370705 0)
(0.517707 -0.484004 0)
(0.225889 -0.589713 0)
(0.697078 0.000298706 0)
(0.697042 0.000812362 0)
(0.696947 0.00113757 0)
(0.696587 0.00129396 0)
(0.696192 0.00135447 0)
(0.695888 0.00136031 0)
(0.695654 0.00132656 0)
(0.695455 0.00126658 0)
(0.695284 0.00119429 0)
(0.695143 0.00111857 0)
(0.69503 0.00104346 0)
(0.694939 0.000970558 0)
(0.694865 0.000900686 0)
(0.694807 0.000833666 0)
(0.694761 0.000768642 0)
(0.694726 0.000703978 0)
(0.694699 0.000637815 0)
(0.69468 0.000567565 0)
(0.694665 0.000490085 0)
(0.694654 0.000400942 0)
(0.694644 0.000294659 0)
(0.694632 0.000163877 0)
(0.694616 -6.20621e-07 0)
(0.694592 -0.000211255 0)
(0.694554 -0.000484116 0)
(0.694496 -0.000840914 0)
(0.69441 -0.00131009 0)
(0.694281 -0.00192972 0)
(0.694095 -0.00274989 0)
(0.693828 -0.00383736 0)
(0.693447 -0.00528017 0)
(0.692908 -0.00719535 0)
(0.692143 -0.0097373 0)
(0.69106 -0.0131104 0)
(0.689519 -0.0175834 0)
(0.687313 -0.0235095 0)
(0.68413 -0.0313486 0)
(0.679492 -0.0416946 0)
(0.672661 -0.0553021 0)
(0.662486 -0.073101 0)
(0.647143 -0.0961952 0)
(0.62381 -0.125731 0)
(0.587881 -0.162766 0)
(0.532695 -0.207266 0)
(0.446762 -0.258261 0)
(0.318012 -0.309893 0)
(0.10657 -0.32424 0)
(0.576991 0.000469073 0)
(0.576842 0.00117772 0)
(0.576597 0.00153476 0)
(0.576127 0.00165804 0)
(0.575708 0.00167504 0)
(0.575442 0.00163196 0)
(0.575282 0.00154588 0)
(0.575182 0.00143744 0)
(0.575129 0.00132438 0)
(0.575118 0.0012153 0)
(0.575139 0.00111271 0)
(0.575183 0.00101733 0)
(0.575243 0.000929118 0)
(0.575314 0.000847382 0)
(0.575392 0.000770622 0)
(0.575473 0.000697039 0)
(0.575556 0.00062446 0)
(0.575637 0.000550451 0)
(0.575713 0.000471808 0)
(0.575781 0.000384605 0)
(0.575838 0.000283715 0)
(0.575878 0.000162831 0)
(0.575896 1.36953e-05 0)
(0.575883 -0.000174265 0)
(0.575829 -0.000415152 0)
(0.57572 -0.000727372 0)
(0.575537 -0.00113539 0)
(0.575254 -0.00167123 0)
(0.574838 -0.00237716 0)
(0.574243 -0.00330849 0)
(0.573406 -0.00453782 0)
(0.572243 -0.00615964 0)
(0.570636 -0.0082968 0)
(0.568426 -0.0111072 0)
(0.565393 -0.0147924 0)
(0.561226 -0.0196051 0)
(0.555494 -0.025856 0)
(0.547586 -0.0339133 0)
(0.536635 -0.0441916 0)
(0.521415 -0.0571084 0)
(0.500186 -0.0729979 0)
(0.470538 -0.0919069 0)
(0.429142 -0.113308 0)
(0.37188 -0.135396 0)
(0.293557 -0.154983 0)
(0.19186 -0.165387 0)
(0.0553604 -0.144546 0)
(0.436822 0.000852943 0)
(0.436425 0.00181761 0)
(0.436026 0.00208337 0)
(0.435602 0.00205837 0)
(0.435391 0.00195033 0)
(0.435408 0.00179621 0)
(0.435561 0.00161321 0)
(0.435783 0.00142839 0)
(0.436044 0.00125937 0)
(0.436325 0.0011107 0)
(0.436613 0.000981075 0)
(0.436897 0.000868426 0)
(0.43717 0.000770446 0)
(0.437431 0.000684677 0)
(0.437676 0.000608302 0)
(0.437905 0.000538754 0)
(0.438116 0.000473382 0)
(0.438308 0.000409676 0)
(0.438479 0.000344598 0)
(0.438627 0.000274863 0)
(0.438747 0.000196297 0)
(0.438835 0.000104133 0)
(0.438882 -7.89526e-06 0)
(0.438879 -0.000147519 0)
(0.438811 -0.000325159 0)
(0.43866 -0.000554087 0)
(0.438399 -0.000852018 0)
(0.437995 -0.00124169 0)
(0.4374 -0.00175311 0)
(0.436554 -0.00242479 0)
(0.435373 -0.00330685 0)
(0.433748 -0.00446305 0)
(0.431531 -0.00597448 0)
(0.428525 -0.00794178 0)
(0.424469 -0.0104879 0)
(0.419012 -0.0137574 0)
(0.411691 -0.0179123 0)
(0.401891 -0.0231183 0)
(0.38881 -0.0295169 0)
(0.371414 -0.0371702 0)
(0.348411 -0.0459711 0)
(0.318272 -0.05549 0)
(0.279324 -0.0647879 0)
(0.230147 -0.072145 0)
(0.170012 -0.0752258 0)
(0.101632 -0.0708076 0)
(0.0247014 -0.0527922 0)
(0.276572 0.00161207 0)
(0.276052 0.00285874 0)
(0.276176 0.00274503 0)
(0.276668 0.0022944 0)
(0.27737 0.0018651 0)
(0.278143 0.00149635 0)
(0.278897 0.00119125 0)
(0.279592 0.000953383 0)
(0.280217 0.000774664 0)
(0.280776 0.000640225 0)
(0.281272 0.000537174 0)
(0.281713 0.00045646 0)
(0.282104 0.000392016 0)
(0.282452 0.000339172 0)
(0.282763 0.000294556 0)
(0.283039 0.000255388 0)
(0.283283 0.000219675 0)
(0.283498 0.00018539 0)
(0.283682 0.000150779 0)
(0.283835 0.000113645 0)
(0.283954 7.18124e-05 0)
(0.284034 2.23271e-05 0)
(0.284067 -3.80524e-05 0)
(0.284044 -0.000113746 0)
(0.283949 -0.000210078 0)
(0.283762 -0.000334458 0)
(0.283456 -0.000496097 0)
(0.282995 -0.000707345 0)
(0.28233 -0.000983642 0)
(0.281397 -0.00134517 0)
(0.280111 -0.00181696 0)
(0.278362 -0.00243066 0)
(0.276003 -0.00322437 0)
(0.272847 -0.00424355 0)
(0.26865 -0.00553897 0)
(0.263104 -0.00716416 0)
(0.255821 -0.0091672 0)
(0.246328 -0.0115783 0)
(0.234064 -0.0143874 0)
(0.218402 -0.017511 0)
(0.1987 -0.020748 0)
(0.174429 -0.0237225 0)
(0.145369 -0.0258384 0)
(0.111975 -0.0262417 0)
(0.0757936 -0.0239778 0)
(0.040569 -0.0181267 0)
(0.00763882 -0.0101237 0)
(0.09928 0.0013639 0)
(0.101227 0.00165437 0)
(0.103276 0.00110614 0)
(0.105108 0.000669972 0)
(0.106462 0.000429735 0)
(0.107455 0.000286675 0)
(0.108217 0.000194814 0)
(0.108814 0.000138057 0)
(0.109288 0.000103689 0)
(0.109672 8.16816e-05 0)
(0.109991 6.64477e-05 0)
(0.11026 5.52886e-05 0)
(0.11049 4.67364e-05 0)
(0.110687 3.97999e-05 0)
(0.110859 3.38673e-05 0)
(0.111008 2.85096e-05 0)
(0.111136 2.34158e-05 0)
(0.111246 1.82264e-05 0)
(0.111336 1.26062e-05 0)
(0.111407 6.1503e-06 0)
(0.111456 -1.56131e-06 0)
(0.111481 -1.11374e-05 0)
(0.111474 -2.32544e-05 0)
(0.11143 -3.87684e-05 0)
(0.111338 -5.87613e-05 0)
(0.111185 -8.47644e-05 0)
(0.110953 -0.000118685 0)
(0.110618 -0.000162999 0)
(0.110148 -0.000220746 0)
(0.109502 -0.000295767 0)
(0.108627 -0.000392657 0)
(0.107455 -0.000516867 0)
(0.105898 -0.000674396 0)
(0.10385 -0.000871428 0)
(0.101178 -0.00111324 0)
(0.0977266 -0.00140269 0)
(0.0933196 -0.00173747 0)
(0.0877683 -0.00210661 0)
(0.0808913 -0.00248602 0)
(0.0725479 -0.0028343 0)
(0.062688 -0.00309071 0)
(0.0514221 -0.00317624 0)
(0.0391054 -0.00300165 0)
(0.0264516 -0.00246935 0)
(0.0146936 -0.00148607 0)
(0.00574878 9.92672e-05 0)
(-8.23509e-05 0.000831411 0)
(1.81289 0.954624 0)
(1.52289 0.508122 0)
(1.09802 0.23162 0)
(0.906902 0.091614 0)
(0.867511 0.023138 0)
(0.831366 -0.0172424 0)
(2.4741 0.548126 0)
(2.64085 0.348272 0)
(2.62754 0.243699 0)
(2.58482 0.194324 0)
(2.54839 0.161656 0)
(2.50094 0.141211 0)
(2.42892 0.0987442 0)
(2.70862 0.0479769 0)
(2.85556 0.0443783 0)
(2.92404 0.0590008 0)
(2.9629 0.07393 0)
(2.98202 0.0911569 0)
(2.43822 -0.0484934 0)
(2.71714 0.0291089 0)
(2.863 0.0616939 0)
(2.93232 0.0784588 0)
(2.97889 0.099665 0)
(3.01201 0.126786 0)
(2.5155 -0.502459 0)
(2.70099 -0.268671 0)
(2.72302 -0.136579 0)
(2.73331 -0.0647431 0)
(2.76005 -0.00682415 0)
(2.78352 0.0462698 0)
(1.87757 -0.963405 0)
(1.63508 -0.514451 0)
(1.26925 -0.235221 0)
(1.14124 -0.0871745 0)
(1.18322 -0.00150097 0)
(1.25193 0.0645731 0)
(-0.000651559 0.000535054 0)
(-0.00473011 0.00113876 0)
(-0.0101707 0.00134208 0)
(-0.0158046 0.00129778 0)
(-0.0210164 0.00121395 0)
(-0.025743 0.00112885 0)
(-0.0300187 0.0010512 0)
(-0.033882 0.00098447 0)
(-0.0373707 0.000928802 0)
(-0.0405184 0.000882291 0)
(-0.0433487 0.000840212 0)
(-0.0458715 0.000796227 0)
(-0.0480798 0.000743182 0)
(-0.0499518 0.000674753 0)
(-0.0514565 0.000586605 0)
(-0.0525638 0.000479189 0)
(-0.0532555 0.000357403 0)
(-0.0535298 0.000227698 0)
(-0.0534035 9.747e-05 0)
(-0.0529122 -2.63873e-05 0)
(-0.0521003 -0.000139979 0)
(-0.0510175 -0.00024213 0)
(-0.0497185 -0.000330625 0)
(-0.048263 -0.000403101 0)
(-0.0467132 -0.000457533 0)
(-0.0451296 -0.000493161 0)
(-0.0435672 -0.00051042 0)
(-0.0420749 -0.00050951 0)
(-0.0406959 -0.000494128 0)
(-0.0394633 -0.000470533 0)
(-0.0383995 -0.000442684 0)
(-0.0375185 -0.000411184 0)
(-0.0368266 -0.000375591 0)
(-0.0363216 -0.000334042 0)
(-0.0359891 -0.000285445 0)
(-0.0358009 -0.000232529 0)
(-0.0357146 -0.000184609 0)
(-0.0356815 -0.000151546 0)
(-0.0356512 -0.000139762 0)
(-0.0355766 -0.00014113 0)
(-0.0354027 -0.000156811 0)
(-0.0350435 -0.000224421 0)
(-0.0344213 -0.000342626 0)
(-0.0335618 -0.000374843 0)
(-0.0324663 -0.000341108 0)
(-0.0310551 -0.000601449 0)
(-0.0291777 -0.00095787 0)
(-0.00264791 0.00568338 0)
(-0.0149455 0.0101978 0)
(-0.0288923 0.0112246 0)
(-0.0424344 0.010678 0)
(-0.054586 0.0097236 0)
(-0.0653422 0.00873443 0)
(-0.074832 0.00780878 0)
(-0.0831983 0.00696977 0)
(-0.0905757 0.00621832 0)
(-0.0970788 0.00554192 0)
(-0.102792 0.00491793 0)
(-0.107763 0.00431546 0)
(-0.112008 0.00370384 0)
(-0.11551 0.00305808 0)
(-0.118242 0.0023683 0)
(-0.120181 0.00164247 0)
(-0.121322 0.00090376 0)
(-0.121694 0.000181779 0)
(-0.121352 -0.000492479 0)
(-0.120369 -0.00109408 0)
(-0.11884 -0.00161032 0)
(-0.116865 -0.00203192 0)
(-0.114552 -0.00235212 0)
(-0.112013 -0.00256494 0)
(-0.109361 -0.00266891 0)
(-0.106703 -0.0026686 0)
(-0.104138 -0.00257499 0)
(-0.101753 -0.00240198 0)
(-0.099617 -0.00216596 0)
(-0.0977834 -0.00188377 0)
(-0.0962853 -0.00157271 0)
(-0.0951368 -0.0012495 0)
(-0.0943347 -0.000929698 0)
(-0.0938575 -0.000631314 0)
(-0.0936606 -0.000374989 0)
(-0.0936732 -0.000184412 0)
(-0.0938021 -7.67281e-05 0)
(-0.0939402 -6.04196e-05 0)
(-0.0939808 -0.000131672 0)
(-0.093833 -0.000289343 0)
(-0.093393 -0.000559529 0)
(-0.0925224 -0.00097562 0)
(-0.0911791 -0.00146934 0)
(-0.0895229 -0.00192727 0)
(-0.0874634 -0.00239115 0)
(-0.0854346 -0.00263091 0)
(-0.082009 -0.00319631 0)
(-0.00511407 0.0174236 0)
(-0.0257928 0.0275946 0)
(-0.0466281 0.0285619 0)
(-0.065622 0.0264108 0)
(-0.082137 0.0236328 0)
(-0.0964838 0.0209434 0)
(-0.108975 0.0185164 0)
(-0.119888 0.0163717 0)
(-0.129448 0.0144793 0)
(-0.137831 0.0127859 0)
(-0.145159 0.0112231 0)
(-0.151504 0.00971667 0)
(-0.156892 0.0081995 0)
(-0.161316 0.00662642 0)
(-0.164755 0.00498633 0)
(-0.167195 0.00330674 0)
(-0.168651 0.00164199 0)
(-0.169175 5.32482e-05 0)
(-0.168853 -0.00140275 0)
(-0.167783 -0.00268113 0)
(-0.166087 -0.00375724 0)
(-0.163891 -0.00461567 0)
(-0.161324 -0.00524177 0)
(-0.158524 -0.00562578 0)
(-0.155631 -0.00576977 0)
(-0.152779 -0.0056907 0)
(-0.150089 -0.00541631 0)
(-0.147662 -0.00497747 0)
(-0.145581 -0.00440576 0)
(-0.143907 -0.00373815 0)
(-0.142674 -0.0030128 0)
(-0.141898 -0.00226977 0)
(-0.141569 -0.00154614 0)
(-0.141655 -0.000887896 0)
(-0.14209 -0.000343026 0)
(-0.142782 3.88209e-05 0)
(-0.143608 0.000219589 0)
(-0.144428 0.000178818 0)
(-0.145109 -8.4873e-05 0)
(-0.145544 -0.000570142 0)
(-0.145601 -0.00129349 0)
(-0.145082 -0.00223677 0)
(-0.14392 -0.00324015 0)
(-0.142335 -0.00409675 0)
(-0.140234 -0.00474854 0)
(-0.137732 -0.00509744 0)
(-0.135155 -0.00512744 0)
(-0.00791751 0.0363523 0)
(-0.0358833 0.0519516 0)
(-0.0600989 0.0506986 0)
(-0.0804862 0.0455281 0)
(-0.0976801 0.040091 0)
(-0.112476 0.03517 0)
(-0.125385 0.0308876 0)
(-0.136789 0.0271895 0)
(-0.146954 0.0239693 0)
(-0.156061 0.0211085 0)
(-0.164221 0.0184791 0)
(-0.171493 0.0159567 0)
(-0.17789 0.0134324 0)
(-0.183381 0.0108373 0)
(-0.187918 0.00815896 0)
(-0.191459 0.00544691 0)
(-0.194005 0.00278874 0)
(-0.195599 0.000280075 0)
(-0.196327 -0.00200215 0)
(-0.196273 -0.00399052 0)
(-0.195545 -0.00564509 0)
(-0.194258 -0.00694435 0)
(-0.192543 -0.00786476 0)
(-0.190548 -0.0083955 0)
(-0.188432 -0.00854535 0)
(-0.186346 -0.00834334 0)
(-0.184425 -0.00782892 0)
(-0.182782 -0.00704671 0)
(-0.181511 -0.00605033 0)
(-0.180683 -0.00490275 0)
(-0.180344 -0.00367474 0)
(-0.180508 -0.00243297 0)
(-0.181169 -0.00124809 0)
(-0.182285 -0.000194515 0)
(-0.183796 0.00065363 0)
(-0.185601 0.00122541 0)
(-0.187569 0.00146004 0)
(-0.189552 0.00132944 0)
(-0.191414 0.00083198 0)
(-0.193053 -2.62516e-05 0)
(-0.194321 -0.00124237 0)
(-0.194959 -0.00274634 0)
(-0.194856 -0.00435426 0)
(-0.194193 -0.0058303 0)
(-0.1928 -0.00697493 0)
(-0.190503 -0.00751534 0)
(-0.18846 -0.00713649 0)
(-0.0111254 0.063102 0)
(-0.0423386 0.0792084 0)
(-0.0621348 0.0718948 0)
(-0.0768527 0.0627939 0)
(-0.0895257 0.0547948 0)
(-0.101032 0.0480039 0)
(-0.111748 0.0423325 0)
(-0.121949 0.0375571 0)
(-0.131767 0.0334424 0)
(-0.141235 0.0297904 0)
(-0.150339 0.026423 0)
(-0.159035 0.0231689 0)
(-0.167253 0.0198805 0)
(-0.174888 0.0164569 0)
(-0.181809 0.0128785 0)
(-0.187898 0.009215 0)
(-0.193085 0.00560084 0)