/*--------------------------------*- C++ -*----------------------------------*\
| =========                 |                                                 |
| \\      /  F ield         | OpenFOAM: The Open Source CFD Toolbox           |
|  \\    /   O peration     | Version:  2406                                  |
|   \\  /    A nd           | Website:  www.openfoam.com                      |
|    \\/     M anipulation  |                                                 |
\*---------------------------------------------------------------------------*/
FoamFile
{
    version     2.0;
    format      ascii;
    arch        "LSB;label=32;scalar=64";
    class       volScalarField;
    location    "42";
    object      p;
}
// * * * * * * * * * * * * * * * * * * * * * * * * * * * * * * * * * * * * * //

dimensions      [0 2 -2 0 0 0 0];

internalField   nonuniform List<scalar> 
1964
(
0.523579
0.52376
0.523422
0.522717
0.521841
0.520859
0.5198
0.518687
0.51754
0.516366
0.515173
0.513964
0.512741
0.511509
0.510267
0.509017
0.50776
0.506496
0.505225
0.503947
0.50266
0.501365
0.500059
0.49874
0.497406
0.496051
0.49467
0.493256
0.491797
0.490278
0.488681
0.486977
0.48513
0.483089
0.480782
0.478109
0.474929
0.47104
0.466151
0.459844
0.451518
0.440325
0.425101
0.404342
0.376316
0.339333
0.292594
0.52479
0.524176
0.523474
0.522704
0.521816
0.520823
0.519761
0.518655
0.517514
0.516345
0.515152
0.513943
0.512724
0.511497
0.510259
0.509013
0.507755
0.50649
0.505217
0.503938
0.502652
0.501359
0.500055
0.49874
0.497407
0.496055
0.494676
0.493264
0.491807
0.490294
0.488702
0.487009
0.485176
0.483156
0.480879
0.47825
0.47513
0.471323
0.466541
0.460362
0.452169
0.441064
0.425785
0.404624
0.375526
0.336311
0.286031
0.525581
0.524425
0.523429
0.522634
0.521767
0.520774
0.519707
0.518606
0.51748
0.516321
0.51513
0.513918
0.512698
0.511474
0.510246
0.509007
0.507757
0.506494
0.505222
0.503942
0.502659
0.501369
0.500075
0.498771
0.497457
0.496125
0.494773
0.493394
0.491983
0.490527
0.489015
0.487425
0.485734
0.483901
0.481874
0.479572
0.476879
0.473612
0.469492
0.464085
0.456705
0.446317
0.431367
0.40966
0.378382
0.333821
0.274141
0.526117
0.524724
0.523501
0.52263
0.521745
0.520733
0.519649
0.518547
0.517436
0.516294
0.515108
0.51389
0.512661
0.511439
0.510222
0.509001
0.507766
0.506514
0.505247
0.50397
0.50269
0.501411
0.500133
0.498857
0.497579
0.496298
0.49501
0.493715
0.492411
0.491098
0.489772
0.488433
0.487071
0.485675
0.484223
0.482671
0.480943
0.478898
0.476281
0.472641
0.467192
0.458624
0.444837
0.422786
0.388392
0.336041
0.263266
0.526541
0.525041
0.523648
0.522677
0.52175
0.520708
0.519598
0.518488
0.51739
0.516266
0.515086
0.513858
0.512618
0.511393
0.510186
0.508986
0.507775
0.506542
0.505288
0.504021
0.502749
0.501484
0.500231
0.498993
0.497772
0.496568
0.495381
0.494219
0.493087
0.491999
0.49097
0.490021
0.489176
0.488464
0.487911
0.487537
0.487338
0.487254
0.487113
0.486509
0.484603
0.479784
0.469003
0.447371
0.406562
0.337832
0.236331
0.526874
0.525315
0.523804
0.522748
0.521778
0.520703
0.519565
0.518442
0.517352
0.516244
0.51507
0.513834
0.512579
0.511346
0.510148
0.508968
0.507784
0.506577
0.505344
0.50409
0.502833
0.501586
0.500363
0.499172
0.49802
0.496911
0.495854
0.49486
0.49395
0.49315
0.4925
0.492051
0.491869
0.492032
0.492638
0.493793
0.495607
0.498166
0.501471
0.505332
0.509107
0.511297
0.50829
0.493221
0.44809
0.351151
0.140589
0.527129
0.525537
0.523949
0.522832
0.521824
0.520717
0.519547
0.518408
0.517322
0.516227
0.515059
0.513817
0.512548
0.511306
0.510111
0.50895
0.507792
0.506612
0.505402
0.504168
0.502927
0.501702
0.500512
0.499371
0.498292
0.497286
0.496366
0.495556
0.494885
0.494401
0.494166
0.494265
0.494807
0.495933
0.49782
0.500681
0.504772
0.510379
0.517782
0.527188
0.538541
0.551207
0.562931
0.568637
0.550195
0.47412
0.129724
0.527315
0.525704
0.524067
0.522909
0.521872
0.520735
0.519536
0.518381
0.517297
0.516214
0.515054
0.513808
0.512528
0.511277
0.510084
0.508935
0.507798
0.506643
0.505455
0.50424
0.503018
0.501815
0.500655
0.499561
0.498549
0.497636
0.496845
0.496204
0.495758
0.495568
0.495722
0.496335
0.49756
0.499595
0.502697
0.50719
0.513483
0.522079
0.533578
0.548658
0.568008
0.592182
0.621127
0.653832
0.684635
0.705245
0.642439
0.527437
0.525815
0.524148
0.522966
0.521911
0.520752
0.519531
0.518364
0.517281
0.516207
0.515053
0.513805
0.512517
0.511259
0.510065
0.508924
0.507802
0.506664
0.505494
0.504295
0.503089
0.501904
0.500769
0.49971
0.498749
0.497909
0.497215
0.496705
0.496432
0.49647
0.496925
0.497937
0.499692
0.502437
0.50649
0.512268
0.520304
0.531285
0.546078
0.565758
0.591599
0.62502
0.667248
0.7188
0.776998
0.834538
0.860681
0.527498
0.525871
0.524189
0.522995
0.521932
0.520763
0.51953
0.518357
0.517274
0.516204
0.515053
0.513804
0.512512
0.511251
0.510056
0.508918
0.507803
0.506675
0.505514
0.504324
0.503127
0.501953
0.500832
0.499792
0.49886
0.498058
0.497418
0.496978
0.496799
0.496961
0.49758
0.498809
0.500855
0.503987
0.508562
0.515045
0.524041
0.536338
0.552951
0.575163
0.604551
0.642929
0.692037
0.752825
0.823096
0.89454
0.939027
0.527498
0.525871
0.524189
0.522995
0.521932
0.520763
0.519531
0.518357
0.517274
0.516203
0.515052
0.513804
0.512513
0.511252
0.510057
0.508919
0.507803
0.506674
0.505513
0.504323
0.503127
0.501953
0.500832
0.499793
0.498861
0.498059
0.497418
0.496979
0.496799
0.496961
0.49758
0.498809
0.500854
0.503987
0.508563
0.515045
0.524042
0.536339
0.552952
0.575164
0.604552
0.642931
0.692034
0.752838
0.823094
0.894529
0.939024
0.527437
0.525815
0.524148
0.522966
0.52191
0.520752
0.519532
0.518366
0.517282
0.516205
0.515051
0.513804
0.512519
0.511263
0.510069
0.508926
0.507802
0.506662
0.50549
0.504292
0.503087
0.501903
0.50077
0.499713
0.498753
0.497912
0.497218
0.496707
0.496432
0.49647
0.496924
0.497936
0.499691
0.502437
0.506491
0.512268
0.520305
0.531286
0.546079
0.565759
0.591599
0.625018
0.66725
0.7188
0.776993
0.834551
0.860673
0.527315
0.525703
0.524067
0.522909
0.521871
0.520734
0.519537
0.518384
0.517297
0.516211
0.51505
0.513806
0.512531
0.511283
0.51009
0.508939
0.507798
0.506639
0.505449
0.504235
0.503015
0.501815
0.500658
0.499565
0.498554
0.497641
0.496848
0.496206
0.495758
0.495568
0.495721
0.496334
0.497559
0.499595
0.502698
0.507192
0.513485
0.522081
0.53358
0.54866
0.568008
0.592182
0.621128
0.653829
0.684637
0.705236
0.642432
0.527129
0.525537
0.523949
0.522832
0.521822
0.520716
0.519549
0.518411
0.517322
0.516222
0.515054
0.513815
0.512551
0.511313
0.510119
0.508954
0.507791
0.506608
0.505396
0.504163
0.502925
0.501703
0.500515
0.499376
0.498297
0.49729
0.49637
0.495557
0.494885
0.4944
0.494165
0.494264
0.494807
0.495934
0.497821
0.500683
0.504775
0.510382
0.517786
0.52719
0.538541
0.551207
0.562929
0.568647
0.550196
0.474081
0.129739
0.526874
0.525315
0.523805
0.522748
0.521776
0.520703
0.519567
0.518446
0.517352
0.516239
0.515064
0.513832
0.512583
0.511354
0.510154
0.508971
0.507783
0.506573
0.505338
0.504086
0.502831
0.501587
0.500366
0.499177
0.498025
0.496915
0.495857
0.494861
0.49395
0.493149
0.4925
0.492051
0.49187
0.492034
0.49264
0.493796
0.49561
0.498169
0.501474
0.505333
0.509108
0.511293
0.508294
0.493216
0.448101
0.351182
0.140548
0.52654
0.52504
0.523648
0.522677
0.521748
0.520707
0.5196
0.518492
0.51739
0.516262
0.515082
0.513858
0.512623
0.511399
0.510191
0.508987
0.507773
0.506539
0.505285
0.504019
0.50275
0.501487
0.500235
0.498997
0.497775
0.49657
0.495383
0.49422
0.493088
0.492
0.490971
0.490022
0.489178
0.488466
0.487914
0.48754
0.487341
0.487258
0.487117
0.486513
0.484606
0.479789
0.469008
0.447396
0.406586
0.337833
0.23634
0.526117
0.524724
0.523502
0.52263
0.521744
0.520732
0.51965
0.518549
0.517436
0.516291
0.515106
0.513891
0.512665
0.511443
0.510224
0.509001
0.507764
0.506512
0.505245
0.503971
0.502692
0.501414
0.500136
0.49886
0.497581
0.496299
0.495011
0.493716
0.492412
0.491099
0.489774
0.488434
0.487073
0.485678
0.484225
0.482674
0.480946
0.478901
0.476285
0.472645
0.467196
0.458631
0.44485
0.4228
0.388412
0.336058
0.263225
0.525581
0.524425
0.523429
0.522635
0.521766
0.520774
0.519708
0.518607
0.517479
0.51632
0.51513
0.51392
0.5127
0.511476
0.510246
0.509007
0.507756
0.506494
0.505222
0.503944
0.50266
0.501371
0.500077
0.498773
0.497458
0.496126
0.494775
0.493396
0.491984
0.490529
0.489016
0.487427
0.485735
0.483903
0.481876
0.479575
0.476881
0.473615
0.469496
0.464088
0.45671
0.44632
0.431373
0.409669
0.378385
0.333811
0.274135
0.52479
0.524176
0.523474
0.522704
0.521815
0.520823
0.519761
0.518655
0.517514
0.516345
0.515153
0.513944
0.512725
0.511497
0.51026
0.509013
0.507756
0.506491
0.505218
0.503939
0.502653
0.50136
0.500056
0.49874
0.497409
0.496056
0.494678
0.493266
0.49181
0.490295
0.488704
0.487011
0.485178
0.483158
0.480882
0.478252
0.475133
0.471326
0.466545
0.460367
0.452173
0.441068
0.425788
0.404626
0.375529
0.336313
0.286021
0.523579
0.52376
0.523422
0.522716
0.521841
0.520859
0.5198
0.518688
0.51754
0.516367
0.515174
0.513964
0.512742
0.511509
0.510268
0.509018
0.507761
0.506497
0.505226
0.503948
0.502661
0.501366
0.50006
0.498742
0.497407
0.496053
0.494672
0.493258
0.491798
0.49028
0.488682
0.486979
0.485132
0.483091
0.480784
0.478111
0.474932
0.471043
0.466154
0.459847
0.451522
0.440328
0.425104
0.404345
0.376318
0.339334
0.292592
0.236918
0.175916
0.115898
0.0623139
0.0168067
-0.021342
0.225517
0.160165
0.0986221
0.0456277
0.00134754
-0.0348329
0.198311
0.119293
0.0543348
0.00511858
-0.0338375
-0.0649599
0.15678
0.0493268
-0.0212265
-0.0637589
-0.0937387
-0.114747
0.0670002
-0.0768216
-0.143024
-0.170418
-0.183855
-0.186363
-0.201814
-0.312056
-0.306813
-0.289251
-0.268114
-0.242947
-0.574811
-0.489354
-0.373116
-0.329342
-0.295676
-0.257674
-0.574794
-0.489375
-0.373133
-0.329351
-0.295686
-0.25768
-0.201796
-0.312043
-0.306831
-0.289259
-0.268121
-0.242941
0.0669516
-0.0768871
-0.143087
-0.170492
-0.18387
-0.186363
0.156738
0.0492956
-0.0212236
-0.0637499
-0.0937621
-0.114788
0.198289
0.119309
0.0543699
0.00513045
-0.033904
-0.0650674
0.225515
0.160158
0.0986076
0.0455807
0.0012635
-0.0349076
0.236914
0.175906
0.11588
0.0622878
0.0167778
-0.0213668
-0.0526715
-0.0774049
-0.0960855
-0.109486
-0.118316
-0.123188
-0.124693
-0.12342
-0.119935
-0.114762
-0.108371
-0.101175
-0.0935174
-0.0856728
-0.0778498
-0.0701986
-0.0628215
-0.0557847
-0.0491283
-0.0428746
-0.0370347
-0.0316123
-0.0266063
-0.0220123
-0.0178236
-0.0140317
-0.010626
-0.00759386
-0.00492041
-0.00258995
-0.00058708
0.00110421
0.00250101
0.00362126
0.00448303
0.0051042
0.00550234
0.0056945
0.00569715
0.00552601
0.00519598
0.00472113
0.00411444
0.0033882
0.00255334
0.00162174
0.000601169
-0.0633609
-0.0849936
-0.100882
-0.112031
-0.119097
-0.122605
-0.1231
-0.121135
-0.117223
-0.111835
-0.105395
-0.0982748
-0.0907838
-0.0831642
-0.0755974
-0.0682118
-0.0610942
-0.0543
-0.0478638
-0.0418054
-0.0361362
-0.0308612
-0.0259822
-0.0214973
-0.0174026
-0.0136914
-0.0103552
-0.00738296
-0.00476038
-0.00247235
-0.000504956
0.00115691
0.0025297
0.00363087
0.00447761
0.00508726
0.00547676
0.00566283
0.00566145
0.00548812
0.00515734
0.00468302
0.00407766
0.00335285
0.00252245
0.00158644
0.000577044
-0.0884283
-0.105116
-0.116791
-0.124556
-0.128764
-0.129741
-0.128016
-0.124156
-0.118662
-0.111975
-0.104496
-0.0965729
-0.0884913
-0.0804696
-0.0726653
-0.0651832
-0.0580855
-0.0514025
-0.045143
-0.0393034
-0.0338748
-0.0288466
-0.0242086
-0.0199513
-0.0160661
-0.0125443
-0.00937666
-0.00655236
-0.00406061
-0.00188972
-2.62585e-05
0.00154463
0.00283977
0.00387576
0.0046683
0.00523299
0.00558561
0.00574164
0.00571622
0.00552388
0.00517847
0.00469329
0.00408024
0.0033518
0.00251668
0.00159111
0.000506011
-0.127617
-0.135356
-0.140762
-0.144216
-0.145074
-0.143172
-0.138836
-0.132504
-0.124615
-0.115635
-0.10603
-0.0962143
-0.086518
-0.0771853
-0.068384
-0.0602138
-0.0527154
-0.0458839
-0.0396831
-0.0340611
-0.0289617
-0.0243326
-0.0201293
-0.016316
-0.0128654
-0.00975592
-0.00697075
-0.00449536
-0.00231713
-0.000423919
0.00119709
0.0025587
0.00367271
0.00455163
0.00520927
0.00565968
0.00591662
0.00599355
0.0059035
0.00565912
0.00527251
0.00475587
0.00411944
0.00337925
0.00252971
0.00164297
0.000354393
-0.181105
-0.175249
-0.172375
-0.170163
-0.166416
-0.160722
-0.15322
-0.143994
-0.133245
-0.121403
-0.109014
-0.0965847
-0.0845261
-0.0731472
-0.0626647
-0.0532081
-0.0448238
-0.0374878
-0.0311239
-0.0256253
-0.020874
-0.0167555
-0.0131684
-0.0100283
-0.00726848
-0.00483819
-0.00269966
-0.000825372
0.000804997
0.00220679
0.0033926
0.00437285
0.00515677
0.00575337
0.00617198
0.00642181
0.00651191
0.00645121
0.00624866
0.00591322
0.00545382
0.00488032
0.00420051
0.00343381
0.00255968
0.00171715
0.000193543
-0.217816
-0.200954
-0.194177
-0.189851
-0.183905
-0.176059
-0.166543
-0.155233
-0.142158
-0.127753
-0.112666
-0.0975346
-0.0828944
-0.0691668
-0.0566593
-0.0455637
-0.0359593
-0.027824
-0.0210572
-0.0155069
-0.0109968
-0.00734816
-0.00439546
-0.00199534
-3.05007e-05
0.00159092
0.00293779
0.00406009
0.00499284
0.00576008
0.00637794
0.00685716
0.00720482
0.007426
0.0075247
0.00750443
0.00736846
0.00712022
0.00676335
0.00630196
0.00574055
0.00508533
0.00434063
0.00352542
0.00261344
0.00176429
0.000155603
-0.223235
-0.205475
-0.199052
-0.195263
-0.189954
-0.182524
-0.173004
-0.161233
-0.147262
-0.131562
-0.114839
-0.097836
-0.08123
-0.0655871
-0.0513368
-0.0387613
-0.027996
-0.0190428
-0.011797
-0.00608193
-0.00168128
0.00163285
0.00407871
0.00585106
0.00711413
0.00799979
0.00860947
0.0090179
0.0092779
0.00942497
0.00948169
0.00946118
0.0093701
0.00921084
0.00898334
0.00868612
0.00831721
0.0078746
0.0073567
0.00676257
0.00609207
0.00534668
0.00452777
0.00364575
0.00268735
0.00174646
0.000321632
-0.20908
-0.201027
-0.197204
-0.194555
-0.190359
-0.183832
-0.174754
-0.163025
-0.14883
-0.132654
-0.115192
-0.0972227
-0.0795092
-0.0627201
-0.0473761
-0.0338317
-0.0222739
-0.0127335
-0.00511511
0.000764475
0.00514038
0.00826764
0.0103966
0.0117551
0.0125396
0.0129107
0.0129942
0.0128844
0.012649
0.0123337
0.0119675
0.0115669
0.0111393
0.010686
0.0102046
0.00969038
0.00913762
0.00854039
0.00789315
0.00719109
0.00643033
0.0056081
0.00472327
0.00377341
0.00277148
0.00168001
0.000646267
-0.197348
-0.195837
-0.194699
-0.192613
-0.188681
-0.182375
-0.173411
-0.16173
-0.147556
-0.131338
-0.113726
-0.0954988
-0.0774446
-0.0602736
-0.0445466
-0.0306512
-0.0187995
-0.00903745
-0.00128044
0.00465154
0.00899635
0.0120178
0.0139777
0.0151182
0.0156497
0.0157466
0.015547
0.0151555
0.0146479
0.014076
0.0134729
0.0128573
0.0122376
0.0116152
0.0109864
0.0103451
0.00968352
0.0089938
0.00826822
0.00749975
0.00668239
0.0058104
0.00488149
0.0038814
0.00284926
0.00161641
0.000983762
-0.19088
-0.191182
-0.191146
-0.189597
-0.186015
-0.17998
-0.171243
-0.15975
-0.145709
-0.129591
-0.112059
-0.0938935
-0.0758912
-0.0587382
-0.0429778
-0.0290469
-0.0171729
-0.00740224
0.000347973
0.00625497
0.0105566
0.0135172
0.015401
0.0164528
0.0168865
0.0168799
0.0165744
0.0160777
0.015468
0.0147992
0.0141059
0.0134077
0.0127135
0.0120247
0.0113374
0.0106449
0.00993909
0.00921117
0.00845272
0.00765588
0.00681383
0.00591949
0.00497032
0.00394537
0.00289927
0.00158767
0.00118928
-0.190882
-0.191184
-0.191153
-0.1896
-0.186017
-0.179983
-0.171245
-0.159751
-0.14571
-0.129592
-0.112058
-0.0938925
-0.0758903
-0.0587366
-0.0429753
-0.029044
-0.0171702
-0.00739981
0.000349852
0.00625628
0.0105573
0.0135176
0.0154013
0.0164531
0.016887
0.0168806
0.0165752
0.0160785
0.0154687
0.0147996
0.014106
0.0134074
0.0127129
0.0120238
0.0113363
0.0106439
0.00993808
0.00921029
0.00845201
0.00765534
0.00681343
0.00591927
0.00497008
0.00394537
0.00289918
0.00158782
0.00118866
-0.197353
-0.195834
-0.19471
-0.192636
-0.188708
-0.182403
-0.173428
-0.161739
-0.147563
-0.131344
-0.11373
-0.0954994
-0.0774429
-0.0602704
-0.0445415
-0.0306451
-0.0187929
-0.00903135
-0.00127539
0.00465492
0.00899824
0.0120184
0.0139779
0.0151184
0.0156503
0.0157478
0.0155486
0.0151572
0.0146493
0.0140768
0.0134729
0.0128564
0.012236
0.0116129
0.0109838
0.0103424
0.00968098
0.00899158
0.00826643
0.00749839
0.00668144
0.00580975
0.00488114
0.00388117
0.00284915
0.00161682
0.00098226
-0.209089
-0.201032
-0.19722
-0.19458
-0.190381
-0.183854
-0.174771
-0.163035
-0.148835
-0.132657
-0.115193
-0.0972242
-0.079512
-0.0627225
-0.047376
-0.0338283
-0.0222681
-0.0127267
-0.00510907
0.000768835
0.00514262
0.00826828
0.0103962
0.0117547
0.0125396
0.0129115
0.0129956
0.0128862
0.0126506
0.0123348
0.0119678
0.0115662
0.0111376
0.0106837
0.0102019
0.00968761
0.00913499
0.00853818
0.00789141
0.00718989
0.00642958
0.00560776
0.00472317
0.00377352
0.00277164
0.00168056
0.000644938
-0.223246
-0.205486
-0.19906
-0.195276
-0.189977
-0.182549
-0.173022
-0.161237
-0.147259
-0.131557
-0.114837
-0.0978384
-0.0812359
-0.0655933
-0.0513405
-0.0387609
-0.0279923
-0.019037
-0.0117909
-0.00607667
-0.00167747
0.00163545
0.00408045
0.00585269
0.00711601
0.00800229
0.00861242
0.00902115
0.00928094
0.00942751
0.00948336
0.00946195
0.00936995
0.00921005
0.00898208
0.00868475
0.00831589
0.00787357
0.00735599
0.00676226
0.00609206
0.005347
0.00452815
0.00364633
0.0026878
0.00174695
0.000320988
-0.217825
-0.200966
-0.194183
-0.189874
-0.183947
-0.176098
-0.166564
-0.155234
-0.142148
-0.12774
-0.112655
-0.0975279
-0.0828915
-0.0691668
-0.0566593
-0.0455625
-0.0359555
-0.0278185
-0.02105
-0.0154994
-0.0109889
-0.00734073
-0.0043879
-0.00198813
-2.29567e-05
0.00159826
0.00294533
0.00406712
0.00499958
0.00576581
0.00638291
0.00686088
0.00720777
0.00742796
0.00752625
0.00750541
0.00736944
0.00712099
0.00676431
0.00630283
0.00574164
0.00508624
0.00434177
0.00352619
0.00261419
0.0017649
0.000155269
-0.181086
-0.175235
-0.17237
-0.170178
-0.166448
-0.160755
-0.153243
-0.144006
-0.133247
-0.121397
-0.109003
-0.0965729
-0.0845164
-0.0731403
-0.06266
-0.0532036
-0.0448182
-0.0374803
-0.0311144
-0.0256141
-0.0208616
-0.0167424
-0.0131549
-0.0100147
-0.0072551
-0.00482518
-0.00268733
-0.000813866
0.000815455
0.00221615
0.00340071
0.00437979
0.0051626
0.00575826
0.00617605
0.00642524
0.0065148
0.00645373
0.00625085
0.00591517
0.0054555
0.00488184
0.00420173
0.00343491
0.00256053
0.00171794
0.000192932
-0.127654
-0.135362
-0.140745
-0.144201
-0.14508
-0.143197
-0.138868
-0.132531
-0.12463
-0.115636
-0.106021
-0.0962003
-0.0865051
-0.0771748
-0.0683767
-0.0602069
-0.0527084
-0.0458744
-0.0396719
-0.0340472
-0.0289467
-0.0243159
-0.0201125
-0.0162987
-0.0128489
-0.00973966
-0.00695584
-0.00448107
-0.00230449
-0.000412141
0.00120715
0.00256785
0.00368028
0.00455847
0.00521479
0.00566467
0.00592051
0.0059971
0.00590616
0.00566159
0.00527427
0.00475754
0.00412057
0.00338025
0.00253048
0.0016439
0.0003533
-0.088496
-0.105113
-0.116748
-0.124522
-0.128764
-0.129771
-0.128056
-0.124189
-0.118679
-0.111977
-0.104487
-0.0965618
-0.0884813
-0.0804626
-0.0726594
-0.0651776
-0.0580778
-0.0513927
-0.0451301
-0.0392887
-0.033858
-0.0288291
-0.0241902
-0.0199333
-0.0160481
-0.0125274
-0.00936041
-0.00653756
-0.00404676
-0.00187743
-1.49358e-05
0.00155445
0.00284858
0.00388311
0.00467476
0.0052382
0.00559011
0.00574513
0.00571923
0.0055261
0.00518038
0.00469464
0.00408134
0.00335265
0.00251732
0.00159198
0.000504865
-0.0633827
-0.084966
-0.100844
-0.112016
-0.119113
-0.122638
-0.123134
-0.121157
-0.117232
-0.111834
-0.10539
-0.0982699
-0.0907798
-0.0831611
-0.0755937
-0.0682066
-0.0610865
-0.05429
-0.0478513
-0.0417911
-0.0361203
-0.0308446
-0.025965
-0.0214802
-0.0173857
-0.0136752
-0.0103397
-0.00736846
-0.00474687
-0.00246012
-0.000493875
0.00116665
0.00253827
0.00363814
0.00448381
0.00509233
0.00548095
0.00566612
0.00566411
0.0054901
0.0051589
0.0046841
0.0040784
0.00335338
0.00252286
0.00158685
0.000576194
-0.052689
-0.0774177
-0.0960981
-0.109499
-0.11833
-0.123201
-0.124704
-0.123429
-0.119942
-0.114767
-0.108374
-0.101176
-0.0935165
-0.0856698
-0.0778448
-0.0701913
-0.0628122
-0.0557734
-0.0491152
-0.0428601
-0.037019
-0.0315958
-0.0265893
-0.0219952
-0.0178067
-0.0140152
-0.0106102
-0.00757903
-0.00490671
-0.00257752
-0.00057597
0.00111398
0.00250947
0.00362847
0.00448906
0.00510916
0.00550635
0.00569768
0.0056996
0.00552786
0.00519733
0.00472207
0.00411504
0.00338856
0.00255344
0.00162177
0.000600781
)
;

boundaryField
{
    inlet
    {
        type            zeroGradient;
    }
    outlet
    {
        type            fixedValue;
        value           uniform 0;
    }
    upperWall
    {
        type            zeroGradient;
    }
    lowerWall
    {
        type            zeroGradient;
    }
    frontAndBack
    {
        type            empty;
    }
}


// ************************************************************************* //
