/*--------------------------------*- C++ -*----------------------------------*\
| =========                 |                                                 |
| \\      /  F ield         | OpenFOAM: The Open Source CFD Toolbox           |
|  \\    /   O peration     | Version:  2406                                  |
|   \\  /    A nd           | Website:  www.openfoam.com                      |
|    \\/     M anipulation  |                                                 |
\*---------------------------------------------------------------------------*/
FoamFile
{
    version     2.0;
    format      ascii;
    arch        "LSB;label=32;scalar=64";
    class       surfaceScalarField;
    location    "42";
    object      phi;
}
// * * * * * * * * * * * * * * * * * * * * * * * * * * * * * * * * * * * * * //

dimensions      [0 3 -1 0 0 0 0];

oriented        oriented;

internalField   nonuniform List<scalar> 
3796
(
0.00996111
-0.000211109
0.0101966
-0.000235448
0.0103746
-0.000177957
0.0105049
-0.00013026
0.0106025
-9.7592e-05
0.0106762
-7.36911e-05
0.0107322
-5.59853e-05
0.0107757
-4.34535e-05
0.0108106
-3.48498e-05
0.0108394
-2.88448e-05
0.0108636
-2.43438e-05
0.0108843
-2.07181e-05
0.0109021
-1.78008e-05
0.0109178
-1.5608e-05
0.010932
-1.40826e-05
0.0109453
-1.32019e-05
0.0109581
-1.27286e-05
0.0109707
-1.26471e-05
0.0109834
-1.2835e-05
0.0109967
-1.33984e-05
0.0110109
-1.44157e-05
0.011027
-1.61011e-05
0.0110456
-1.86511e-05
0.0110681
-2.24054e-05
0.0110959
-2.76552e-05
0.011131
-3.49628e-05
0.011176
-4.48354e-05
0.0112344
-5.82377e-05
0.0113106
-7.61799e-05
0.011411
-0.000100342
0.0115436
-0.000132712
0.0117198
-0.000176253
0.0119545
-0.000234726
0.0122678
-0.000313381
0.0126869
-0.000419029
0.0132477
-0.000560753
0.0139979
-0.000750068
0.0149995
-0.00100133
0.016331
-0.00133118
0.0180886
-0.00175728
0.0203836
-0.00229466
0.0233335
-0.00294936
0.0270425
-0.00370852
0.0315655
-0.00452234
0.0368663
-0.00529935
0.0427236
-0.00585503
-0.00600434
0.0487284
0.0276509
-0.000112005
0.027629
-0.000213496
0.0276668
-0.000215694
0.0277296
-0.00019294
0.0278006
-0.000168577
0.0278712
-0.000144252
0.0279367
-0.000121542
0.0279956
-0.00010226
0.0280477
-8.68693e-05
0.0280936
-7.48145e-05
0.0281343
-6.51369e-05
0.0281705
-5.70409e-05
0.0282029
-5.02248e-05
0.0282321
-4.47496e-05
0.0282589
-4.06654e-05
0.0282839
-3.79849e-05
0.0283078
-3.64703e-05
0.0283312
-3.59909e-05
0.0283547
-3.6394e-05
0.0283788
-3.77752e-05
0.0284045
-4.03403e-05
0.0284327
-4.45332e-05
0.0284648
-5.08927e-05
0.0285027
-6.02181e-05
0.0285486
-7.33895e-05
0.0286056
-9.17017e-05
0.0286778
-0.000116645
0.0287702
-0.000150422
0.02889
-0.000195753
0.0290462
-0.000256529
0.0292513
-0.000337756
0.0295213
-0.000446335
0.0298778
-0.000591259
0.0303488
-0.000784562
0.0309716
-0.0010418
0.031794
-0.00138308
0.0328777
-0.00183353
0.0343004
-0.00242367
0.0361581
-0.00318845
0.038566
-0.00416453
0.0416559
-0.00538375
0.0455702
-0.00686282
0.0504455
-0.00858268
0.0563856
-0.0104617
0.0634194
-0.0123323
0.0713559
-0.0137926
-0.0144936
0.0798429
0.0436974
-5.94578e-05
0.0436288
-0.000144735
0.043586
-0.000172856
0.043567
-0.000173898
0.0435657
-0.000167292
0.0435777
-0.000156273
0.0435985
-0.00014228
0.043624
-0.000127735
0.0436517
-0.000114445
0.04368
-0.000102984
0.0437079
-9.30054e-05
0.0437348
-8.40626e-05
0.0437605
-7.60395e-05
0.0437848
-6.92121e-05
0.0438081
-6.3968e-05
0.0438307
-6.04112e-05
0.0438529
-5.85185e-05
0.0438753
-5.8097e-05
0.0438981
-5.90583e-05
0.0439219
-6.15162e-05
0.0439472
-6.57936e-05
0.043975
-7.25343e-05
0.0440064
-8.2608e-05
0.0440432
-9.71793e-05
0.0440875
-0.000117761
0.0441421
-0.000146231
0.0442108
-0.000185121
0.0442983
-0.00023766
0.0444111
-0.000308253
0.0445575
-0.000402682
0.0447486
-0.000528747
0.0449992
-0.00069675
0.0453283
-0.000920365
0.0457612
-0.00121749
0.0463307
-0.00161141
0.0470796
-0.00213194
0.0480626
-0.00281661
0.0493504
-0.0037113
0.051032
-0.00486987
0.0532194
-0.00635166
0.05605
-0.00821395
0.059689
-0.0105012
0.0643193
-0.0132136
0.0701447
-0.0162887
0.0773317
-0.0195208
0.0858402
-0.0222999
-0.0243429
0.0956842
0.0577265
-3.59546e-05
0.0576778
-9.60316e-05
0.0576325
-0.000127513
0.057597
-0.000138252
0.0575702
-0.00014044
0.0575517
-0.000137853
0.0575407
-0.000131453
0.0575358
-0.000122915
0.0575355
-0.000114035
0.0575387
-0.000105799
0.0575442
-9.82834e-05
0.0575515
-9.11925e-05
0.0575598
-8.44867e-05
0.0575687
-7.85357e-05
0.0575783
-7.38701e-05
0.0575886
-7.08444e-05
0.0575998
-6.95805e-05
0.057612
-7.00029e-05
0.0576255
-7.20916e-05
0.0576403
-7.59639e-05
0.0576567
-8.20576e-05
0.0576751
-9.10971e-05
0.0576964
-0.000104198
0.0577217
-0.000122799
0.0577525
-0.000148819
0.0577907
-0.000184654
0.057839
-0.000233479
0.0579009
-0.000299376
0.0579808
-0.00038783
0.0580845
-0.000506046
0.0582197
-0.000663696
0.0583968
-0.000873533
0.0586291
-0.0011525
0.0589344
-0.00152278
0.0593364
-0.00201344
0.0598664
-0.00266199
0.0605662
-0.00351651
0.0614924
-0.00463755
0.0627221
-0.00609965
0.0643622
-0.00799174
0.0665608
-0.0104124
0.0695227
-0.0134638
0.0735142
-0.0172073
0.0788954
-0.0216714
0.0860119
-0.0266379
0.0952266
-0.031521
-0.0369996
0.107891
0.0697374
-2.33812e-05
0.0697067
-6.52887e-05
0.0696722
-9.2834e-05
0.0696402
-0.000106177
0.0696116
-0.000111825
0.0695865
-0.00011303
0.0695655
-0.000110665
0.0695484
-0.000105898
0.0695348
-0.000100236
0.0695241
-9.4697e-05
0.0695159
-8.95126e-05
0.0695094
-8.44574e-05
0.0695042
-7.9476e-05
0.0695001
-7.49529e-05
0.0694971
-7.14097e-05
0.0694951
-6.93697e-05
0.0694945
-6.90204e-05
0.0694952
-7.04261e-05
0.0694973
-7.35866e-05
0.0695006
-7.86662e-05
0.0695052
-8.60986e-05
0.0695109
-9.66789e-05
0.0695181
-0.000111553
0.0695273
-0.000132349
0.0695391
-0.000161083
0.0695545
-0.000200479
0.0695746
-0.00025392
0.0696011
-0.000325974
0.0696359
-0.000422525
0.0696817
-0.000551513
0.0697418
-0.000723373
0.0698207
-0.00095208
0.0699246
-0.00125607
0.0700619
-0.00165979
0.070244
-0.00219542
0.0704873
-0.0029053
0.0708156
-0.00384482
0.0712643
-0.00508639
0.0718887
-0.00672415
0.072777
-0.00888004
0.0740739
-0.0117096
0.0760189
-0.0154099
0.0790073
-0.0201966
0.0836547
-0.0263213
0.0907476
-0.0337369
0.101432
-0.0421977
-0.0540238
0.118458
0.0797424
-1.57142e-05
0.0797221
-4.50341e-05
0.0796961
-6.67157e-05
0.0796692
-7.9192e-05
0.079643
-8.56663e-05
0.0796182
-8.83766e-05
0.0795952
-8.80837e-05
0.0795746
-8.55798e-05
0.0795566
-8.20181e-05
0.0795408
-7.83263e-05
0.0795268
-7.4777e-05
0.0795141
-7.12593e-05
0.0795023
-6.77262e-05
0.0794912
-6.44378e-05
0.0794808
-6.19149e-05
0.0794713
-6.06217e-05
0.0794627
-6.08609e-05
0.0794553
-6.27538e-05
0.0794487
-6.63563e-05
0.0794428
-7.18568e-05
0.0794372
-7.96491e-05
0.0794315
-9.04764e-05
0.0794254
-0.000105439
0.0794188
-0.000126062
0.0794115
-0.000154355
0.0794033
-0.000192907
0.0793938
-0.000245094
0.0793828
-0.000315306
0.0793695
-0.00040934
0.0793531
-0.000534879
0.0793322
-0.00070214
0.0793054
-0.000924736
0.0792706
-0.00122079
0.0792257
-0.00161443
0.0791684
-0.0021378
0.0790971
-0.00283382
0.0790122
-0.00375994
0.0789194
-0.00499358
0.0788351
-0.00664005
0.0787994
-0.00884444
0.0789005
-0.0118109
0.0793229
-0.0158328
0.080473
-0.0213482
0.083153
-0.0290059
0.0891442
-0.039724
0.101176
-0.0542322
-0.0732356
0.120396
0.0877448
-1.04974e-05
0.0877302
-3.04107e-05
0.0877098
-4.61614e-05
0.0876869
-5.62062e-05
0.0876633
-6.20318e-05
0.0876396
-6.49859e-05
0.0876167
-6.5581e-05
0.0875952
-6.43797e-05
0.0875755
-6.22425e-05
0.0875577
-5.98831e-05
0.0875414
-5.75658e-05
0.0875259
-5.52185e-05
0.087511
-5.2804e-05
0.0874965
-5.05201e-05
0.0874823
-4.87747e-05
0.0874687
-4.79849e-05
0.0874557
-4.8447e-05
0.0874433
-5.0307e-05
0.0874313
-5.36646e-05
0.0874191
-5.86737e-05
0.0874062
-6.56924e-05
0.0873919
-7.53211e-05
0.0873752
-8.85072e-05
0.0873555
-0.000106536
0.0873317
-0.000131142
0.0873026
-0.000164555
0.0872664
-0.000209695
0.0872208
-0.000270356
0.0871627
-0.000351559
0.0870878
-0.000459943
0.0869903
-0.000604371
0.0868627
-0.000796651
0.0866951
-0.0010526
0.0864747
-0.00139339
0.0861848
-0.0018475
0.0858047
-0.0024534
0.0853085
-0.00326348
0.0846647
-0.00434984
0.0838377
-0.00581316
0.0827896
-0.00779652
0.0814877
-0.0105094
0.0799177
-0.0142635
0.0781333
-0.0195663
0.0763442
-0.027216
0.0756125
-0.0389974
0.0794584
-0.0580731
-0.0902657
0.0964925
0.093746
-6.48584e-06
0.0937345
-1.89098e-05
0.0937176
-2.91297e-05
0.0936976
-3.60298e-05
0.0936759
-4.02981e-05
0.0936534
-4.26753e-05
0.0936308
-4.34471e-05
0.0936089
-4.29683e-05
0.0935885
-4.17979e-05
0.0935696
-4.04109e-05
0.093552
-3.90038e-05
0.0935351
-3.75623e-05
0.0935185
-3.60666e-05
0.0935021
-3.46506e-05
0.0934858
-3.35827e-05
0.0934698
-3.31545e-05
0.0934542
-3.35926e-05
0.0934388
-3.50262e-05
0.0934233
-3.75521e-05
0.093407
-4.13065e-05
0.0933891
-4.65497e-05
0.0933685
-5.3729e-05
0.093344
-6.35162e-05
0.0933143
-7.68524e-05
0.0932776
-9.49887e-05
0.0932317
-0.00011956
0.0931738
-0.000152701
0.0930998
-0.000197198
0.0930045
-0.000256739
0.0928806
-0.000336207
0.0927185
-0.000442124
0.0925056
-0.000583204
0.0922248
-0.000771148
0.0918538
-0.0010217
0.091363
-0.00135617
0.0907137
-0.00180358
0.0898543
-0.00240387
0.0887172
-0.00321258
0.0872121
-0.00430819
0.0852184
-0.0058031
0.08257
-0.00786163
0.0790291
-0.0107236
0.074216
-0.0147541
0.0674481
-0.020451
0.0571267
-0.0286756
0.0394341
-0.0403819
-0.0508325
0.0977466
-3.11692e-06
0.0977368
-9.09129e-06
0.097722
-1.40971e-05
0.0977037
-1.75841e-05
0.0976833
-1.9831e-05
0.0976615
-2.11501e-05
0.0976392
-2.1648e-05
0.0976172
-2.14987e-05
0.0975964
-2.09784e-05
0.0975769
-2.03286e-05
0.0975586
-1.9658e-05
0.0975408
-1.89725e-05
0.0975233
-1.82726e-05
0.0975057
-1.76186e-05
0.0974882
-1.71363e-05
0.0974707
-1.69674e-05
0.0974535
-1.72237e-05
0.0974362
-1.79853e-05
0.0974185
-1.93115e-05
0.0973996
-2.12912e-05
0.0973784
-2.40714e-05
0.0973536
-2.78916e-05
0.0973239
-3.3107e-05
0.0972873
-4.02062e-05
0.0972416
-4.98428e-05
0.0971841
-6.28727e-05
0.0971108
-8.04156e-05
0.0970166
-0.000103946
0.0968947
-0.000135408
0.0967356
-0.000177395
0.096527
-0.000233359
0.0962521
-0.000307933
0.095889
-0.000407333
0.095408
-0.00053996
0.0947697
-0.000717209
0.0939213
-0.000954678
0.0927917
-0.00127391
0.0912843
-0.00170505
0.0892667
-0.00229073
0.0865553
-0.00309199
0.0828902
-0.00419714
0.0778982
-0.00573283
0.0710254
-0.00788243
0.0614568
-0.0108836
0.0478426
-0.015064
0.0279102
-0.0204527
-0.0229233
0.0997469
2.62302e-09
0.0997378
1.28484e-09
0.0997239
-1.52271e-09
0.0997065
-3.7228e-09
0.0996867
3.07869e-09
0.0996653
1.17502e-08
0.0996431
8.00659e-09
0.0996211
-1.05688e-08
0.0996002
-2.30036e-08
0.0995804
-5.09836e-09
0.0995617
3.66806e-08
0.0995435
6.86761e-08
0.0995255
6.30989e-08
0.0995074
1.38119e-08
0.0994892
-5.4419e-08
0.0994711
-1.07895e-07
0.099453
-1.23168e-07
0.0994349
-9.24664e-08
0.0994161
-3.14387e-08
0.0993958
3.66215e-08
0.099373
8.67503e-08
0.0993461
1.00611e-07
0.0993136
7.60939e-08
0.0992735
1.75644e-08
0.0992232
-5.74093e-08
0.0991596
-1.33865e-07
0.0990784
-1.96078e-07
0.0989737
-2.35771e-07
0.0988379
-2.51561e-07
0.0986604
-2.47266e-07
0.0984274
-2.31825e-07
0.0981201
-2.14694e-07
0.0977136
-2.04412e-07
0.0971746
-2.08037e-07
0.0964584
-2.26757e-07
0.0955045
-2.62591e-07
0.0942313
-3.11229e-07
0.0925268
-3.74576e-07
0.0902364
-4.49346e-07
0.0871446
-5.34932e-07
0.0829475
-6.81495e-07
0.0772143
-7.43707e-07
0.0693315
-9.98961e-07
0.0584471
-1.1708e-06
0.0433818
-9.97585e-07
0.022926
2.20187e-06
2.16311e-07
0.0997469
3.1272e-06
0.0997378
9.05869e-06
0.0997239
1.40906e-05
0.0997065
1.76085e-05
0.0996867
1.9863e-05
0.0996653
2.11689e-05
0.0996431
2.16366e-05
0.0996211
2.1456e-05
0.0996002
2.09396e-05
0.0995804
2.0345e-05
0.0995617
1.9752e-05
0.0995435
1.91076e-05
0.0995255
1.83696e-05
0.0995073
1.76103e-05
0.0994892
1.70039e-05
0.0994711
1.67507e-05
0.0994531
1.70019e-05
0.0994349
1.78346e-05
0.0994161
1.92822e-05
0.0993959
2.13841e-05
0.099373
2.42449e-05
0.0993461
2.80784e-05
0.0993135
3.32332e-05
0.0992734
4.02172e-05
0.0992231
4.97098e-05
0.0991595
6.26e-05
0.0990783
8.00321e-05
0.0989737
0.000103494
0.0988379
0.000134933
0.0986604
0.000176929
0.0984274
0.000232922
0.0981201
0.000307523
0.0977136
0.000406936
0.0971746
0.000539549
0.0964583
0.000716753
0.0955044
0.000954149
0.0942312
0.00127328
0.0925266
0.00170429
0.0902362
0.00228983
0.0871444
0.00309088
0.0829473
0.00419585
0.077214
0.00573108
0.0693311
0.00788054
0.0584472
0.0108816
0.0433847
0.0150651
0.0229243
0.0204511
0.0229249
0.0977466
6.49189e-06
0.0977369
1.89124e-05
0.097722
2.91319e-05
0.0977037
3.60386e-05
0.0976833
4.03138e-05
0.0976614
4.26941e-05
0.0976391
4.34558e-05
0.0976172
4.29516e-05
0.0975965
4.1769e-05
0.097577
4.0417e-05
0.0975586
3.90739e-05
0.0975408
3.76674e-05
0.0975231
3.61413e-05
0.0975055
3.46339e-05
0.097488
3.34616e-05
0.0974707
3.29693e-05
0.0974535
3.34105e-05
0.0974364
3.49152e-05
0.0974187
3.75463e-05
0.0973997
4.14e-05
0.0973784
4.67005e-05
0.0973536
5.38744e-05
0.0973237
6.3597e-05
0.0972871
7.68255e-05
0.0972414
9.48382e-05
0.0971839
0.000119297
0.0971106
0.000152352
0.0970165
0.000196803
0.0968946
0.00025633
0.0967356
0.000335809
0.0965269
0.000441745
0.0962521
0.000582839
0.0958889
0.000770779
0.0954078
0.0010213
0.0947694
0.00135572
0.093921
0.00180305
0.0927913
0.00240324
0.0912839
0.00321183
0.0892662
0.0043073
0.0865547
0.00580202
0.0828894
0.00786027
0.0778976
0.010722
0.0710248
0.0147522
0.0614598
0.0204502
0.0478423
0.0286737
0.0279123
0.0403854
0.0508343
0.093746
1.05061e-05
0.0937346
3.03964e-05
0.0937177
4.61736e-05
0.0936976
5.6224e-05
0.0936759
6.20419e-05
0.0936533
6.49789e-05
0.0936307
6.55584e-05
0.0936089
6.43614e-05
0.0935886
6.22537e-05
0.0935697
5.99418e-05
0.093552
5.76567e-05
0.093535
5.52983e-05
0.0935183
5.28217e-05
0.0935018
5.04588e-05
0.0934856
4.86519e-05
0.0934698
4.78491e-05
0.0934543
4.83457e-05
0.093439
5.02745e-05
0.0934236
5.3701e-05
0.0934072
5.87589e-05
0.0933891
6.57815e-05
0.0933684
7.53766e-05
0.0933438
8.84921e-05
0.0933139
0.000106441
0.0932772
0.000130966
0.0932314
0.000164321
0.0931736
0.000209421
0.0930997
0.00027007
0.0930044
0.000351271
0.0928806
0.000459663
0.0927185
0.000604086
0.0925055
0.000796354
0.0922246
0.00105227
0.0918535
0.001393
0.0913626
0.00184704
0.0907132
0.00245286
0.0898537
0.00326285
0.0887164
0.00434911
0.0872112
0.00581231
0.0852173
0.00779554
0.0825688
0.0105081
0.079028
0.0142621
0.0742164
0.0195644
0.0674495
0.0272147
0.057131
0.0389971
0.0394347
0.0580747
0.0902691
0.0877448
1.57242e-05
0.0877302
4.5038e-05
0.0877098
6.67155e-05
0.0876869
7.91959e-05
0.0876632
8.56543e-05
0.0876395
8.83588e-05
0.0876166
8.80752e-05
0.0875952
8.55903e-05
0.0875757
8.20559e-05
0.0875579
7.83821e-05
0.0875414
7.4836e-05
0.0875257
7.12893e-05
0.0875107
6.77021e-05
0.0874961
6.43772e-05
0.0874821
6.18415e-05
0.0874687
6.05738e-05
0.0874559
6.08585e-05
0.0874437
6.27884e-05
0.0874316
6.64122e-05
0.0874194
7.18947e-05
0.0874062
7.96468e-05
0.0873916
9.04161e-05
0.0873749
0.000105323
0.0873551
0.000125905
0.0873313
0.000154176
0.0873022
0.00019273
0.0872661
0.000244929
0.0872207
0.000315154
0.0871626
0.000409196
0.0870877
0.000534723
0.0869902
0.000701958
0.0868626
0.000924504
0.0866948
0.00122049
0.0864742
0.00161406
0.0861843
0.00213736
0.085804
0.0028333
0.0853076
0.00375935
0.0846637
0.00499292
0.0838366
0.00663931
0.0827882
0.00884359
0.0814861
0.01181
0.079916
0.0158315
0.0781339
0.0213472
0.0763459
0.0290037
0.0756174
0.039723
0.0794633
0.0542305
0.0732344
0.0964972
0.0797424
2.3383e-05
0.0797221
6.52897e-05
0.0796961
9.28402e-05
0.0796692
0.000106175
0.0796429
0.000111822
0.079618
0.000113018
0.0795951
0.000110665
0.0795747
0.000105924
0.0795568
0.000100281
0.079541
9.47341e-05
0.0795268
8.95002e-05
0.0795139
8.43938e-05
0.0795019
7.94062e-05
0.0794908
7.49085e-05
0.0794805
7.14452e-05
0.0794713
6.94613e-05
0.079463
6.91476e-05
0.0794557
7.05303e-05
0.0794491
7.36259e-05
0.079443
7.8615e-05
0.0794371
8.59646e-05
0.0794312
9.64807e-05
0.079425
0.000111348
0.0794183
0.000132154
0.079411
0.000160953
0.0794029
0.000200396
0.0793936
0.000253902
0.0793827
0.00032597
0.0793695
0.000422526
0.0793531
0.000551464
0.0793321
0.000723268
0.0793052
0.000951886
0.0792702
0.00125579
0.0792252
0.00165943
0.0791677
0.002195
0.0790962
0.00290482
0.0790112
0.0038443
0.0789182
0.00508583
0.0788338
0.00672354
0.0787978
0.00887939
0.0788986
0.0117089
0.0793213
0.0154091
0.0804721
0.0201956
0.0831561
0.0263199
0.0891474
0.0337332
0.101181
0.0421946
0.0540195
0.1204
0.0697374
3.59589e-05
0.0697068
9.60066e-05
0.0696722
0.000127492
0.0696402
0.000138258
0.0696114
0.000140454
0.0695863
0.000137866
0.0695654
0.000131478
0.0695484
0.000122958
0.0695349
0.00011407
0.0695243
0.000105786
0.0695158
9.8192e-05
0.0695091
9.10594e-05
0.0695038
8.43876e-05
0.0694997
7.85429e-05
0.0694969
7.39984e-05
0.0694953
7.10609e-05
0.0694949
6.97931e-05
0.0694957
7.01444e-05
0.0694977
7.20894e-05
0.0695008
7.58289e-05
0.069505
8.1806e-05
0.0695105
9.08133e-05
0.0695176
0.000103932
0.0695268
0.000122628
0.0695386
0.000148747
0.0695541
0.000184697
0.0695744
0.000233581
0.069601
0.000299515
0.0696359
0.000387929
0.0696816
0.000506088
0.0697416
0.00066363
0.0698204
0.000873375
0.0699242
0.00115223
0.0700612
0.00152245
0.0702432
0.00201305
0.0704864
0.00266158
0.0708145
0.0035161
0.0712631
0.00463714
0.0718872
0.00609925
0.0727751
0.00799135
0.0740717
0.0104121
0.076017
0.0134634
0.0790057
0.0172065
0.0836547
0.0216705
0.0907511
0.0266359
0.101436
0.0315155
0.0369959
0.118462
0.0577265
5.94571e-05
0.0576778
0.000144727
0.0576326
0.000172831
0.057597
0.00017387
0.0575701
0.000167266
0.0575515
0.000156282
0.0575406
0.000142338
0.0575359
0.000127835
0.0575357
0.000114512
0.0575387
0.00010292
0.0575441
9.28359e-05
0.0575511
8.38705e-05
0.0575592
7.59524e-05
0.0575683
6.93043e-05
0.0575781
6.41921e-05
0.0575887
6.0696e-05
0.0576002
5.87412e-05
0.0576124
5.81731e-05
0.0576257
5.89754e-05
0.0576403
6.12784e-05
0.0576564
6.5498e-05
0.0576747
7.22406e-05
0.0576959
8.24032e-05
0.0577212
9.70988e-05
0.057752
0.000117805
0.0577904
0.00014638
0.0578389
0.000185312
0.0579009
0.000237849
0.0579807
0.000308381
0.0580844
0.000402724
0.0582195
0.000528686
0.0583964
0.000696597
0.0586285
0.000920138
0.0589337
0.00121722
0.0593356
0.00161113
0.0598654
0.00213169
0.0605651
0.00281638
0.0614911
0.00371115
0.0627206
0.00486978
0.0643603
0.00635168
0.0665584
0.00821412
0.0695201
0.0105017
0.0735126
0.0132142
0.0788945
0.0162887
0.0860122
0.0195204
0.095232
0.0222995
0.0243379
0.107896
0.0436975
0.000112008
0.0436288
0.000213486
0.043586
0.000215696
0.043567
0.000192935
0.0435656
0.000168556
0.0435776
0.000144239
0.0435984
0.000121582
0.0436241
0.000102342
0.0436518
8.6916e-05
0.04368
7.47438e-05
0.0437077
6.49566e-05
0.0437344
5.68717e-05
0.04376
5.01961e-05
0.0437845
4.48878e-05
0.0438081
4.09431e-05
0.0438309
3.82507e-05
0.0438533
3.66423e-05
0.0438756
3.59734e-05
0.0438982
3.62152e-05
0.0439217
3.74805e-05
0.0439468
4.0041e-05
0.0439745
4.42971e-05
0.0440059
5.08048e-05
0.0440428
6.02574e-05
0.0440872
7.35731e-05
0.0441419
9.19253e-05
0.0442107
0.0001169
0.0442982
0.000150597
0.044411
0.000195865
0.0445573
0.000256512
0.0447484
0.000337668
0.0449987
0.000446158
0.0453277
0.000591069
0.0457605
0.000784357
0.0463299
0.00104164
0.0470786
0.00138297
0.0480616
0.00183351
0.0493492
0.00242375
0.0510306
0.00318865
0.0532178
0.00416486
0.0560481
0.00538428
0.0596868
0.0068636
0.0643176
0.00858396
0.070144
0.0104633
0.0773327
0.0123338
0.085842
0.0137933
0.0144932
0.0956898
0.027651
0.000211102
0.0276291
0.000235467
0.0276669
0.000177974
0.0277295
0.000130275
0.0278005
9.75538e-05
0.027871
7.36701e-05
0.0279367
5.60454e-05
0.0279956
4.35262e-05
0.0280477
3.48565e-05
0.0280936
2.87568e-05
0.0281341
2.42191e-05
0.0281702
2.06568e-05
0.0282026
1.78462e-05
0.0282319
1.57314e-05
0.0282589
1.42553e-05
0.0282841
1.33087e-05
0.0283081
1.27723e-05
0.0283314
1.25694e-05
0.0283547
1.26975e-05
0.0283786
1.32232e-05
0.0284041
1.4273e-05
0.0284323
1.60143e-05
0.0284644
1.86614e-05
0.0285024
2.24764e-05
0.0285484
2.7805e-05
0.0286055
3.51021e-05
0.0286777
4.49918e-05
0.0287702
5.83176e-05
0.0288899
7.62357e-05
0.0290461
0.000100309
0.029251
0.000132661
0.0295209
0.000176152
0.0298772
0.000234643
0.0303482
0.000313299
0.0309709
0.000419001
0.0317932
0.00056076
0.0328768
0.000750151
0.0342994
0.00100148
0.036157
0.00133143
0.0385646
0.00175759
0.0416544
0.00229501
0.0455688
0.00294981
0.0504446
0.003709
0.0563855
0.00452311
0.0634201
0.005301
0.0713572
0.0058572
0.00600505
0.0798458
0.00996112
0.0101966
0.0103746
0.0105049
0.0106024
0.0106761
0.0107321
0.0107757
0.0108105
0.0108393
0.0108635
0.0108841
0.010902
0.0109177
0.0109321
0.0109454
0.0109582
0.0109707
0.0109833
0.0109965
0.0110107
0.0110268
0.0110454
0.011068
0.0110958
0.011131
0.011176
0.0112344
0.0113106
0.0114109
0.0115435
0.0117197
0.0119543
0.0122676
0.0126866
0.0132474
0.0139976
0.0149992
0.0163307
0.0180884
0.0203835
0.0233335
0.0270427
0.0315664
0.0368674
0.0427243
0.0487289
0.0542012
-0.00547541
0.0583478
-0.00414911
0.0607294
-0.00238319
0.0613273
-0.00059871
0.0603255
0.00100238
0.00231038
0.0580168
0.0880821
-0.0137194
0.0951332
-0.0112043
0.100569
-0.00782087
0.104395
-0.00442355
0.106695
-0.00129411
0.0014807
0.10753
0.105486
-0.0235205
0.113734
-0.0194503
0.120106
-0.0141914
0.124688
-0.00900255
0.127635
-0.00423822
-0.000137167
0.129254
0.120449
-0.036074
0.129694
-0.0286911
0.135767
-0.0202607
0.139227
-0.0124611
0.140721
-0.00573415
-0.00042556
0.141009
0.131947
-0.0495543
0.137438
-0.034176
0.138045
-0.0208669
0.136304
-0.0107221
0.133928
-0.00335834
0.00171482
0.131785
0.120454
-0.0496039
0.109765
-0.0234855
0.0980247
-0.00912749
0.0891955
-0.00189347
0.0839969
0.0018374
0.00394703
0.0817667
0.0468899
0.0234044
0.0142765
0.0123819
0.0142201
0.0181676
0.0468908
0.0496022
0.0234051
0.0234862
0.0142765
0.00913086
0.0123808
0.0018973
0.0142163
-0.0018341
-0.00394296
0.0181612
0.120453
0.0495509
0.109764
0.0341774
0.0980236
0.0208711
0.0891926
0.0107264
0.0839945
0.0033635
-0.00171165
0.0817614
0.131948
0.03607
0.137437
0.0286892
0.138042
0.0202618
0.1363
0.0124637
0.133922
0.00573628
0.000428198
0.13178
0.120453
0.0235157
0.129695
0.0194452
0.135764
0.0141872
0.139221
0.00900036
0.140715
0.0042376
0.00013822
0.141005
0.105491
0.0137152
0.113736
0.0111977
0.120106
0.00781426
0.124685
0.00441843
0.127632
0.00129237
-0.0014804
0.129251
0.0880858
0.005474
0.0951369
0.00414632
0.100572
0.00238043
0.104398
0.000596796
0.106695
-0.00100399
-0.00231088
0.107528
0.0542031
0.0583505
0.0607325
0.0613298
0.0603266
0.0580161
0.0547602
0.00325884
0.0509168
0.00384513
0.0467893
0.0041282
0.0426
0.0041893
0.0385044
0.00409539
0.0346105
0.00389383
0.0309899
0.00362107
0.0276842
0.00330658
0.0247123
0.00297295
0.0220767
0.00263654
0.0197682
0.0023091
0.0177695
0.00199901
0.0160579
0.00171169
0.014608
0.0014499
0.0133937
0.00121433
0.0123896
0.00100416
0.011572
0.000817783
0.0109189
0.000653228
0.0104105
0.000508562
0.0100286
0.000381991
0.0097567
0.000271935
0.00957969
0.000176981
0.00948377
9.58626e-05
0.00945631
2.7394e-05
0.00948578
-2.95355e-05
0.0095618
-7.60621e-05
0.00967504
-0.000113273
0.00981725
-0.000142236
0.00998136
-0.000164143
0.0101612
-0.000179922
0.0103514
-0.000190198
0.0105469
-0.000195623
0.0107438
-0.000196979
0.0109388
-0.00019507
0.0111292
-0.000190566
0.0113131
-0.000184022
0.0114889
-0.000175906
0.0116554
-0.000166641
0.0118118
-0.000156582
0.0119578
-0.000146056
0.012093
-0.000135314
0.0122174
-0.000124638
0.0123314
-0.000114089
0.0124353
-0.000104105
0.0125295
-9.41464e-05
0.0126147
-8.52862e-05
-7.45178e-05
0.107011
0.00378119
0.10532
0.0055374
0.102641
0.00680744
0.0991426
0.00768708
0.0949901
0.00824731
0.0903463
0.00853768
0.0853663
0.00860156
0.0801958
0.00847814
0.0749694
0.00820068
0.0698092
0.00779804
0.0648222
0.00729721
0.0600974
0.00672446
0.0557044
0.00610511
0.0516918
0.00546265
0.0480882
0.00481798
0.0449037
0.00418878
0.0421325
0.00358908
0.0397568
0.00302913
0.0377499
0.00251561
0.0360799
0.00205203
0.0347125
0.00163935
0.0336128
0.00127661
0.032747
0.000961498
0.0320834
0.000690845
0.0315927
0.000461054
0.0312482
0.000268285
0.0310262
0.000108601
0.0309058
-2.19021e-05
0.030868
-0.000126489
0.030896
-0.000207979
0.030975
-0.000269304
0.0310926
-0.000313352
0.0312384
-0.000342948
0.0314037
-0.000360614
0.0315814
-0.000368415
0.0317653
-0.000368139
0.0319505
-0.000361364
0.0321331
-0.000349489
0.03231
-0.000333729
0.0324789
-0.000315145
0.032638
-0.000294632
0.0327861
-0.000273012
0.0329226
-0.000250842
0.0330476
-0.000229253
0.03316
-0.000206854
0.0332666
-0.000191977
-0.000148166
0.129879
0.00315696
0.129723
0.00569344
0.128877
0.00765411
0.127372
0.00919234
0.125238
0.010382
0.122513
0.0112631
0.119247
0.0118676
0.115505
0.0122198
0.111369
0.0123365
0.106935
0.0122326
0.102307
0.0119262
0.097592
0.0114404
0.0928945
0.0108032
0.0883109
0.0100466
0.0839244
0.00920453
0.0798019
0.00831119
0.075992
0.00739859
0.0725259
0.00649494
0.0694177
0.00562346
0.0666676
0.00480189
0.0642641
0.00404252
0.0621878
0.00335275
0.0604132
0.00273585
0.0589119
0.00219185
0.0576543
0.00171838
0.0566109
0.0013114
0.0557534
0.000965859
0.0550551
0.000676188
0.0544918
0.000436598
0.0540423
0.000241298
0.0536881
8.47508e-05
0.0534129
-3.83052e-05
0.0532022
-0.000132447
0.0530432
-0.000201773
0.0529248
-0.000250211
0.0528379
-0.000281348
0.0527747
-0.000298342
0.0527289
-0.000303944
0.0526956
-0.00030052
0.0526703
-0.000290106
0.0526499
-0.000274422
0.0526317
-0.00025502
0.0526137
-0.000232999
0.0525946
-0.000210496
0.0525729
-0.000185233
0.0525536
-0.000172765
-0.000112095
0.140712
0.00345333
0.140141
0.00626547
0.139368
0.00842882
0.138382
0.0101796
0.137158
0.011607
0.135661
0.0127597
0.133859
0.0136688
0.131732
0.0143457
0.129279
0.0147893
0.126515
0.014996
0.123476
0.0149665
0.120209
0.0147082
0.116775
0.0142377
0.113242
0.0135796
0.10968
0.0127662
0.106157
0.0118343
0.102732
0.0108228
0.0994566
0.00976953
0.0963703
0.00870914
0.0935004
0.00767121
0.0908631
0.00667941
0.0884643
0.00575122
0.0863015
0.00489834
0.0843657
0.0041273
0.0826433
0.0034404
0.0811177
0.00283663
0.0797707
0.00231254
0.0785834
0.00186304
0.0775377
0.00148203
0.0766158
0.00116283
0.0758016
0.000898699
0.0750801
0.000682998
0.0744381
0.000509332
0.0738644
0.00037174
0.0733491
0.000264857
0.0728838
0.00018385
0.0724609
0.000124412
0.0720741
8.27586e-05
0.0717178
5.55995e-05
0.0713875
4.00959e-05
0.071079
3.38299e-05
0.0707892
3.4667e-05
0.070515
4.09782e-05
0.070254
5.02722e-05
0.0700045
6.41245e-05
0.0697641
6.75836e-05
0.000113319
0.130278
0.00496165
0.129466
0.00707892
0.129101
0.0087963
0.128991
0.0102901
0.128988
0.0116105
0.128961
0.0127861
0.128812
0.0138167
0.128475
0.0146819
0.127908
0.015355
0.127091
0.0158129
0.126018
0.0160394
0.124699
0.0160277
0.123155
0.0157823
0.121416
0.0153187
0.11952
0.0146622
0.117508
0.0138458
0.115423
0.0129071
0.113306
0.0118854
0.111196
0.0108188
0.109125
0.00974199
0.107119
0.00868473
0.105199
0.00767098
0.103378
0.00671867
0.101665
0.00584003
0.100063
0.00504216
0.098571
0.00432792
0.0971863
0.00369675
0.0959032
0.00314557
0.0947153
0.00266952
0.0936151
0.00226261
0.0925952
0.00191823
0.0916482
0.00162959
0.0907673
0.00138998
0.0899459
0.00119293
0.0891781
0.00103248
0.0884587
0.000903162
0.0877829
0.000800101
0.0871466
0.000718976
0.086546
0.000656018
0.085978
0.000607984
0.0854396
0.0005721
0.0849281
0.000546024
0.0844411
0.000527786
0.0839757
0.000515601
0.0835313
0.000508295
0.0830965
0.000502494
0.000505457
0.0821247
0.00460521
0.0844237
0.00478191
0.0875488
0.00567218
0.0909944
0.00684394
0.0944382
0.0081655
0.0976878
0.00953556
0.100643
0.0108604
0.103255
0.0120687
0.105501
0.0131076
0.107376
0.0139372
0.108886
0.0145288
0.110048
0.0148669
0.11088
0.0149502
0.111408
0.0147907
0.111659
0.0144112
0.111661
0.0138426
0.111447
0.0131213
0.111045
0.0122857
0.110489
0.0113743
0.109808
0.0104229
0.109029
0.00946321
0.108178
0.00852176
0.107277
0.0076196
0.106344
0.00677222
0.105396
0.00598998
0.104445
0.00527877
0.103501
0.00464075
0.102571
0.00407519
0.10166
0.00357918
0.100774
0.0031483
0.099915
0.00277721
0.0990842
0.00246006
0.0982831
0.00219088
0.097512
0.00196379
0.0967712
0.00177323
0.0960602
0.00161404
0.0953786
0.00148158
0.0947259
0.00137168
0.0941011
0.00128072
0.0935034
0.00120557
0.0929319
0.00114354
0.0923853
0.0010925
0.0918625
0.00105045
0.091361
0.00101691
0.0908819
0.000987493
0.0904094
0.000974967
0.000926409
0.0250862
-0.002312
0.0319855
-0.00211712
0.0385265
-0.000871679
0.0446403
0.000726976
0.0503574
0.00244608
0.0557132
0.0041776
0.0607334
0.00583789
0.0654263
0.00737336
0.0697879
0.00874395
0.0738116
0.0099123
0.077493
0.0108468
0.0808313
0.0115284
0.0838286
0.0119527
0.0864898
0.0121293
0.0888225
0.0120781
0.0908379
0.0118269
0.0925496
0.0114092
0.0939745
0.0108607
0.0951318
0.010217
0.0960432
0.00951166
0.0967318
0.00877485
0.0972215
0.00803229
0.0975364
0.00730493
0.0976999
0.00660884
0.0977344
0.00595553
0.0976606
0.00535242
0.0974977
0.00480351
0.0972627
0.00430996
0.0969708
0.00387084
0.0966352
0.00348365
0.0962674
0.00314483
0.0958771
0.00285024
0.0954724
0.0025954
0.0950603
0.00237584
0.0946463
0.0021872
0.0942349
0.00202538
0.0938298
0.00188666
0.0934338
0.00176767
0.093049
0.00166546
0.0926771
0.00157748
0.092319
0.00150154
0.0919754
0.00143601
0.0916466
0.00137913
0.0913318
0.00133182
0.0910322
0.001287
0.0907364
0.00127079
0.00118426
0.003063
-0.00537506
0.00668922
-0.00574738
0.0100156
-0.00420119
0.013388
-0.00264767
0.0169652
-0.00113388
0.0207834
0.000355705
0.0248167
0.00180037
0.0290088
0.00317731
0.033298
0.00445154
0.0376231
0.0055849
0.0419244
0.00654398
0.0461448
0.00730713
0.0502315
0.00786559
0.054138
0.00822284
0.057826
0.0083904
0.0612661
0.00838735
0.0644369
0.00823907
0.0673255
0.00797296
0.069927
0.00761642
0.072244
0.00719563
0.0742854
0.00673436
0.0760654
0.00625323
0.0776017
0.00576931
0.0789149
0.00529612
0.0800271
0.0048437
0.0809608
0.00441906
0.0817379
0.00402652
0.0823797
0.00366825
0.0829059
0.00334471
0.0833345
0.00305507
0.0836818
0.00279761
0.0839621
0.00257004
0.0841878
0.00236974
0.0843698
0.00219394
0.0845172