/*--------------------------------*- C++ -*----------------------------------*\
| =========                 |                                                 |
| \\      /  F ield         | OpenFOAM: The Open Source CFD Toolbox           |
|  \\    /   O peration     | Version:  2406                                  |
|   \\  /    A nd           | Website:  www.openfoam.com                      |
|    \\/     M anipulation  |                                                 |
\*---------------------------------------------------------------------------*/
FoamFile
{
    version     2.0;
    format      ascii;
    arch        "LSB;label=32;scalar=64";
    class       volVectorField;
    location    "42";
    object      U;
}
// * * * * * * * * * * * * * * * * * * * * * * * * * * * * * * * * * * * * * //

dimensions      [0 1 -1 0 0 0 0];

internalField   nonuniform List<vector> 
1964
(
(0.0990059 -0.00124715 0)
(0.100928 -0.0014408 0)
(0.102844 -0.000916183 0)
(0.104441 -0.000537802 0)
(0.105591 -0.000342817 0)
(0.10643 -0.000227279 0)
(0.107067 -0.00015186 0)
(0.107559 -0.000107589 0)
(0.107946 -8.40899e-05 0)
(0.10826 -6.90498e-05 0)
(0.108523 -5.50038e-05 0)
(0.108746 -4.18459e-05 0)
(0.108937 -3.29127e-05 0)
(0.109103 -3.01754e-05 0)
(0.109251 -3.20533e-05 0)
(0.109388 -3.56236e-05 0)
(0.109518 -3.76902e-05 0)
(0.109645 -3.76762e-05 0)
(0.10977 -3.60549e-05 0)
(0.109899 -3.50932e-05 0)
(0.110035 -3.65764e-05 0)
(0.110185 -4.23569e-05 0)
(0.110356 -5.31066e-05 0)
(0.110559 -6.96405e-05 0)
(0.110807 -9.20661e-05 0)
(0.111117 -0.000121702 0)
(0.111512 -0.000159755 0)
(0.11202 -0.000209619 0)
(0.112682 -0.000275076 0)
(0.113551 -0.000362769 0)
(0.114696 -0.000480558 0)
(0.116214 -0.000640138 0)
(0.118233 -0.000856273 0)
(0.120927 -0.00114951 0)
(0.124527 -0.00154668 0)
(0.129345 -0.00208363 0)
(0.135796 -0.00280636 0)
(0.144423 -0.00377228 0)
(0.155926 -0.00504812 0)
(0.171182 -0.00670399 0)
(0.191234 -0.00879554 0)
(0.217245 -0.0113343 0)
(0.250359 -0.0142374 0)
(0.291411 -0.0172338 0)
(0.340608 -0.0198293 0)
(0.396748 -0.021072 0)
(0.45684 -0.0200241 0)
(0.276492 -0.00156704 0)
(0.27615 -0.00269485 0)
(0.276422 -0.0025056 0)
(0.27695 -0.00203278 0)
(0.277628 -0.00161628 0)
(0.278356 -0.00127412 0)
(0.279051 -0.000998877 0)
(0.279676 -0.000789624 0)
(0.280229 -0.000637756 0)
(0.280717 -0.000528706 0)
(0.28115 -0.000447202 0)
(0.281535 -0.000382229 0)
(0.281876 -0.000329764 0)
(0.282182 -0.000289575 0)
(0.282459 -0.000261249 0)
(0.282716 -0.000244098 0)
(0.28296 -0.000234959 0)
(0.283196 -0.000232621 0)
(0.283429 -0.000235757 0)
(0.283665 -0.00024548 0)
(0.283912 -0.0002638 0)
(0.284179 -0.000294028 0)
(0.284477 -0.000340164 0)
(0.284822 -0.00040764 0)
(0.285235 -0.000502307 0)
(0.285742 -0.00063328 0)
(0.286377 -0.00081062 0)
(0.287186 -0.00105035 0)
(0.288229 -0.00137156 0)
(0.289586 -0.00180268 0)
(0.29136 -0.00237959 0)
(0.293694 -0.00315265 0)
(0.296771 -0.0041871 0)
(0.300836 -0.00557123 0)
(0.306212 -0.00741915 0)
(0.313319 -0.00987977 0)
(0.322699 -0.0131391 0)
(0.335047 -0.0174243 0)
(0.351229 -0.0229929 0)
(0.372304 -0.0301109 0)
(0.399513 -0.0389981 0)
(0.434242 -0.0497357 0)
(0.477931 -0.0621225 0)
(0.53177 -0.0754388 0)
(0.596638 -0.0883517 0)
(0.671757 -0.0979894 0)
(0.754666 -0.101397 0)
(0.43675 -0.000830109 0)
(0.436429 -0.00174485 0)
(0.436125 -0.00196847 0)
(0.435765 -0.00191439 0)
(0.435607 -0.00178957 0)
(0.435673 -0.0016255 0)
(0.435862 -0.00143939 0)
(0.436106 -0.00125767 0)
(0.436374 -0.00109847 0)
(0.436654 -0.000966238 0)
(0.436937 -0.000855229 0)
(0.437216 -0.000758388 0)
(0.437482 -0.000673224 0)
(0.437731 -0.000602227 0)
(0.437967 -0.000548652 0)
(0.438194 -0.000513426 0)
(0.438416 -0.000494549 0)
(0.438639 -0.000489263 0)
(0.438865 -0.000495201 0)
(0.439098 -0.000513039 0)
(0.439342 -0.00054543 0)
(0.439605 -0.000598563 0)
(0.439897 -0.000680078 0)
(0.440233 -0.00080057 0)
(0.440633 -0.000972295 0)
(0.441119 -0.00121144 0)
(0.441726 -0.00153813 0)
(0.442494 -0.00197982 0)
(0.443478 -0.00257246 0)
(0.444752 -0.00336538 0)
(0.44641 -0.00442379 0)
(0.44858 -0.00583577 0)
(0.451427 -0.00771714 0)
(0.455171 -0.010221 0)
(0.460099 -0.0135458 0)
(0.466583 -0.017946 0)
(0.475108 -0.0237403 0)
(0.486296 -0.0313155 0)
(0.500938 -0.0411174 0)
(0.520037 -0.0536194 0)
(0.544832 -0.0692425 0)
(0.576827 -0.0882323 0)
(0.6178 -0.110386 0)
(0.669548 -0.134786 0)
(0.734467 -0.159453 0)
(0.812403 -0.179484 0)
(0.904272 -0.19121 0)
(0.57693 -0.000450889 0)
(0.576828 -0.00112368 0)
(0.576639 -0.00144886 0)
(0.576196 -0.00154823 0)
(0.575803 -0.00155338 0)
(0.57557 -0.00150368 0)
(0.575444 -0.00141372 0)
(0.575375 -0.00130443 0)
(0.575347 -0.00119569 0)
(0.575358 -0.00109747 0)
(0.575403 -0.00100952 0)
(0.575474 -0.000927563 0)
(0.575558 -0.000850509 0)
(0.575645 -0.000781749 0)
(0.575735 -0.000727373 0)
(0.575831 -0.000690612 0)
(0.575936 -0.000672856 0)
(0.576053 -0.00067214 0)
(0.576183 -0.000687665 0)
(0.576325 -0.000719413 0)
(0.576481 -0.000771416 0)
(0.576654 -0.000850048 0)
(0.576851 -0.000966418 0)
(0.57708 -0.00113359 0)
(0.577355 -0.00137026 0)
(0.577694 -0.00169776 0)
(0.578119 -0.00214613 0)
(0.578661 -0.00275185 0)
(0.579357 -0.00356611 0)
(0.580259 -0.00465427 0)
(0.581432 -0.00610636 0)
(0.582966 -0.00803932 0)
(0.584976 -0.0106105 0)
(0.587617 -0.0140241 0)
(0.591093 -0.0185484 0)
(0.595674 -0.0245264 0)
(0.601722 -0.032395 0)
(0.609723 -0.0426948 0)
(0.620332 -0.0560752 0)
(0.634456 -0.0732785 0)
(0.653331 -0.0950655 0)
(0.678695 -0.122109 0)
(0.712828 -0.154539 0)
(0.758726 -0.191788 0)
(0.82078 -0.230894 0)
(0.899685 -0.264733 0)
(1.00806 -0.291015 0)
(0.697024 -0.000284666 0)
(0.697024 -0.000769624 0)
(0.696975 -0.00106958 0)
(0.69663 -0.00120507 0)
(0.696246 -0.00125485 0)
(0.695962 -0.00125521 0)
(0.695749 -0.00121765 0)
(0.695569 -0.0011563 0)
(0.69541 -0.00108751 0)
(0.695281 -0.0010219 0)
(0.695185 -0.000961307 0)
(0.695119 -0.000902915 0)
(0.695069 -0.000845445 0)
(0.695026 -0.000792664 0)
(0.694988 -0.000750199 0)
(0.694958 -0.000723656 0)
(0.694941 -0.000715165 0)
(0.694941 -0.000725225 0)
(0.694956 -0.000753221 0)
(0.694985 -0.000800385 0)
(0.695026 -0.000870295 0)
(0.695078 -0.000970782 0)
(0.695143 -0.00111296 0)
(0.695223 -0.00131315 0)
(0.695324 -0.00159133 0)
(0.695456 -0.00197451 0)
(0.695629 -0.00249592 0)
(0.695857 -0.00320039 0)
(0.696157 -0.00414545 0)
(0.696552 -0.00540889 0)
(0.697071 -0.00709268 0)
(0.697753 -0.00933374 0)
(0.698649 -0.0123121 0)
(0.699832 -0.0162664 0)
(0.701398 -0.0215087 0)
(0.703485 -0.0284474 0)
(0.706289 -0.0376105 0)
(0.7101 -0.0496771 0)
(0.715358 -0.0655083 0)
(0.722762 -0.0861801 0)
(0.733403 -0.112986 0)
(0.749198 -0.147442 0)
(0.772817 -0.190891 0)
(0.809887 -0.244599 0)
(0.865352 -0.306276 0)
(0.95005 -0.36882 0)
(1.08653 -0.435931 0)
(0.797081 -0.000190776 0)
(0.797128 -0.000533723 0)
(0.797159 -0.000776679 0)
(0.7969 -0.000910347 0)
(0.796559 -0.000976565 0)
(0.796284 -0.00100098 0)
(0.796061 -0.000992198 0)
(0.795854 -0.000959722 0)
(0.795656 -0.000916532 0)
(0.795475 -0.000872593 0)
(0.795322 -0.000830869 0)
(0.795196 -0.000789759 0)
(0.795084 -0.000748398 0)
(0.794975 -0.000709704 0)
(0.794865 -0.000678981 0)
(0.79476 -0.000661745 0)
(0.794664 -0.000661095 0)
(0.794582 -0.000678476 0)
(0.794512 -0.000714197 0)
(0.794453 -0.000769874 0)
(0.794399 -0.000849225 0)
(0.794345 -0.000959787 0)
(0.794287 -0.0011127 0)
(0.794224 -0.0013241 0)
(0.794153 -0.00161462 0)
(0.794074 -0.00201173 0)
(0.793985 -0.00255007 0)
(0.793882 -0.00327568 0)
(0.79376 -0.00424818 0)
(0.793612 -0.00554742 0)
(0.793427 -0.00727859 0)
(0.79319 -0.0095825 0)
(0.792885 -0.0126455 0)
(0.792489 -0.0167156 0)
(0.791982 -0.0221212 0)
(0.791343 -0.0292979 0)
(0.790567 -0.0388233 0)
(0.789681 -0.0514652 0)
(0.788788 -0.0682482 0)
(0.788169 -0.0905496 0)
(0.788392 -0.120236 0)
(0.790923 -0.159875 0)
(0.797851 -0.212949 0)
(0.81726 -0.284401 0)
(0.851311 -0.379456 0)
(0.946078 -0.500864 0)
(1.07743 -0.680314 0)
(0.877117 -0.000128969 0)
(0.877184 -0.000367574 0)
(0.877259 -0.000551315 0)
(0.877058 -0.000665607 0)
(0.876754 -0.000730894 0)
(0.876496 -0.000762859 0)
(0.876278 -0.000767271 0)
(0.876068 -0.000750727 0)
(0.875856 -0.000723399 0)
(0.875655 -0.00069387 0)
(0.875479 -0.000665363 0)
(0.875326 -0.000637072 0)
(0.875187 -0.000608424 0)
(0.875047 -0.000581232 0)
(0.874902 -0.000560059 0)
(0.874757 -0.000549391 0)
(0.874617 -0.000552797 0)
(0.874487 -0.000571934 0)
(0.874366 -0.000608009 0)
(0.874248 -0.000662587 0)
(0.874127 -0.000739479 0)
(0.873995 -0.000845013 0)
(0.873843 -0.000989589 0)
(0.873663 -0.00118715 0)
(0.873447 -0.00145704 0)
(0.873183 -0.00182371 0)
(0.872859 -0.00231972 0)
(0.872454 -0.00298671 0)
(0.871941 -0.00388031 0)
(0.871285 -0.00507334 0)
(0.870435 -0.0066634 0)
(0.869327 -0.00877983 0)
(0.867873 -0.011596 0)
(0.865962 -0.0153428 0)
(0.863449 -0.02033 0)
(0.860151 -0.0269736 0)
(0.855837 -0.035836 0)
(0.850228 -0.0476844 0)
(0.842994 -0.0635784 0)
(0.833789 -0.0850068 0)
(0.822247 -0.114117 0)
(0.808341 -0.154073 0)
(0.791784 -0.209887 0)
(0.776963 -0.289286 0)
(0.759772 -0.407055 0)
(0.809766 -0.585085 0)
(0.78581 -0.885946 0)
(0.93714 -8.387e-05 0)
(0.937216 -0.000241417 0)
(0.937314 -0.000368899 0)
(0.937149 -0.000453963 0)
(0.936873 -0.000506422 0)
(0.936629 -0.0005353 0)
(0.936419 -0.000543806 0)
(0.93621 -0.00053638 0)
(0.935993 -0.000520344 0)
(0.935781 -0.00050205 0)
(0.93559 -0.000484112 0)
(0.935424 -0.000466205 0)
(0.93527 -0.000447797 0)
(0.935113 -0.000430215 0)
(0.93495 -0.000416556 0)
(0.934782 -0.000410419 0)
(0.934617 -0.000414667 0)
(0.934458 -0.000431106 0)
(0.934303 -0.000460997 0)
(0.934148 -0.000506004 0)
(0.933982 -0.000569161 0)
(0.933795 -0.000655691 0)
(0.933574 -0.000773561 0)
(0.933307 -0.000934024 0)
(0.932978 -0.00115214 0)
(0.932569 -0.00144772 0)
(0.932054 -0.00184653 0)
(0.931402 -0.00238235 0)
(0.930567 -0.00309961 0)
(0.929487 -0.0040572 0)
(0.928079 -0.00533354 0)
(0.926233 -0.00703334 0)
(0.923804 -0.00929686 0)
(0.920597 -0.0123125 0)
(0.916358 -0.0163344 0)
(0.910752 -0.0217075 0)
(0.903336 -0.0289044 0)
(0.893529 -0.038579 0)
(0.880562 -0.0516516 0)
(0.863424 -0.0694363 0)
(0.840735 -0.0938608 0)
(0.810687 -0.127771 0)
(0.770276 -0.175685 0)
(0.716148 -0.244276 0)
(0.635792 -0.347372 0)
(0.533127 -0.509653 0)
(0.202472 -0.691258 0)
(0.977154 -4.75193e-05 0)
(0.977233 -0.000137462 0)
(0.977344 -0.000212298 0)
(0.977201 -0.000264041 0)
(0.976941 -0.000297292 0)
(0.976708 -0.000316937 0)
(0.976503 -0.000324364 0)
(0.976296 -0.000321957 0)
(0.976076 -0.000313979 0)
(0.975857 -0.000304214 0)
(0.975659 -0.000294339 0)
(0.975484 -0.000284356 0)
(0.975321 -0.000274058 0)
(0.975156 -0.000264225 0)
(0.974981 -0.000256669 0)
(0.9748 -0.000253557 0)
(0.974619 -0.000256734 0)
(0.974442 -0.000267502 0)
(0.974267 -0.000286869 0)
(0.974087 -0.000316113 0)
(0.973892 -0.0003573 0)
(0.973669 -0.000413848 0)
(0.973402 -0.000490844 0)
(0.973075 -0.000595455 0)
(0.972668 -0.000737289 0)
(0.972158 -0.000929033 0)
(0.97151 -0.00118728 0)
(0.970683 -0.00153384 0)
(0.969618 -0.00199746 0)
(0.968234 -0.00261633 0)
(0.966424 -0.00344129 0)
(0.964045 -0.00454043 0)
(0.960907 -0.00600505 0)
(0.956756 -0.00795829 0)
(0.951252 -0.010567 0)
(0.943945 -0.0140589 0)
(0.934228 -0.018748 0)
(0.921282 -0.0250722 0)
(0.903995 -0.0336506 0)
(0.880842 -0.045369 0)
(0.849692 -0.0615141 0)
(0.80758 -0.0839438 0)
(0.750095 -0.115397 0)
(0.671392 -0.159454 0)
(0.560708 -0.221441 0)
(0.410722 -0.30201 0)
(0.146755 -0.357935 0)
(0.99716 -1.54268e-05 0)
(0.997241 -4.46895e-05 0)
(0.997357 -6.93798e-05 0)
(0.997224 -8.6733e-05 0)
(0.996973 -9.80343e-05 0)
(0.996744 -0.000104922 0)
(0.996542 -0.000107813 0)
(0.996336 -0.000107448 0)
(0.996115 -0.000105109 0)
(0.995894 -0.000101925 8.80591e-35)
(0.995692 -9.85161e-05 0)
(0.995513 -9.5098e-05 0)
(0.995346 -9.18011e-05 0)
(0.995175 -8.89109e-05 0)
(0.994995 -8.68931e-05 0)
(0.994808 -8.62749e-05 8.69287e-35)
(0.99462 -8.75403e-05 0)
(0.994434 -9.11172e-05 0)
(0.994248 -9.74617e-05 0)
(0.994056 -0.000107184 0)
(0.993847 -0.000121178 0)
(0.993605 -0.000140731 0)
(0.993314 -0.000167629 0)
(0.992957 -0.000204291 -8.54544e-35)
(0.99251 -0.00025393 0)
(0.991947 -0.000320809 0)
(0.991231 -0.000410555 0)
(0.990313 -0.000530644 0)
(0.989128 -0.000691002 0)
(0.987585 -0.000904876 0)
(0.985565 -0.00118993 0)
(0.982907 -0.00156982 0)
(0.979397 -0.0020763 0)
(0.974748 -0.00275222 0)
(0.968576 -0.0036557 0)
(0.960369 -0.00486635 0)
(0.949429 -0.00649404 0)
(0.934812 -0.0086926 0)
(0.91522 -0.0116793 0)
(0.888865 -0.0157646 0)
(0.85324 -0.0213947 0)
(0.804866 -0.0292022 -1.26227e-34)
(0.738766 -0.0400801 0)
(0.648492 -0.0551325 0)
(0.524158 -0.0756965 0)
(0.361482 -0.101394 0)
(0.11577 -0.112478 0)
(0.99716 1.55044e-05 0)
(0.997241 4.45415e-05 0)
(0.997357 6.93365e-05 0)
(0.997224 8.68256e-05 0)
(0.996973 9.82296e-05 0)
(0.996744 0.000105135 0)
(0.996542 0.00010783 0)
(0.996336 0.000107109 0)
(0.996115 0.00010465 0)
(0.995894 0.000101924 -8.80591e-35)
(0.995692 9.93493e-05 0)
(0.995513 9.6507e-05 0)
(0.995345 9.30045e-05 0)
(0.995175 8.90929e-05 0)
(0.994995 8.57154e-05 0)
(0.994808 8.40539e-05 -8.69287e-35)
(0.99462 8.50667e-05 0)
(0.994434 8.92834e-05 0)
(0.994249 9.68894e-05 0)
(0.994057 0.000108002 0)
(0.993847 0.000123015 0)
(0.993605 0.000142865 0)
(0.993314 0.000169256 0)
(0.992956 0.000204735 8.54544e-35)
(0.992509 0.000252824 0)
(0.991946 0.000318122 0)
(0.99123 0.000406566 0)
(0.990313 0.000525813 0)
(0.989128 0.000685834 0)
(0.987585 0.000899788 0)
(0.985565 0.00118517 0)
(0.982907 0.00156544 0)
(0.979396 0.00207216 0)
(0.974747 0.00274806 0)
(0.968576 0.00365119 0)
(0.960368 0.00486115 0)
(0.949428 0.00648785 0)
(0.93481 0.00868515 0)
(0.915219 0.0116702 0)
(0.888863 0.0157536 0)
(0.853238 0.0213812 0)
(0.804862 0.0291856 1.26228e-34)
(0.738763 0.0400595 0)
(0.64849 0.0551105 0)
(0.524169 0.0756906 0)
(0.361491 0.101407 0)
(0.115764 0.11249 0)
(0.977154 4.7601e-05 0)
(0.977233 0.00013731 0)
(0.977344 0.000212264 0)
(0.977201 0.000264192 0)
(0.976941 0.000297522 0)
(0.976707 0.000317136 0)
(0.976503 0.000324379 0)
(0.976295 0.000321679 0)
(0.976076 0.00031363 0)
(0.975858 0.000304292 0)
(0.97566 0.000295135 0)
(0.975484 0.000285568 0)
(0.97532 0.000274952 0)
(0.975154 0.00026411 0)
(0.974979 0.000255336 0)
(0.974799 0.000251391 0)
(0.974619 0.000254506 0)
(0.974443 0.000265999 0)
(0.974269 0.000286582 0)
(0.974089 0.000317057 0)
(0.973893 0.00035906 0)
(0.973669 0.000415734 0)
(0.973401 0.000492128 0)
(0.973073 0.000595581 0)
(0.972666 0.000735991 0)
(0.972155 0.00092636 0)
(0.971509 0.00118353 0)
(0.970682 0.00152943 0)
(0.969617 0.00199283 0)
(0.968233 0.00261181 0)
(0.966424 0.00343706 0)
(0.964045 0.00453646 0)
(0.960907 0.0060012 0)
(0.956754 0.00795428 0)
(0.95125 0.0105625 0)
(0.943943 0.0140537 0)
(0.934224 0.0187418 0)
(0.921278 0.0250648 0)
(0.90399 0.0336418 0)
(0.880836 0.0453582 0)
(0.849685 0.0615011 0)
(0.807573 0.083927 0)
(0.750089 0.11538 0)
(0.671403 0.159439 0)
(0.560724 0.221439 0)
(0.410729 0.302025 0)
(0.146765 0.35795 0)
(0.93714 8.3944e-05 0)
(0.937216 0.000241363 0)
(0.937315 0.000368981 0)
(0.937149 0.000454091 0)
(0.936873 0.00050654 0)
(0.936629 0.00053537 0)
(0.936418 0.000543777 0)
(0.936209 0.000536243 0)
(0.935993 0.000520279 0)
(0.935782 0.000502401 0)
(0.935592 0.000485004 0)
(0.935424 0.000467274 0)
(0.935268 0.000448412 0)
(0.93511 0.000429889 0)
(0.934947 0.000415264 0)
(0.934781 0.000408608 0)
(0.934618 0.000412992 0)
(0.93446 0.000430156 0)
(0.934306 0.000461021 0)
(0.93415 0.000506878 0)
(0.933984 0.000570445 0)
(0.933795 0.000656814 0)
(0.933572 0.000774004 0)
(0.933304 0.000933462 0)
(0.932974 0.0011505 0)
(0.932565 0.00144514 0)
(0.932052 0.00184331 0)
(0.931401 0.00237882 0)
(0.930566 0.00309602 0)
(0.929486 0.00405374 0)
(0.928079 0.00533021 0)
(0.926233 0.00703005 0)
(0.923802 0.00929339 0)
(0.920595 0.0123086 0)
(0.916355 0.0163299 0)
(0.910747 0.0217022 0)
(0.90333 0.0288979 0)
(0.893522 0.0385714 0)
(0.880554 0.0516426 0)
(0.863414 0.0694257 0)
(0.840724 0.0938473 0)
(0.810675 0.127756 0)
(0.770273 0.175665 0)
(0.716157 0.244267 0)
(0.635821 0.347363 0)
(0.533153 0.509675 0)
(0.20247 0.691283 0)
(0.877117 0.000129063 0)
(0.877184 0.000367523 0)
(0.87726 0.000551377 0)
(0.877058 0.000665695 0)
(0.876754 0.000730847 0)
(0.876495 0.000762684 0)
(0.876277 0.000767027 0)
(0.876067 0.000750558 0)
(0.875857 0.000723503 0)
(0.875657 0.000694402 0)
(0.87548 0.000666226 0)
(0.875326 0.000637891 0)
(0.875184 0.000608675 0)
(0.875042 0.000580839 0)
(0.874898 0.000559151 0)
(0.874755 0.000548486 0)
(0.874619 0.00055226 0)
(0.87449 0.000572006 0)
(0.87437 0.00060856 0)
(0.874251 0.000663351 0)
(0.874129 0.000739986 0)
(0.873994 0.000845019 0)
(0.87384 0.000988812 0)
(0.873659 0.00118573 0)
(0.873442 0.00145503 0)
(0.873179 0.00182148 0)
(0.872855 0.00231737 0)
(0.872452 0.00298453 0)
(0.87194 0.00387821 0)
(0.871285 0.00507135 0)
(0.870435 0.00666125 0)
(0.869326 0.00877743 0)
(0.867871 0.011593 0)
(0.865959 0.0153391 0)
(0.863445 0.0203256 0)
(0.860145 0.0269683 0)
(0.855829 0.0358298 0)
(0.850219 0.0476773 0)
(0.842983 0.0635704 0)
(0.833776 0.0849975 0)
(0.822232 0.114107 0)
(0.808325 0.15406 0)
(0.79178 0.209874 0)
(0.776976 0.289269 0)
(0.759805 0.407049 0)
(0.809818 0.585089 0)
(0.785862 0.885959 0)
(0.797081 0.000190837 0)
(0.797128 0.000533756 0)
(0.79716 0.000776726 0)
(0.7969 0.000910418 0)
(0.796559 0.000976565 0)
(0.796283 0.0010009 0)
(0.796059 0.000992134 0)
(0.795853 0.000959759 0)
(0.795656 0.000916696 0)
(0.795477 0.000872803 0)
(0.795324 0.000830895 0)
(0.795195 0.000789388 0)
(0.79508 0.00074768 0)
(0.794969 0.000708883 0)
(0.794861 0.000678566 0)
(0.794758 0.000661895 0)
(0.794666 0.00066189 0)
(0.794586 0.000679483 0)
(0.794517 0.000715054 0)
(0.794456 0.000770054 0)
(0.7944 0.000848622 0)
(0.794343 0.000958305 0)
(0.794283 0.00111075 0)
(0.794218 0.00132189 0)
(0.794148 0.00161271 0)
(0.79407 0.00201013 0)
(0.793982 0.00254909 0)
(0.79388 0.00327496 0)
(0.79376 0.00424771 0)
(0.793612 0.00554665 0)
(0.793426 0.00727744 0)
(0.793189 0.00958053 0)
(0.792882 0.0126427 0)
(0.792485 0.0167119 0)
(0.791976 0.0221167 0)
(0.791335 0.0292927 0)
(0.790557 0.0388175 0)
(0.78967 0.0514588 0)
(0.788775 0.0682413 0)
(0.788154 0.0905421 0)
(0.788374 0.120227 0)
(0.790907 0.159865 0)
(0.797839 0.212939 0)
(0.817271 0.284383 0)
(0.851346 0.379432 0)
(0.946114 0.500839 0)
(1.07746 0.680285 0)
(0.697024 0.000284694 0)
(0.697025 0.000769502 0)
(0.696975 0.0010695 0)
(0.69663 0.00120507 0)
(0.696245 0.00125498 0)
(0.69596 0.00125537 0)
(0.695748 0.00121805 0)
(0.695568 0.00115701 0)
(0.695411 0.00108837 0)
(0.695283 0.00102246 0)
(0.695187 0.000961074 0)
(0.695117 0.000901877 0)
(0.695065 0.000844288 0)
(0.695021 0.00079206 0)
(0.694984 0.000750814 0)
(0.694958 0.000725296 0)
(0.694944 0.000717294 0)
(0.694945 0.000726971 0)
(0.69496 0.000753862 0)
(0.694988 0.000799607 0)
(0.695026 0.000868261 0)
(0.695075 0.000967977 0)
(0.695138 0.00111017 0)
(0.695217 0.00131089 0)
(0.695319 0.00159014 0)
(0.695452 0.00197429 0)
(0.695627 0.00249661 0)
(0.695856 0.00320139 0)
(0.696157 0.00414637 0)
(0.696552 0.00540913 0)
(0.69707 0.00709205 0)
(0.697751 0.00933196 0)
(0.698646 0.0123093 0)
(0.699826 0.0162626 0)
(0.701391 0.0215044 0)
(0.703476 0.0284426 0)
(0.706279 0.0376056 0)
(0.710088 0.049672 0)
(0.715344 0.0655031 0)
(0.722745 0.0861747 0)
(0.733383 0.11298 0)
(0.749177 0.147436 0)
(0.772801 0.190879 0)
(0.809881 0.244585 0)
(0.865367 0.306243 0)
(0.950087 0.368771 0)
(1.08656 0.435889 0)
(0.57693 0.000450909 0)
(0.576829 0.0011235 0)
(0.576639 0.00144859 0)
(0.576196 0.00154803 0)
(0.575802 0.00155313 0)
(0.575569 0.00150344 0)
(0.575443 0.00141377 0)
(0.575374 0.00130493 0)
(0.575348 0.00119624 0)
(0.575359 0.00109728 0)
(0.575403 0.00100822 0)
(0.575471 0.00092567 0)
(0.575552 0.000849105 0)
(0.57564 0.000781979 0)
(0.575732 0.000729178 0)
(0.575831 0.000693572 0)
(0.57594 0.000675518 0)
(0.576058 0.000673638 0)
(0.576187 0.000687192 0)
(0.576326 0.000717253 0)
(0.57648 0.000768018 0)
(0.57665 0.00084662 0)
(0.576845 0.000963553 0)
(0.577074 0.00113228 0)
(0.57735 0.0013702 0)
(0.577691 0.0016992 0)
(0.578117 0.002148 0)
(0.57866 0.00275402 0)
(0.579357 0.00356743 0)
(0.580258 0.00465487 0)
(0.581431 0.00610552 0)
(0.582963 0.00803761 0)
(0.584972 0.0106077 0)
(0.587611 0.014021 0)
(0.591085 0.0185448 0)
(0.595665 0.0245231 0)
(0.601712 0.0323919 0)
(0.60971 0.0426922 0)
(0.620318 0.0560731 0)
(0.634439 0.0732768 0)
(0.65331 0.0950649 0)
(0.678672 0.122109 0)
(0.712807 0.154537 0)
(0.758713 0.191782 0)
(0.820777 0.230882 0)
(0.899711 0.264705 0)
(1.00811 0.290973 0)
(0.43675 0.00083012 0)
(0.43643 0.00174478 0)
(0.436126 0.00196839 0)
(0.435765 0.00191434 0)
(0.435606 0.00178941 0)
(0.435672 0.00162552 0)
(0.435861 0.00143985 0)
(0.436105 0.00125861 0)
(0.436375 0.00109916 0)
(0.436655 0.000965539 0)
(0.436937 0.000853191 0)
(0.437213 0.000756154 0)
(0.437477 0.000672474 0)
(0.437727 0.000603647 0)
(0.437965 0.000551803 0)
(0.438195 0.000516799 0)
(0.43842 0.000496863 0)
(0.438643 0.000489361 0)
(0.438867 0.000493383 0)
(0.439098 0.000509653 0)
(0.439339 0.000541961 0)
(0.4396 0.000595673 0)
(0.439892 0.000678843 0)
(0.440229 0.000800804 0)
(0.440629 0.000974076 0)
(0.441117 0.0012138 0)
(0.441724 0.00154073 0)
(0.442493 0.00198165 0)
(0.443477 0.00257352 0)
(0.44475 0.00336511 0)
(0.446408 0.00442269 0)
(0.448576 0.00583374 0)
(0.451422 0.00771487 0)
(0.455165 0.0102186 0)
(0.460091 0.0135437 0)
(0.466575 0.0179443 0)
(0.475099 0.0237393 0)
(0.486285 0.0313154 0)
(0.500925 0.0411182 0)
(0.520022 0.0536213 0)
(0.544814 0.0692462 0)
(0.576807 0.0882388 0)
(0.617781 0.110396 0)
(0.669535 0.134796 0)
(0.734466 0.159462 0)
(0.812418 0.179488 0)
(0.904311 0.191187 0)
(0.276492 0.00156703 0)
(0.276151 0.00269503 0)
(0.276422 0.00250573 0)
(0.27695 0.00203293 0)
(0.277628 0.00161632 0)
(0.278354 0.00127428 0)
(0.279049 0.000999671 0)
(0.279676 0.000790816 0)
(0.280229 0.000638449 0)
(0.280717 0.00052804 0)
(0.281149 0.000445361 0)
(0.281531 0.000380792 0)
(0.281873 0.000329883 0)
(0.282179 0.000291377 0)
(0.282459 0.000264128 0)
(0.282718 0.00024643 0)
(0.282963 0.00023606 0)
(0.283198 0.000231869 0)
(0.28343 0.000233603 0)
(0.283665 0.000242732 0)
(0.28391 0.000261295 0)
(0.284175 0.000292565 0)
(0.284473 0.000340068 0)
(0.284818 0.000408744 0)
(0.285232 0.000504439 0)
(0.28574 0.000635544 0)
(0.286376 0.00081286 0)
(0.287186 0.0010517 0)
(0.288229 0.00137223 0)
(0.289584 0.00180226 0)
(0.291358 0.0023786 0)
(0.29369 0.00315106 0)
(0.296766 0.00418557 0)
(0.300831 0.00556974 0)
(0.306205 0.00741829 0)
(0.313311 0.00987937 0)
(0.322691 0.0131398 0)
(0.335038 0.0174256 0)
(0.351218 0.0229954 0)
(0.372291 0.0301146 0)
(0.399499 0.039003 0)
(0.434228 0.0497432 0)
(0.477919 0.062133 0)
(0.531766 0.0754533 0)
(0.596641 0.0883711 0)
(0.671767 0.0980066 0)
(0.754689 0.101398 0)
(0.099006 0.00124711 0)
(0.100928 0.00144075 0)
(0.102844 0.000916241 0)
(0.10444 0.000537793 0)
(0.10559 0.000342303 0)
(0.106429 0.000226864 0)
(0.107067 0.000152085 0)
(0.107558 0.00010773 0)
(0.107945 8.33965e-05 0)
(0.108259 6.77788e-05 0)
(0.108522 5.42845e-05 0)
(0.108744 4.23281e-05 0)
(0.108935 3.42804e-05 0)
(0.109102 3.13851e-05 0)
(0.109252 3.25025e-05 0)
(0.109389 3.49278e-05 0)
(0.109519 3.64886e-05 0)
(0.109645 3.63347e-05 0)
(0.10977 3.53179e-05 0)
(0.109898 3.49608e-05 0)
(0.110034 3.71336e-05 0)
(0.110183 4.31172e-05 0)
(0.110354 5.39575e-05 0)
(0.110558 7.01134e-05 0)
(0.110806 9.23329e-05 0)
(0.111116 0.000121497 0)
(0.111511 0.00015955 0)
(0.11202 0.000209236 0)
(0.112682 0.00027499 0)
(0.11355 0.000362724 0)
(0.114695 0.000480871 0)
(0.116213 0.000640527 0)
(0.118231 0.000856887 0)
(0.120924 0.00115011 0)
(0.124524 0.00154734 0)
(0.129343 0.00208426 0)
(0.135793 0.00280706 0)
(0.14442 0.00377318 0)
(0.155923 0.00504956 0)
(0.171179 0.0067058 0)
(0.191232 0.00879767 0)
(0.217244 0.0113365 0)
(0.25036 0.0142396 0)
(0.291416 0.0172365 0)
(0.340618 0.0198344 0)
(0.396757 0.0210778 0)
(0.456845 0.0200226 0)
(0.515538 -0.0155504 0)
(0.565232 -0.00770303 0)
(0.599107 0.00139477 0)
(0.614716 0.0097744 0)
(0.612179 0.016578 0)
(0.594554 0.0213472 0)
(0.839958 -0.0937098 0)
(0.918566 -0.0739194 0)
(0.982514 -0.0480241 0)
(1.02884 -0.0217986 0)
(1.05925 0.00243855 0)
(1.07481 0.0235935 0)
(1.00507 -0.18237 0)
(1.09961 -0.150418 0)
(1.17482 -0.108374 0)
(1.22895 -0.0662663 0)
(1.26535 -0.0275669 0)
(1.28728 0.00624426 0)
(1.14035 -0.280142 0)
(1.25884 -0.233281 0)
(1.33766 -0.173022 0)
(1.38173 -0.11225 0)
(1.40349 -0.0562855 0)
(1.41097 -0.00859721 0)
(1.2598 -0.412028 0)
(1.36652 -0.329441 0)
(1.39129 -0.233989 0)
(1.3756 -0.143857 0)
(1.35094 -0.0681679 0)
(1.32829 -0.0101421 0)
(1.24726 -0.597324 0)
(1.18473 -0.394705 0)
(1.03743 -0.223072 0)
(0.925452 -0.101239 0)
(0.858109 -0.0190796 0)
(0.823454 0.0321789 0)
(0.786884 -0.548049 0)
(0.409105 -0.159835 0)
(0.134383 0.0169271 0)
(0.102636 0.0524392 0)
(0.131188 0.0510401 0)
(0.160517 0.0501999 0)
(0.786895 0.548056 0)
(0.409119 0.159852 0)
(0.134397 -0.016908 0)
(0.102629 -0.0524243 0)
(0.131158 -0.0510341 0)
(0.160489 -0.0501952 0)
(1.24728 0.59729 0)
(1.18471 0.394715 0)
(1.03742 0.22311 0)
(0.925436 0.101288 0)
(0.858082 0.0191426 0)
(0.823416 -0.03212 0)
(1.25983 0.411989 0)
(1.36652 0.32944 0)
(1.39127 0.234024 0)
(1.37557 0.143899 0)
(1.3509 0.0682091 0)
(1.32824 0.0101757 0)
(1.1404 0.280105 0)
(1.25887 0.233252 0)
(1.33765 0.173005 0)
(1.38168 0.112242 0)
(1.40344 0.0562694 0)
(1.41092 0.00859372 0)
(1.00512 0.182325 0)
(1.09965 0.150354 0)
(1.17482 0.108311 0)
(1.22893 0.066222 0)
(1.26532 0.0275573 0)
(1.28726 -0.00622695 0)
(0.839993 0.0936762 0)
(0.918601 0.0738631 0)
(0.982542 0.0479728 0)
(1.02886 0.0217705 0)
(1.05926 -0.00243567 0)
(1.07481 -0.0235748 0)
(0.51555 0.0155405 0)
(0.565254 0.00769365 0)
(0.599136 -0.00139812 0)
(0.614745 -0.00977547 0)
(0.6122 -0.0165932 0)
(0.594557 -0.0213774 0)
(0.56581 0.0237622 0)
(0.529553 0.0238969 0)
(0.489054 0.0222991 0)
(0.446983 0.0196887 0)
(0.405236 0.0166554 0)
(0.365089 0.0135896 0)
(0.327395 0.010738 0)
(0.292699 0.0082448 0)
(0.26129 0.00616833 0)
(0.233261 0.00450168 0)
(0.208565 0.00320118 0)
(0.187065 0.00220891 0)
(0.168555 0.00146459 0)
(0.152791 0.000911539 0)
(0.139514 0.000500471 0)
(0.128466 0.000191208 0)
(0.1194 -4.6425e-05 0)
(0.112088 -0.000233959 0)
(0.10632 -0.000385536 0)
(0.101907 -0.000510165 0)
(0.0986734 -0.000613159 0)
(0.0964623 -0.000697672 0)
(0.0951287 -0.000765402 0)
(0.0945405 -0.000817499 0)
(0.0945766 -0.000855407 0)
(0.0951272 -0.000879955 0)
(0.0960941 -0.000891429 0)
(0.0973894 -0.000890746 0)
(0.0989375 -0.000879944 0)
(0.100672 -0.000861092 0)
(0.102535 -0.000834771 0)
(0.104474 -0.000801756 0)
(0.106445 -0.0007636 0)
(0.108411 -0.000722102 0)
(0.110344 -0.00067851 0)
(0.112221 -0.000633802 0)
(0.114023 -0.00058875 0)
(0.115737 -0.000544101 0)
(0.117354 -0.000500429 0)
(0.118867 -0.000458296 0)
(0.120273 -0.000418045 0)
(0.121572 -0.000380195 0)
(0.122764 -0.000344438 0)
(0.123853 -0.000311699 0)
(0.124842 -0.00028075 0)
(0.12574 -0.000244518 0)
(0.126678 -0.000248475 0)
(1.07608 0.0406625 0)
(1.06456 0.053166 0)
(1.04218 0.0614118 0)
(1.01082 0.0661065 0)
(0.972158 0.0679264 0)
(0.927787 0.067435 0)
(0.879291 0.0651406 0)
(0.828187 0.0615096 0)
(0.775881 0.0569492 0)
(0.72366 0.0518018 0)
(0.672672 0.0463525 0)
(0.623906 0.0408375 0)
(0.578158 0.0354459 0)
(0.536023 0.0303202 0)
(0.497885 0.0255591 0)
(0.463933 0.0212211 0)
(0.43418 0.017332 0)
(0.408499 0.0138914 0)
(0.386658 0.0108811 0)
(0.368356 0.00827169 0)
(0.353254 0.00602834 0)
(0.341004 0.004115 0)
(0.331257 0.00249665 0)
(0.323685 0.00114077 0)
(0.317982 1.82363e-05 0)
(0.313867 -0.000898079 0)
(0.31109 -0.00163388 0)
(0.309424 -0.00221308 0)
(0.308679 -0.00265593 0)
(0.30867 -0.00297799 0)
(0.309238 -0.00319368 0)
(0.310249 -0.00331743 0)
(0.311589 -0.00336485 0)
(0.313165 -0.0033512 0)
(0.314896 -0.00328897 0)
(0.316718 -0.00318824 0)
(0.318575 -0.00305761 0)
(0.320423 -0.00290458 0)
(0.322227 -0.00273569 0)
(0.323962 -0.00255672 0)
(0.325605 -0.00237246 0)
(0.327145 -0.00218772 0)
(0.328568 -0.00200478 0)
(0.329878 -0.00183159 0)
(0.331061 -0.00165585 0)
(0.33213 -0.00152719 0)
(0.333272 -0.00122447 0)
(1.2981 0.034139 0)
(1.30006 0.0561329 0)
(1.29476 0.0731559 0)
(1.28289 0.0861744 0)
(1.26465 0.0957887 0)
(1.24026 0.102369 0)
(1.21014 0.106213 0)
(1.17491 0.107588 0)
(1.1353 0.106742 0)
(1.0922 0.103925 0)
(1.04661 0.0994125 0)
(0.999622 0.0935069 0)
(0.952296 0.0865316 0)
(0.905655 0.0788158 0)
(0.860608 0.0706795 0)
(0.81791 0.0624178 0)
(0.778144 0.0542876 0)
(0.741706 0.0464976 0)
(0.708816 0.0392043 0)
(0.67954 0.0325123 0)
(0.653813 0.0264795 0)
(0.631471 0.0211252 0)
(0.612285 0.0164392 0)
(0.595979 0.0123903 0)
(0.582259 0.0089341 0)
(0.570826 0.00601887 0)
(0.56139 0.00359012 0)
(0.553675 0.00159309 0)
(0.547422 -2.2837e-05 0)
(0.542408 -0.00130408 0)
(0.538432 -0.0022948 0)
(0.535321 -0.00303693 0)
(0.532927 -0.00356793 0)
(0.531109 -0.00392077 0)
(0.529747 -0.00412508 0)
(0.528741 -0.00420754 0)
(0.528008 -0.00419165 0)
(0.527477 -0.00409799 0)
(0.527093 -0.00394425 0)
(0.52681 -0.00374569 0)
(0.526589 -0.00351517 0)
(0.526403 -0.00326438 0)
(0.526224 -0.00300141 0)
(0.52605 -0.0027427 0)
(0.525821 -0.00246914 0)
(0.525698 -0.00230677 0)
(0.525223 -0.00173209 0)
(1.41005 0.0289912 0)
(1.40497 0.0575465 0)
(1.39794 0.0796652 0)
(1.38924 0.097241 0)
(1.37838 0.11122 0)
(1.36489 0.122149 0)
(1.34845 0.130385 0)
(1.32883 0.136109 0)
(1.30592 0.139382 0)
(1.27977 0.140235 0)
(1.25064 0.138744 0)
(1.21896 0.135059 0)
(1.18529 0.129411 0)
(1.15027 0.1221 0)
(1.11461 0.113481 0)
(1.07901 0.103935 0)
(1.04412 0.0938455 0)
(1.01051 0.0835701 0)
(0.978612 0.073423 0)
(0.948778 0.0636605 0)
(0.921216 0.0544773 0)
(0.896034 0.0460072 0)
(0.873243 0.0383295 0)
(0.85278 0.0314776 0)
(0.834529 0.0254486 0)
(0.818334 0.0202133 0)
(0.804017 0.0157239 0)
(0.791393 0.0119216 0)
(0.780273 0.00874157 0)
(0.770476 0.00611654 0)
(0.761835 0.00398017 0)
(0.754192 0.00226879 0)
(0.747404 0.000924052 0)
(0.741352 -0.000106417 0)
(0.73593 -0.000870577 0)
(0.731047 -0.00141195 0)
(0.726623 -0.0017693 0)