/*--------------------------------*- C++ -*----------------------------------*\
| =========                 |                                                 |
| \\      /  F ield         | OpenFOAM: The Open Source CFD Toolbox           |
|  \\    /   O peration     | Version:  2406                                  |
|   \\  /    A nd           | Website:  www.openfoam.com                      |
|    \\/     M anipulation  |                                                 |
\*---------------------------------------------------------------------------*/
FoamFile
{
    version     2.0;
    format      ascii;
    arch        "LSB;label=32;scalar=64";
    class       surfaceScalarField;
    location    "60";
    object      phi;
}
// * * * * * * * * * * * * * * * * * * * * * * * * * * * * * * * * * * * * * //

dimensions      [0 3 -1 0 0 0 0];

oriented        oriented;

internalField   nonuniform List<scalar> 
3880
(
0.0098391
-8.91009e-05
0.00991043
-7.13207e-05
0.0099533
-4.28767e-05
0.00998127
-2.79687e-05
0.00999994
-1.86663e-05
0.0100123
-1.23402e-05
0.0100206
-8.30944e-06
0.0100264
-5.79311e-06
0.0100305
-4.15727e-06
-3.04102e-06
0.0100336
0.0277379
-7.69527e-05
0.027768
-0.000101443
0.0278043
-7.91721e-05
0.0278361
-5.98337e-05
0.0278624
-4.49199e-05
0.027883
-3.29542e-05
0.0278988
-2.40839e-05
0.0279108
-1.78084e-05
0.02792
-1.33324e-05
-1.00666e-05
0.027927
0.0437299
-5.6887e-05
0.0437246
-9.60905e-05
0.0437357
-9.02317e-05
0.0437531
-7.72821e-05
0.0437721
-6.38937e-05
0.0437899
-5.0824e-05
0.0438055
-3.9599e-05
0.0438184
-3.07173e-05
0.0438289
-2.38349e-05
-1.84956e-05
0.0438373
0.0577334
-4.02634e-05
0.0577163
-7.90056e-05
0.0577105
-8.44334e-05
0.057713
-7.97942e-05
0.0577205
-7.1363e-05
0.0577303
-6.06527e-05
0.0577406
-4.98718e-05
0.0577502
-4.03531e-05
0.0577588
-3.23609e-05
-2.57729e-05
0.057766
0.0697377
-2.79547e-05
0.0697194
-6.07271e-05
0.069706
-7.0982e-05
0.0696984
-7.22333e-05
0.0696958
-6.87535e-05
0.0696968
-6.16718e-05
0.0697
-5.30575e-05
0.0697042
-4.45401e-05
0.0697086
-3.67954e-05
-3.00174e-05
0.0697129
0.0797412
-1.91834e-05
0.0797251
-4.45628e-05
0.0797094
-5.53442e-05
0.0796966
-5.94313e-05
0.0796872
-5.93402e-05
0.0796811
-5.5548e-05
0.0796776
-4.95795e-05
0.079676
-4.29226e-05
0.0796756
-3.63775e-05
-3.0311e-05
0.0796759
0.0877436
-1.28052e-05
0.08773
-3.09854e-05
0.0877147
-4.0035e-05
0.0876999
-4.4634e-05
0.0876868
-4.61481e-05
0.0876758
-4.4604e-05
0.0876672
-4.09548e-05
0.0876606
-3.63283e-05
0.0876556
-3.1429e-05
-2.66447e-05
0.087652
0.0937451
-7.87656e-06
0.0937336
-1.95119e-05
0.0937194
-2.58255e-05
0.0937043
-2.94965e-05
0.0936893
-3.12221e-05
0.0936756
-3.08518e-05
0.0936635
-2.88969e-05
0.0936533
-2.60814e-05
0.0936447
-2.29028e-05
-1.9663e-05
0.0936378
0.0977459
-3.75721e-06
0.0977358
-9.41482e-06
0.0977226
-1.26198e-05
0.0977077
-1.46072e-05
0.0976921
-1.56692e-05
0.097677
-1.56805e-05
0.0976629
-1.48562e-05
0.0976504
-1.35433e-05
0.0976395
-1.19935e-05
-1.03676e-05
0.0976302
0.0997462
5.38619e-09
0.0997368
1.58271e-08
0.0997242
2.49267e-08
0.0997095
3.47124e-08
0.0996938
4.49664e-08
0.0996781
5.45178e-08
0.0996632
6.39829e-08
0.0996495
7.45045e-08
0.0996375
8.64459e-08
9.96799e-08
0.099627
0.0997462
3.76734e-06
0.0997368
9.44308e-06
0.0997242
1.267e-05
0.0997095
1.4677e-05
0.0996938
1.57565e-05
0.0996781
1.57864e-05
0.0996632
1.4982e-05
0.0996496
1.369e-05
0.0996375
1.21628e-05
1.05625e-05
0.099627
0.0977459
7.88647e-06
0.0977358
1.9541e-05
0.0977226
2.58715e-05
0.0977077
2.95605e-05
0.0976922
3.13049e-05
0.097677
3.09521e-05
0.097663
2.90148e-05
0.0976504
2.62185e-05
0.0976395
2.30616e-05
1.98458e-05
0.0976302
0.0937451
1.28139e-05
0.0937336
3.10101e-05
0.0937194
4.00774e-05
0.0937043
4.46924e-05
0.0936894
4.62214e-05
0.0936756
4.46931e-05
0.0936636
4.10607e-05
0.0936533
3.64516e-05
0.0936448
3.15711e-05
2.68077e-05
0.0936379
0.0877436
1.91914e-05
0.0877301
4.45855e-05
0.0877148
5.538e-05
0.0877
5.94802e-05
0.0876868
5.94029e-05
0.0876759
5.56246e-05
0.0876672
4.96699e-05
0.0876607
4.30274e-05
0.0876557
3.6498e-05
3.04489e-05
0.0876521
0.0797412
2.79614e-05
0.0797251
6.07452e-05
0.0797094
7.10112e-05
0.0796967
7.22734e-05
0.0796873
6.88045e-05
0.0796811
6.17341e-05
0.0796777
5.31311e-05
0.0796761
4.46247e-05
0.0796757
3.68917e-05
3.01267e-05
0.079676
0.0697377
4.02681e-05
0.0697194
7.90189e-05
0.069706
8.44562e-05
0.0696984
7.98248e-05
0.0696958
7.14014e-05
0.0696969
6.06994e-05
0.0697001
4.99268e-05
0.0697043
4.04159e-05
0.0697088
3.24314e-05
2.58518e-05
0.069713
0.0577334
5.68903e-05
0.0577163
9.61013e-05
0.0577105
9.0246e-05
0.057713
7.73015e-05
0.0577205
6.39185e-05
0.0577304
5.08536e-05
0.0577407
3.96333e-05
0.0577503
3.07564e-05
0.0577589
2.38788e-05
1.85443e-05
0.0577662
0.0437299
7.69546e-05
0.0437246
0.000101446
0.0437357
7.9181e-05
0.0437531
5.98447e-05
0.0437721
4.49307e-05
0.04379
3.29664e-05
0.0438055
2.40994e-05
0.0438184
1.78267e-05
0.043829
1.33525e-05
1.00886e-05
0.0438374
0.0277379
8.91007e-05
0.027768
7.13238e-05
0.0278043
4.28787e-05
0.0278362
2.79708e-05
0.0278624
1.86693e-05
0.027883
1.23433e-05
0.0278988
8.31274e-06
0.0279108
5.79718e-06
0.02792
4.1621e-06
3.04634e-06
0.0279271
0.0098391
0.00991043
0.0099533
0.00998127
0.00999994
0.0100123
0.0100206
0.0100264
0.0100306
0.0100336
0.0100358
-2.25389e-06
0.0100375
-1.68699e-06
0.0100388
-1.27207e-06
0.0100397
-9.63849e-07
0.0100405
-7.3181e-07
0.010041
-5.55432e-07
0.0100414
-4.20722e-07
0.0100418
-3.17714e-07
0.010042
-2.38951e-07
0.0100422
-1.78733e-07
0.0100423
-1.32665e-07
0.0100424
-9.7426e-08
0.0100425
-7.04672e-08
0.0100425
-4.98816e-08
0.0100426
-3.41766e-08
0.0100426
-2.22364e-08
0.0100426
-1.31603e-08
0.0100426
-6.28912e-09
0.0100426
-1.07391e-09
0.0100426
2.86607e-09
0.0100426
5.86435e-09
0.0100426
8.13103e-09
0.0100426
9.87012e-09
0.0100426
1.11881e-08
0.0100425
1.22113e-08
0.0100425
1.29832e-08
0.0100425
1.35832e-08
0.0100425
1.40152e-08
0.0100425
1.43292e-08
0.0100425
1.45046e-08
0.0100425
1.45736e-08
0.0100424
1.45019e-08
0.0100424
1.43125e-08
0.0100424
1.39665e-08
1.34849e-08
0.0100424
0.0279324
-7.64445e-06
0.0279365
-5.82983e-06
0.0279397
-4.4602e-06
0.0279421
-3.41891e-06
0.027944
-2.6215e-06
0.0279455
-2.00738e-06
0.0279466
-1.53304e-06
0.0279474
-1.16652e-06
0.0279481
-8.83527e-07
0.0279486
-6.65202e-07
0.0279489
-4.96835e-07
0.0279492
-3.67039e-07
0.0279494
-2.67007e-07
0.0279495
-1.8998e-07
0.0279496
-1.30717e-07
0.0279497
-8.51803e-08
0.0279497
-5.02053e-08
0.0279497
-2.33614e-08
0.0279497
-2.73641e-09
0.0279497
1.31152e-08
0.0279497
2.53296e-08
0.0279497
3.47427e-08
0.0279497
4.20142e-08
0.0279496
4.76095e-08
0.0279496
5.18999e-08
0.0279495
5.51271e-08
0.0279495
5.74891e-08
0.0279494
5.90933e-08
0.0279494
6.00346e-08
0.0279493
6.0342e-08
0.0279493
6.00539e-08
0.0279493
5.91592e-08
0.0279492
5.76734e-08
0.0279492
5.55743e-08
5.28797e-08
0.0279491
0.043844
-1.43472e-05
0.0438493
-1.11257e-05
0.0438535
-8.62516e-06
0.0438567
-6.68229e-06
0.0438593
-5.16933e-06
0.0438612
-3.98864e-06
0.0438628
-3.06668e-06
0.043864
-2.34746e-06
0.0438649
-1.78739e-06
0.0438655
-1.35197e-06
0.0438661
-1.01387e-06
0.0438664
-7.51518e-07
0.0438667
-5.48066e-07
0.0438669
-3.90382e-07
0.0438671
-2.68241e-07
0.0438671
-1.73671e-07
0.0438672
-1.00445e-07
0.0438672
-4.37091e-08
0.0438672
3.15236e-10
0.0438672
3.45423e-08
0.0438672
6.12163e-08
0.0438671
8.20374e-08
0.0438671
9.82965e-08
0.043867
1.10947e-07
0.0438669
1.207e-07
0.0438668
1.28057e-07
0.0438668
1.33383e-07
0.0438667
1.36913e-07
0.0438666
1.3881e-07
0.0438665
1.39162e-07
0.0438665
1.38029e-07
0.0438664
1.35433e-07
0.0438663
1.31397e-07
0.0438662
1.25937e-07
1.19091e-07
0.0438662
0.0577721
-2.0409e-05
0.0577771
-1.60891e-05
0.0577811
-1.26391e-05
0.0577843
-9.89789e-06
0.0577868
-7.72513e-06
0.0577889
-6.00533e-06
0.0577904
-4.64659e-06
0.0577917
-3.57607e-06
0.0577926
-2.7352e-06
0.0577933
-2.0765e-06
0.0577939
-1.56147e-06
0.0577943
-1.15928e-06
0.0577946
-8.45435e-07
0.0577948
-6.00655e-07
0.0577949
-4.09791e-07
0.057795
-2.60943e-07
0.0577951
-1.44773e-07
0.0577951
-5.39621e-08
0.0577951
1.71936e-08
0.057795
7.31164e-08
0.057795
1.17199e-07
0.0577949
1.52028e-07
0.0577948
1.79543e-07
0.0577947
2.01189e-07
0.0577946
2.18017e-07
0.0577945
2.30782e-07
0.0577944
2.40004e-07
0.0577943
2.46038e-07
0.0577942
2.49107e-07
0.0577941
2.49351e-07
0.057794
2.46851e-07
0.0577939
2.41668e-07
0.0577938
2.33848e-07
0.0577937
2.2346e-07
2.10598e-07
0.0577936
0.0697167
-2.42378e-05
0.06972
-1.94117e-05
0.0697228
-1.54461e-05
0.0697252
-1.22231e-05
0.0697271
-9.62207e-06
0.0697286
-7.53308e-06
0.0697298
-5.86277e-06
0.0697308
-4.53335e-06
0.0697315
-3.47996e-06
0.0697321
-2.64839e-06
0.0697325
-1.99366e-06
0.0697328
-1.47903e-06
0.0697331
-1.07487e-06
0.0697332
-7.57577e-07
0.0697333
-5.08442e-07
0.0697334
-3.1266e-07
0.0697334
-1.5855e-07
0.0697334
-3.69229e-08
0.0697333
5.9405e-08
0.0697333
1.36006e-07
0.0697332
1.97157e-07
0.0697331
2.46105e-07
0.069733
2.8528e-07
0.0697329
3.1647e-07
0.0697327
3.40966e-07
0.0697326
3.59676e-07
0.0697325
3.73217e-07
0.0697323
3.81993e-07
0.0697322
3.86258e-07
0.0697321
3.86161e-07
0.0697319
3.81803e-07
0.0697318
3.73259e-07
0.0697317
3.60619e-07
0.0697315
3.44009e-07
3.23608e-07
0.0697314
0.0796765
-2.49049e-05
0.0796774
-2.02328e-05
0.0796782
-1.62883e-05
0.079679
-1.30127e-05
0.0796797
-1.0323e-05
0.0796803
-8.13215e-06
0.0796808
-6.35974e-06
0.0796812
-4.93503e-06
0.0796815
-3.79641e-06
0.0796817
-2.89067e-06
0.0796819
-2.17251e-06
0.079682
-1.60418e-06
0.0796821
-1.15478e-06
0.0796822
-7.99422e-07
0.0796822
-5.18172e-07
0.0796822
-2.95174e-07
0.0796821
-1.17854e-07
0.0796821
2.37099e-08
0.079682
1.37285e-07
0.0796819
2.28892e-07
0.0796818
3.03139e-07
0.0796817
3.63499e-07
0.0796815
4.12548e-07
0.0796814
4.52152e-07
0.0796813
4.83628e-07
0.0796811
5.07874e-07
0.079681
5.25471e-07
0.0796808
5.36779e-07
0.0796807
5.42002e-07
0.0796805
5.41255e-07
0.0796803
5.34611e-07
0.0796802
5.22153e-07
0.0796801
5.03997e-07
0.0796799
4.80334e-07
4.51438e-07
0.0796798
0.0876493
-2.22102e-05
0.0876473
-1.82594e-05
0.0876459
-1.48427e-05
0.0876448
-1.19506e-05
0.087644
-9.53861e-06
0.0876434
-7.54869e-06
0.087643
-5.92154e-06
0.0876427
-4.60147e-06
0.0876424
-3.5378e-06
0.0876422
-2.68525e-06
0.087642
-2.00431e-06
0.0876419
-1.46139e-06
0.0876417
-1.02866e-06
0.0876416
-6.83424e-07
0.0876415
-4.07399e-07
0.0876414
-1.85956e-07
0.0876413
-7.46027e-09
0.0876412
1.37278e-07
0.0876411
2.5544e-07
0.0876409
3.52567e-07
0.0876408
4.32864e-07
0.0876407
4.99455e-07
0.0876405
5.54608e-07
0.0876404
5.99912e-07
0.0876402
6.36436e-07
0.0876401
6.64852e-07
0.0876399
6.85545e-07
0.0876398
6.98701e-07
0.0876396
7.04387e-07
0.0876394
7.0261e-07
0.0876393
6.93377e-07
0.0876391
6.76738e-07
0.087639
6.52826e-07
0.0876388
6.21881e-07
5.84277e-07
0.0876387
0.0936321
-1.65635e-05
0.0936276
-1.37339e-05
0.093624
-1.12395e-05
0.0936211
-9.09519e-06
0.0936189
-7.28393e-06
0.0936171
-5.77348e-06
0.0936157
-4.52674e-06
0.0936146
-3.50663e-06
0.0936137
-2.67794e-06
0.0936131
-2.00827e-06
0.0936125
-1.46869e-06
0.0936121
-1.03427e-06
0.0936118
-6.8406e-07
0.0936115
-4.00897e-07
0.0936112
-1.70873e-07
0.093611
1.71568e-08
0.0936109
1.72052e-07
0.0936107
3.00776e-07
0.0936105
4.08727e-07
0.0936104
5.00006e-07
0.0936103
5.77654e-07
0.0936101
6.4385e-07
0.09361
7.00083e-07
0.0936098
7.47303e-07
0.0936097
7.86048e-07
0.0936095
8.16551e-07
0.0936094
8.38836e-07
0.0936092
8.52795e-07
0.0936091
8.58265e-07
0.0936089
8.55081e-07
0.0936088
8.43134e-07
0.0936086
8.22411e-07
0.0936085
7.93033e-07
0.0936083
7.55277e-07
7.09596e-07
0.0936082
0.0976224
-8.77892e-06
0.097616
-7.30462e-06
0.0976107
-5.98759e-06
0.0976065
-4.84248e-06
0.097603
-3.86539e-06
0.0976003
-3.04274e-06
0.0975981
-2.35715e-06
0.0975964
-1.7904e-06
0.0975951
-1.32463e-06
0.097594
-9.43037e-07
0.0975932
-6.30414e-07
0.0975925
-3.73514e-07
0.097592
-1.61173e-07
0.0975916
1.57839e-08
0.0975912
1.6476e-07
0.097591
2.91643e-07
0.0975907
4.01044e-07
0.0975905
4.96507e-07
0.0975904
5.8067e-07
0.0975902
6.55422e-07
0.0975901
7.2202e-07
0.0975899
7.81215e-07
0.0975898
8.33344e-07
0.0975897
8.78433e-07
0.0975895
9.16269e-07
0.0975894
9.46485e-07
0.0975893
9.68621e-07
0.0975891
9.82192e-07
0.097589
9.86736e-07
0.0975889
9.81875e-07
0.0975888
9.67346e-07
0.0975886
9.43051e-07
0.0975885
9.09072e-07
0.0975884
8.65703e-07
8.13449e-07
0.0975883
0.0996181
1.14205e-07
0.0996107
1.30236e-07
0.0996045
1.48016e-07
0.0995995
1.67732e-07
0.0995955
1.89549e-07
0.0995922
2.13631e-07
0.0995896
2.40114e-07
0.0995875
2.69094e-07
0.0995859
3.00643e-07
0.0995846
3.34821e-07
0.0995836
3.71668e-07
0.0995828
4.1118e-07
0.0995822
4.5329e-07
0.0995817
4.97842e-07
0.0995814
5.44599e-07
0.0995811
5.93223e-07
0.0995808
6.43279e-07
0.0995806
6.9423e-07
0.0995805
7.45433e-07
0.0995803
7.96137e-07
0.0995802
8.45499e-07
0.0995801
8.92586e-07
0.09958
9.36405e-07
0.0995799
9.75913e-07
0.0995798
1.01006e-06
0.0995797
1.03781e-06
0.0995796
1.05819e-06
0.0995795
1.07029e-06
0.0995794
1.07335e-06
0.0995794
1.06677e-06
0.0995793
1.05012e-06
0.0995792
1.0232e-06
0.0995791
9.86047e-07
0.099579
9.38945e-07
8.82426e-07
0.099579
0.0996181
9.00232e-06
0.0996107
7.55954e-06
0.0996046
6.27723e-06
0.0995996
5.17053e-06
0.0995955
4.23597e-06
0.0995923
3.4603e-06
0.0995897
2.8264e-06
0.0995876
2.3162e-06
0.099586
1.91197e-06
0.0995847
1.59702e-06
0.0995838
1.35624e-06
0.099583
1.17637e-06
0.0995824
1.0461e-06
0.0995819
9.55966e-07
0.0995816
8.98084e-07
0.0995813
8.65914e-07
0.0995811
8.53996e-07
0.0995809
8.5774e-07
0.0995808
8.73253e-07
0.0995807
8.97191e-07
0.0995806
9.26651e-07
0.0995806
9.59071e-07
0.0995805
9.92177e-07
0.0995805
1.02393e-06
0.0995804
1.05249e-06
0.0995804
1.07621e-06
0.0995803
1.09365e-06
0.0995803
1.10355e-06
0.0995803
1.10488e-06
0.0995803
1.09684e-06
0.0995802
1.07888e-06
0.0995802
1.0507e-06
0.0995802
1.01228e-06
0.0995801
9.63876e-07
9.06027e-07
0.0995801
0.0976225
1.67727e-05
0.0976161
1.39722e-05
0.0976108
1.15101e-05
0.0976066
9.40148e-06
0.0976032
7.62971e-06
0.0976005
6.16283e-06
0.0975984
4.96398e-06
0.0975967
3.99626e-06
0.0975954
3.22457e-06
0.0975943
2.61661e-06
0.0975935
2.14353e-06
0.0975929
1.78035e-06
0.0975925
1.50601e-06
0.0975921
1.30305e-06
0.0975919
1.15712e-06
0.0975917
1.05647e-06
0.0975915
9.9146e-07
0.0975914
9.54157e-07
0.0975914
9.38005e-07
0.0975913
9.37566e-07
0.0975913
9.48286e-07
0.0975913
9.66327e-07
0.0975913
9.8842e-07
0.0975913
1.01177e-06
0.0975913
1.03395e-06
0.0975914
1.0529e-06
0.0975914
1.06683e-06
0.0975914
1.07427e-06
0.0975915
1.074e-06
0.0975915
1.0651e-06
0.0975915
1.04694e-06
0.0975916
1.01915e-06
0.0975916
9.81671e-07
0.0975916
9.34729e-07
8.78812e-07
0.0975916
0.0936322
2.23966e-05
0.0936277
1.84715e-05
0.0936242
1.50832e-05
0.0936213
1.22225e-05
0.0936191
9.84513e-06
0.0936174
7.89346e-06
0.093616
6.30833e-06
0.093615
5.03419e-06
0.0936142
4.02046e-06
0.0936136
3.22194e-06
0.0936131
2.59917e-06
0.0936128
2.11852e-06
0.0936126
1.75202e-06
0.0936124
1.47672e-06
0.0936123
1.27395e-06
0.0936122
1.12855e-06
0.0936122
1.0282e-06
0.0936121
9.62856e-07
0.0936122
9.24351e-07
0.0936122
9.05975e-07
0.0936122
9.02226e-07
0.0936123
9.08539e-07
0.0936124
9.21123e-07
0.0936124
9.36791e-07
0.0936125
9.52863e-07
0.0936126
9.67076e-07
0.0936127
9.77541e-07
0.0936128
9.82693e-07
0.0936129
9.81287e-07
0.093613
9.72369e-07
0.0936131
9.55282e-07
0.0936131
9.2965e-07
0.0936132
8.9538e-07
0.0936133
8.52646e-07
8.01881e-07
0.0936134
0.0876494
2.5062e-05
0.0876475
2.04111e-05
0.0876461
1.649e-05
0.0876451
1.32404e-05
0.0876443
1.05792e-05
0.0876438
8.41985e-06
0.0876434
6.682e-06
0.0876432
5.29507e-06
0.087643
4.19749e-06
0.0876429
3.33613e-06
0.0876428
2.66567e-06
0.0876428
2.14834e-06
0.0876428
1.7531e-06
0.0876428
1.45485e-06
0.0876428
1.2333e-06
0.0876429
1.07221e-06
0.087643
9.58405e-07
0.087643
8.81317e-07
0.0876431
8.32321e-07
0.0876432
8.04515e-07
0.0876433
7.9219e-07
0.0876434
7.90778e-07
0.0876436
7.96421e-07
0.0876437
8.06036e-07
0.0876438
8.16952e-07
0.087644
8.27061e-07
0.0876441
8.34506e-07
0.0876443
8.37887e-07
0.0876444
8.35981e-07
0.0876446
8.2797e-07
0.0876447
8.1318e-07
0.0876448
7.9132e-07
0.087645
7.62222e-07
0.0876451
7.26078e-07
6.83173e-07
0.0876452
0.0796767
2.43616e-05
0.0796776
1.95517e-05
0.0796785
1.56039e-05
0.0796793
1.24006e-05
0.0796801
9.82135e-06
0.0796807
7.75631e-06
0.0796813
6.11228e-06
0.0796818
4.81156e-06
0.0796822
3.78936e-06
0.0796825
2.99146e-06
0.0796828
2.3729e-06
0.0796831
1.89683e-06
0.0796833
1.53356e-06
0.0796835
1.25927e-06
0.0796837
1.05505e-06
0.0796838
9.05712e-07
0.079684
7.9921e-07
0.0796841
7.25797e-07
0.0796843
6.77736e-07
0.0796844
6.48718e-07
0.0796846
6.33741e-07
0.0796848
6.2867e-07
0.0796849
6.30224e-07
0.0796851
6.35628e-07
0.0796853
6.42693e-07
0.0796854
6.49524e-07
0.0796856
6.54659e-07
0.0796858
6.56825e-07
0.079686
6.55107e-07
0.0796862
6.48723e-07
0.0796863
6.37217e-07
0.0796865
6.20236e-07
0.0796867
5.97731e-07
0.0796868
5.69732e-07
5.36552e-07
0.079687
0.0697169
2.04977e-05
0.0697203
1.61889e-05
0.0697231
1.27512e-05
0.0697255
1.00235e-05
0.0697274
7.86568e-06
0.069729
6.16229e-06
0.0697303
4.82159e-06
0.0697314
3.77074e-06
0.0697322
2.95127e-06
0.0697329
2.3156e-06
0.0697334
1.8253e-06
0.0697339
1.44937e-06
0.0697342
1.16333e-06
0.0697345
9.47682e-07
0.0697348
7.87208e-07
0.069735
6.69678e-07
0.0697353
5.85594e-07
0.0697355
5.27173e-07
0.0697356
4.88446e-07
0.0697358
4.64402e-07
0.069736
4.51285e-07
0.0697362
4.45814e-07
0.0697364
4.45613e-07
0.0697366
4.48469e-07
0.0697367
4.52869e-07
0.0697369
4.57276e-07
0.0697371
4.60746e-07
0.0697373
4.62205e-07
0.0697375
4.61124e-07
0.0697377
4.56786e-07
0.0697379
4.48999e-07
0.0697381
4.3735e-07
0.0697383
4.21939e-07
0.0697384
4.02624e-07
3.79757e-07
0.0697386
0.0577723
1.44014e-05
0.0577773
1.11865e-05
0.0577813
8.69329e-06
0.0577846
6.75861e-06
0.0577872
5.25453e-06
0.0577893
4.08363e-06
0.0577909
3.17232e-06
0.0577922
2.46481e-06
0.0577933
1.91736e-06
0.0577941
1.49562e-06
0.0577947
1.17201e-06
0.0577953
9.25133e-07
0.0577957
7.37856e-07
0.057796
5.97194e-07
0.0577963
4.92613e-07
0.0577966
4.16242e-07
0.0577968
3.61461e-07
0.057797
3.23474e-07
0.0577972
2.98025e-07
0.0577974
2.82216e-07
0.0577976
2.73254e-07
0.0577977
2.69418e-07
0.0577979
2.68806e-07
0.0577981
2.7042e-07
0.0577983
2.72903e-07
0.0577984
2.75711e-07
0.0577986
2.77834e-07
0.0577988
2.79035e-07
0.057799
2.78548e-07
0.0577992
2.76367e-07
0.0577993
2.71925e-07
0.0577995
2.65403e-07
0.0577997
2.56406e-07
0.0577998
2.45277e-07
2.31773e-07
0.0578
0.0438442
7.66899e-06
0.0438495
5.85757e-06
0.0438537
4.49154e-06
0.043857
3.45411e-06
0.0438596
2.66092e-06
0.0438616
2.05134e-06
0.0438632
1.58202e-06
0.0438644
1.22092e-06
0.0438654
9.43826e-07
0.0438662
7.31767e-07
0.0438668
5.70093e-07
0.0438672
4.47282e-07
0.0438676
3.54609e-07
0.0438679
2.85179e-07
0.0438682
2.33825e-07
0.0438684
1.96344e-07
0.0438686
1.69627e-07
0.0438688
1.51041e-07
0.0438689
1.38713e-07
0.0438691
1.30964e-07
0.0438692
1.26682e-07
0.0438694
1.24773e-07
0.0438695
1.24583e-07
0.0438697
1.25366e-07
0.0438698
1.26745e-07
0.04387
1.28187e-07
0.0438701
1.29488e-07
0.0438702
1.30257e-07
0.0438704
1.30405e-07
0.0438705
1.29647e-07
0.0438707
1.27985e-07
0.0438708
1.25221e-07
0.043871
1.21432e-07
0.0438711
1.165e-07
1.10565e-07
0.0438712
0.0279325
2.25972e-06
0.0279366
1.69359e-06
0.0279398
1.2797e-06
0.0279423
9.72586e-07
0.0279442
7.41704e-07
0.0279457
5.66497e-07
0.0279469
4.33095e-07
0.0279478
3.31474e-07
0.0279484
2.54263e-07
0.027949
1.95634e-07
0.0279494
1.51284e-07
0.0279497
1.17757e-07
0.02795
9.26315e-08
0.0279502
7.38655e-08
0.0279504
6.01005e-08
0.0279505
5.007e-08
0.0279506
4.30066e-08
0.0279508
3.80886e-08
0.0279509
3.49037e-08
0.027951
3.28954e-08
0.027951
3.18718e-08
0.0279511
3.14353e-08
0.0279512
3.15244e-08
0.0279513
3.18301e-08
0.0279514
3.23701e-08
0.0279515
3.28852e-08
0.0279516
3.34428e-08
0.0279517
3.38124e-08
0.0279518
3.40965e-08
0.0279519
3.40838e-08
0.027952
3.3905e-08
0.0279521
3.3364e-08
0.0279522
3.2616e-08
0.0279523
3.14791e-08
3.01311e-08
0.0279523
0.0100359
0.0100376
0.0100388
0.0100398
0.0100405
0.0100411
0.0100415
0.0100419
0.0100421
0.0100423
0.0100425
0.0100426
0.0100427
0.0100428
0.0100428
0.0100429
0.0100429
0.010043
0.010043
0.010043
0.0100431
0.0100431
0.0100431
0.0100431
0.0100432
0.0100432
0.0100432
0.0100433
0.0100433
0.0100433
0.0100434
0.0100434
0.0100434
0.0100435
0.0100435
0.0100424
1.28315e-08
0.0100424
1.20315e-08
0.0100424
1.10576e-08
0.0100424
9.94275e-09
0.0100423
8.67196e-09
0.0100423
7.28795e-09
0.0100423
5.78858e-09
0.0100423
4.2254e-09
0.0100423
2.60671e-09
9.89735e-10
0.0100423
0.0279491
4.95779e-08
0.0279491
4.57075e-08
0.027949
4.12817e-08
0.027949
3.63708e-08
0.027949
3.1019e-08
0.027949
2.53302e-08
0.0279489
1.93785e-08
0.0279489
1.32948e-08
0.0279489
7.17319e-09
1.15894e-09
0.0279489
0.0438661
1.10908e-07
0.043866
1.01473e-07
0.043866
9.08918e-08
0.0438659
7.93129e-08
0.0438659
6.69068e-08
0.0438659
5.38815e-08
0.0438659
4.04621e-08
0.0438658
2.68991e-08
0.0438658
1.3448e-08
3.72924e-10
0.0438658
0.0577935
1.95399e-07
0.0577934
1.78045e-07
0.0577933
1.58775e-07
0.0577933
1.37876e-07
0.0577932
1.15688e-07
0.0577932
9.25931e-08
0.0577932
6.90073e-08
0.0577931
4.53684e-08
0.0577931
2.21253e-08
-2.79315e-10
0.0577931
0.0697313
2.99664e-07
0.0697312
2.72503e-07
0.0697311
2.42527e-07
0.0697311
2.10216e-07
0.069731
1.76117e-07
0.069731
1.40835e-07
0.0697309
1.05017e-07
0.0697309
6.933e-08
0.0697309
3.44481e-08
1.02422e-09
0.0697309
0.0796797
4.17691e-07
0.0796796
3.79579e-07
0.0796795
3.377e-07
0.0796794
2.92749e-07
0.0796793
2.45513e-07
0.0796792
1.96843e-07
0.0796792
1.47641e-07
0.0796792
9.88245e-08
0.0796792
5.1308e-08
5.96768e-09
0.0796791
0.0876386
5.40525e-07
0.0876385
4.91285e-07
0.0876384
4.3735e-07
0.0876383
3.79643e-07
0.0876382
3.19188e-07
0.0876381
2.57091e-07
0.0876381
1.94504e-07
0.0876381
1.32595e-07
0.087638
7.25107e-08
1.5344e-08
0.087638
0.0936081
6.56624e-07
0.093608
5.97171e-07
0.0936079
5.32218e-07
0.0936078
4.62891e-07
0.0936077
3.90435e-07
0.0936077
3.16182e-07
0.0936076
2.41511e-07
0.0936076
1.67809e-07
0.0936076
9.64283e-08
2.86465e-08
0.0936075
0.0975882
7.53039e-07
0.0975881
6.85405e-07
0.097588
6.11674e-07
0.097588
5.33133e-07
0.0975879
4.51202e-07
0.0975879
3.67388e-07
0.0975878
2.83246e-07
0.0975878
2.00328e-07
0.0975878
1.20141e-07
4.40954e-08
0.0975877
0.0995789
8.17271e-07
0.0995788
7.44489e-07
0.0995788
6.65294e-07
0.0995787
5.81076e-07
0.0995787
4.93357e-07
0.0995787
4.03749e-07
0.0995786
3.13907e-07
0.0995786
2.25475e-07
0.0995786
1.40044e-07
5.90934e-08
0.0995786
0.0995801
8.39511e-07
0.0995801
7.65362e-07
0.0995801
6.84808e-07
0.09958
5.99271e-07
0.09958
5.10285e-07
0.09958
4.19487e-07
0.09958
3.28535e-07
0.09958
2.3909e-07
0.09958
1.5273e-07
7.0942e-08
0.09958
0.0975917
8.14672e-07
0.0975917
7.43289e-07
0.0975917
6.65852e-07
0.0975917
5.8371e-07
0.0975917
4.98341e-07
0.0975917
4.11296e-07
0.0975917
3.24163e-07
0.0975917
2.38506e-07
0.0975917
1.55833e-07
7.75349e-08
0.0975917
0.0936135
7.43752e-07
0.0936135
6.79145e-07
0.0936136
6.0912e-07
0.0936136
5.34896e-07
0.0936137
4.57792e-07
0.0936137
3.79206e-07
0.0936137
3.0055e-07
0.0936137
2.23232e-07
0.0936138
1.48589e-07
7.78701e-08
0.0936138
0.0876453
6.34128e-07
0.0876454
5.7961e-07
0.0876455
5.20575e-07
0.0876456
4.57969e-07
0.0876457
3.92966e-07
0.0876457
3.26661e-07
0.0876458
2.60308e-07
0.0876458
1.95006e-07
0.0876458
1.3195e-07
7.2108e-08
0.0876458
0.0796871
4.98553e-07
0.0796872
4.56349e-07
0.0796874
4.1056e-07
0.0796874
3.62021e-07
0.0796875
3.1152e-07
0.0796876
2.60009e-07
0.0796876
2.08338e-07
0.0796877
1.57471e-07
0.0796877
1.08213e-07
6.14358e-08
0.0796877
0.0697387
3.53427e-07
0.0697389
3.24199e-07
0.069739
2.92344e-07
0.0697391
2.5858e-07
0.0697392
2.23298e-07
0.0697393
1.87304e-07
0.0697393
1.51036e-07
0.0697394
1.15314e-07
0.0697394
8.05483e-08
4.7505e-08
0.0697394
0.0578001
2.16376e-07
0.0578003
1.98968e-07
0.0578004
1.80143e-07
0.0578005
1.59879e-07
0.0578006
1.38846e-07
0.0578006
1.17075e-07
0.0578007
9.52747e-08
0.0578007
7.34854e-08
0.0578008
5.24135e-08
3.20629e-08
0.0578008
0.0438713
1.0358e-07
0.0438714
9.57385e-08
0.0438715
8.70531e-08
0.0438716
7.77605e-08
0.0438717
6.79141e-08
0.0438717
5.77798e-08
0.0438718
4.74326e-08
0.0438718
3.71501e-08
0.0438719
2.70069e-08
1.7275e-08
0.0438719
0.0279524
2.8404e-08
0.0279525
2.64956e-08
0.0279526
2.42511e-08
0.0279526
2.18852e-08
0.0279527
1.92541e-08
0.0279527
1.65847e-08
0.0279527
1.3741e-08
0.0279528
1.09562e-08
0.0279528
8.09736e-09
5.39781e-09
0.0279528
0.0100435
0.0100436
0.0100436
0.0100436
0.0100436
0.0100436
0.0100437
0.0100437
0.0100437
0.0100437
0.0100423
-6.11481e-10
0.0100423
-2.13892e-09
0.0100423
-3.5788e-09
0.0100423
-4.87744e-09
0.0100423
-6.02723e-09
0.0100423
-6.98358e-09
0.0100424
-7.74975e-09
0.0100424
-8.29325e-09
0.0100424
-8.63076e-09
0.0100424
-8.74285e-09
0.0100424
-8.65961e-09
0.0100424
-8.37356e-09
0.0100424
-7.92582e-09
0.0100424
-7.31788e-09
0.0100424
-6.59807e-09
0.0100424
-5.77275e-09
0.0100424
-4.89262e-09
0.0100424
-3.96483e-09
0.0100424
-3.03765e-09
0.0100424
-2.11555e-09
0.0100424
-1.2405e-09
0.0100424
-4.10639e-10
0.0100424
3.393e-10
0.0100424
1.01857e-09
0.0100424
1.60399e-09
0.0100424
2.10953e-09
0.0100424
2.52303e-09
0.0100424
2.86609e-09
0.0100424
3.13312e-09
0.0100424
3.35088e-09
0.0100424
3.5168e-09
0.0100424
3.65875e-09
0.0100424
3.77678e-09
0.0100424
3.88039e-09
3.92858e-09
0.0100424
0.0279489
-4.64846e-09
0.0279489
-1.0107e-08
0.0279489
-1.51285e-08
0.027949
-1.95917e-08
0.027949
-2.34354e-08
0.027949
-2.65733e-08
0.027949
-2.89823e-08
0.027949
-3.06195e-08
0.0279491
-3.15045e-08
0.0279491
-3.16388e-08
0.0279491
-3.10826e-08
0.0279491
-2.98758e-08
0.0279492
-2.81106e-08
0.0279492
-2.58539e-08
0.0279492
-2.32172e-08
0.0279492
-2.02804e-08
0.0279492
-1.71598e-08
0.0279492
-1.39336e-08
0.0279492
-1.07097e-08
0.0279492
-7.55216e-09
0.0279492
-4.55004e-09
0.0279492
-1.74404e-09
0.0279492
8.01825e-10
0.0279492
3.07523e-09
0.0279492
5.0411e-09
0.0279492
6.71563e-09
0.0279492
8.09245e-09
0.0279492
9.21405e-09
0.0279492
1.00944e-08
0.0279492
1.07935e-08
0.0279492
1.13327e-08
0.0279492
1.17737e-08
0.0279492
1.21252e-08
0.0279492
1.24234e-08
1.26472e-08
0.0279492
0.0438658
-1.20733e-08
0.0438659
-2.36469e-08
0.0438659
-3.41325e-08
0.0438659
-4.33393e-08
0.0438659
-5.1119e-08
0.043866
-5.73581e-08
0.043866
-6.1994e-08
0.043866
-6.50025e-08
0.0438661
-6.64118e-08
0.0438661
-6.62847e-08
0.0438661
-6.47309e-08
0.0438662
-6.18851e-08
0.0438662
-5.7918e-08
0.0438662
-5.30114e-08
0.0438662
-4.73695e-08
0.0438663
-4.11922e-08
0.0438663
-3.46876e-08
0.0438663
-2.80457e-08
0.0438663
-2.1452e-08
0.0438663
-1.50635e-08
0.0438663
-9.02352e-09
0.0438663
-3.44029e-09
0.0438663
1.59644e-09
0.0438663
6.03442e-09
0.0438663
9.84172e-09
0.0438663
1.3022e-08
0.0438663
1.55983e-08
0.0438663
1.76227e-08
0.0438663
1.91592e-08
0.0438663
2.02914e-08
0.0438663
2.11032e-08
0.0438663
2.16826e-08
0.0438662
2.21006e-08
0.0438662
2.24157e-08
2.26741e-08
0.0438662
0.0577931
-2.14206e-08
0.0577932
-4.09077e-08
0.0577932
-5.83947e-08
0.0577932
-7.35933e-08
0.0577932
-8.62799e-08
0.0577933
-9.6304e-08
0.0577933
-1.03588e-07
0.0577934
-1.08134e-07
0.0577934
-1.10011e-07
0.0577935
-1.09362e-07
0.0577935
-1.06385e-07
0.0577935
-1.01334e-07
0.0577936
-9.44974e-08
0.0577936
-8.61975e-08
0.0577936
-7.67676e-08
0.0577937
-6.655e-08
0.0577937
-5.58751e-08
0.0577937
-4.50607e-08
0.0577937
-3.43935e-08
0.0577937
-2.41315e-08
0.0577937
-1.44889e-08
0.0577937
-5.64145e-09
0.0577937
2.28448e-09
0.0577937
9.20399e-09
0.0577937
1.50809e-08
0.0577937
1.99187e-08
0.0577937
2.37635e-08
0.0577937
2.66926e-08
0.0577937
2.8815e-08
0.0577937
3.02565e-08
0.0577937
3.11577e-08
0.0577937
3.16578e-08
0.0577937
3.18881e-08
0.0577936
3.19629e-08
3.19852e-08
0.0577936
0.0697309
-3.03244e-08
0.0697309
-5.90413e-08
0.0697309
-8.46428e-08
0.069731
-1.06738e-07
0.069731
-1.25034e-07
0.069731
-1.39348e-07
0.0697311
-1.49607e-07
0.0697311
-1.55848e-07
0.0697312
-1.58211e-07
0.0697312
-1.56931e-07
0.0697313
-1.52326e-07
0.0697313
-1.44783e-07
0.0697314
-1.3474e-07
0.0697314
-1.22671e-07
0.0697314
-1.09067e-07
0.0697315
-9.44176e-08
0.0697315
-7.92005e-08
0.0697315
-6.38624e-08
0.0697315
-4.88095e-08
0.0697315
-3.43973e-08
0.0697315
-2.09241e-08
0.0697315
-8.62619e-09
0.0697315
2.32403e-09
0.0697315
1.18182e-08
0.0697315
1.98095e-08
0.0697315
2.63093e-08
0.0697315
3.13818e-08
0.0697315
3.51369e-08
0.0697315
3.77222e-08
0.0697315
3.9312e-08
0.0697315
4.00985e-08
0.0697315
4.02781e-08
0.0697315
4.00398e-08
0.0697315
3.95576e-08
3.89932e-08
0.0697315
0.0796792
-3.63812e-08
0.0796792
-7.50119e-08
0.0796792
-1.09306e-07
0.0796792
-1.38773e-07
0.0796793
-1.6306e-07
0.0796793
-1.81961e-07
0.0796794
-1.95418e-07
0.0796794
-2.03518e-07
0.0796794
-2.06481e-07
0.0796795
-2.0465e-07
0.0796795
-1.98472e-07
0.0796796
-1.88479e-07
0.0796796
-1.75264e-07
0.0796797
-1.59462e-07
0.0796797
-1.41723e-07
0.0796797
-1.22693e-07
0.0796797
-1.02994e-07
0.0796798
-8.32061e-08
0.0796798
-6.385e-08
0.0796798
-4.53816e-08
0.0796798
-2.81778e-08
0.0796798
-1.25371e-08
0.0796798
1.32727e-09
0.0796798
1.32811e-08
0.0796798
2.32706e-08
0.0796798
3.13115e-08
0.0796798
3.74872e-08
0.0796798
4.19338e-08
0.0796798
4.48356e-08
0.0796798
4.6408e-08
0.0796798
4.68889e-08
0.0796798
4.65228e-08
0.0796798
4.55518e-08
0.0796798
4.42026e-08
4.26863e-08
0.0796798
0.087638
-3.79025e-08
0.087638
-8.63432e-08
0.0876381
-1.29237e-07
0.0876381
-1.66004e-07
0.0876381
-1.96245e-07
0.0876381
-2.19739e-07
0.0876382
-2.36452e-07
0.0876382
-2.46524e-07
0.0876383
-2.50261e-07
0.0876383
-2.48112e-07
0.0876384
-2.40652e-07
0.0876384
-2.28553e-07
0.0876384
-2.12557e-07
0.0876385
-1.9345e-07
0.0876385
-1.72034e-07
0.0876385
-1.491e-07
0.0876386
-1.25402e-07
0.0876386
-1.01643e-07
0.0876386
-7.84524e-08
0.0876386
-5.63734e-08
0.0876386
-3.58577e-08
0.0876386
-1.72571e-08
0.0876386
-8.25341e-10
0.0876386
1.32826e-08
0.0876386
2.50022e-08
0.0876386
3.43547e-08
0.0876386
4.14343e-08
0.0876386
4.64005e-08
0.0876386
4.94625e-08
0.0876386
5.08685e-08
0.0876386
5.08886e-08
0.0876386
4.98043e-08
0.0876386
4.78926e-08
0.0876386
4.54199e-08
4.26309e-08
0.0876386
0.0936075
-3.43727e-08