/*--------------------------------*- C++ -*----------------------------------*\
| =========                 |                                                 |
| \\      /  F ield         | OpenFOAM: The Open Source CFD Toolbox           |
|  \\    /   O peration     | Version:  2406                                  |
|   \\  /    A nd           | Website:  www.openfoam.com                      |
|    \\/     M anipulation  |                                                 |
\*---------------------------------------------------------------------------*/
FoamFile
{
    version     2.0;
    format      ascii;
    arch        "LSB;label=32;scalar=64";
    class       volScalarField;
    location    "33";
    object      p;
}
// * * * * * * * * * * * * * * * * * * * * * * * * * * * * * * * * * * * * * //

dimensions      [0 2 -2 0 0 0 0];

internalField   nonuniform List<scalar> 
1964
(
1.13002
1.12723
1.1238
1.12019
1.11641
1.11251
1.10854
1.10454
1.10051
1.09646
1.0924
1.08833
1.08426
1.08017
1.07608
1.07199
1.06789
1.06379
1.05968
1.05556
1.05144
1.04731
1.04317
1.03902
1.03485
1.03065
1.02643
1.02217
1.01785
1.01345
1.00895
1.00432
0.999487
0.994393
0.988935
0.982971
0.976299
0.968637
0.959578
0.948546
0.934723
0.916972
0.893755
0.863109
0.822759
0.770492
0.705156
1.13173
1.12778
1.12384
1.12016
1.11639
1.11248
1.10851
1.10451
1.10049
1.09645
1.09239
1.08832
1.08424
1.08016
1.07608
1.07199
1.06788
1.06378
1.05967
1.05555
1.05143
1.0473
1.04316
1.039
1.03483
1.03063
1.0264
1.02213
1.01779
1.01338
1.00885
1.00418
0.999305
0.994153
0.988616
0.982553
0.975754
0.967936
0.958683
0.947417
0.933297
0.915159
0.891374
0.859821
0.817917
0.763048
0.693913
1.13266
1.12809
1.12379
1.12011
1.11637
1.11245
1.10845
1.10446
1.10046
1.09643
1.09237
1.08829
1.08421
1.08014
1.07606
1.07198
1.06788
1.06378
1.05967
1.05555
1.05143
1.0473
1.04316
1.03901
1.03485
1.03066
1.02644
1.02218
1.01787
1.01349
1.00901
1.00439
0.9996
0.994556
0.989173
0.983313
0.976795
0.969341
0.960559
0.949858
0.93636
0.91876
0.89514
0.862831
0.818347
0.757505
0.677651
1.13317
1.12834
1.12379
1.12009
1.11638
1.11243
1.1084
1.10442
1.10045
1.09644
1.09237
1.08827
1.08419
1.08012
1.07605
1.07198
1.06789
1.06379
1.05968
1.05557
1.05145
1.04733
1.04321
1.03908
1.03494
1.03079
1.02662
1.02242
1.0182
1.01393
1.00961
1.00521
1.0007
0.996051
0.991194
0.986041
0.980453
0.974213
0.966966
0.958131
0.946747
0.931224
0.90905
0.876434
0.828065
0.757161
0.657729
1.13354
1.1286
1.12386
1.12011
1.1164
1.11241
1.10834
1.10435
1.10042
1.09644
1.09237
1.08826
1.08415
1.08008
1.07602
1.07198
1.06791
1.06382
1.05972
1.0556
1.05149
1.04738
1.04328
1.03919
1.0351
1.03101
1.02692
1.02284
1.01876
1.0147
1.01065
1.00662
1.00261
0.998633
0.99468
0.990736
0.986748
0.982604
0.978053
0.972587
0.965206
0.954002
0.93549
0.903593
0.848656
0.757795
0.617167
1.13383
1.12883
1.12394
1.12014
1.11644
1.11241
1.10828
1.10429
1.1004
1.09645
1.09239
1.08825
1.08411
1.08003
1.07599
1.07196
1.06793
1.06386
1.05976
1.05566
1.05155
1.04746
1.04339
1.03934
1.03531
1.0313
1.02733
1.02339
1.01952
1.01572
1.01204
1.0085
1.00516
1.00208
0.999333
0.997013
0.995203
0.993957
0.99324
0.992789
0.991835
0.988552
0.97885
0.954074
0.895553
0.768729
0.512252
1.13405
1.12902
1.12401
1.12018
1.11648
1.11242
1.10824
1.10423
1.10037
1.09647
1.09241
1.08824
1.08408
1.07998
1.07595
1.07195
1.06794
1.06389
1.05982
1.05572
1.05163
1.04755
1.04351
1.0395
1.03554
1.03163
1.02778
1.02401
1.02036
1.01687
1.01359
1.0106
1.008
1.00593
1.00455
1.00408
1.00478
1.00693
1.01083
1.01669
1.02441
1.03314
1.04023
1.03874
1.00956
0.897746
0.519211
1.13421
1.12916
1.12407
1.12023
1.11653
1.11243
1.1082
1.10418
1.10035
1.09648
1.09243
1.08825
1.08406
1.07994
1.07591
1.07193
1.06795
1.06393
1.05987
1.05579
1.0517
1.04764
1.04363
1.03966
1.03576
1.03194
1.02821
1.0246
1.02116
1.01796
1.01507
1.0126
1.01072
1.00961
1.00954
1.01086
1.014
1.01951
1.02807
1.04044
1.05742
1.07963
1.10707
1.1382
1.16706
1.17505
1.11545
1.13431
1.12925
1.12412
1.12026
1.11657
1.11245
1.10818
1.10415
1.10034
1.09649
1.09245
1.08826
1.08404
1.07991
1.07588
1.07192
1.06796
1.06395
1.05991
1.05584
1.05176
1.04772
1.04372
1.03979
1.03593
1.03218
1.02854
1.02506
1.02179
1.01881
1.01622
1.01417
1.01284
1.01249
1.01346
1.01619
1.02128
1.02949
1.0418
1.05945
1.08392
1.11683
1.15963
1.21275
1.27314
1.3298
1.35379
1.13436
1.1293
1.12414
1.12028
1.11659
1.11246
1.10817
1.10413
1.10033
1.09649
1.09246
1.08826
1.08404
1.0799
1.07587
1.07191
1.06796
1.06397
1.05993
1.05587
1.0518
1.04776
1.04377
1.03986
1.03603
1.03231
1.02872
1.02531
1.02214
1.01928
1.01685
1.01503
1.014
1.01407
1.01561
1.01913
1.02529
1.03499
1.04938
1.06994
1.09849
1.1371
1.18775
1.25125
1.32474
1.39668
1.43728
1.13436
1.1293
1.12414
1.12028
1.11659
1.11246
1.10818
1.10413
1.10033
1.09649
1.09246
1.08826
1.08404
1.0799
1.07587
1.07191
1.06796
1.06397
1.05993
1.05587
1.0518
1.04776
1.04377
1.03986
1.03603
1.03231
1.02873
1.02531
1.02214
1.01928
1.01686
1.01503
1.01401
1.01408
1.01561
1.01913
1.02529
1.03499
1.04939
1.06995
1.0985
1.13712
1.18776
1.2513
1.32475
1.39669
1.43729
1.1343
1.12925
1.12412
1.12026
1.11656
1.11245
1.10819
1.10415
1.10034
1.09649
1.09245
1.08825
1.08404
1.07991
1.07589
1.07192
1.06796
1.06396
1.05991
1.05584
1.05176
1.04772
1.04372
1.03979
1.03594
1.03218
1.02854
1.02506
1.0218
1.01881
1.01623
1.01417
1.01285
1.0125
1.01347
1.0162
1.02129
1.0295
1.04182
1.05947
1.08394
1.11686
1.15967
1.21279
1.27316
1.3299
1.35381
1.1342
1.12915
1.12407
1.12023
1.11653
1.11243
1.10821
1.10419
1.10035
1.09648
1.09243
1.08825
1.08406
1.07994
1.07592
1.07194
1.06795
1.06393
1.05987
1.05579
1.05171
1.04765
1.04363
1.03966
1.03576
1.03194
1.02821
1.02461
1.02117
1.01797
1.01507
1.01261
1.01073
1.00962
1.00956
1.01088
1.01402
1.01953
1.02809
1.04047
1.05745
1.07967
1.10712
1.13822
1.16709
1.17513
1.11549
1.13405
1.12902
1.12401
1.12018
1.11648
1.11242
1.10824
1.10424
1.10037
1.09646
1.0924
1.08824
1.08408
1.07998
1.07595
1.07195
1.06794
1.0639
1.05982
1.05573
1.05163
1.04756
1.04351
1.03951
1.03554
1.03163
1.02778
1.02402
1.02037
1.01688
1.0136
1.01061
1.00802
1.00595
1.00457
1.0041
1.0048
1.00695
1.01086
1.01672
1.02444
1.03318
1.04026
1.03876
1.00951
0.897585
0.519216
1.13383
1.12883
1.12394
1.12014
1.11643
1.11241
1.10829
1.10429
1.10039
1.09645
1.09238
1.08825
1.08412
1.08003
1.07599
1.07197
1.06793
1.06386
1.05977
1.05566
1.05156
1.04747
1.04339
1.03934
1.03531
1.03131
1.02733
1.0234
1.01953
1.01573
1.01205
1.00851
1.00517
1.00209
0.999352
0.997034
0.995226
0.993983
0.993269
0.99282
0.991868
0.988578
0.978873
0.954037
0.895439
0.768589
0.512036
1.13354
1.1286
1.12386
1.1201
1.1164
1.11241
1.10834
1.10436
1.10042
1.09644
1.09237
1.08826
1.08415
1.08008
1.07603
1.07198
1.06791
1.06383
1.05972
1.05561
1.05149
1.04739
1.04329
1.03919
1.0351
1.03102
1.02693
1.02285
1.01878
1.01471
1.01066
1.00663
1.00263
0.998652
0.994701
0.990759
0.986774
0.982633
0.978087
0.972625
0.965246
0.954047
0.935523
0.903632
0.848655
0.757691
0.617124
1.13316
1.12833
1.12379
1.12009
1.11637
1.11243
1.1084
1.10442
1.10044
1.09643
1.09237
1.08828
1.08419
1.08012
1.07605
1.07198
1.0679
1.0638
1.05969
1.05557
1.05145
1.04733
1.04321
1.03908
1.03495
1.0308
1.02663
1.02243
1.01821
1.01394
1.00962
1.00522
1.00072
0.996071
0.991216
0.986066
0.980481
0.974244
0.967001
0.958173
0.946793
0.931283
0.90912
0.876498
0.828146
0.757268
0.657708
1.13265
1.12808
1.12379
1.12011
1.11637
1.11245
1.10846
1.10446
1.10046
1.09643
1.09237
1.08829
1.08422
1.08014
1.07607
1.07198
1.06789
1.06378
1.05967
1.05555
1.05143
1.0473
1.04317
1.03902
1.03486
1.03067
1.02645
1.0222
1.01789
1.0135
1.00902
1.00441
0.999619
0.994578
0.989196
0.98334
0.976824
0.969374
0.960597
0.949901
0.936409
0.918813
0.895204
0.862901
0.818406
0.757544
0.677694
1.13173
1.12777
1.12383
1.12016
1.11639
1.11248
1.10851
1.10451
1.10049
1.09645
1.09239
1.08832
1.08424
1.08016
1.07608
1.07199
1.06789
1.06378
1.05967
1.05555
1.05143
1.0473
1.04316
1.03901
1.03484
1.03064
1.02641
1.02214
1.0178
1.01339
1.00887
1.0042
0.999325
0.994174
0.988641
0.98258
0.975785
0.967969
0.958722
0.947458
0.933346
0.91521
0.89143
0.859865
0.817948
0.763059
0.693862
1.13001
1.12723
1.1238
1.12019
1.11641
1.11251
1.10854
1.10454
1.10051
1.09646
1.09241
1.08834
1.08426
1.08017
1.07609
1.07199
1.06789
1.06379
1.05968
1.05556
1.05144
1.04731
1.04317
1.03902
1.03485
1.03066
1.02644
1.02218
1.01786
1.01346
1.00897
1.00433
0.999506
0.994414
0.988958
0.982996
0.976328
0.968668
0.959613
0.948583
0.934763
0.917013
0.893794
0.863138
0.822762
0.770463
0.705093
0.627499
0.542468
0.458111
0.380793
0.313482
0.257454
0.611354
0.523007
0.439146
0.365045
0.301793
0.249902
0.5782
0.477151
0.392016
0.32277
0.265094
0.218867
0.519727
0.392229
0.306496
0.246015
0.196582
0.158222
0.40636
0.252486
0.183553
0.141939
0.104976
0.0763969
0.145855
0.0379764
0.0473133
0.0448921
0.0252864
0.000962509
-0.224785
-0.156143
-0.0347396
-0.0065315
-0.011201
-0.0331276
-0.224858
-0.156152
-0.0347234
-0.006521
-0.0111991
-0.0331196
0.145802
0.0380066
0.047258
0.0448786
0.0252915
0.000996833
0.406335
0.252363
0.183441
0.141795
0.104955
0.076392
0.519683
0.392097
0.306313
0.245848
0.19649
0.158193
0.578098
0.476995
0.391811
0.322612
0.264951
0.218782
0.611263
0.522842
0.438971
0.364857
0.301637
0.249779
0.6274
0.542323
0.457944
0.380626
0.313338
0.257341
0.213243
0.18053
0.158056
0.143911
0.136051
0.132679
0.132324
0.133811
0.136246
0.138985
0.14159
0.143773
0.145357
0.146246
0.146401
0.145824
0.144544
0.142609
0.140077
0.137014
0.133487
0.12956
0.125296
0.120752
0.11598
0.111028
0.105934
0.100735
0.0954594
0.0901326
0.0847752
0.0794039
0.0740326
0.0686721
0.0633312
0.0580165
0.0527331
0.0474848
0.0422746
0.0371042
0.0319753
0.0268889
0.021846
0.0168479
0.0118965
0.00697782
0.00216199
0.209798
0.180962
0.161682
0.149657
0.142872
0.13982
0.139289
0.140281
0.142036
0.144025
0.145886
0.14738
0.148351
0.148711
0.148417
0.147467
0.145879
0.143694
0.140962
0.13774
0.134087
0.130063
0.125724
0.121124
0.116309
0.111325
0.106207
0.100989
0.0956998
0.0903617
0.0849951
0.0796159
0.0742375
0.0688704
0.0635231
0.0582021
0.0529124
0.0476579
0.0424413
0.0372647
0.0321295
0.0270368
0.0219861
0.016979
0.0120291
0.00706504
0.00216451
0.18534
0.164138
0.152396
0.146415
0.143902
0.14374
0.145032
0.146957
0.148953
0.150707
0.152049
0.15288
0.153142
0.152809
0.151875
0.150353
0.148269
0.145661
0.142574
0.139058
0.135165
0.130947
0.126453
0.12173
0.116819
0.111759
0.106583
0.10132
0.0959945
0.0906286
0.0852398
0.0798429
0.0744499
0.0690705
0.0637125
0.058382
0.0530837
0.047821
0.0425966
0.0374123
0.0322694
0.0271687
0.0221094
0.0170902
0.012129
0.00714567
0.00216396
0.134153
0.125219
0.126159
0.130556
0.135985
0.141989
0.147864
0.152845
0.156585
0.159079
0.160447
0.160835
0.160381
0.159203
0.157396
0.155037
0.152186
0.148899
0.145224
0.141211
0.136904
0.132347
0.127578
0.122634
0.117549
0.112352
0.107069
0.101722
0.0963334
0.0909183
0.0854916
0.0800654
0.0746495
0.0692521
0.0638796
0.0585371
0.0532285
0.0479568
0.0427241
0.0375318
0.0323807
0.0272713
0.0222024
0.0171717
0.0121937
0.00719556
0.00216617
0.0638308
0.0724689
0.0904354
0.107444
0.122689
0.136877
0.149159
0.158671
0.165293
0.16934
0.171239
0.171416
0.170263
0.168106
0.165199
0.161726
0.15782
0.153574
0.149057
0.144322
0.139408
0.134349
0.129172
0.123901
0.118555
0.113153
0.107711
0.102241
0.0967571
0.0912694
0.0857874
0.0803189
0.0748708
0.0694485
0.0640566
0.0586986
0.0533773
0.0480947
0.0428522
0.0376507
0.0324904
0.0273713
0.0222919
0.0172494
0.0122572
0.00724598
0.00221343
-0.00769661
0.0218612
0.0574967
0.0852911
0.109398
0.131596
0.150325
0.164559
0.174393
0.180369
0.183129
0.183334
0.181613
0.178508
0.17445
0.169758
0.164656
0.159298
0.153786
0.148185
0.142535
0.136862
0.131181
0.125502
0.11983
0.114169
0.108524
0.102897
0.0972905
0.0917088
0.0861545
0.0806308
0.0751402
0.0696852
0.0642677
0.0588894
0.0535516
0.048255
0.0430002
0.0377874
0.0326162
0.0274859
0.0223951
0.0173403
0.0123371
0.00730863
0.00232309
-0.0547765
-0.00701137
0.0389395
0.0718168
0.101532
0.129301
0.152652
0.170486
0.182962
0.190652
0.194275
0.194632
0.192519
0.188647
0.183596
0.177806
0.171595
0.16518
0.158703
0.152247
0.145861
0.139565
0.133367
0.127264
0.121249
0.115314
0.10945
0.103651
0.0979094
0.0922223
0.086586
0.0809984
0.075458
0.069964
0.0645157
0.0591127
0.0537545
0.0484409
0.0431711
0.0379447
0.0327608
0.027618
0.0225148
0.0174469
0.0124329
0.0073815
0.00248729
-0.0746146
-0.0113517
0.0337885
0.0677504
0.100196
0.1305
0.156135
0.17603
0.190165
0.198987
0.203209
0.203693
0.201327
0.196919
0.191146
0.184535
0.177475
0.170233
0.162984
0.155835
0.14884
0.142023
0.135384
0.128915
0.122599
0.116419
0.110358
0.1044
0.0985327
0.0927454
0.0870298
0.0813795
0.0757893
0.0702556
0.0647753
0.0593462
0.0539664
0.0486344
0.0433487
0.0381079
0.0329106
0.0277549
0.0226392
0.0175578
0.0125347
0.00745428
0.00267665
-0.016653
0.0113838
0.0411357
0.0718148
0.103615
0.133867
0.159989
0.180637
0.195474
0.20479
0.209263
0.209768
0.207225
0.202483
0.196267
0.189148
0.181553
0.173782
0.166033
0.158425
0.151022
0.143849
0.136905
0.130179
0.123648
0.117291
0.111084
0.105007
0.0990442
0.0931795
0.0874016
0.0817011
0.0760705
0.0705041
0.0649971
0.0595459
0.0541476
0.0487998
0.0435002
0.038247
0.0330382
0.0278717
0.0227454
0.0176527
0.0126213
0.00751473
0.00284498
0.0146463
0.0268552
0.0481028
0.0761062
0.106837
0.13659
0.162617
0.183378
0.198367
0.207792
0.212303
0.212773
0.210124
0.205219
0.198795
0.191439
0.183595
0.175576
0.16759
0.159762
0.152161
0.144813
0.137718
0.130861
0.124221
0.117772
0.111489
0.10535
0.099335
0.0934283
0.0876162
0.0818879
0.0762346
0.0706496
0.0651272
0.0596633
0.0542543
0.0488972
0.0435895
0.038329
0.0331135
0.0279405
0.0228081
0.0177084
0.0126724
0.00754982
0.00294452
0.0146502
0.026853
0.0480985
0.0761052
0.106836
0.13659
0.162616
0.183377
0.198365
0.207788
0.2123
0.21277
0.210123
0.20522
0.198796
0.191442
0.183598
0.175579
0.167592
0.159764
0.152163
0.144814
0.137719
0.130863
0.124223
0.117774
0.111491
0.105352
0.0993376
0.0934309
0.0876188
0.0818904
0.0762372
0.0706521
0.0651298
0.059666
0.0542569
0.0488999
0.0435922
0.0383316
0.0331159
0.0279428
0.02281
0.0177101
0.012674
0.00755066
0.00294537
-0.0166436
0.0113803
0.0411325
0.0718115
0.103611
0.133866
0.159989
0.180635
0.195469
0.204782
0.209255
0.209762
0.207222
0.202484
0.196271
0.189154
0.18156
0.173788
0.166039
0.15843
0.151027
0.143853
0.13691
0.130184
0.123654
0.117297
0.111091
0.105015
0.0990517
0.093187
0.087409
0.0817085
0.0760779
0.0705115
0.0650046
0.0595535
0.0541553
0.0488075
0.0435079
0.0382544
0.0330453
0.0278782
0.0227513
0.0176577
0.0126254
0.00751812
0.00284701
-0.0745972
-0.0113385
0.0337981
0.0677465
0.100191
0.130501
0.156139
0.176033
0.190165
0.198983
0.203202
0.203687
0.201324
0.196921
0.191153
0.184546
0.177486
0.170244
0.162994
0.155844
0.148848
0.14203
0.135392
0.128924
0.122609
0.11643
0.110369
0.104411
0.0985442
0.092757
0.0870413
0.081391
0.0758009
0.0702673
0.0647872
0.0593583
0.0539785
0.0486466
0.0433607
0.0381196
0.0329216
0.0277652
0.0226484
0.0175658
0.0125412
0.00745915
0.00267927
-0.0547625
-0.00698596
0.0389542
0.0718178
0.101529
0.1293
0.152656
0.170494
0.182971
0.190657
0.194275
0.194631
0.19252
0.188653
0.183606
0.177819
0.17161
0.165195
0.158716
0.152259
0.145871
0.139575
0.133378
0.127275
0.121261
0.115327
0.109464
0.103665
0.0979239
0.0922369
0.0866007
0.0810133
0.0754731
0.0699793
0.0645312
0.0591284
0.0537703
0.0484567
0.0431867
0.0379599
0.0327751
0.0276313
0.0225266
0.0174572
0.0124412
0.00738755
0.00248957
-0.00767593
0.0218696
0.0575089
0.0853024
0.109404
0.131599
0.150333
0.164572
0.174409
0.180381
0.183137
0.183339
0.181619
0.178517
0.174463
0.169773
0.164673
0.159315
0.153802
0.148199
0.142548
0.136874
0.131194
0.125515
0.119844
0.114185
0.10854
0.102913
0.0973075
0.0917258
0.086172
0.0806483
0.0751582
0.0697032
0.0642862
0.0589079
0.0535703
0.0482734
0.0430185
0.0378048
0.0326329
0.0275012
0.022409
0.017352
0.0123462
0.00731549
0.00232444
0.0638442
0.072463
0.0904331
0.107456
0.122703
0.136888
0.14917
0.158684
0.165306
0.169352
0.171247
0.171423
0.17027
0.168116
0.165211
0.161741
0.157835
0.15359
0.149073
0.144337
0.139423
0.134364
0.129187
0.123917
0.118572
0.113171
0.107729
0.10226
0.0967761
0.0912887
0.085807
0.0803388
0.0748909
0.0694689
0.0640772
0.0587193
0.0533979
0.048115
0.042872
0.0376697
0.0325084
0.0273878
0.0223066
0.0172619
0.012267
0.00725242
0.00221376
0.134134
0.125196
0.126148
0.130564
0.135998
0.142003
0.147874
0.152853
0.156592
0.159086
0.160453
0.160842
0.160388
0.159213
0.157408
0.155051
0.152201
0.148914
0.14524
0.141228
0.136921
0.132364
0.127595
0.122653
0.117568
0.112372
0.107089
0.101743
0.0963543
0.0909399
0.0855131
0.0800875
0.0746714
0.0692745
0.0639016
0.0585595
0.0532502
0.0479785
0.0427446
0.0375518
0.0323991
0.0272886
0.0222174
0.0171846
0.0122031
0.00720182
0.00216572
0.185278
0.164098
0.152376
0.14641
0.143906
0.143745
0.145035
0.146958
0.148955
0.15071
0.152055
0.152887
0.153152
0.15282
0.151888
0.150367
0.148286
0.145678
0.142592
0.139076
0.135185
0.130967
0.126474
0.121751
0.116841
0.111781
0.106606
0.101342
0.0960179
0.0906517
0.0852635
0.0798663
0.0744737
0.0690938
0.0637362
0.0584049
0.0531065
0.0478428
0.042618
0.0374321
0.0322883
0.0271855
0.0221245
0.0171024
0.0121383
0.00715095
0.00216318
0.209716
0.180914
0.161657
0.149647
0.142871
0.13982
0.139288
0.14028
0.142038
0.144029
0.145893
0.147389
0.148362
0.148723
0.148432
0.147483
0.145897
0.143713
0.140982
0.137761
0.134109
0.130085
0.125747
0.121147
0.116333
0.111349
0.106231
0.101014
0.0957243
0.0903864
0.0850196
0.0796404
0.0742618
0.0688945
0.0635468
0.0582254
0.052935
0.0476797
0.042462
0.0372841
0.0321474
0.027053
0.0219999
0.0169904
0.0120374
0.00706911
0.00216349
0.213162
0.180476
0.158024
0.143894
0.136044
0.132678
0.132326
0.133816
0.136253
0.138995
0.141601
0.143786
0.145371
0.146262
0.146418
0.145843
0.144564
0.14263
0.1401
0.137038
0.133511
0.129585
0.125321
0.120777
0.116006
0.111054
0.10596
0.100761
0.0954858
0.090159
0.0848014
0.07943
0.0740584
0.0686976
0.0633562
0.0580408
0.0527566
0.0475074
0.042296
0.0371243
0.0319938
0.0269055
0.0218601
0.0168597
0.0119045
0.00698202
0.0021621
)
;

boundaryField
{
    inlet
    {
        type            zeroGradient;
    }
    outlet
    {
        type            fixedValue;
        value           uniform 0;
    }
    upperWall
    {
        type            zeroGradient;
    }
    lowerWall
    {
        type            zeroGradient;
    }
    frontAndBack
    {
        type            empty;
    }
}


// ************************************************************************* //
