/*--------------------------------*- C++ -*----------------------------------*\
| =========                 |                                                 |
| \\      /  F ield         | OpenFOAM: The Open Source CFD Toolbox           |
|  \\    /   O peration     | Version:  2406                                  |
|   \\  /    A nd           | Website:  www.openfoam.com                      |
|    \\/     M anipulation  |                                                 |
\*---------------------------------------------------------------------------*/
FoamFile
{
    version     2.0;
    format      ascii;
    arch        "LSB;label=32;scalar=64";
    class       surfaceScalarField;
    location    "33";
    object      phi;
}
// * * * * * * * * * * * * * * * * * * * * * * * * * * * * * * * * * * * * * //

dimensions      [0 3 -1 0 0 0 0];

oriented        oriented;

internalField   nonuniform List<scalar> 
3796
(
0.00988707
-0.000137082
0.0100156
-0.00012838
0.0100955
-7.97082e-05
0.0101475
-5.20277e-05
0.0101844
-3.69689e-05
0.0102108
-2.63661e-05
0.0102294
-1.84664e-05
0.010243
-1.34832e-05
0.0102536
-1.06011e-05
0.0102624
-8.85894e-06
0.0102697
-7.33523e-06
0.0102756
-5.99407e-06
0.0102805
-4.83101e-06
0.0102847
-4.13584e-06
0.0102886
-3.71626e-06
0.0102923
-3.66247e-06
0.0102961
-3.68076e-06
0.0103
-3.88666e-06
0.0103041
-4.12826e-06
0.0103087
-4.59702e-06
0.0103139
-5.25756e-06
0.0103203
-6.34117e-06
0.0103281
-7.86703e-06
0.0103383
-1.01224e-05
0.0103516
-1.32068e-05
0.0103692
-1.75398e-05
0.0103927
-2.34058e-05
0.0104243
-3.14901e-05
0.0104668
-4.24499e-05
0.0105243
-5.74761e-05
0.0106023
-7.79228e-05
0.0107083
-0.000105933
0.0108525
-0.00014416
0.0110491
-0.000196523
0.0113173
-0.000268053
0.0116833
-0.000365825
0.0121823
-0.000498875
0.0128617
-0.000679117
0.0137828
-0.000920751
0.0150232
-0.00124004
0.0166756
-0.00165198
0.0188416
-0.00216515
0.0216135
-0.00277123
0.0250433
-0.00342918
0.0290897
-0.00404453
0.0335408
-0.00444842
-0.00443519
0.0379769
0.0277071
-9.40021e-05
0.0277293
-0.00015055
0.027778
-0.000128166
0.0278266
-0.000100472
0.0278703
-8.06301e-05
0.027908
-6.40551e-05
0.0279393
-4.97206e-05
0.027965
-3.89402e-05
0.0279862
-3.16335e-05
0.0280041
-2.66741e-05
0.0280194
-2.26434e-05
0.0280324
-1.90949e-05
0.0280436
-1.6015e-05
0.0280534
-1.37868e-05
0.0280622
-1.23554e-05
0.0280706
-1.17668e-05
0.0280789
-1.16896e-05
0.0280872
-1.21183e-05
0.0280961
-1.2908e-05
0.0281058
-1.42616e-05
0.0281168
-1.62993e-05
0.0281299
-1.94184e-05
0.028146
-2.39298e-05
0.0281664
-3.04354e-05
0.0281929
-3.95035e-05
0.0282276
-5.21147e-05
0.0282738
-6.93695e-05
0.0283355
-9.30059e-05
0.0284184
-0.000125175
0.0285301
-0.000169049
0.0286811
-0.000228734
0.0288854
-0.000310041
0.029162
-0.000420635
0.0295368
-0.000571079
0.0300443
-0.000775303
0.0307307
-0.00105195
0.0316572
-0.001425
0.0329035
-0.00192486
0.0345713
-0.00258787
0.0367865
-0.00345451
0.0396988
-0.00456314
0.0434731
-0.00593828
0.0482713
-0.0075682
0.0542154
-0.00937202
0.0613205
-0.0111479
0.069384
-0.0125119
-0.0129527
0.0779011
0.0437118
-5.58331e-05
0.0436791
-0.000117567
0.0436745
-0.000123401
0.0436861
-0.000111994
0.0437055
-0.000100143
0.0437286
-8.70652e-05
0.0437521
-7.30648e-05
0.0437742
-6.07456e-05
0.0437944
-5.15563e-05
0.0438126
-4.47861e-05
0.0438291
-3.90534e-05
0.0438437
-3.37013e-05
0.0438566
-2.891e-05
0.0438679
-2.51177e-05
0.0438783
-2.26492e-05
0.0438882
-2.13995e-05
0.0438981
-2.12044e-05
0.0439081
-2.18212e-05
0.0439186
-2.32106e-05
0.0439299
-2.5503e-05
0.0439427
-2.90304e-05
0.0439576
-3.42983e-05
0.0439757
-4.19945e-05
0.0439983
-5.29819e-05
0.0440273
-6.84275e-05
0.0440652
-8.98212e-05
0.0441152
-0.000119237
0.0441819
-0.000159429
0.0442711
-0.000214219
0.044391
-0.000288756
0.0445526
-0.000390094
0.0447705
-0.000527744
0.0450646
-0.000714586
0.0454615
-0.00096786
0.045997
-0.00131057
0.0467182
-0.00177296
0.0476877
-0.00239421
0.0489869
-0.00322378
0.0507212
-0.00432178
0.0530239
-0.00575693
0.0560606
-0.00759961
0.0600292
-0.00990676
0.0651527
-0.0126935
0.0716618
-0.0158844
0.0797368
-0.0192259
0.089404
-0.0221815
-0.0238493
0.100286
0.0577281
-3.38626e-05
0.0576926
-8.21746e-05
0.057668
-9.87278e-05
0.0576553
-9.90687e-05
0.0576514
-9.59535e-05
0.057654
-8.97044e-05
0.0576611
-8.02759e-05
0.0576706
-7.02958e-05
0.0576814
-6.20848e-05
0.0576928
-5.56657e-05
0.0577041
-4.99939e-05
0.0577149
-4.43133e-05
0.0577248
-3.88836e-05
0.0577338
-3.43075e-05
0.0577421
-3.11514e-05
0.0577503
-2.94906e-05
0.0577586
-2.92247e-05
0.0577673
-3.00845e-05
0.0577765
-3.20323e-05
0.0577865
-3.51666e-05
0.0577975
-3.99356e-05
0.0578102
-4.69527e-05
0.0578254
-5.7162e-05
0.0578441
-7.17064e-05
0.0578678
-9.21628e-05
0.0578986
-0.000120525
0.0579391
-0.000159553
0.0579927
-0.000212897
0.0580643
-0.000285606
0.0581603
-0.000384459
0.0582891
-0.000518743
0.0584625
-0.000700936
0.058696
-0.000947944
0.0590107
-0.00128236
0.0594347
-0.00173441
0.0600059
-0.00234398
0.0607752
-0.00316332
0.0618112
-0.00425958
0.0632066
-0.0057172
0.0650881
-0.00763854
0.0676286
-0.0101405
0.0710633
-0.0133435
0.0757069
-0.0173416
0.0819672
-0.0221489
0.0903147
-0.0275804
0.101279
-0.033162
-0.0374261
0.114865
0.0697375
-2.15214e-05
0.0697116
-5.61369e-05
0.0696867
-7.35087e-05
0.0696668
-7.89386e-05
0.0696516
-8.06955e-05
0.069641
-7.92926e-05
0.0696346
-7.41885e-05
0.0696318
-6.76015e-05
0.0696317
-6.17635e-05
0.0696338
-5.71344e-05
0.0696372
-5.27521e-05
0.0696411
-4.79732e-05
0.0696452
-4.29389e-05
0.0696491
-3.85177e-05
0.0696529
-3.53049e-05
0.0696569
-3.36973e-05
0.0696613
-3.35489e-05
0.0696663
-3.47377e-05
0.0696719
-3.71129e-05
0.0696781
-4.08671e-05
0.0696849
-4.63859e-05
0.0696925
-5.44516e-05
0.0697014
-6.60336e-05
0.0697121
-8.25456e-05
0.0697256
-0.000105687
0.0697428
-0.000137839
0.0697654
-0.000182037
0.0697951
-0.000242521
0.0698346
-0.0003249
0.0698873
-0.000436933
0.0699578
-0.000589009
0.0700524
-0.000795327
0.0701796
-0.00107492
0.070351
-0.00145355
0.0705824
-0.00196565
0.0708959
-0.00265738
0.0713228
-0.00359001
0.0719081
-0.00484475
0.072719
-0.00652812
0.073859
-0.0087787
0.0754919
-0.011774
0.0778817
-0.0157355
0.0814598
-0.020922
0.0869025
-0.0275974
0.09519
-0.0358761
0.107549
-0.0455056
-0.0536527
0.123782
0.0797426
-1.40273e-05
0.0797247
-3.83829e-05
0.0797043
-5.2961e-05
0.079685
-5.92631e-05
0.0796672
-6.26966e-05
0.0796514
-6.36483e-05
0.079638
-6.14644e-05
0.0796274
-5.75419e-05
0.0796196
-5.38434e-05
0.0796142
-5.0945e-05
0.0796106
-4.81208e-05
0.079608
-4.47035e-05
0.0796059
-4.08088e-05
0.0796041
-3.7135e-05
0.0796025
-3.44421e-05
0.0796014
-3.31281e-05
0.0796009
-3.32414e-05
0.0796011
-3.46565e-05
0.0796019
-3.72811e-05
0.0796029
-4.12512e-05
0.0796041
-4.69665e-05
0.0796051
-5.51457e-05
0.0796059
-6.68095e-05
0.0796066
-8.33174e-05
0.0796072
-0.000106449
0.0796077
-0.000138533
0.0796082
-0.000182676
0.0796087
-0.000243052
0.0796093
-0.000325324
0.0796097
-0.000437171
0.07961
-0.000589025
0.0796099
-0.000795026
0.0796096
-0.00107433
0.0796091
-0.00145284
0.0796093
-0.00196561
0.0796122
-0.00266006
0.0796227
-0.00360043
0.0796522
-0.00487405
0.0797244
-0.00660032
0.0798897
-0.00894399
0.0802508
-0.0121356
0.0810187
-0.0165042
0.0826251
-0.0225308
0.0859517
-0.0309279
0.0927508
-0.0426634
0.105319
-0.0580708
-0.0692517
0.120944
0.0877451
-9.20078e-06
0.0877323
-2.55881e-05
0.0877161
-3.64761e-05
0.0876992
-4.1988e-05
0.0876822
-4.54613e-05
0.0876652
-4.71104e-05
0.0876493
-4.63316e-05
0.0876352
-4.40744e-05
0.0876233
-4.19002e-05
0.0876135
-4.0294e-05
0.0876054
-3.8724e-05
0.0875982
-3.65551e-05
0.0875914
-3.38421e-05
0.0875849
-3.11443e-05
0.0875787
-2.9154e-05
0.0875729
-2.82717e-05
0.0875679
-2.86099e-05
0.0875634
-3.00688e-05
0.0875593
-3.25991e-05
0.0875551
-3.62794e-05
0.0875504
-4.14755e-05
0.0875446
-4.87846e-05
0.0875371
-5.91238e-05
0.0875274
-7.36775e-05
0.0875148
-9.40319e-05
0.0874982
-0.000122231
0.0874763
-0.000161022
0.0874472
-0.000214066
0.0874082
-0.000286348
0.0873558
-0.000384606
0.087285
-0.000518031
0.0871893
-0.000699075
0.08706
-0.000944693
0.0868853
-0.0012779
0.08665
-0.00173009
0.0863343
-0.00234414
0.085913
-0.00317901
0.0853554
-0.00431637
0.0846257
-0.00587077
0.0836869
-0.00800546
0.0825091
-0.0109586
0.0810919
-0.0150888
0.0795185
-0.0209609
0.0781088
-0.0295161
0.0778595
-0.0424202
0.0813641
-0.0615593
-0.0796332
0.0917571
0.0937464
-5.58273e-06
0.0937365
-1.57646e-05
0.0937231
-2.29392e-05
0.0937084
-2.68258e-05
0.0936927
-2.94155e-05
0.0936761
-3.08801e-05
0.0936595
-3.07462e-05
0.0936441
-2.95672e-05
0.0936305
-2.8365e-05
0.0936186
-2.75209e-05
0.0936081
-2.6689e-05
0.0935983
-2.54498e-05
0.0935886
-2.37898e-05
0.0935791
-2.20974e-05
0.0935696
-2.08551e-05
0.0935605
-2.03767e-05
0.0935519
-2.07625e-05
0.0935438
-2.19675e-05
0.0935357
-2.39554e-05
0.0935272
-2.68006e-05
0.0935174
-3.07542e-05
0.0935057
-3.6271e-05
0.0934909
-4.40118e-05
0.0934721
-5.4869e-05
0.0934478
-7.00087e-05
0.0934162
-9.096e-05
0.0933746
-0.000119755
0.0933194
-0.000159121
0.0932457
-0.000212748
0.0931468
-0.000285649
0.0930136
-0.000384645
0.0928338
-0.000519014
0.0925908
-0.000701401
0.0922623
-0.00094906
0.0918181
-0.00128563
0.0912177
-0.00174362
0.0904069
-0.00236812
0.0893126
-0.0032222
0.0878367
-0.00439517
0.0858455
-0.0060151
0.0831538
-0.0082684
0.079492
-0.0114297
0.0744356
-0.0159076
0.0672191
-0.0223069
0.0562185
-0.0314204
0.0374899
-0.042835
-0.0421448
0.097747
-2.67297e-06
0.0977387
-7.52483e-06
0.0977271
-1.10289e-05
0.0977138
-1.30021e-05
0.097699
-1.43876e-05
0.0976829
-1.52403e-05
0.0976663
-1.52796e-05
0.0976506
-1.47675e-05
0.0976363
-1.4212e-05
0.0976236
-1.38279e-05
0.097612
-1.34596e-05
0.0976008
-1.28971e-05
0.0975897
-1.21313e-05
0.0975784
-1.13501e-05
0.0975671
-1.07927e-05
0.0975559
-1.0624e-05
0.0975451
-1.08889e-05
0.0975346
-1.15761e-05
0.0975239
-1.26677e-05
0.0975123
-1.42135e-05
0.097499
-1.63527e-05
0.0974829
-1.93283e-05
0.0974629
-2.34941e-05
0.0974374
-2.93213e-05
0.0974046
-3.74278e-05
0.0973618
-4.8626e-05
0.0973056
-6.39931e-05
0.0972311
-8.49819e-05
0.0971318
-0.000113554
0.0969985
-0.000152381
0.0968191
-0.000205094
0.096577
-0.000276646
0.0962497
-0.000373788
0.0958067
-0.00050576
0.0952066
-0.000685247
0.0943929
-0.000929777
0.0932886
-0.00126373
0.0917875
-0.00172135
0.089743
-0.00235118
0.0869496
-0.00322265
0.083115
-0.00443559
0.0778153
-0.00613317
0.0704201
-0.0085167
0.0599577
-0.0118496
0.0448751
-0.0163476
0.0231504
-0.0211193
-0.018996
0.0997472
7.53526e-09
0.0997397
5.8719e-08
0.0997288
6.71736e-08
0.0997162
7.4616e-08
0.099702
1.23687e-07
0.0996861
1.60575e-07
0.0996696
1.33433e-07
0.0996538
7.49071e-08
0.0996393
5.96925e-08
0.0996263
1.19478e-07
0.0996143
2.13287e-07
0.0996026
2.69145e-07
0.0995908
2.51501e-07
0.0995788
1.63662e-07
0.0995666
4.8487e-08
0.0995546
-4.81615e-08
0.0995428
-1.00238e-07
0.0995311
-1.04311e-07
0.099519
-8.03092e-08
0.0995059
-5.48189e-08
0.0994908
-4.91411e-08
0.0994725
-7.77868e-08
0.0994497
-1.39084e-07
0.0994207
-2.28215e-07
0.0993833
-3.32744e-07
0.0993347
-4.44589e-07
0.0992708
-5.572e-07
0.0991861
-6.68978e-07
0.0990731
-7.81706e-07
0.0989216
-8.99433e-07
0.0987177
-1.02655e-06
0.0984425
-1.16804e-06
0.0980703
-1.32661e-06
0.0975664
-1.5063e-06
0.0968831
-1.7081e-06
0.0959554
-1.93756e-06
0.0946939
-2.19832e-06
0.0929748
-2.50463e-06
0.090626
-2.8511e-06
0.0874055
-3.2438e-06
0.0829717
-3.70257e-06
0.0768394
-4.09442e-06
0.068323
-4.5961e-06
0.0564723
-5.14442e-06
0.0401214
-4.88462e-06
0.0189958
6.01612e-07
-3.1581e-06
0.0997473
2.72261e-06
0.0997396
7.51628e-06
0.0997288
1.11453e-05
0.0997162
1.32365e-05
0.099702
1.46834e-05
0.0996861
1.55169e-05
0.0996696
1.54692e-05
0.0996538
1.48906e-05
0.0996394
1.43796e-05
0.0996264
1.41382e-05
0.0996143
1.39193e-05
0.0996026
1.34161e-05
0.0995908
1.25759e-05
0.0995787
1.1623e-05
0.0995665
1.08663e-05
0.0995545
1.05392e-05
0.0995428
1.07281e-05
0.0995311
1.14117e-05
0.0995191
1.25418e-05
0.0995059
1.41211e-05
0.0994908
1.62518e-05
0.0994724
1.91608e-05
0.0994496
2.31992e-05
0.0994206
2.88544e-05
0.0993832
3.67606e-05
0.0993346
4.77467e-05
0.0992706
6.28995e-05
0.0991859
8.36729e-05
0.0990729
0.000112026
0.0989214
0.000150623
0.0987174
0.000203085
0.0984422
0.000274359
0.09807
0.000371188
0.097566
0.000502809
0.0968827
0.000681903
0.0959549
0.00092599
0.0946933
0.00125944
0.0929741
0.00171649
0.0906252
0.00234566
0.0874046
0.00321636
0.0829708
0.00442856
0.0768384
0.00612517
0.0683218
0.0085079
0.0564723
0.0118405
0.0401257
0.0163427
0.0189943
0.0211099
0.0189904
0.097747
5.60232e-06
0.0977387
1.58655e-05
0.0977271
2.30679e-05
0.0977138
2.69841e-05
0.0976989
2.96527e-05
0.0976827
3.11733e-05
0.0976662
3.09986e-05
0.0976506
2.97442e-05
0.0976364
2.85404e-05
0.0976238
2.78008e-05
0.0976121
2.71001e-05
0.0976008
2.5916e-05
0.0975895
2.41941e-05
0.0975781
2.235e-05
0.0975668
2.09336e-05
0.0975558
2.03262e-05
0.0975451
2.0652e-05
0.0975347
2.18607e-05
0.0975239
2.38769e-05
0.0975123
2.67368e-05
0.0974989
3.06621e-05
0.0974828
3.60958e-05
0.0974626
4.37049e-05
0.0974371
5.4395e-05
0.0974042
6.93489e-05
0.0973614
9.01085e-05
0.0973052
0.000118711
0.0972307
0.000157883
0.0971312
0.00021131
0.0969979
0.000283997
0.0968184
0.000382757
0.0965762
0.000516862
0.0962488
0.000698954
0.0958056
0.000946284
0.0952053
0.00128248
0.0943915
0.00174007
0.0932869
0.00236412
0.0917856
0.00321769
0.0897408
0.00439009
0.0869472
0.00600942
0.0831123
0.00826203
0.0778126
0.0114226
0.070418
0.0159002
0.0599611
0.0223006
0.0448733
0.0314116
0.0231535
0.0428333
0.0421413
0.0937464
9.24309e-06
0.0937365
2.56099e-05
0.0937232
3.66126e-05
0.0937084
4.22005e-05
0.0936926
4.5697e-05
0.0936758
4.73356e-05
0.0936593
4.65226e-05
0.0936441
4.42737e-05
0.0936307
4.21536e-05
0.0936189
4.06284e-05
0.0936082
3.90972e-05
0.0935981
3.69123e-05
0.0935883
3.41151e-05
0.0935786
3.13178e-05
0.0935692
2.92334e-05
0.0935603
2.83003e-05
0.0935519
2.86165e-05
0.0935439
3.0079e-05
0.0935358
3.25986e-05
0.0935272
3.62494e-05
0.0935173
4.13714e-05
0.0935054
4.8579e-05
0.0934905
5.87828e-05
0.0934716
7.31927e-05
0.0934473
9.33905e-05
0.0934156
0.000121438
0.0933739
0.000160069
0.0933186
0.000212953
0.0932448
0.000285056
0.0931458
0.000383125
0.0930124
0.000516329
0.0928324
0.000697134
0.0925892
0.000942477
0.0922604
0.00127539
0.091816
0.00172725
0.0912153
0.00234095
0.0904041
0.00317543
0.0893095
0.00431238
0.0878332
0.00586634
0.0858418
0.00800063
0.0831496
0.0109533
0.0794884
0.0150833
0.0744343
0.0209549
0.0672193
0.0295109
0.0562228
0.0424162
0.0374912
0.0615592
0.0796363
0.087745
1.40599e-05
0.0877323
3.84691e-05
0.0877162
5.30807e-05
0.0876992
5.94047e-05
0.0876819
6.28696e-05
0.0876649
6.38709e-05
0.087649
6.17106e-05
0.0876352
5.7803e-05
0.0876235
5.4132e-05
0.0876138
5.12448e-05
0.0876054
4.84077e-05
0.0875979
4.49446e-05
0.0875909
4.0988e-05
0.0875843
3.72722e-05
0.0875782
3.45607e-05
0.0875727
3.32494e-05
0.0875679
3.3371e-05
0.0875635
3.47697e-05
0.0875594
3.73525e-05
0.0875551
4.12409e-05
0.0875502
4.68524e-05
0.0875442
5.49112e-05
0.0875365
6.64527e-05
0.0875267
8.28421e-05
0.087514
0.00010586
0.0874973
0.000137832
0.0874753
0.000181858
0.0874461
0.000242106
0.087407
0.000324231
0.0873544
0.000435908
0.0872834
0.000587569
0.0871874
0.000793351
0.0870578
0.00107241
0.0868828
0.00145066
0.0866472
0.00196315
0.0863311
0.00265729
0.0859094
0.00359735
0.0853513
0.00487065
0.0846213
0.00659662
0.083682
0.00893996
0.0825043
0.0121314
0.0810878
0.0164997
0.0795179
0.0225264
0.0781103
0.0309222
0.0778681
0.0426615
0.0813686
0.058067
0.069253
0.0917571
0.0797426
2.15458e-05
0.0797247
5.61658e-05
0.0797043
7.35913e-05
0.0796849
7.90325e-05
0.0796669
8.08339e-05
0.079651
7.94714e-05
0.0796377
7.44904e-05
0.0796274
6.79581e-05
0.0796199
6.2128e-05
0.0796145
5.74051e-05
0.0796106
5.29335e-05
0.0796077
4.80664e-05
0.0796053
4.30494e-05
0.0796034
3.86445e-05
0.079602
3.55173e-05
0.0796012
3.39329e-05
0.0796009
3.3803e-05
0.0796012
3.49294e-05
0.0796019
3.72261e-05
0.0796028
4.08518e-05
0.0796037
4.62626e-05
0.0796045
5.42022e-05
0.0796052
6.57044e-05
0.0796057
8.21216e-05
0.0796062
0.000105207
0.0796066
0.000137273
0.079607
0.000181404
0.0796074
0.000241773
0.0796077
0.000324044
0.0796079
0.000435917
0.0796079
0.000587839
0.0796075
0.000793952
0.0796069
0.00107335
0.079606
0.00145174
0.0796058
0.00196361
0.0796083
0.00265507
0.0796184
0.00358746
0.0796474
0.00484191
0.0797193
0.00652501
0.0798842
0.00877529
0.0802454
0.0117702
0.0810144
0.0157312
0.0826237
0.0209171
0.0859586
0.0275909
0.0927575
0.0358648
0.10533
0.0454963
0.0536397
0.120947
0.0697375
3.38732e-05
0.0697116
8.21599e-05
0.0696867
9.87408e-05
0.0696667
9.9138e-05
0.0696512
9.60392e-05
0.0696405
8.98915e-05
0.0696343
8.05759e-05
0.0696318
7.07039e-05
0.069632
6.2436e-05
0.069634
5.5911e-05
0.069637
5.00732e-05
0.0696407
4.4346e-05
0.0696445
3.89266e-05
0.0696484
3.44728e-05
0.0696524
3.1405e-05
0.0696567
2.98302e-05
0.0696613
2.95329e-05
0.0696664
3.03336e-05
0.0696719
3.21366e-05
0.0696779
3.51544e-05
0.0696844
3.97858e-05
0.0696919
4.67317e-05
0.0697006
5.68676e-05
0.0697112
7.13924e-05
0.0697245
9.18053e-05
0.0697416
0.000120148
0.069764
0.000159108
0.0697935
0.000212392
0.0698328
0.000284987
0.0698852
0.000383734
0.0699554
0.000517862
0.0700496
0.000699914
0.0701764
0.000946737
0.0703474
0.00128099
0.0705784
0.00173283
0.0708915
0.00234221
0.0713178
0.00316132
0.0719026
0.00425738
0.0727131
0.00571477
0.0738527
0.00763585
0.0754853
0.0101376
0.0778763
0.0133399
0.0814564
0.0173366
0.0869037
0.0221426
0.0951981
0.0275694
0.107556
0.033143
0.0374092
0.123787
0.0577281
5.58379e-05
0.0576926
0.000117627
0.057668
0.000123442
0.0576552
0.000111983
0.057651
0.000100131
0.0576535
8.71856e-05
0.0576607
7.33793e-05
0.0576706
6.11427e-05
0.0576815
5.18584e-05
0.0576928
4.48743e-05
0.0577038
3.90247e-05
0.0577143
3.36553e-05
0.057724
2.89699e-05
0.0577331
2.53191e-05
0.0577417
2.29494e-05
0.0577502
2.17323e-05
0.0577586
2.14913e-05
0.0577673
2.19977e-05
0.0577764
2.32742e-05
0.0577862
2.54435e-05
0.057797
2.89005e-05
0.0578095
3.41156e-05
0.0578245
4.18011e-05
0.057843
5.27838e-05
0.0578666
6.82294e-05
0.0578973
8.96072e-05
0.0579375
0.000118992
0.057991
0.000159127
0.0580623
0.000213847
0.058158
0.00028829
0.0582865
0.000389531
0.0584595
0.000527066
0.0586927
0.000713793
0.0590069
0.000966939
0.0594304
0.00130952
0.0600012
0.00177177
0.0607699
0.00239291
0.0618053
0.00322237
0.0632002
0.00432031
0.0650812
0.0057554
0.0676211
0.00759809
0.071056
0.00990541
0.0757015
0.0126917
0.0819634
0.0158813
0.0903142
0.0192218
0.101287
0.022175
0.0238343
0.114872
0.0437118
9.40438e-05
0.043679
0.00015054
0.0436745
0.000128253
0.0436859
0.000100534
0.0437052
8.06221e-05
0.0437281
6.40426e-05
0.0437518
4.99056e-05
0.0437741
3.91971e-05
0.0437944
3.18428e-05
0.0438125
2.66821e-05
0.0438287
2.25523e-05
0.043843
1.89919e-05
0.0438558
1.60677e-05
0.0438673
1.39516e-05
0.043878
1.26514e-05
0.0438881
1.20302e-05
0.043898
1.19094e-05
0.043908
1.2195e-05
0.0439184
1.28969e-05
0.0439296
1.41524e-05
0.0439421
1.61783e-05
0.0439568
1.9282e-05
0.0439747
2.3841e-05
0.0439972
3.0353e-05
0.0440261
3.94609e-05
0.0440638
5.20467e-05
0.0441137
6.93022e-05
0.0441801
9.28771e-05
0.0442691
0.000125018
0.0443888
0.000168814
0.04455
0.000228461
0.0447675
0.000309688
0.0450613
0.000420246
0.0454578
0.000570611
0.0459928
0.000774802
0.0467136
0.00105138
0.0476826
0.00142442
0.0489814
0.00192428
0.0507152
0.00258739
0.0530176
0.00345419
0.056054
0.00456318
0.0600226
0.0059388
0.0651475
0.00756964
0.0716591
0.009374
0.0797373
0.0111499
0.0894073
0.0125131
0.0129531
0.100298
0.027707
0.000137063
0.0277293
0.000128449
0.0277779
7.98042e-05
0.0278264
5.20125e-05
0.0278699
3.68916e-05
0.0279076
2.63408e-05
0.027939
1.86196e-05
0.0279648
1.36131e-05
0.0279861
1.06534e-05
0.0280038
8.76176e-06
0.0280189
7.22966e-06
0.0280318
5.91248e-06
0.028043
4.87995e-06
0.0280529
4.22953e-06
0.028062
3.89169e-06
0.0280705
3.78257e-06
0.0280788
3.78409e-06
0.0280872
3.88745e-06
0.0280959
4.09669e-06
0.0281054
4.50517e-06
0.0281162
5.18242e-06
0.0281292
6.25787e-06
0.0281452
7.83485e-06
0.0281655
1.00924e-05
0.0281919
1.32208e-05
0.0282265
1.75338e-05
0.0282726
2.34189e-05
0.0283341
3.14625e-05
0.0284168
4.24264e-05
0.0285283
5.74059e-05
0.0286791
7.78578e-05
0.0288831
0.000105827
0.0291594
0.000144069
0.0295339
0.000196397
0.030041
0.000267954
0.0307271
0.000365702
0.0316534
0.000498803
0.0328994
0.000679055
0.0345669
0.000920827
0.0367822
0.00124025
0.0396947
0.0016525
0.0434699
0.00216618
0.0482701
0.00277298
0.0542175
0.00343145
0.0613256
0.00404763
0.0693928
0.00445221
0.00443711
0.0779128
0.00988708
0.0100156
0.0100954
0.0101474
0.0101842
0.0102106
0.0102292
0.0102429
0.0102535
0.0102622
0.0102694
0.0102753
0.0102802
0.0102845
0.0102884
0.0102922
0.010296
0.0102999
0.010304
0.0103085
0.0103136
0.0103199
0.0103277
0.0103378
0.0103511
0.0103686
0.0103921
0.0104236
0.010466
0.0105234
0.0106013
0.0107071
0.0108512
0.0110477
0.0113157
0.0116815
0.0121804
0.0128596
0.0137806
0.0150211
0.0166739
0.0188406
0.0216143
0.0250468
0.0290954
0.0335482
0.0379854
0.0416794
-0.00370349
0.0439908
-0.00231194
0.0447233
-0.000733206
0.0440651
0.000657603
0.0423045
0.00176073
0.00257776
0.0397277
0.08572
-0.0115277
0.0917401
-0.00833551
0.0955407
-0.00453296
0.0971246
-0.000923996
0.0966228
0.00226472
0.00494487
0.0942582
0.110361
-0.0216026
0.118067
-0.0160371
0.123233
-0.00969324
0.126098
-0.00378247
0.126876
0.0014903
0.00606479
0.125757
0.126375
-0.0331086
0.133582
-0.0232354
0.137478
-0.0135798
0.13912
-0.00541704
0.139177
0.00143513
0.0072538
0.137988
0.133495
-0.042805
0.135565
-0.0252901
0.134466
-0.0124757
0.132574
-0.00352414
0.130871
0.00313848
0.00882561
0.129297
0.117617
-0.0394584
0.107493
-0.0151613
0.0995142
-0.00449794
0.095334
0.000655743
0.0947198
0.00375126
0.00777293
0.0957721
0.0523005
0.0371389
0.0326407
0.0332962
0.0370475
0.04482
0.0522946
0.0394601
0.0371345
0.0151597
0.0326368
0.00449897
0.0332916
-0.000654
0.0370415
-0.00374821
-0.00776975
0.0448115
0.11761
0.0427952
0.107484
0.0252876
0.099505
0.0124778
0.0953238
0.0035281
0.0947087
-0.00313281
-0.00882113
0.0957593
0.133496
0.0330923
0.135561
0.0232258
0.13446
0.013579
0.132566
0.00542072
0.130861
-0.00143181
-0.00725055
0.129286
0.126383
0.0215895
0.133586
0.016027
0.137479
0.00968652
0.139116
0.00377876
0.139171
-0.00149161
-0.00606472
0.13798
0.110373
0.0115216
0.118075
0.00832583
0.123236
0.00452345
0.126096
0.000916601
0.126871
-0.00226916
-0.00494563
0.125751
0.0857324
0.00370327
0.0917496
0.00230844
0.0955449
0.000728556
0.0971235
-0.000662286
0.0966179
-0.00176348
-0.00257855
0.0942513
0.0416887
0.0439974
0.0447262
0.044064
0.0423006
0.0397221
0.036623
0.00310611
0.0332847
0.00333972
0.0299776
0.0033079
0.0268898
0.003088
0.0241235
0.00276618
0.0217207
0.0024026
0.0196872
0.00203344
0.0180044
0.00168266
0.0166389
0.00136546
0.0155499
0.00108888
0.0146956
0.000854105
0.0140362
0.000659131
0.0135355
0.000500403
0.0131616
0.000373687
0.0128867
0.000274569
0.0126877
0.000198754
0.0125451
0.000142246
0.0124435
0.000101427
0.0123701
7.30958e-05
0.0123154
5.44778e-05
0.0122719
4.32144e-05
0.0122343
3.73471e-05
0.0121988
3.52839e-05
0.0121628
3.57639e-05
0.0121248
3.78137e-05
0.0120839
4.07037e-05
0.0120398
4.3906e-05
0.0119925
4.70538e-05
0.0119425
4.99074e-05
0.01189
5.23229e-05
0.0118357
5.42286e-05
0.0117799
5.56033e-05
0.0117234
5.64614e-05
0.0116665
5.68397e-05
0.0116096
5.67896e-05
0.0115532
5.6369e-05
0.0114975
5.56401e-05
0.0114428
5.46651e-05
0.0113893
5.35085e-05
0.011337
5.22337e-05
0.0112861
5.09137e-05
0.0112363
4.96355e-05
0.0111876
4.86486e-05
0.0111394
4.80695e-05
0.0110912
4.8276e-05
0.0110395
5.17156e-05
6.78755e-05
0.0903554
0.00701101
0.085338
0.00835884
0.0796752
0.00897186
0.0737878
0.00897597
0.0680047
0.00854946
0.062565
0.00784224
0.057625
0.00697323
0.0532663
0.0060411
0.0495105
0.00512093
0.0463372
0.00426185
0.0436998
0.00349126
0.0415374
0.00282107
0.0397845
0.00225286
0.0383762
0.00178154
0.0372519
0.00139827
0.0363577
0.00109243
0.0356464
0.000852899
0.0350784
0.000668906
0.0346205
0.000530465
0.0342458
0.000428634
0.0339328
0.000355619
0.0336649
0.00030479
0.033429
0.00027063
0.0332157
0.000248649
0.0330177
0.000235272
0.0328303
0.000227714
0.03265
0.000223859
0.0324745
0.000222142
0.0323026
0.00022144
0.0321337
0.000220978
0.0319674
0.000220252
0.0318038
0.000218957
0.0316431
0.000216938
0.0314856
0.000214143
0.0313317
0.000210596
0.0311816
0.000206364
0.0310356
0.000201549
0.0308939
0.000196268
0.0307567
0.000190651
0.030624
0.000184842
0.0304958
0.000178999
0.030372
0.000173326
0.0302522
0.000168118
0.0301364
0.000163802
0.0300233
0.000161286
0.0299136
0.000161462
0.000174349
0.122932
0.00983559
0.118721
0.0125705
0.113522
0.0141709
0.107698
0.0148004
0.101568
0.0146805
0.0954183
0.0139926
0.0894867
0.0129048
0.0839482
0.0115791
0.078915
0.0101536
0.0744439
0.00873254
0.0705466
0.00738837
0.0672012
0.00616627
0.0643644
0.0050895
0.0619807
0.00416493
0.0599904
0.0033882
0.0583344
0.00274802
0.0569575
0.00222936
0.0558101
0.00181579
0.0548492
0.00149088
0.0540382
0.00123921
0.0533465
0.00104685
0.0527493
0.000901616
0.0522264
0.00079313
0.0517619
0.000712755
0.0513434
0.000653449
0.0509611
0.000609588
0.0506079
0.000576762
0.0502781
0.000551587
0.0499678
0.000531522
0.0496738
0.000514699
0.049394
0.000499787
0.0491269
0.000485868
0.0488713
0.00047234
0.0486265
0.000458837
0.0483918
0.000445161
0.0481668
0.000431239
0.0479512
0.000417084
0.0477446
0.000402766
0.0475468
0.000388399
0.0473575
0.000374129
0.0471762
0.000360137
0.0470027
0.000346644
0.0468367
0.000333952
0.0466779
0.00032242
0.0465263
0.000312805
0.0463826
0.00030522
0.000303977
0.135616
0.0122048
0.132312
0.0158736
0.128357
0.0181261
0.123899
0.0192599
0.119069
0.0195116
0.114029
0.0190327
0.108944
0.0179896
0.103962
0.0165601
0.09921
0.0149053
0.0947819
0.0131602
0.0907389
0.0114312
0.0871097
0.00979542
0.0838966
0.00830256
0.0810823
0.00697909
0.0786367
0.0058335
0.0765227
0.00486163
0.0747004
0.00405115
0.0731306
0.00338514
0.0717763
0.00284473
0.0706042
0.00241091
0.0695849
0.00206571
0.0686934
0.00179285
0.0679081
0.0015781
0.0672112
0.00140929
0.066588
0.00127629
0.0660265
0.00117082
0.0655167
0.00108623
0.0650508
0.00101726
0.0646222
0.000959833
0.0642258
0.000910834
0.0638575
0.000867918
0.0635138
0.000829362
0.0631921
0.000793921
0.06289
0.000760723
0.0626059
0.000729177
0.0623381
0.000698901
0.0620855
0.00066967
0.0618468
0.000641374
0.0616212
0.000613988
0.0614077
0.000587549
0.0612055
0.000562151
0.0610141
0.000537938
0.0608327
0.000515105
0.0606611
0.000493904
0.0604992
0.000474636
0.0603469
0.000457464
0.000438029
0.127332
0.0141679
0.125258
0.0179471
0.123169
0.020216
0.120914
0.0215161
0.118421
0.0220053
0.115693
0.0217608
0.112766
0.020916
0.109704
0.0196212
0.106588
0.0180202
0.103501
0.0162466
0.100515
0.0144173
0.0976847
0.0126255
0.0950484
0.0109387
0.0926272
0.00940008
0.0904284
0.00803204
0.0884485
0.00684109
0.0866769
0.00582225
0.0850984
0.00496309
0.0836957
0.00424702
0.0824504
0.00365572
0.081345
0.00317079
0.0803626
0.00277491
0.079488
0.0024524
0.0787074
0.00218953
0.0780088
0.0019746
0.0773816
0.00179781
0.0768164
0.00165111
0.0763054
0.00152799
0.0758418
0.00142325
0.0754196
0.00133281
0.0750338
0.00125346
0.0746802
0.00118277
0.0743551
0.00111886
0.0740554
0.00106032
0.0737783
0.00100613
0.0735216
0.000955514
0.0732832
0.000907938
0.0730615
0.000863024
0.0728549
0.000820519
0.0726621
0.000780273
0.0724819
0.000742211
0.0723133
0.000706325
0.0721556
0.000672647
0.0720081
0.000641299
0.0718705
0.000612076
0.0717417
0.000586272
0.000548684
0.096249
0.0136899
0.0973755
0.0168205
0.0987502
0.0188417
0.0999404
0.0203264
0.100807
0.0211387
0.101288
0.0212782
0.10137
0.0208328
0.101082
0.0199084
0.100478
0.0186235
0.0996225
0.0171018
0.0985815
0.0154581
0.0974177
0.0137892
0.0961867
0.0121696
0.0949347
0.0106519
0.0936977
0.00926859
0.0925027
0.00803567
0.0913679
0.00695646
0.0903051
0.00602545
0.0893202
0.00523143
0.0884153
0.00456014
0.0875897
0.00399613
0.0868402
0.00352408
0.0861627
0.00312963
0.0855521
0.00279982
0.0850031
0.00252332
0.0845103
0.00229042
0.0840682
0.00209295
0.0836718
0.00192417
0.0833163
0.00177856
0.0829972
0.00165164
0.0827106
0.00153985
0.0824529
0.00144033
0.0822207
0.00135085
0.0820113
0.00126965
0.0818219
0.00119534
0.0816505
0.00112688
0.0814949
0.00106344
0.0813534
0.0010044
0.0812246
0.000949297
0.081107
0.000897771
0.0809995
0.000849574
0.0809011
0.000804532
0.080811
0.000762518
0.0807286
0.000723535
0.0806536
0.000687099
0.0805844
0.00065541
0.000604533
0.0504045
0.00810513
0.0569693
0.0102558
0.062777
0.013034
0.0678
0.0153028
0.0721559
0.0167816
0.0758829
0.0175498
0.0790237
0.0176909
0.0816269
0.0173046
0.0837379
0.0165122
0.0854024
0.0154371
0.0866704
0.01419
0.0875955
0.0128639
0.0882326
0.0115323
0.088635
0.0102492
0.0888522
0.00905098
0.0889282
0.00795923
0.0889007
0.00698349
0.0888011
0.00612462
0.0886546
0.0053775
0.088481
0.00473338
0.0882953
0.00418154
0.0881084
0.00371067
0.0879281
0.00330965
0.0877596
0.0029681
0.087606
0.00267668
0.0874691
0.00242719
0.0873492
0.00221259
0.0872463
0.00202691
0.0871595
0.00186517
0.0870878
0.00172323
0.0870297
0.00159771
0.0869841
0.00148585
0.0869494
0.00138542
0.0869243
0.00129462
0.0869075
0.00121199
0.0868979
0.00113637
0.0868944
0.00106684
0.0868961
0.00100265
0.0869021
0.000943207
0.0869117
0.00088806
0.0869243
0.000836839
0.0869395
0.000789271
0.0869567
0.000745115
0.0869758
0.000704348
0.0869966
0.000666133
0.0870183
0.000633759
0.0005787
0.0114812
-0.00337573
0.0209316
0.000804803
0.0286326
0.00533158
0.0354505
0.00848299
0.0416692
0.0105611
0.0473981
0.0118196
0.0526747
0.0124136
0.057496
0.0124831
0.0618468
0.0121613
0.0657195
0.0115644
0.0691201
0.0107892
0.0720698
0.00991405
0.0746014
0.00900051
0.0767554
0.00809476
0.0785768
0.00722922
0.080111
0.00642466
0.0814016
0.00569253
0.0824887
0.00503721
0.0834079
0.00445805
0.0841899
0.00395108
0.0848609
0.00351037
0.0854423
0.00312902
0.0859519
0.00279988
0.0864038
0.00251601
0.0868093
0.00227098
0.0871773
0.002059
0.0875148
0.00187497
0.0878271
0.0017145
0.0881183
0.00157385
0.0883915
0.00144986
0.0886492
0.00133989
0.0888932