/*--------------------------------*- C++ -*----------------------------------*\
| =========                 |                                                 |
| \\      /  F ield         | OpenFOAM: The Open Source CFD Toolbox           |
|  \\    /   O peration     | Version:  2406                                  |
|   \\  /    A nd           | Website:  www.openfoam.com                      |
|    \\/     M anipulation  |                                                 |
\*---------------------------------------------------------------------------*/
FoamFile
{
    version     2.0;
    format      ascii;
    arch        "LSB;label=32;scalar=64";
    class       volVectorField;
    location    "33";
    object      U;
}
// * * * * * * * * * * * * * * * * * * * * * * * * * * * * * * * * * * * * * //

dimensions      [0 1 -1 0 0 0 0];

internalField   nonuniform List<vector> 
1964
(
(0.0975664 -0.000646979 0)
(0.0994908 -0.000551016 0)
(0.100641 -0.000286588 0)
(0.101258 -0.000165356 0)
(0.101677 -0.000109629 0)
(0.10199 -6.97849e-05 0)
(0.102213 -4.13887e-05 0)
(0.10237 -2.83024e-05 0)
(0.102488 -2.42244e-05 0)
(0.102584 -2.15722e-05 0)
(0.102663 -1.59783e-05 0)
(0.102729 -1.00451e-05 0)
(0.102782 -6.02712e-06 0)
(0.102827 -5.71743e-06 0)
(0.102867 -7.19408e-06 0)
(0.102905 -9.56553e-06 0)
(0.102942 -1.07241e-05 0)
(0.10298 -1.12805e-05 0)
(0.10302 -1.09352e-05 0)
(0.103063 -1.12037e-05 0)
(0.103111 -1.21464e-05 0)
(0.103168 -1.48926e-05 0)
(0.103238 -1.91476e-05 0)
(0.103327 -2.57723e-05 0)
(0.103442 -3.45395e-05 0)
(0.103594 -4.66975e-05 0)
(0.103795 -6.26361e-05 0)
(0.104065 -8.44952e-05 0)
(0.104428 -0.000113811 0)
(0.104919 -0.000154215 0)
(0.105583 -0.000209215 0)
(0.106484 -0.000285136 0)
(0.10771 -0.000389227 0)
(0.10938 -0.000532991 0)
(0.111658 -0.000730763 0)
(0.114766 -0.00100362 0)
(0.119009 -0.00137815 0)
(0.124793 -0.00189049 0)
(0.132659 -0.00258275 0)
(0.143301 -0.00350368 0)
(0.157577 -0.00469288 0)
(0.176479 -0.00616423 0)
(0.201018 -0.00785962 0)
(0.231983 -0.0095885 0)
(0.269535 -0.0109469 0)
(0.312506 -0.0112418 0)
(0.357934 -0.00974033 0)
(0.275933 -0.00124708 0)
(0.276852 -0.00169779 0)
(0.277642 -0.00126458 0)
(0.278063 -0.0008775 0)
(0.278479 -0.000639921 0)
(0.278898 -0.000471163 0)
(0.279253 -0.000343029 0)
(0.279534 -0.00025573 0)
(0.279762 -0.000200756 0)
(0.279956 -0.000165053 0)
(0.280123 -0.0001367 0)
(0.280265 -0.000112917 0)
(0.280385 -9.35597e-05 0)
(0.280488 -8.10083e-05 0)
(0.280579 -7.33565e-05 0)
(0.280664 -7.07361e-05 0)
(0.280747 -7.0349e-05 0)
(0.28083 -7.29323e-05 0)
(0.280915 -7.77035e-05 0)
(0.281007 -8.65662e-05 0)
(0.281109 -0.000100195 0)
(0.281228 -0.000121285 0)
(0.281371 -0.000151444 0)
(0.28155 -0.000194678 0)
(0.28178 -0.000254302 0)
(0.28208 -0.000336991 0)
(0.282477 -0.000449705 0)
(0.283005 -0.000604194 0)
(0.283713 -0.000814439 0)
(0.284666 -0.00110168 0)
(0.285953 -0.00149292 0)
(0.287692 -0.00202708 0)
(0.290046 -0.00275513 0)
(0.293236 -0.00374833 0)
(0.297557 -0.0051005 0)
(0.303407 -0.00693861 0)
(0.311317 -0.00942601 0)
(0.321981 -0.0127707 0)
(0.336302 -0.0172203 0)
(0.355416 -0.023046 0)
(0.380711 -0.0304946 0)
(0.413782 -0.0396915 0)
(0.456315 -0.0504774 0)
(0.509808 -0.062158 0)
(0.575125 -0.0731655 0)
(0.651425 -0.0806667 0)
(0.735819 -0.081056 0)
(0.436128 -0.000775899 0)
(0.436604 -0.00139968 0)
(0.436888 -0.00135018 0)
(0.436833 -0.00115081 0)
(0.436917 -0.000975747 0)
(0.437153 -0.000810014 0)
(0.437411 -0.000651518 0)
(0.43764 -0.000522875 0)
(0.437844 -0.000431791 0)
(0.438034 -0.000367962 0)
(0.438212 -0.000314775 0)
(0.438371 -0.000266457 0)
(0.438508 -0.000224053 0)
(0.438626 -0.000192769 0)
(0.438732 -0.000173454 0)
(0.438832 -0.000165422 0)
(0.43893 -0.000164922 0)
(0.439029 -0.000170599 0)
(0.439132 -0.000181141 0)
(0.439241 -0.000198928 0)
(0.43936 -0.0002263 0)
(0.439496 -0.000268434 0)
(0.439658 -0.000330175 0)
(0.439857 -0.000419153 0)
(0.44011 -0.000543725 0)
(0.440438 -0.000716504 0)
(0.440869 -0.000953193 0)
(0.44144 -0.00127676 0)
(0.442204 -0.00171722 0)
(0.443228 -0.00231707 0)
(0.444605 -0.00313271 0)
(0.446463 -0.00424214 0)
(0.44897 -0.00574936 0)
(0.452354 -0.00779562 0)
(0.456922 -0.0105678 0)
(0.463081 -0.0143137 0)
(0.471373 -0.0193517 0)
(0.482509 -0.0260839 0)
(0.497416 -0.0349907 0)
(0.517277 -0.0466093 0)
(0.543585 -0.0614561 0)
(0.578159 -0.079881 0)
(0.623121 -0.101791 0)
(0.680773 -0.126231 0)
(0.753361 -0.150724 0)
(0.841753 -0.170513 0)
(0.946179 -0.178888 0)
(0.576341 -0.000429182 0)
(0.57677 -0.000966973 0)
(0.576947 -0.00111446 0)
(0.576668 -0.0010869 0)
(0.576484 -0.00102479 0)
(0.576495 -0.000930829 0)
(0.576576 -0.000810321 0)
(0.576663 -0.000691753 0)
(0.576753 -0.000598805 0)
(0.576861 -0.000527896 0)
(0.576981 -0.000467321 0)
(0.5771 -0.000407584 0)
(0.577206 -0.000352515 0)
(0.577298 -0.000306746 0)
(0.57738 -0.000276873 0)
(0.57746 -0.000261355 0)
(0.577542 -0.000259661 0)
(0.577627 -0.00026727 0)
(0.577717 -0.000284646 0)
(0.577814 -0.000311682 0)
(0.577918 -0.000353729 0)
(0.578035 -0.00041564 0)
(0.578172 -0.00050708 0)
(0.578337 -0.000637362 0)
(0.578545 -0.000821532 0)
(0.578812 -0.00107635 0)
(0.579161 -0.00142742 0)
(0.579622 -0.00190651 0)
(0.580235 -0.00255993 0)
(0.581056 -0.00344782 0)
(0.582156 -0.00465486 0)
(0.583636 -0.00629265 0)
(0.585628 -0.00851475 0)
(0.588312 -0.0115239 0)
(0.59193 -0.0155932 0)
(0.596807 -0.0210794 0)
(0.603378 -0.0284493 0)
(0.612231 -0.0382935 0)
(0.62416 -0.0513416 0)
(0.640243 -0.0684462 0)
(0.661947 -0.0905199 0)
(0.691272 -0.118376 0)
(0.730909 -0.152383 0)
(0.784414 -0.191847 0)
(0.856296 -0.233809 0)
(0.950937 -0.272014 0)
(1.07642 -0.294861 0)
(0.696474 -0.000263099 0)
(0.696915 -0.000664374 0)
(0.697143 -0.000846861 0)
(0.696843 -0.000892757 0)
(0.69655 -0.000897323 0)
(0.696429 -0.00086644 0)
(0.696381 -0.00079684 0)
(0.696339 -0.000714268 0)
(0.696308 -0.000642801 0)
(0.696309 -0.000587097 0)
(0.696344 -0.000535955 0)
(0.696393 -0.000482319 0)
(0.69644 -0.000426945 0)
(0.696478 -0.00037884 0)
(0.696511 -0.000343966 0)
(0.696545 -0.000326259 0)
(0.696585 -0.00032369 0)
(0.696634 -0.000334706 0)
(0.696689 -0.000357061 0)
(0.696749 -0.000392673 0)
(0.696814 -0.000444957 0)
(0.696886 -0.000521907 0)
(0.696967 -0.000632822 0)
(0.697063 -0.000791701 0)
(0.69718 -0.00101479 0)
(0.69733 -0.00132522 0)
(0.697525 -0.00175201 0)
(0.697781 -0.00233621 0)
(0.698119 -0.00313175 0)
(0.698571 -0.00421378 0)
(0.699173 -0.00568249 0)
(0.699981 -0.00767533 0)
(0.701066 -0.0103758 0)
(0.702527 -0.0140324 0)
(0.704498 -0.0189755 0)
(0.707164 -0.0256461 0)
(0.710787 -0.034624 0)
(0.715738 -0.046667 0)
(0.722563 -0.062748 0)
(0.732085 -0.0840897 0)
(0.745587 -0.112177 0)
(0.765114 -0.148702 0)
(0.793934 -0.195341 0)
(0.837352 -0.253171 0)
(0.903066 -0.320894 0)
(1.00288 -0.392706 0)
(1.1516 -0.44498 0)
(0.796562 -0.000171439 0)
(0.797005 -0.000456856 0)
(0.797291 -0.000618342 0)
(0.797037 -0.000683559 0)
(0.796727 -0.000715744 0)
(0.796561 -0.0007191 0)
(0.796456 -0.000686904 0)
(0.796341 -0.000636892 0)
(0.796226 -0.000590706 0)
(0.796145 -0.000554807 0)
(0.796106 -0.000520528 0)
(0.796092 -0.000480567 0)
(0.79608 -0.000435289 0)
(0.79606 -0.000392953 0)
(0.796036 -0.000361066 0)
(0.796015 -0.000344787 0)
(0.796004 -0.000343971 0)
(0.796003 -0.000357552 0)
(0.796011 -0.000383766 0)
(0.796023 -0.000424035 0)
(0.796036 -0.000481908 0)
(0.796048 -0.000565126 0)
(0.796057 -0.000683829 0)
(0.796063 -0.000852544 0)
(0.796068 -0.00108917 0)
(0.796072 -0.00141811 0)
(0.796077 -0.00187079 0)
(0.796081 -0.00249045 0)
(0.796086 -0.00333471 0)
(0.79609 -0.00448276 0)
(0.796093 -0.00604114 0)
(0.796093 -0.00815519 0)
(0.796089 -0.0110205 0)
(0.796082 -0.0149021 0)
(0.796077 -0.020156 0)
(0.796086 -0.027262 0)
(0.796143 -0.0368643 0)
(0.796323 -0.049828 0)
(0.796792 -0.0673153 0)
(0.797898 -0.0908902 0)
(0.800361 -0.122665 0)
(0.805659 -0.165507 0)
(0.816748 -0.223303 0)
(0.83984 -0.30125 0)
(0.885853 -0.405347 0)
(0.979819 -0.538361 0)
(1.1213 -0.659831 0)
(0.876621 -0.000113187 0)
(0.877056 -0.0003107 0)
(0.877381 -0.00043702 0)
(0.877174 -0.000498416 0)
(0.876877 -0.00053646 0)
(0.876706 -0.000552931 0)
(0.876587 -0.000541224 0)
(0.876444 -0.000512076 0)
(0.876286 -0.000484034 0)
(0.876157 -0.000462908 0)
(0.876072 -0.00044316 0)
(0.876014 -0.000417022 0)
(0.875959 -0.000384973 0)
(0.875895 -0.000352503 0)
(0.875824 -0.000327876 0)
(0.875755 -0.000315469 0)
(0.875696 -0.000317272 0)
(0.875648 -0.00033198 0)
(0.875608 -0.0003592 0)
(0.875571 -0.000399239 0)
(0.875531 -0.000456061 0)
(0.87548 -0.000535754 0)
(0.875415 -0.000648578 0)
(0.87533 -0.000807287 0)
(0.875218 -0.00102967 0)
(0.875073 -0.00133794 0)
(0.874883 -0.0017626 0)
(0.874633 -0.00234348 0)
(0.874298 -0.00313549 0)
(0.87385 -0.0042121 0)
(0.873245 -0.00567416 0)
(0.872429 -0.00765751 0)
(0.871324 -0.0103476 0)
(0.869832 -0.0139948 0)
(0.867819 -0.0189404 0)
(0.865115 -0.0256476 0)
(0.861496 -0.0347503 0)
(0.85669 -0.0471191 0)
(0.850368 -0.063963 0)
(0.842174 -0.0869854 0)
(0.831782 -0.118636 0)
(0.819066 -0.162546 0)
(0.804445 -0.22431 0)
(0.790334 -0.312937 0)
(0.783484 -0.443244 0)
(0.810195 -0.630307 0)
(0.828914 -0.815711 0)
(0.93666 -7.2415e-05 0)
(0.937084 -0.000201743 0)
(0.937431 -0.000290651 0)
(0.937259 -0.000338519 0)
(0.936977 -0.000370746 0)
(0.936813 -0.000388586 0)
(0.936696 -0.000385724 0)
(0.936546 -0.000369375 0)
(0.936371 -0.000352761 0)
(0.936217 -0.000341268 0)
(0.936108 -0.000330699 0)
(0.936027 -0.000315497 0)
(0.935947 -0.000294862 0)
(0.935855 -0.000273225 0)
(0.935752 -0.000256451 0)
(0.935649 -0.000248865 0)
(0.935554 -0.000252013 0)
(0.935469 -0.000265697 0)
(0.935391 -0.000289367 0)
(0.935314 -0.000323734 0)
(0.935227 -0.000371484 0)
(0.935123 -0.000437876 0)
(0.934993 -0.000530726 0)
(0.934827 -0.000660818 0)
(0.934614 -0.000842237 0)
(0.934338 -0.00109357 0)
(0.933977 -0.0014393 0)
(0.933501 -0.00191237 0)
(0.932869 -0.00255711 0)
(0.932022 -0.00343383 0)
(0.930884 -0.00462435 0)
(0.92935 -0.0062401 0)
(0.927277 -0.00843261 0)
(0.924474 -0.0114085 0)
(0.920685 -0.01545 0)
(0.915565 -0.0209445 0)
(0.908649 -0.0284272 0)
(0.899318 -0.0386444 0)
(0.886739 -0.0526496 0)
(0.869793 -0.0719528 0)
(0.84696 -0.0987638 0)
(0.816118 -0.13639 0)
(0.774121 -0.189953 0)
(0.71608 -0.267662 0)
(0.632827 -0.38276 0)
(0.503238 -0.540687 0)
(0.215043 -0.578591 0)
(0.976684 -4.05956e-05 0)
(0.9771 -0.00011393 0)
(0.977457 -0.000166668 0)
(0.977306 -0.000196102 0)
(0.977036 -0.000216633 0)
(0.976877 -0.000229352 0)
(0.976766 -0.000229856 0)
(0.976617 -0.000221799 0)
(0.976434 -0.000213032 0)
(0.97627 -0.000207126 0)
(0.976149 -0.0002019 0)
(0.976057 -0.00019403 0)
(0.975966 -0.000182879 0)
(0.975859 -0.000170943 0)
(0.975739 -0.000161791 0)
(0.975615 -0.000158138 0)
(0.975498 -0.000161103 0)
(0.975389 -0.000170721 0)
(0.975286 -0.000186795 0)
(0.97518 -0.000209876 0)
(0.975061 -0.000241743 0)
(0.974919 -0.000285784 0)
(0.974742 -0.000347061 0)
(0.974518 -0.000432542 0)
(0.97423 -0.000551407 0)
(0.973856 -0.000715754 0)
(0.973369 -0.000941595 0)
(0.972727 -0.00125041 0)
(0.971874 -0.00167117 0)
(0.970733 -0.00224324 0)
(0.969201 -0.00302011 0)
(0.967134 -0.00407464 0)
(0.964343 -0.00550618 0)
(0.960568 -0.00745054 0)
(0.955456 -0.0100941 0)
(0.948529 -0.0136937 0)
(0.939136 -0.0186066 0)
(0.926385 -0.0253336 0)
(0.909048 -0.0345847 0)
(0.885426 -0.0473773 0)
(0.85313 -0.065183 0)
(0.808767 -0.0901373 0)
(0.747389 -0.12531 0)
(0.66177 -0.174912 0)
(0.540264 -0.243049 0)
(0.36652 -0.319694 0)
(0.0937152 -0.304795 0)
(0.996695 -1.31359e-05 0)
(0.997107 -3.66493e-05 0)
(0.997469 -5.3948e-05 0)
(0.997328 -6.37284e-05 0)
(0.997063 -7.04882e-05 0)
(0.996907 -7.4901e-05 0)
(0.9968 -7.55575e-05 0)
(0.996651 -7.34021e-05 0)
(0.996467 -7.06891e-05 0)
(0.996299 -6.85165e-05 1.29774e-34)
(0.996173 -6.64467e-05 0)
(0.996077 -6.37291e-05 0)
(0.995981 -6.03458e-05 0)
(0.995868 -5.70656e-05 0)
(0.99574 -5.48548e-05 0)
(0.995607 -5.4378e-05 1.2696e-34)
(0.99548 -5.58782e-05 0)
(0.99536 -5.93727e-05 0)
(0.995244 -6.49339e-05 0)
(0.995124 -7.29106e-05 0)
(0.994989 -8.40742e-05 0)
(0.994827 -9.96571e-05 0)
(0.994626 -0.000121423 0)
(0.99437 -0.000151734 -1.23202e-34)
(0.994042 -0.000193717 0)
(0.993618 -0.000251513 0)
(0.993064 -0.00033065 0)
(0.992334 -0.000438577 0)
(0.991364 -0.000585372 0)
(0.990067 -0.000784732 0)
(0.988325 -0.00105527 0)
(0.985976 -0.00142237 0)
(0.982803 -0.00192062 0)
(0.978509 -0.0025974 0)
(0.972692 -0.00351779 0)
(0.964801 -0.00477184 0)
(0.954082 -0.00648479 0)
(0.939498 -0.00883296 0)
(0.91961 -0.0120657 0)
(0.892417 -0.0165397 0)
(0.855107 -0.0227644 0)
(0.803728 -0.0314624 -1.48071e-34)
(0.732701 -0.0436238 0)
(0.634413 -0.0604598 0)
(0.49831 -0.0826417 0)
(0.31571 -0.104776 0)
(0.0672759 -0.0923589 0)
(0.996695 1.34568e-05 0)
(0.997107 3.71902e-05 0)
(0.997469 5.52108e-05 0)
(0.997328 6.56742e-05 0)
(0.997063 7.32475e-05 0)
(0.996907 7.79359e-05 0)
(0.996799 7.78626e-05 0)
(0.996651 7.47342e-05 0)
(0.996467 7.20487e-05 0)
(0.996299 7.12056e-05 -1.29774e-34)
(0.996174 7.09049e-05 0)
(0.996077 6.91353e-05 0)
(0.99598 6.52474e-05 0)
(0.995867 6.01974e-05 0)
(0.995739 5.57546e-05 0)
(0.995607 5.34288e-05 -1.2696e-34)
(0.995479 5.39712e-05 0)
(0.99536 5.73929e-05 0)
(0.995244 6.34103e-05 0)
(0.995124 7.18437e-05 0)
(0.994989 8.30488e-05 0)
(0.994827 9.8019e-05 0)
(0.994625 0.000118532 0)
(0.994369 0.000147084 1.23202e-34)
(0.994041 0.000187014 0)
(0.993617 0.000242627 0)
(0.993063 0.000319565 0)
(0.992332 0.000425294 0)
(0.991362 0.000569859 0)
(0.990065 0.000766864 0)
(0.988322 0.00103484 0)
(0.985973 0.00139908 0)
(0.9828 0.0018941 0)
(0.978506 0.00256726 0)
(0.972688 0.00348357 0)
(0.964796 0.004733 0)
(0.954077 0.00644068 0)
(0.939491 0.00878273 0)
(0.919603 0.0120084 0)
(0.892408 0.0164744 0)
(0.855098 0.0226902 0)
(0.803717 0.0313787 1.48076e-34)
(0.73269 0.0435299 0)
(0.634404 0.0603593 0)
(0.49833 0.0825616 0)
(0.315722 0.104729 0)
(0.067278 0.0922967 0)
(0.976684 4.09405e-05 0)
(0.9771 0.000114398 0)
(0.977458 0.000167842 0)
(0.977307 0.000198007 0)
(0.977036 0.000219302 0)
(0.976876 0.000232255 0)
(0.976764 0.000232106 0)
(0.976616 0.000223267 0)
(0.976435 0.000214669 0)
(0.976272 0.000210034 0)
(0.976151 0.000206309 0)
(0.976057 0.000199094 0)
(0.975964 0.000187284 0)
(0.975856 0.000173677 0)
(0.975736 0.000162577 0)
(0.975614 0.000157415 0)
(0.975497 0.00015967 0)
(0.975389 0.000169292 0)
(0.975287 0.000185726 0)
(0.97518 0.000209068 0)
(0.975061 0.000240764 0)
(0.974918 0.000284052 0)
(0.97474 0.000344022 0)
(0.974515 0.000427793 0)
(0.974226 0.000544723 0)
(0.973853 0.000707051 0)
(0.973365 0.000930863 0)
(0.972723 0.00123763 0)
(0.971869 0.00165629 0)
(0.970728 0.00222611 0)
(0.969194 0.00300051 0)
(0.967127 0.00405228 0)
(0.964334 0.00548074 0)
(0.960557 0.00742166 0)
(0.955444 0.0100613 0)
(0.948515 0.0136567 0)
(0.93912 0.0185647 0)
(0.926366 0.0252863 0)
(0.909028 0.0345312 0)
(0.885403 0.0473168 0)
(0.853104 0.0651152 0)
(0.80874 0.0900605 0)
(0.747361 0.125228 0)
(0.661773 0.17483 0)
(0.540278 0.242977 0)
(0.366517 0.31964 0)
(0.0937452 0.304744 0)
(0.93666 7.27286e-05 0)
(0.937085 0.000202332 0)
(0.937431 0.000292041 0)
(0.937259 0.000340395 0)
(0.936977 0.000373129 0)
(0.936811 0.000391183 0)
(0.936693 0.000387949 0)
(0.936544 0.000371195 0)
(0.936372 0.000354856 0)
(0.93622 0.0003443 0)
(0.93611 0.000334671 0)
(0.936027 0.000319669 0)
(0.935944 0.000298314 0)
(0.935851 0.000275361 0)
(0.935748 0.000257234 0)
(0.935647 0.000248721 0)
(0.935553 0.000251491 0)
(0.93547 0.00026521 0)
(0.935393 0.000288994 0)
(0.935314 0.000323261 0)
(0.935227 0.000370498 0)
(0.935121 0.000435934 0)
(0.93499 0.000527453 0)
(0.934823 0.000655974 0)
(0.934609 0.000835699 0)
(0.934332 0.0010853 0)
(0.93397 0.00142929 0)
(0.933494 0.00190056 0)
(0.93286 0.00254339 0)
(0.932013 0.00341804 0)
(0.930873 0.00460626 0)
(0.929337 0.00621945 0)
(0.927262 0.0084091 0)
(0.924457 0.0113818 0)
(0.920666 0.0154198 0)
(0.915542 0.0209105 0)
(0.908624 0.028389 0)
(0.899289 0.0386017 0)
(0.886706 0.0526017 0)
(0.869757 0.0718999 0)
(0.84692 0.0987048 0)
(0.816078 0.136327 0)
(0.774092 0.189885 0)
(0.716073 0.267608 0)
(0.632855 0.382698 0)
(0.50326 0.540668 0)
(0.215064 0.578586 0)
(0.876621 0.000113558 0)
(0.877056 0.0003113 0)
(0.877381 0.000438295 0)
(0.877174 0.0005003 0)
(0.876877 0.000538558 0)
(0.876703 0.000555261 0)
(0.876583 0.000543297 0)
(0.876442 0.000514269 0)
(0.876288 0.000486561 0)
(0.876161 0.000466093 0)
(0.876075 0.000446423 0)
(0.876014 0.000420058 0)
(0.875955 0.000387094 0)
(0.875889 0.000353956 0)
(0.875818 0.000328676 0)
(0.875752 0.00031618 0)
(0.875695 0.000317901 0)
(0.875649 0.000332677 0)
(0.87561 0.000359557 0)
(0.875572 0.000399091 0)
(0.875529 0.000454911 0)
(0.875477 0.000533538 0)
(0.87541 0.000644998 0)
(0.875323 0.000802469 0)
(0.875211 0.00102344 0)
(0.875065 0.00133046 0)
(0.874874 0.00175366 0)
(0.874622 0.00233313 0)
(0.874287 0.00312342 0)
(0.873837 0.00419827 0)
(0.87323 0.00565818 0)
(0.872411 0.0076393 0)
(0.871304 0.0103267 0)
(0.869808 0.0139712 0)
(0.867793 0.0189137 0)
(0.865084 0.0256178 0)
(0.861462 0.0347171 0)
(0.856651 0.0470823 0)
(0.850326 0.0639228 0)
(0.842128 0.0869418 0)
(0.831733 0.11859 0)
(0.819017 0.162497 0)
(0.804418 0.224263 0)
(0.790338 0.312889 0)
(0.783532 0.443227 0)
(0.810274 0.630311 0)
(0.828929 0.815756 0)
(0.796562 0.000171729 0)
(0.797005 0.000457447 0)
(0.797291 0.000619506 0)
(0.797037 0.000684875 0)
(0.796726 0.000717493 0)
(0.796558 0.000721189 0)
(0.796451 0.00068977 0)
(0.796338 0.000640071 0)
(0.796228 0.000594222 0)
(0.796149 0.000557837 0)
(0.796109 0.000523039 0)
(0.79609 0.000482164 0)
(0.796074 0.000436649 0)
(0.796053 0.000394091 0)
(0.79603 0.000362711 0)
(0.796012 0.000346576 0)
(0.796003 0.000346039 0)
(0.796004 0.000359142 0)
(0.796012 0.000384786 0)
(0.796023 0.000423877 0)
(0.796034 0.000480731 0)
(0.796043 0.000562649 0)
(0.79605 0.000680418 0)
(0.796055 0.000848023 0)
(0.796059 0.00108386 0)
(0.796062 0.00141172 0)
(0.796066 0.00186349 0)
(0.796069 0.00248184 0)
(0.796072 0.00332484 0)
(0.796074 0.00447117 0)
(0.796074 0.00602787 0)
(0.796071 0.00813977 0)
(0.796064 0.011003 0)
(0.796053 0.014882 0)
(0.796044 0.0201334 0)
(0.796049 0.0272367 0)
(0.796102 0.0368362 0)
(0.796277 0.049797 0)
(0.796742 0.0672816 0)
(0.797845 0.0908535 0)
(0.800306 0.122626 0)
(0.805609 0.165465 0)
(0.816712 0.223259 0)
(0.839863 0.301193 0)
(0.88593 0.405291 0)
(0.979913 0.538313 0)
(1.12137 0.659802 0)
(0.696474 0.000263272 0)
(0.696916 0.000664394 0)
(0.697143 0.000847189 0)
(0.696843 0.000893314 0)
(0.696549 0.000898397 0)
(0.696425 0.000868199 0)
(0.696376 0.000799945 0)
(0.696336 0.000718224 0)
(0.696309 0.000646724 0)
(0.696312 0.000589902 0)
(0.696345 0.000537455 0)
(0.69639 0.000482861 0)
(0.696434 0.000427675 0)
(0.696471 0.000380214 0)
(0.696505 0.000346415 0)
(0.696542 0.000329241 0)
(0.696585 0.000326701 0)
(0.696634 0.00033698 0)
(0.696689 0.000358249 0)
(0.696748 0.000392532 0)
(0.696811 0.000443682 0)
(0.69688 0.0005196 0)
(0.696959 0.000629851 0)
(0.697054 0.000788084 0)
(0.69717 0.00101072 0)
(0.697319 0.00132049 0)
(0.697512 0.00174663 0)
(0.697766 0.00232984 0)
(0.698102 0.00312433 0)
(0.698551 0.00420496 0)
(0.699151 0.00567223 0)
(0.699955 0.00766329 0)
(0.701037 0.010362 0)
(0.702493 0.0140165 0)
(0.70446 0.0189574 0)
(0.707122 0.0256257 0)
(0.71074 0.0346012 0)
(0.715686 0.0466418 0)
(0.722506 0.06272 0)
(0.732024 0.0840589 0)
(0.745523 0.112141 0)
(0.765051 0.148661 0)
(0.793885 0.195286 0)
(0.837337 0.2531 0)
(0.903111 0.320765 0)
(1.00297 0.392536 0)
(1.15167 0.4448 0)
(0.576341 0.000429247 0)
(0.57677 0.000967154 0)
(0.576947 0.00111455 0)
(0.576668 0.00108711 0)
(0.576483 0.00102474 0)
(0.57649 0.000932163 0)
(0.576571 0.00081309 0)
(0.57666 0.000695909 0)
(0.576754 0.000601994 0)
(0.576863 0.000529661 0)
(0.57698 0.000467233 0)
(0.577095 0.000407452 0)
(0.577199 0.000352774 0)
(0.57729 0.000308769 0)
(0.577375 0.000279644 0)
(0.577457 0.000264972 0)
(0.577541 0.000262556 0)
(0.577627 0.000269489 0)
(0.577717 0.000285311 0)
(0.577812 0.000311405 0)
(0.577914 0.000352237 0)
(0.578029 0.00041377 0)
(0.578163 0.000504581 0)
(0.578327 0.00063489 0)
(0.578534 0.000818589 0)
(0.578799 0.00107335 0)
(0.579147 0.00142371 0)
(0.579606 0.00190238 0)
(0.580217 0.00255472 0)
(0.581034 0.00344184 0)
(0.582132 0.00464746 0)
(0.583608 0.00628421 0)
(0.585596 0.0085046 0)
(0.588276 0.0115124 0)
(0.59189 0.0155798 0)
(0.596761 0.0210646 0)
(0.603327 0.0284325 0)
(0.612175 0.0382752 0)
(0.624099 0.0513216 0)
(0.640176 0.0684243 0)
(0.661874 0.0904961 0)
(0.691197 0.118349 0)
(0.730842 0.152345 0)
(0.784364 0.191791 0)
(0.856275 0.233717 0)
(0.95097 0.271857 0)
(1.0765 0.294657 0)
(0.436128 0.000776156 0)
(0.436603 0.00139998 0)
(0.436887 0.00135106 0)
(0.436832 0.00115123 0)
(0.436915 0.00097584 0)
(0.437148 0.000810609 0)
(0.437405 0.000654347 0)
(0.437637 0.000526402 0)
(0.437844 0.000434691 0)
(0.438034 0.000368391 0)
(0.43821 0.000314189 0)
(0.438365 0.000265598 0)
(0.438501 0.00022482 0)
(0.438619 0.000194723 0)
(0.438727 0.000176717 0)
(0.43883 0.000168432 0)
(0.438929 0.000167582 0)
(0.439029 0.00017181 0)
(0.439131 0.000181543 0)
(0.439238 0.00019812 0)
(0.439355 0.000225239 0)
(0.439489 0.000266874 0)
(0.439649 0.000328867 0)
(0.439847 0.00041767 0)
(0.440099 0.000542515 0)
(0.440425 0.00071497 0)
(0.440854 0.000951647 0)
(0.441424 0.00127457 0)
(0.442185 0.00171471 0)
(0.443207 0.00231363 0)
(0.444581 0.00312872 0)
(0.446436 0.00423706 0)
(0.448939 0.0057436 0)
(0.452319 0.00778865 0)
(0.456883 0.0105601 0)
(0.463038 0.0143047 0)
(0.471325 0.0193423 0)
(0.482457 0.0260736 0)
(0.497358 0.0349808 0)
(0.517215 0.0465996 0)
(0.543519 0.0614488 0)
(0.578091 0.0798771 0)
(0.62306 0.101791 0)
(0.680732 0.126227 0)
(0.753345 0.150718 0)
(0.841772 0.170493 0)
(0.946251 0.178823 0)
(0.275933 0.00124719 0)
(0.276851 0.00169854 0)
(0.277642 0.00126538 0)
(0.278062 0.000877839 0)
(0.278476 0.000639806 0)
(0.278893 0.000471447 0)
(0.279248 0.000344988 0)
(0.279532 0.000258026 0)
(0.279762 0.000202011 0)
(0.279955 0.000164525 0)
(0.28012 0.000135353 0)
(0.280259 0.000111952 0)
(0.280378 9.41248e-05 0)
(0.280482 8.2714e-05 0)
(0.280575 7.60264e-05 0)
(0.280663 7.30088e-05 0)
(0.280746 7.19391e-05 0)
(0.280829 7.3254e-05 0)
(0.280914 7.71079e-05 0)
(0.281004 8.53115e-05 0)
(0.281104 9.88886e-05 0)
(0.281221 0.00012016 0)
(0.281363 0.000150861 0)
(0.281542 0.000194419 0)
(0.28177 0.000254443 0)
(0.28207 0.000337067 0)
(0.282465 0.000449738 0)
(0.282992 0.000603787 0)
(0.283698 0.000813722 0)
(0.284649 0.00110042 0)
(0.285933 0.00149135 0)
(0.28767 0.00202503 0)
(0.290021 0.0027529 0)
(0.293208 0.00374572 0)
(0.297526 0.00509782 0)
(0.303373 0.00693571 0)
(0.311279 0.00942331 0)
(0.321941 0.0127685 0)
(0.336259 0.0172192 0)
(0.355373 0.0230472 0)
(0.380668 0.0304994 0)
(0.413744 0.0397035 0)
(0.456291 0.0505002 0)
(0.50981 0.06219 0)
(0.57516 0.0732054 0)
(0.651491 0.0807106 0)
(0.735923 0.0810901 0)
(0.0975665 0.00064689 0)
(0.0994905 0.000551005 0)
(0.10064 0.000287284 0)
(0.101257 0.000165311 0)
(0.101676 0.000108785 0)
(0.101988 6.90665e-05 0)
(0.102211 4.17451e-05 0)
(0.102368 2.8473e-05 0)
(0.102487 2.40674e-05 0)
(0.102582 2.07874e-05 0)
(0.102661 1.55013e-05 0)
(0.102726 9.7137e-06 0)
(0.10278 6.18391e-06 0)
(0.102825 5.75084e-06 0)
(0.102865 7.51237e-06 0)
(0.102903 9.69216e-06 0)
(0.102941 1.11504e-05 0)
(0.10298 1.1499e-05 0)
(0.103019 1.12688e-05 0)
(0.103061 1.11817e-05 0)
(0.103109 1.20812e-05 0)
(0.103165 1.4477e-05 0)
(0.103234 1.88061e-05 0)
(0.103322 2.52938e-05 0)
(0.103437 3.4349e-05 0)
(0.103588 4.65067e-05 0)
(0.103789 6.27826e-05 0)
(0.104058 8.46003e-05 0)
(0.104421 0.000114146 0)
(0.10491 0.000154371 0)
(0.105573 0.000209484 0)
(0.106473 0.000285164 0)
(0.107698 0.000389368 0)
(0.109367 0.000532941 0)
(0.111643 0.000730947 0)
(0.114749 0.00100375 0)
(0.11899 0.00137874 0)
(0.124773 0.00189124 0)
(0.132638 0.00258463 0)
(0.143279 0.00350637 0)
(0.157558 0.00469784 0)
(0.176465 0.00617144 0)
(0.201015 0.00787026 0)
(0.232003 0.00960231 0)
(0.26958 0.0109688 0)
(0.312573 0.0112727 0)
(0.358015 0.00976573 0)
(0.399959 -0.00555988 0)
(0.431121 0.000322748 0)
(0.446751 0.00560885 0)
(0.446809 0.00912143 0)
(0.434088 0.0110418 0)
(0.411793 0.0117906 0)
(0.820076 -0.0688713 0)
(0.891689 -0.0456098 0)
(0.941835 -0.0188948 0)
(0.968721 0.00583769 0)
(0.973636 0.0267148 0)
(0.958697 0.0431397 0)
(1.05531 -0.160891 0)
(1.14818 -0.119524 0)
(1.21334 -0.0705755 0)
(1.25229 -0.02339 0)
(1.2696 0.0193204 0)
(1.26764 0.0562405 0)
(1.21072 -0.266316 0)
(1.31061 -0.199445 0)
(1.36449 -0.124512 0)
(1.38791 -0.0543166 0)
(1.39432 0.00837369 0)
(1.38861 0.0631184 0)
(1.30034 -0.378746 0)
(1.36371 -0.261572 0)
(1.35854 -0.15188 0)
(1.33506 -0.0611892 0)
(1.31549 0.0129242 0)
(1.30046 0.076312 0)
(1.22898 -0.485364 0)
(1.14795 -0.262667 0)
(1.02949 -0.111937 0)
(0.961677 -0.0185275 0)
(0.94175 0.0418049 0)
(0.947894 0.0915721 0)
(0.751498 -0.408957 0)
(0.467645 -0.0923848 0)
(0.320333 0.00749208 0)
(0.313284 0.0255094 0)
(0.347335 0.0321673 0)
(0.387962 0.0634957 0)
(0.751473 0.408984 0)
(0.467594 0.0923717 0)
(0.320288 -0.00747875 0)
(0.313242 -0.0254821 0)
(0.347283 -0.0321439 0)
(0.387897 -0.0634785 0)
(1.22896 0.485359 0)
(1.14785 0.262675 0)
(1.02939 0.111954 0)
(0.961588 0.0185549 0)
(0.941642 -0.041751 0)
(0.947774 -0.0915212 0)
(1.30037 0.378587 0)
(1.3637 0.261498 0)
(1.35849 0.151892 0)
(1.335 0.0612373 0)
(1.31541 -0.0128652 0)
(1.30035 -0.0762604 0)
(1.21079 0.266126 0)
(1.31067 0.199318 0)
(1.36452 0.124455 0)
(1.38789 0.0543107 0)
(1.39427 -0.00837324 0)
(1.38854 -0.0631069 0)
(1.05543 0.160797 0)
(1.14829 0.11942 0)
(1.2134 0.0704835 0)
(1.2523 0.023316 0)
(1.26957 -0.0193654 0)
(1.26759 -0.0562568 0)
(0.820201 0.0688622 0)
(0.891804 0.045554 0)
(0.941908 0.0188228 0)
(0.968738 -0.00590209 0)
(0.973606 -0.0267508 0)
(0.958635 -0.0431446 0)
(0.400051 0.00557139 0)
(0.431203 -0.000327996 0)
(0.446802 -0.00562062 0)
(0.446818 -0.00913547 0)
(0.434061 -0.011053 0)
(0.411743 -0.0117971 0)
(0.382795 0.0115724 0)
(0.349992 0.0105205 0)
(0.316255 0.00891612 0)
(0.283922 0.00716588 0)
(0.254448 0.00556409 0)
(0.228511 0.00420304 0)
(0.206308 0.00307765 0)
(0.187754 0.00217153 0)
(0.17257 0.00146551 0)
(0.160372 0.000931109 0)
(0.150735 0.000535672 0)
(0.143245 0.000249318 0)
(0.137518 4.73453e-05 0)
(0.133209 -8.98441e-05 0)
(0.130022 -0.000177527 0)
(0.127701 -0.000227541 0)
(0.126034 -0.000249157 0)
(0.124846 -0.000249795 0)
(0.123998 -0.000235513 0)
(0.123378 -0.000211272 0)
(0.122903 -0.000181085 0)
(0.12251 -0.00014809 0)
(0.122153 -0.000114644 0)
(0.121802 -8.24139e-05 0)
(0.121436 -5.24983e-05 0)
(0.121044 -2.5546e-05 0)
(0.12062 -1.86534e-06 0)
(0.120164 1.84751e-05 0)
(0.119677 3.55765e-05 0)
(0.119164 4.96435e-05 0)
(0.118629 6.09485e-05 0)
(0.118078 6.97922e-05 0)
(0.117516 7.64887e-05 0)
(0.116948 8.13418e-05 0)
(0.116379 8.46425e-05 0)
(0.115812 8.66572e-05 0)
(0.115251 8.76334e-05 0)
(0.114698 8.77939e-05 0)
(0.114157 8.73494e-05 0)
(0.113628 8.64949e-05 0)
(0.113112 8.5464e-05 0)
(0.112609 8.4611e-05 0)
(0.112117 8.51224e-05 0)
(0.111635 8.72525e-05 0)
(0.111158 8.91167e-05 0)
(0.110638 0.000114246 0)
(0.109954 0.00024013 0)
(0.926575 0.0546155 0)
(0.880923 0.0607327 0)
(0.826369 0.061782 0)
(0.767614 0.0589726 0)
(0.708517 0.0537722 0)
(0.651896 0.0473383 0)
(0.599681 0.0404835 0)
(0.553037 0.0337856 0)
(0.512448 0.0276202 0)
(0.477878 0.0221804 0)
(0.448951 0.017527 0)
(0.425103 0.013642 0)
(0.405683 0.0104661 0)
(0.390027 0.00791984 0)
(0.377501 0.00591786 0)
(0.367531 0.00437596 0)
(0.359609 0.00321564 0)
(0.353302 0.00236587 0)
(0.348245 0.00176397 0)
(0.344142 0.0013557 0)
(0.340751 0.00109506 0)
(0.337884 0.000943828 0)
(0.335393 0.00087091 0)
(0.333169 0.000851577 0)
(0.331128 0.000866634 0)
(0.329212 0.000901577 0)
(0.327381 0.000945781 0)
(0.325607 0.00099175 0)
(0.323874 0.00103446 0)
(0.322171 0.00107077 0)
(0.320496 0.00109897 0)
(0.318847 0.00111837 0)
(0.317225 0.00112899 0)
(0.315634 0.00113133 0)
(0.314076 0.00112621 0)
(0.312556 0.0011146 0)
(0.311075 0.00109755 0)
(0.309636 0.00107617 0)
(0.308242 0.00105157 0)
(0.306892 0.00102491 0)
(0.305588 0.000997479 0)
(0.304328 0.000970858 0)
(0.30311 0.000948009 0)
(0.301936 0.000931902 0)
(0.300795 0.000934652 0)
(0.299679 0.000963624 0)
(0.298335 0.00113091 0)
(1.2476 0.0859657 0)
(1.21165 0.106699 0)
(1.16351 0.117895 0)
(1.10738 0.120872 0)
(1.04682 0.117605 0)
(0.984759 0.109894 0)
(0.923805 0.0993286 0)
(0.866059 0.0873199 0)
(0.812974 0.0749997 0)
(0.765367 0.0631695 0)
(0.723542 0.0523317 0)
(0.687413 0.0427522 0)
(0.656627 0.0345239 0)
(0.630669 0.0276229 0)
(0.608947 0.0219535 0)
(0.590857 0.0173824 0)
(0.575822 0.0137621 0)
(0.563315 0.0109447 0)
(0.552872 0.00879123 0)
(0.544096 0.00717571 0)
(0.536652 0.00598752 0)
(0.530263 0.00513196 0)
(0.524708 0.00452974 0)
(0.519807 0.00411587 0)
(0.515419 0.00383822 0)
(0.511437 0.00365583 0)
(0.507776 0.00353721 0)
(0.504373 0.00345877 0)
(0.501182 0.00340323 0)
(0.498167 0.00335841 0)
(0.495303 0.00331604 0)
(0.492573 0.00327082 0)
(0.489962 0.0032197 0)
(0.487462 0.00316121 0)
(0.485065 0.00309504 0)
(0.482768 0.00302164 0)
(0.480566 0.00294197 0)
(0.478457 0.00285733 0)
(0.476436 0.00276923 0)
(0.474501 0.00267936 0)
(0.472648 0.00258967 0)
(0.470876 0.0025025 0)
(0.469179 0.00242109 0)
(0.467557 0.00234975 0)
(0.466003 0.00229654 0)
(0.464558 0.00226803 0)
(0.4628 0.00233976 0)
(1.37106 0.108993 0)
(1.34229 0.142813 0)
(1.30514 0.163771 0)
(1.26243 0.173791 0)
(1.21564 0.175034 0)
(1.16592 0.169294 0)
(1.11485 0.158368 0)
(1.06411 0.14407 0)
(1.01513 0.12801 0)
(0.969035 0.111489 0)
(0.926572 0.0954715 0)
(0.888179 0.0806136 0)
(0.853993 0.0673 0)
(0.823921 0.0556998 0)
(0.79771 0.0458254 0)
(0.77501 0.0375854 0)
(0.75543 0.0308274 0)
(0.738565 0.0253695 0)
(0.724033 0.0210222 0)
(0.71148 0.0176024 0)
(0.700592 0.014942 0)
(0.691096 0.0128918 0)
(0.682761 0.0113235 0)
(0.675391 0.0101292 0)
(0.668825 0.00922026 0)
(0.662929 0.00852498 0)
(0.657595 0.0079867 0)
(0.652734 0.00756136 0)
(0.648276 0.00721533 0)
(0.644164 0.0069235 0)
(0.64035 0.0066675 0)
(0.636797 0.00643429 0)
(0.633476 0.00621488 0)