/*--------------------------------*- C++ -*----------------------------------*\
| =========                 |                                                 |
| \\      /  F ield         | OpenFOAM: The Open Source CFD Toolbox           |
|  \\    /   O peration     | Version:  2406                                  |
|   \\  /    A nd           | Website:  www.openfoam.com                      |
|    \\/     M anipulation  |                                                 |
\*---------------------------------------------------------------------------*/
FoamFile
{
    version     2.0;
    format      ascii;
    arch        "LSB;label=32;scalar=64";
    class       volScalarField;
    location    "26";
    object      p;
}
// * * * * * * * * * * * * * * * * * * * * * * * * * * * * * * * * * * * * * //

dimensions      [0 2 -2 0 0 0 0];

internalField   nonuniform List<scalar> 
1800
(
2.11476
2.06278
2.00802
1.95303
1.89539
1.83445
1.76936
1.69889
1.62184
1.5103
2.12712
2.06631
2.00759
1.95169
1.89371
1.8325
1.76766
1.6982
1.62154
1.52958
2.13471
2.06953
2.00839
1.95254
1.89522
1.83501
1.77224
1.70711
1.63987
1.57199
2.14093
2.07406
2.01176
1.95663
1.90092
1.84304
1.78405
1.72508
1.6675
1.61387
2.14722
2.07963
2.01699
1.96279
1.90889
1.85368
1.79857
1.74504
1.69444
1.64862
2.15265
2.08492
2.02261
1.96931
1.91695
1.86401
1.81199
1.76233
1.71606
1.67429
2.15599
2.08873
2.02732
1.97469
1.92328
1.87187
1.82187
1.77447
1.73042
1.69037
2.15611
2.09036
2.03035
1.97794
1.92675
1.87604
1.82695
1.78043
1.73703
1.69727
2.15079
2.0892
2.0313
1.9787
1.9271
1.87626
1.82709
1.78031
1.73645
1.69598
2.13802
2.08492
2.03028
1.97772
1.92554
1.87415
1.82434
1.77674
1.73187
1.69031
1.46505
1.46488
1.46779
1.47427
1.48326
1.49354
1.50407
1.51396
1.52254
1.52934
1.53412
1.53678
1.53736
1.53598
1.53285
1.5282
1.52227
1.51531
1.50755
1.4992
1.49042
1.48137
1.47217
1.46293
1.45372
1.44458
1.43558
1.42672
1.41803
1.40951
1.40116
1.39298
1.38496
1.37709
1.36936
1.46536
1.46513
1.46781
1.4737
1.48185
1.49122
1.50088
1.51005
1.51809
1.52455
1.52918
1.53184
1.53256
1.53143
1.52863
1.52435
1.51884
1.5123
1.50496
1.497
1.4886
1.47989
1.47101
1.46204
1.45306
1.44414
1.4353
1.42658
1.418
1.40957
1.40129
1.39316
1.38518
1.37733
1.36961
1.46241
1.46243
1.46536
1.47128
1.47923
1.48825
1.49753
1.50634
1.5141
1.52038
1.52492
1.5276
1.52842
1.52746
1.5249
1.5209
1.5157
1.50949
1.50249
1.49486
1.48677
1.47837
1.46976
1.46104
1.45229
1.44355
1.43488
1.42631
1.41785
1.40951
1.4013
1.39323
1.38529
1.37747
1.36977
1.45485
1.4559
1.45999
1.46692
1.47561
1.48512
1.49467
1.5036
1.51139
1.51764
1.52213
1.52477
1.52557
1.52463
1.52211
1.51821
1.51314
1.5071
1.50027
1.49285
1.48498
1.47679
1.4684
1.45988
1.45132
1.44276
1.43425
1.42582
1.41748
1.40925
1.40113
1.39313
1.38525
1.37748
1.36982
1.44221
1.4454
1.4519
1.4609
1.4712
1.48186
1.49216
1.50151
1.50948
1.51575
1.52017
1.52269
1.52335
1.5223
1.51971
1.51578
1.51072
1.50474
1.49802
1.49073
1.48302
1.475
1.46679
1.45847
1.45009
1.44171
1.43337
1.42509
1.41689
1.40878
1.40078
1.39287
1.38507
1.37736
1.36975
1.4237
1.43082
1.44145
1.45376
1.46649
1.47881
1.49014
1.50004
1.50819
1.51442
1.51866
1.52093
1.52134
1.52006
1.51728
1.51323
1.50811
1.50213
1.49547
1.48828
1.48072
1.47287
1.46485
1.45673
1.44855
1.44037
1.43222
1.42411
1.41608
1.40812
1.40025
1.39246
1.38475
1.37713
1.36959
1.39817
1.41199
1.4293
1.44633
1.46218
1.47649
1.48894
1.49931
1.50752
1.51353
1.51742
1.51928
1.51929
1.51766
1.5146
1.51035
1.50513
1.49912
1.4925
1.48541
1.47799
1.47034
1.46252
1.45462
1.44667
1.43871
1.43078
1.42289
1.41504
1.40726
1.39954
1.3919
1.38431
1.3768
1.36935
1.35986
1.38732
1.41621
1.43966
1.45912
1.47549
1.48891
1.49951
1.50748
1.51302
1.51632
1.51759
1.51706
1.51496
1.51155
1.50706
1.50169
1.49564
1.48906
1.48209
1.47484
1.46739
1.45982
1.45216
1.44447
1.43678
1.42909
1.42143
1.41381
1.40623
1.3987
1.39121
1.38377
1.37638
1.36903
1.28644
1.3533
1.40364
1.43529
1.45843
1.47653
1.49047
1.50081
1.50813
1.51285
1.5153
1.51578
1.51455
1.5119
1.50808
1.50331
1.49781
1.49172
1.48521
1.47838
1.47133
1.46412
1.4568
1.44943
1.44203
1.43461
1.4272
1.4198
1.41243
1.40507
1.39774
1.39043
1.38315
1.3759
1.36867
1.19889
1.32965
1.40218
1.4387
1.46292
1.48101
1.49424
1.50347
1.50953
1.513
1.51431
1.51379
1.51176
1.50849
1.50423
1.49919
1.49355
1.48746
1.48104
1.47438
1.46756
1.46061
1.4536
1.44653
1.43943
1.43232
1.4252
1.41808
1.41095
1.40383
1.39671
1.3896
1.38249
1.37538
1.36827
1.35284
1.38828
1.43336
1.45837
1.47609
1.49024
1.50065
1.50758
1.51165
1.51342
1.5133
1.51164
1.50872
1.5048
1.5001
1.49481
1.48907
1.48301
1.47672
1.47026
1.46369
1.45704
1.45033
1.44358
1.43681
1.43
1.42318
1.41634
1.40947
1.40259
1.39568
1.38876
1.38181
1.37485
1.36787
1.44683
1.44804
1.46881
1.48294
1.49359
1.50245
1.50886
1.51266
1.5142
1.51393
1.5122
1.5093
1.50546
1.50091
1.49581
1.49031
1.48453
1.47854
1.47241
1.46619
1.45989
1.45354
1.44715
1.44073
1.43427
1.42777
1.42124
1.41466
1.40805
1.40139
1.39469
1.38795
1.38117
1.37435
1.36749
1.51754
1.50276
1.50566
1.50967
1.5131
1.51606
1.51782
1.51801
1.51674
1.51429
1.51089
1.50675
1.50205
1.49692
1.4915
1.48586
1.48009
1.47422
1.46829
1.46232
1.45631
1.45027
1.44419
1.43808
1.43192
1.42571
1.41945
1.41313
1.40675
1.40031
1.3938
1.38723
1.38059
1.3739
1.36715
1.57098
1.54895
1.54013
1.53539
1.53196
1.52913
1.52621
1.52276
1.5187
1.51413
1.50918
1.50394
1.4985
1.49292
1.48728
1.48159
1.4759
1.4702
1.4645
1.45879
1.45308
1.44733
1.44156
1.43574
1.42986
1.42392
1.4179
1.41181
1.40563
1.39938
1.39304
1.38661
1.38011
1.37353
1.36687
1.61089
1.58518
1.56876
1.55701
1.54764
1.53974
1.53267
1.52597
1.51947
1.51311
1.50687
1.50077
1.4948
1.48895
1.48322
1.47759
1.47204
1.46656
1.46111
1.45569
1.45026
1.4448
1.43931
1.43375
1.42812
1.42242
1.41662
1.41072
1.40472
1.39863
1.39243
1.38613
1.37973
1.37324
1.36666
1.63862
1.6106
1.58924
1.57233
1.55834
1.54648
1.53616
1.52695
1.51859
1.51091
1.50381
1.49718
1.49093
1.48501
1.47934
1.47387
1.46854
1.46332
1.45816
1.45302
1.44787
1.44269
1.43745
1.43214
1.42673
1.42123
1.41561
1.40988
1.40403
1.39807
1.39198
1.38578
1.37947
1.37305
1.36654
1.65515
1.62542
1.60085
1.58043
1.56324
1.54864
1.53614
1.52529
1.51579
1.50738
1.49986
1.49306
1.48683
1.48104
1.47559
1.47039
1.46537
1.46045
1.4556
1.45075
1.44589
1.44096
1.43597
1.43087
1.42566
1.42034
1.41488
1.40929
1.40356
1.3977
1.39171
1.38558
1.37934
1.37297
1.3665
1.66162
1.63051
1.60389
1.5813
1.56219
1.54604
1.53238
1.52079
1.51088
1.50233
1.49487
1.48828
1.48234
1.47691
1.47184
1.46704
1.46239
1.45784
1.45333
1.4488
1.44422
1.43956
1.4348
1.42991
1.42488
1.41972
1.4144
1.40893
1.4033
1.39753
1.3916
1.38554
1.37934
1.37301
1.36657
1.65938
1.62706
1.59911
1.57534
1.55534
1.53866
1.52479
1.51326
1.50363
1.49552
1.4886
1.48258
1.47725
1.4724
1.4679
1.46362
1.45946
1.45535
1.45124
1.44706
1.4428
1.43841
1.43389
1.42921
1.42436
1.41935
1.41416
1.40879
1.40325
1.39755
1.39168
1.38565
1.37949
1.37318
1.36675
1.6526
1.61924
1.59043
1.56609
1.54585
1.52923
1.51569
1.50468
1.4957
1.48831
1.48214
1.47686
1.47223
1.46805
1.46416
1.46044
1.45678
1.45312
1.44939
1.44557
1.4416
1.43748
1.43319
1.4287
1.42402
1.41915
1.41407
1.4088
1.40334
1.39769
1.39186
1.38587
1.37972
1.37343
1.367
1.36176
1.35426
1.34687
1.33956
1.33233
1.32517
1.31806
1.311
1.30398
1.297
1.362
1.3545
1.3471
1.33978
1.33254
1.32536
1.31824
1.31116
1.30413
1.29714
1.36218
1.35468
1.34728
1.33996
1.3327
1.32552
1.31838
1.3113
1.30426
1.29726
1.36225
1.35477
1.34738
1.34006
1.33282
1.32563
1.31849
1.3114
1.30436
1.29735
1.36223
1.35478
1.34742
1.34012
1.33288
1.3257
1.31856
1.31148
1.30443
1.29742
1.36213
1.35473
1.3474
1.34013
1.33291
1.32574
1.31861
1.31152
1.30447
1.29745
1.36196
1.35462
1.34734
1.3401
1.33291
1.32575
1.31864
1.31155
1.3045
1.29747
1.36173
1.35447
1.34724
1.34005
1.33289
1.32576
1.31865
1.31157
1.30451
1.29747
1.36146
1.35428
1.34712
1.33998
1.33285
1.32574
1.31865
1.31158
1.30451
1.29746
1.36117
1.35408
1.34698
1.33989
1.33281
1.32573
1.31865
1.31158
1.30451
1.29745
1.36088
1.35387
1.34684
1.33981
1.33276
1.32571
1.31865
1.31158
1.30451
1.29743
1.3606
1.35367
1.34672
1.33973
1.33273
1.3257
1.31865
1.31159
1.30451
1.29741
1.36035
1.3535
1.3466
1.33967
1.3327
1.32569
1.31866
1.3116
1.30451
1.2974
1.36015
1.35336
1.34652
1.33963
1.33268
1.3257
1.31867
1.31161
1.30452
1.29741
1.36001
1.35328
1.34647
1.33961
1.33269
1.32572
1.3187
1.31165
1.30455
1.29742
1.35993
1.35324
1.34647
1.33963
1.33273
1.32577
1.31875
1.3117
1.3046
1.29746
1.35993
1.35326
1.34651
1.33969
1.33279
1.32584
1.31883
1.31177
1.30467
1.29752
1.36002
1.35337
1.34662
1.3398
1.33291
1.32595
1.31894
1.31187
1.30477
1.29762
1.3602
1.35355
1.34681
1.33998
1.33308
1.32611
1.31909
1.31201
1.3049
1.29774
1.36045
1.3538
1.34704
1.3402
1.33328
1.3263
1.31926
1.31218
1.30505
1.29789
1.29004
1.28312
1.27622
1.26935
1.2625
1.25569
1.2489
1.24216
1.23545
1.2288
1.22222
1.21571
1.20928
1.20296
1.19677
1.19072
1.18483
1.17915
1.17369
1.1685
1.1636
1.15904
1.15487
1.15115
1.14793
1.14531
1.14339
1.14231
1.14226
1.14345
1.14605
1.15012
1.15533
1.16066
1.16432
1.29018
1.28325
1.27636
1.26949
1.26265
1.25585
1.24908
1.24236
1.23569
1.22908
1.22254
1.21608
1.20973
1.20349
1.19739
1.19145
1.1857
1.18016
1.17489
1.1699
1.16524
1.16097
1.15712
1.15376
1.15095
1.14877
1.1473
1.14664
1.14692
1.14825
1.15075
1.1544
1.15901
1.16398
1.16789
1.2903
1.28337
1.27647
1.2696
1.26277
1.25598
1.24923
1.24253
1.23588
1.2293
1.2228
1.21639
1.21009
1.20391
1.19789
1.19204
1.1864
1.181
1.17587
1.17107
1.16662
1.16259
1.15903
1.156
1.15355
1.15175
1.15066
1.15036
1.15091
1.15239
1.15485
1.15834
1.1629
1.16848
1.17375
1.29038
1.28345
1.27655
1.26968
1.26285
1.25605
1.2493
1.2426
1.23597
1.22939
1.2229
1.21651
1.21023
1.20408
1.19809
1.19229
1.1867
1.18136
1.1763
1.17159
1.16725
1.16335
1.15994
1.15708
1.15483
1.15323
1.15235
1.15223
1.15292
1.15449
1.157
1.16062
1.1657
1.17281
1.18034
1.29044
1.28349
1.27658
1.2697
1.26286
1.25606
1.2493
1.24259
1.23593
1.22935
1.22285
1.21644
1.21014
1.20398
1.19797
1.19215
1.18654
1.18118
1.17611
1.17138
1.16703
1.16312
1.15971
1.15685
1.15459
1.153
1.1521
1.15196
1.15261
1.15413
1.15665
1.16046
1.16632
1.1755
1.18601
1.29047
1.28351
1.27658
1.26968
1.26282
1.25599
1.2492
1.24246
1.23578
1.22916
1.22261
1.21615
1.2098
1.20357
1.19749
1.19159
1.18588
1.18042
1.17523
1.17036
1.16586
1.16178
1.15817
1.15509
1.1526
1.15073
1.14953
1.14905
1.14934
1.1505
1.15272
1.15648
1.16299
1.17458
1.18865
1.29047
1.28349
1.27654
1.26962
1.26272
1.25586
1.24903
1.24224
1.2355
1.22881
1.22219
1.21565
1.2092
1.20286
1.19665
1.1906
1.18472
1.17905
1.17363
1.16849
1.16368
1.15924
1.15522
1.15167
1.14862
1.14613
1.14422
1.14293
1.14233
1.14252
1.14377
1.1467
1.15329
1.16727
1.18508
1.29045
1.28345
1.27647
1.26952
1.26258
1.25566
1.24878
1.24193
1.23511
1.22834
1.22161
1.21495
1.20837
1.20187
1.19547
1.1892
1.18307
1.1771
1.17133
1.16579
1.16051
1.15552
1.15085
1.14654
1.14261
1.13907
1.13593
1.13319
1.13088
1.12909
1.12807
1.12867
1.13374
1.15003
1.17349
1.29042
1.2834
1.27638
1.26938
1.26239
1.25542
1.24847
1.24153
1.23463
1.22774
1.2209
1.21409
1.20734
1.20064
1.19401
1.18746
1.181
1.17466
1.16844
1.16237
1.15647
1.15074
1.1452
1.13986
1.13469
1.12966
1.1247
1.11973
1.11462
1.10932
1.10389
1.09903
1.09848
1.11509
1.1572
1.29038
1.28333
1.27628
1.26923
1.26218
1.25515
1.24812
1.24109
1.23408
1.22708
1.22009
1.21312
1.20617
1.19924
1.19234
1.18547
1.17864
1.17185
1.16511
1.15842
1.15177
1.14516
1.13857
1.13195
1.12524
1.11832
1.11099
1.10298
1.09387
1.08308
1.06987
1.05348
1.0353
1.02804
1.06945
1.29034
1.28325
1.27616
1.26907
1.26196
1.25486
1.24775
1.24063
1.23351
1.22638
1.21924
1.2121
1.20494
1.19777
1.19058
1.18337
1.17613
1.16886
1.16155
1.15418
1.14672
1.13914
1.13137
1.12334
1.11489
1.10581
1.09576
1.08418
1.07021
1.05238
1.02812
0.992816
0.93832
0.849719
0.689859
1.29031
1.28319
1.27605
1.26891
1.26175
1.25458
1.24739
1.24018
1.23296
1.2257
1.21842
1.2111
1.20373
1.19632
1.18884
1.18129
1.17365
1.16589
1.158
1.14993
1.14165
1.13307
1.12411
1.11462
1.1044
1.09315
1.08038
1.06536
1.04689
1.02305
0.990604
0.944109
0.874846
0.770223
0.621192
1.29028
1.28313
1.27596
1.26877
1.26156
1.25433
1.24707
1.23978
1.23245
1.22508
1.21766
1.21018
1.20263
1.19499
1.18724
1.17937
1.17135
1.16314
1.1547
1.14598
1.13691
1.12739
1.11729
1.10644
1.09458
1.08134
1.06619
1.04829
1.02643
0.998695
0.962229
0.912815
0.844825
0.75216
0.633542
1.29026
1.28309
1.27589
1.26867
1.26141
1.25413
1.24681
1.23945
1.23204
1.22457
1.21703
1.20941
1.2017
1.19387
1.18589
1.17775
1.16939
1.16079
1.15188
1.14259
1.13283
1.12249
1.1114
1.09938
1.08612
1.07123
1.05417
1.03412
1.00996
0.980056
0.942141
0.89323
0.829831
0.748807
0.650283
1.29026
1.28307
1.27585
1.2686
1.26131
1.25399
1.24662
1.2392
1.23173
1.22419
1.21657
1.20884
1.20101
1.19303
1.18488
1.17652
1.16791
1.159
1.14972
1.13998
1.12968
1.11869
1.10683
1.09387
1.07953
1.0634
1.04495
1.02343
0.997868
0.966929
0.928897
0.881684
0.823106
0.751574
0.66786
1.29029
1.28309
1.27585
1.26857
1.26126
1.25391
1.24652
1.23907
1.23155
1.22396
1.21628
1.2085
1.20058
1.19251
1.18424
1.17575
1.16698
1.15786
1.14833
1.13829
1.12763
1.1162
1.10381
1.09023
1.07516
1.0582
1.03885
1.01644
0.990145
0.958884
0.921367
0.876148
0.821862
0.757728
0.684523
1.29035
1.28313
1.27588
1.2686
1.26128
1.25391
1.2465
1.23904
1.2315
1.2239
1.21619
1.20838
1.20043
1.19232
1.18401
1.17546
1.16662
1.15742
1.14778
1.13761
1.12677
1.11513
1.10248
1.08859
1.07315
1.05578
1.03599
1.01319
0.986643
0.955464
0.918644
0.875146
0.82406
0.764965
0.698413
1.29043
1.28321
1.27596
1.26867
1.26135
1.25398
1.24657
1.23911
1.23158
1.22398
1.21629
1.20849
1.20056
1.19247
1.18418
1.17565
1.16684
1.15767
1.14807
1.13793
1.12713
1.11552
1.10291
1.08904
1.07362
1.05626
1.03651
1.01379
0.987414
0.956598
0.920491
0.878236
0.82915
0.772919
0.709932
1.29055
1.28333
1.27608
1.26879
1.26147
1.25412
1.24673
1.23928
1.23178
1.22422
1.21657
1.20882
1.20094
1.19293
1.18473
1.17631
1.16762
1.1586
1.14917
1.13925
1.1287
1.11739
1.10511
1.09164
1.07668
1.05984
1.04066
1.01858
0.992914
0.962886
0.92765
0.88638
0.838398
0.783377
0.721572
1.29069
1.28347
1.27621
1.26893
1.26163
1.25429
1.24691
1.2395
1.23203
1.22451
1.21691
1.20923
1.20144
1.19352
1.18544
1.17716
1.16864
1.15983
1.15066
1.14103
1.13085
1.11996
1.1082
1.09533
1.08106
1.06502
1.04676
1.02568
1.00107
0.972133
0.937937
0.897567
0.850234
0.795495
0.7335
0.295258
0.263126
0.27321
0.254302
0.226364
0.194702
0.158472
0.117898
0.073942
0.0265544
0.416268
0.333488
0.303405
0.271765
0.236629
0.199939
0.160746
0.118613
0.0735832
0.0260742
0.490967
0.39736
0.342477
0.296897
0.253059
0.210094
0.166608
0.12165
0.0746618
0.0261439
0.539323
0.449305
0.382802
0.326679
0.274711
0.225088
0.176348
0.12739
0.0772988
0.0265086
0.576619
0.493014
0.42167
0.358214
0.299175
0.243028
0.188602
0.134939
0.0809821
0.0270962
0.60538
0.527511
0.454856
0.386934
0.322507
0.260798
0.201133
0.142861
0.0849683
0.0277991
0.626363
0.552574
0.479988
0.409575
0.341463
0.275585
0.211767
0.149684
0.0884401
0.028428
0.641466
0.569829
0.497267
0.42527
0.354658
0.285899
0.219167
0.154392
0.0907706
0.0288401
0.654002
0.582455
0.508972
0.435276
0.362603
0.291722
0.223031
0.156556
0.0916148
0.0289324
0.665201
0.592361
0.517122
0.441457
0.366864
0.294308
0.224274
0.156798
0.0914893
0.028816
)
;

boundaryField
{
    inlet
    {
        type            zeroGradient;
    }
    outlet
    {
        type            fixedValue;
        value           uniform 0;
    }
    upperWall
    {
        type            zeroGradient;
    }
    lowerWall
    {
        type            zeroGradient;
    }
    frontAndBack
    {
        type            empty;
    }
}


// ************************************************************************* //
