/*--------------------------------*- C++ -*----------------------------------*\
| =========                 |                                                 |
| \\      /  F ield         | OpenFOAM: The Open Source CFD Toolbox           |
|  \\    /   O peration     | Version:  2406                                  |
|   \\  /    A nd           | Website:  www.openfoam.com                      |
|    \\/     M anipulation  |                                                 |
\*---------------------------------------------------------------------------*/
FoamFile
{
    version     2.0;
    format      ascii;
    arch        "LSB;label=32;scalar=64";
    class       surfaceScalarField;
    location    "26";
    object      phi;
}
// * * * * * * * * * * * * * * * * * * * * * * * * * * * * * * * * * * * * * //

dimensions      [0 3 -1 0 0 0 0];

oriented        oriented;

internalField   nonuniform List<scalar> 
3480
(
0.0193375
-0.000337458
0.0196886
-0.000351134
0.0200007
-0.000312058
0.0203479
-0.000347188
0.0207948
-0.0004469
0.021432
-0.000637305
0.0224307
-0.000998701
0.0241316
-0.00170086
0.0274154
-0.00328387
-0.00812218
0.0355375
0.0510028
-0.000340296
0.051274
-0.000622302
0.0517009
-0.000738916
0.0522677
-0.000914032
0.0530257
-0.00120489
0.0540641
-0.00167569
0.0555258
-0.00246053
0.0576355
-0.00381058
0.060606
-0.00625447
-0.0108517
0.0633354
0.0749832
-0.000323465
0.0751143
-0.000753523
0.0754285
-0.00105307
0.0759092
-0.0013948
0.0765729
-0.00186852
0.0774559
-0.00255872
0.0785963
-0.00360102
0.0799893
-0.00520364
0.0814103
-0.0076755
-0.0113858
0.0819444
0.0909729
-0.000296345
0.0909912
-0.000771846
0.0911213
-0.00118323
0.0913649
-0.00163848
0.0917158
-0.00221942
0.0921642
-0.00300714
0.0926728
-0.00410964
0.0931325
-0.00566333
0.0932743
-0.00781732
-0.0106622
0.0925508
0.0989457
-0.000242054
0.098855
-0.000681159
0.0987911
-0.00111937
0.0987599
-0.00160729
0.0987411
-0.0022006
0.0986984
-0.00296452
0.0985621
-0.00397334
0.0982029
-0.00530412
0.0974019
-0.00701624
-0.0090993
0.095839
0.0989076
-0.000149715
0.0987132
-0.000486766
0.0984807
-0.000886795
0.0982094
-0.001336
0.0978685
-0.00185972
0.0974098
-0.0025058
0.0967564
-0.00331996
0.095792
-0.00433969
0.0943567
-0.00558083
-0.00700666
0.0922641
0.0908661
-1.58481e-05
0.0905959
-0.000216585
0.0902572
-0.000548105
0.0898324
-0.00091112
0.0892819
-0.00130917
0.0885545
-0.00177844
0.0875794
-0.00234485
0.0862636
-0.00302386
0.084498
-0.00381516
-0.00468591
0.0821773
0.0748338
0.000150341
0.0745648
5.24497e-05
0.0742277
-0.000210992
0.0737755
-0.000458904
0.0731683
-0.000702002
0.0723619
-0.000972029
0.0713
-0.00128302
0.0699171
-0.00164094
0.0681453
-0.00204333
-0.00247137
0.0659308
0.0508659
0.00028442
0.0507563
0.00016206
0.0505555
-1.02229e-05
0.0502172
-0.000120547
0.0497255
-0.000210336
0.0490555
-0.000302037
0.0481745
-0.000401996
0.0470456
-0.000511993
0.0456336
-0.000631348
-0.000754659
0.0439169
0.0192844
0.0194465
0.0194363
0.0193157
0.0191054
0.0188033
0.0184013
0.0178894
0.017258
0.0165033
-0.000138595
0.000138612
-0.000408369
0.000269806
-0.000664975
0.00025665
-0.00081374
0.000148815
-0.000814376
6.91679e-07
-0.000662694
-0.000151616
-0.000375842
-0.000286775
1.84448e-05
-0.000394198
0.000488904
-0.000470358
0.00100508
-0.000516065
0.0015398
-0.000534605
0.00207045
-0.00053052
0.00257931
-0.000508739
0.00305349
-0.000474065
0.00348444
-0.000430837
0.00386731
-0.000382773
0.00420029
-0.00033289
0.00448389
-0.000283538
0.00472037
-0.000236428
0.00491314
-0.000192739
0.00506634
-0.000153186
0.00518447
-0.000118134
0.00527211
-8.76649e-05
0.00533373
-6.16655e-05
0.00537355
-3.98791e-05
0.00539546
-2.19689e-05
0.00540293
-7.54394e-06
0.00539905
3.79863e-06
0.0053865
1.24644e-05
0.00536758
1.88376e-05
0.00534422
2.32812e-05
0.00531802
2.6123e-05
0.00529029
2.76615e-05
0.00526207
2.81589e-05
2.78483e-05
0.00523417
-0.000298892
0.000437523
-0.000793609
0.000764654
-0.00120132
0.000664492
-0.00135212
0.000299765
-0.00117402
-0.000177244
-0.000664799
-0.000660652
0.000135384
-0.00108675
0.00116501
-0.00142359
0.0023556
-0.00166069
0.00364083
-0.00180102
0.00496164
-0.00185513
0.0062687
-0.00183729
0.00752316
-0.00176291
0.00869636
-0.00164699
0.00976887
-0.00150309
0.0107292
-0.0013429
0.0115725
-0.00117602
0.0122991
-0.00100999
0.0129133
-0.000850451
0.013422
-0.000701362
0.013834
-0.000565268
0.0141595
-0.000443563
0.0144085
-0.000336745
0.0145913
-0.00024464
0.0147179
-0.000166592
0.0147974
-0.000101627
0.0148383
-4.85756e-05
0.0148481
-6.17633e-06
0.0148335
2.68567e-05
0.0148003
5.17807e-05
0.0147536
6.97911e-05
0.0146976
8.19966e-05
0.0146357
8.9411e-05
0.0145708
9.29455e-05
9.34129e-05
0.0145051
-0.000356975
0.000794569
-0.000869687
0.00127748
-0.00118127
0.000976214
-0.00110679
0.000225438
-0.000585072
-0.000698807
0.000364076
-0.00160964
0.00167494
-0.00239743
0.00326115
-0.00300961
0.00503228
-0.00343161
0.00690352
-0.00367205
0.00880092
-0.00375231
0.0106635
-0.00369964
0.0124436
-0.00354284
0.0141064
-0.00330953
0.0156281
-0.00302462
0.0169949
-0.00270952
0.0182009
-0.00238189
0.0192467
-0.00205567
0.0201378
-0.0017414
0.0208831
-0.00144659
0.021494
-0.0011762
0.0219835
-0.00093306
0.0223651
-0.000718329
0.0226523
-0.000531904
0.0228584
-0.00037274
0.0229958
-0.000239156
0.0230762
-0.000129059
0.02311
-4.01344e-05
0.0231067
3.00192e-05
0.0230745
8.37838e-05
0.0230207
0.000123455
0.0229514
0.000151188
0.0228717
0.000168976
0.0227859
0.00017863
0.000181778
0.0226974
-0.000346026
0.0011406
-0.000717704
0.0016493
-0.000728313
0.000986945
-0.000225084
-0.000277673
0.000802895
-0.00172666
0.00229077
-0.00309739
0.00413999
-0.00424652
0.00624331
-0.0051128
0.00849871
-0.00568686
0.0108162
-0.00598942
0.0131207
-0.00605666
0.0153523
-0.0059311
0.0174657
-0.00565599
0.0194282
-0.00527196
0.021219
-0.00481522
0.0228263
-0.00431672
0.0242464
-0.00380189
0.0254817
-0.00329085
0.0265393
-0.00279886
0.0274296
-0.00233685
0.0281656
-0.00191212
0.0287615
-0.00152892
0.0292322
-0.00118909
0.0295929
-0.000892611
0.0298582
-0.000638069
0.0300421
-0.000423084
0.0301576
-0.00024463
0.0302167
-9.93077e-05
0.0302301
1.64496e-05
0.0302076
0.000106221
0.0301574
0.000173488
0.030087
0.000221555
0.0300023
0.000253501
0.0299087
0.000272154
0.000280077
0.0298103
-0.000280558
0.00142124
-0.000347126
0.00171589
0.000165578
0.000474311
0.0013146
-0.00142662
0.00301702
-0.00342901
0.00514317
-0.00522346
0.00755888
-0.00666213
0.010143
-0.00769682
0.0127936
-0.00833733
0.0154285
-0.00862425
0.017984
-0.0086121
0.0204126
-0.00835952
0.0226802
-0.00792349
0.0247646
-0.00735622
0.026653
-0.00670351
0.0283404
-0.00600406
0.0298281
-0.00528946
0.0311219
-0.00458462
0.0322315
-0.00390836
0.0331689
-0.00327416
0.0339478
-0.002691
0.0345831
-0.00216411
0.0350897
-0.00169571
0.0354828
-0.00128572
0.035777
-0.0009323
0.0359863
-0.000632374
0.0361236
-0.000382026
0.0362011
-0.000176835
0.0362296
-1.21367e-05
0.0362189
0.000116782
0.0361778
0.000214535
0.0361137
0.000285536
0.0360332
0.00033393
0.0359417
0.00036355
0.000377895
0.0358438
-0.000130418
0.00155159
0.000339951
0.00124554
0.00166281
-0.000848546
0.00370466
-0.00346846
0.00624411
-0.00596845
0.00908035
-0.00805968
0.0120548
-0.00963653
0.0150493
-0.0106913
0.0179791
-0.0112671
0.0207848
-0.0114299
0.0234261
-0.0112533
0.025877
-0.0108104
0.0281227
-0.0101691
0.0301564
-0.00938985
0.0319779
-0.00852493
0.0335917
-0.00761784
0.0350061
-0.00670377
0.0362318
-0.00581019
0.0372812
-0.00495771
0.038168
-0.00416095
0.0389066
-0.00342948
0.0395112
-0.00276873
0.0399964
-0.00218082
0.0403759
-0.00166528
0.0406633
-0.00121968
0.0408712
-0.00084024
0.0410113
-0.000522195
0.0410946
-0.000260219
0.0411311
-4.86903e-05
0.0411298
0.000118084
0.0410985
0.000245698
0.0410445
0.000339526
0.0409737
0.000404647
0.0408914
0.000445787
0.000467286
0.0408019
0.000214059
0.00133755
0.00161849
-0.000159021
0.00414857
-0.00337874
0.00734411
-0.00666409
0.0108291
-0.00945356
0.0143632
-0.0115938
0.0178012
-0.0130746
0.0210597
-0.0139498
0.0240937
-0.0143011
0.0268821
-0.0142183
0.0294183
-0.0137895
0.0317046
-0.0130967
0.0337491
-0.0122135
0.0355636
-0.0112042
0.0371618
-0.0101231
0.0385588
-0.00901482
0.0397702
-0.00791514
0.0408116
-0.00685155
0.0416983
-0.00584435
0.0424451
-0.00490765
0.043066
-0.0040504
0.0435746
-0.00327731
0.0439836
-0.00258976
0.0443048
-0.0019865
0.0445495
-0.00146436
0.044728
-0.00101876
0.0448499
-0.000644182
0.0449242
-0.000334523
0.0449589
-8.33894e-05
0.0449612
0.000115679
0.0449378
0.000269032
0.0448945
0.000382787
0.0448364
0.000462745
0.0447677
0.000514331
0.000542557
0.0446924
0.00101032
0.000327126
0.00411322
-0.00326214
0.00836212
-0.00762781
0.0128803
-0.0111824
0.0172478
-0.0138212
0.0212902
-0.0156362
0.0249456
-0.0167301
0.028206
-0.0172102
0.0310879
-0.0171831
0.0336187
-0.016749
0.0358293
-0.0160001
0.0377515
-0.0150188
0.0394158
-0.0138779
0.040851
-0.0126395
0.0420838
-0.0113558
0.043138
-0.0100691
0.0440354
-0.00881249
0.044795
-0.00761116
0.0454338
-0.00648312
0.0459666
-0.00544045
0.0464065
-0.00449029
0.0467651
-0.00363582
0.0470524
-0.00287708
0.0472777
-0.00221175
0.047449
-0.0016357
0.0475738
-0.00114358
0.0476588
-0.000729177
0.04771
-0.000385785
0.0477331
-0.000106461
0.047733
0.000115774
0.0477142
0.00028776
0.0476808
0.000416092
0.0476365
0.000507036
0.0475843
0.000566471
0.000599851
0.047527
0.00321833
-0.00289128
0.00936321
-0.00940724
0.0156123
-0.0138771
0.0211901
-0.0167604
0.0259876
-0.0186189
0.0300561
-0.0197049
0.0334823
-0.0201564
0.0363538
-0.0200818
0.0387504
-0.0195798
0.0407425
-0.0187412
0.0423917
-0.0176494
0.043752
-0.0163792
0.0448702
-0.0149961
0.045787
-0.0135563
0.0465369
-0.0121058
0.0471495
-0.0106816
0.0476491
-0.00931212
0.048056
-0.00801808
0.0483867
-0.00681382
0.0486545
-0.00570823
0.04887
-0.00470584
0.0490419
-0.00380768
0.0491769
-0.00301213
0.0492807
-0.00231555
0.0493579
-0.00171285
0.0494122
-0.00119791
0.049447
-0.000764012
0.0494653
-0.000404035
0.0494695
-0.000110731
0.0494622
0.000123118
0.0494454
0.000304562
0.0494211
0.000440382
0.049391
0.000537028
0.0493569
0.000600567
0.000636644
0.0493201
0.0119344
-0.0148258
0.0210027
-0.0184758
0.0277846
-0.0206592
0.0330619
-0.0220378
0.0372176
-0.0227748
0.0404976
-0.0229851
0.043078
-0.0227369
0.0450913
-0.0220952
0.0466422
-0.0211308
0.0478171
-0.0199161
0.0486887
-0.0185211
0.049319
-0.0170096
0.0497606
-0.0154377
0.0500574
-0.0138531
0.0502459
-0.0122943
0.0503556
-0.0107914
0.0504099
-0.00936644
0.0504269
-0.00803509
0.0504201
-0.00680711
0.0503996
-0.00568769
0.0503721
-0.00467833
0.0503421
-0.00377775
0.0503125
-0.00298255
0.0502848
-0.00228782
0.0502595
-0.00168757
0.0502368
-0.00117516
0.0502163
-0.000743507
0.0501976
-0.000385354
0.0501803
-9.34197e-05
0.0501639
0.000139475
0.0501482
0.000320294
0.0501329
0.000455722
0.0501178
0.000552111
0.050103
0.000615445
0.000651301
0.0500883
0.0383977
-0.0176861
0.0419837
-0.0220619
0.0452263
-0.023902
0.0479451
-0.0247567
0.0501149
-0.0249447
0.0517513
-0.0246216
0.0529098
-0.0238955
0.0536613
-0.0228468
0.0540782
-0.0215478
0.0542288
-0.0200668
0.0541752
-0.0184676
0.0539723
-0.0168067
0.053667
-0.0151326
0.0532986
-0.0134848
0.0528986
-0.0118944
0.0524915
-0.0103843
0.0520956
-0.00897062
0.0517239
-0.00766339
0.0513846
-0.0064679
0.0510826
-0.00538569
0.0508197
-0.00441541
0.0505955
-0.00355362
0.0504083
-0.00279539
0.0502553
-0.00213478
0.050133
-0.00156522
0.0500375
-0.00107974
0.0499653
-0.000671256
0.0499126
-0.000332628
0.0498761
-5.68291e-05
0.0498526
0.000162992
0.0498395
0.000333439
0.0498344
0.000460828
0.0498354
0.000551157
0.0498408
0.000610073
0.000642852
0.0498493
0.0630524
-0.0174031
0.0626874
-0.021697
0.0626141
-0.0238288
0.0625934
-0.0247361
0.0624797
-0.024831
0.0621924
-0.0243345
0.0617053
-0.0234084
0.0610304
-0.022172
0.0602006
-0.020718
0.059257
-0.0191233
0.0582424
-0.017453
0.0571965
-0.015761
0.0561544
-0.0140905
0.0551443
-0.0124748
0.0541885
-0.0109386
0.0533025
-0.00949845
0.0524968
-0.0081649
0.0517766
-0.00694324
0.0511435
-0.00583485
0.0505959
-0.00483819
0.0501301
-0.00394962
0.0497405
-0.00316407
0.0494207
-0.00247557
0.0491635
-0.00187761
0.0489617
-0.0013634
0.048808
-0.000926058
0.0486956
-0.000558781
0.0486179
-0.000254878
0.0485689
-7.85318e-06
0.0485434
0.000188556
0.0485366
0.000340346
0.0485442
0.000453231
0.0485628
0.000532627
0.0485893
0.000583634
0.00061102
0.0486212
0.0805319
-0.0159906
0.0784062
-0.0195713
0.0762537
-0.0216763
0.0741743
-0.0226567
0.0721491
-0.0228059
0.0701456
-0.022331
0.0681426
-0.0214053
0.066139
-0.0201685
0.0641502
-0.0187292
0.0622001
-0.0171732
0.0603151
-0.015568
0.0585201
-0.0139661
0.0568363
-0.0124066
0.0552793
-0.0109179
0.0538596
-0.00951895
0.0525825
-0.0082214
0.0514487
-0.00703117
0.0504552
-0.00594983
0.0495962
-0.00497585
0.0488635
-0.00410556
0.0482477
-0.00333384
0.0477384
-0.00265477
0.0473248
-0.00206196
0.046996
-0.00154885
0.0467415
-0.00110893
0.0465513
-0.000735804
0.0464158
-0.000423281
0.0463264
-0.000165398
0.0462751
4.35531e-05
0.0462547
0.000209025
0.0462589
0.000336206
0.0462821
0.000430025
0.0463197
0.00049514
0.0463675
0.000535941
0.000556532
0.046422
0.0904681
-0.0139079
0.0875308
-0.0166339
0.0842673
-0.0184129
0.0809178
-0.0193071
0.0775875
-0.0194755
0.0743287
-0.0190721
0.0711697
-0.0182463
0.0681319
-0.0171307
0.0652362
-0.0158335
0.0625029
-0.0144399
0.0599499
-0.013015
0.0575911
-0.0116073
0.0554357
-0.0102512
0.0534874
-0.00896972
0.0517456
-0.00777716
0.0502051
-0.00668097
0.0488576
-0.00568369
0.0476921
-0.00478435
0.0466959
-0.00397967
0.0458551
-0.00326484
0.0451555
-0.00263425
0.0445826
-0.00208187
0.0441222
-0.00160159
0.0437608
-0.00118739
0.0434853
-0.000833451
0.0432837
-0.000534218
0.0431449
-0.000284421
0.0430586
-7.9057e-05
0.0430157
8.66037e-05
0.0430077
0.000217045
0.0430275
0.000316509
0.0430686
0.000389015
0.0431255
0.000438353
0.0431934
0.000468095
0.000481583
0.0432684
0.0932737
-0.0113425
0.0899169
-0.013277
0.0861091
-0.0146049
0.0820943
-0.0152923
0.0780329
-0.015414
0.0740346
-0.0150737
0.0701735
-0.0143851
0.0665002
-0.0134573
0.0630498
-0.0123831
0.0598463
-0.0112364
0.0569045
-0.0100732
0.0542312
-0.00893393
0.0518261
-0.00784611
0.0496836
-0.00682723
0.0477934
-0.00588703
0.0461421
-0.00502966
0.0447138
-0.00425538
0.0434912
-0.00356182
0.0424565
-0.00294501
0.0415917
-0.00240007
0.0408792
-0.00192169
0.0403018
-0.00150449
0.0398434
-0.0011432
0.0394888
-0.000832783
0.0392238
-0.000568491
0.0390355
-0.000345883
0.038912
-0.000160793
0.0388423
-9.33994e-06
0.0388169
0.00011213
0.0388269
0.000207042
0.0388649
0.000278637
0.038924
0.000329964
0.0389986
0.00036391
0.0390836
0.000383181
0.00039032
0.0391749
0.0893983
-0.00847655
0.0858628
-0.00974152
0.0818766
-0.0106186
0.0776466
-0.0110621
0.0733402
-0.0111076
0.0690889
-0.0108223
0.0649901
-0.0102862
0.061112
-0.00957918
0.0574997
-0.00877068
0.0541797
-0.00791636
0.0511644
-0.0070579
0.0484553
-0.00622472
0.0460453
-0.00543615
0.0439218
-0.00470374
0.042068
-0.00403323
0.0404647
-0.0034263
0.0390912
-0.00288191
0.0379267
-0.00239731
0.0369504
-0.00196876
0.0361424
-0.00159209
0.0354837
-0.00126297
0.0349564
-0.000977177
0.0345439
-0.000730678
0.0342309
-0.000519719
0.0340032
-0.000340815
0.0338482
-0.000190761
0.033754
-6.65953e-05
0.0337103
3.44225e-05
0.0337077
0.000114844
0.0337378
0.000177059
0.0337932
0.000223311
0.0338675
0.000255719
0.0339553
0.000276275
0.0340517
0.000286858
0.000289225
0.0341529
0.0792521
-0.00555133
0.0757921
-0.00628146
0.0719497
-0.00677611
0.0678927
-0.00700511
0.0637733
-0.00698807
0.0597185
-0.00676737
0.0558264
-0.00639413
0.0521665
-0.00591924
0.048783
-0.00538721
0.0456999
-0.00483326
0.0429253
-0.00428333
0.0404558
-0.0037552
0.0382798
-0.0032601
0.0363802
-0.00280423
0.0347372
-0.00239019
0.033329
-0.00201812
0.0321336
-0.00168658
0.0311295
-0.00139321
0.030296
-0.00113519
0.0296134
-0.000909522
0.0290637
-0.000713251
0.0286301
-0.000543537
0.0282973
-0.000397771
0.0280512
-0.00027353
0.0278791
-0.000168634
0.0277695
-8.10748e-05
0.0277121
-9.04024e-06
0.0276975
4.91499e-05
0.0277174
9.50404e-05
0.0277645
0.00013008
0.0278324
0.000155623
0.0279153
0.000172945
0.0280084
0.000183251
0.0281077
0.000187673
0.000187278
0.0282097
0.0632623
-0.00288287
0.0601994
-0.00321854
0.0568566
-0.00343326
0.053366
-0.00351455
0.0498524
-0.00347445
0.0464213
-0.00333626
0.043154
-0.00312688
0.040107
-0.0028723
0.0373145
-0.00259468
0.0347923
-0.00231115
0.0325428
-0.00203392
0.0305586
-0.00177105
0.0288258
-0.00152729
0.0273265
-0.00130501
0.0260411
-0.00110484
0.0249493
-0.000926331
0.0240311
-0.00076835
0.0232673
-0.000629421
0.0226401
-0.000507903
0.0221328
-0.000402165
0.0217302
-0.000310628
0.0214186
-0.000231838
0.0211854
-0.00016446
0.0210193
-0.000107302
0.0209101
-5.92826e-05
0.0208487
-1.94374e-05
0.0208267
1.31111e-05
0.0208368
3.91607e-05
0.0208726
5.94485e-05
0.0209282
7.46614e-05
0.0209985
8.54401e-05
0.0210792
9.23929e-05
0.0211665
9.60883e-05
0.0212573
9.70692e-05
9.58383e-05
0.0213488
0.0419034
-0.000869374
0.0396431
-0.000958291
0.0372189
-0.00100902
0.0347239
-0.00101955
0.0322445
-0.000995126
0.0298521
-0.0009439
0.0275996
-0.000874362
0.0255216
-0.000794306
0.0236368
-0.000710011
0.0219518
-0.000626141
0.0204636
-0.00054579
0.0191634
-0.000470894
0.0180385
-0.000402433
0.0170743
-0.000340794
0.0162553
-0.000285885
0.0155664
-0.0002374
0.0149929
-0.000194845
0.0145212
-0.00015771
0.0141387
-0.000125438
0.0138342
-9.75312e-05
0.0135971
-7.34984e-05
0.0134183
-5.29287e-05
0.0132894
-3.54258e-05
0.0132028
-2.06696e-05
0.013152
-8.34909e-06
0.013131
1.78426e-06
0.0131342
9.98013e-06
0.0131571
1.64397e-05
0.0131953
2.13728e-05
0.0132451
2.49513e-05
0.0133034
2.73599e-05
0.0133671
2.87515e-05
0.013434
2.92923e-05
0.0135021
2.91195e-05
2.83818e-05
0.0135696
0.015634
0.0146757
0.0136667
0.0126471
0.011652
0.0107081
0.00983371
0.0090394
0.00832938
0.00770324
0.00715744
0.00668654
0.00628411
0.00594331
0.00565742
0.00542002
0.00522518
0.00506747
0.00494204
0.00484451
0.00477102
0.0047181
0.00468269
0.00466203
0.0046537
0.0046555
0.00466549
0.00468195
0.00470334
0.0047283
0.00475568
0.00478444
0.00481375
0.00484287
0.00487126
0.0052072
2.69305e-05
0.00518158
2.55809e-05
0.00515761
2.39481e-05
0.00513543
2.21597e-05
0.0051151
2.03218e-05
0.00509658
1.8525e-05
0.00507974
1.68426e-05
0.00506441
1.53372e-05
0.00505037
1.40587e-05
1.30511e-05
0.00503734
0.0144404
9.15273e-05
0.014378
8.79143e-05
0.0143187
8.31129e-05
0.0142633
7.75885e-05
0.0142118
7.17345e-05
0.0141645
6.58864e-05
0.014121
6.03233e-05
0.0140811
5.52815e-05
0.0140442
5.09568e-05
4.75169e-05
0.0140098
0.022609
0.000179869
0.0225226
0.000174178
0.0224399
0.000165815
0.0223617
0.000155743
0.0222886
0.000144786
0.0222208
0.000133647
0.0221582
0.000122919
0.0221004
0.000113102
0.0220468
0.00010462
9.78303e-05
0.0219965
0.0297105
0.000279566
0.029612
0.000272657
0.0295166
0.00026114
0.0294257
0.000246574
0.0293401
0.000230304
0.0292603
0.000213481
0.0291861
0.000197086
0.0291172
0.000181949
0.0290531
0.000168776
0.000158166
0.0289928
0.0357432
0.000380124
0.0356427
0.00037306
0.0355446
0.000359198
0.0354504
0.000340724
0.0353611
0.000319536
0.0352773
0.00029727
0.035199
0.000275326
0.0351261
0.000254895
0.0350579
0.000236993
0.00022249
0.0349935
0.0407089
0.000473089
0.0406151
0.000466741
0.0405229
0.000451397
0.0404337
0.000429835
0.0403487
0.000404483
0.0402685
0.000377443
0.0401933
0.000350524
0.0401229
0.000325273
0.0400569
0.000303013
0.000284885
0.0399945
0.0446135
0.000551998
0.0445334
0.000546793
0.0444541
0.000530641
0.044377
0.000506821
0.0443033
0.000478212
0.0442334
0.000447319
0.0441676
0.000416306
0.0441058
0.000387035
0.0440477
0.000361106
0.0003399
0.0439927
0.0474668
0.000612182
0.0474055
0.000608009
0.0473447
0.000591419
0.0472855
0.000566048
0.0472286
0.000535107
0.0471745
0.000501399
0.0471234
0.00046736
0.0470753
0.000435093
0.04703
0.00040641
0.000382883
0.046987
0.0492818
0.000650456
0.0492431
0.000646747
0.0492047
0.000629795
0.0491673
0.000603429
0.0491314
0.000571038
0.0490972
0.000535597
0.0490648
0.000499699
0.0490343
0.000465592
0.0490055
0.000435219
0.000410272
0.0489781
0.0500739
0.000664836
0.0500599
0.000660764
0.0500464
0.000643359
0.0500333
0.000616457
0.0500209
0.000583465
0.0500091
0.000547386
0.049998
0.000510846
0.0499874
0.000476125
0.0499775
0.000445207
0.000419819
0.0499679
0.0498598
0.000654378
0.0498714
0.000649135
0.0498836
0.000631195
0.0498958
0.000604225
0.0499078
0.000571494
0.0499193
0.00053589
0.0499303
0.000499944
0.0499405
0.000465863
0.0499502
0.000435568
0.00041074
0.0499592
0.0486564
0.000619209
0.0486933
0.000612267
0.0487307
0.0005939
0.0487675
0.000567451
0.0488031
0.000535909
0.0488371
0.000501918
0.0488692
0.000467803
0.0488995
0.000435593
0.048928
0.000407061
0.000383757
0.048955
0.0464806
0.000560727
0.0465409
0.000552036
0.0466011
0.000533666
0.0466601
0.000508515
0.0467169
0.000479178
0.0467709
0.000447954
0.0468218
0.000416869
0.0468697
0.000387692
0.0469148
0.000361971
0.000341064
0.0469575
0.0433473
0.000481922
0.0434274
0.00047198
0.0435068
0.000454375
0.0435839
0.000431479
0.0436577
0.000405418
0.0437276
0.000378077
0.0437933
0.000351118
0.043855
0.000325993
0.043913
0.000303977
0.000286186
0.0439679
0.0392692
0.000387685
0.0393638
0.000377464
0.0394566
0.000361649
0.0395461
0.000342051
0.0396313
0.000320289
0.0397116
0.000297807
0.0397868
0.000275868
0.0398572
0.000255588
0.0399233
0.000237932
0.000223761
0.0399857
0.0342556
0.00028502
0.0343574
0.000275751
0.0344563
0.000262812
0.0345509
0.000247453
0.0346405
0.000230806
0.0347244
0.000213867
0.0348028
0.00019752
0.0348759
0.000182531
0.0349442
0.000169577
0.000159247
0.0350087
0.0283118
0.000183052
0.0284117
0.000175917
0.0285079
0.000166709
0.0285992
0.000156192
0.028685
0.000145044
0.028765
0.000133871
0.0288393
0.000123205
0.0289083
0.000113509
0.0289727
0.000105188
9.85964e-05
0.0290333
0.0214391
9.28721e-05
0.0215264
8.86046e-05
0.0216098
8.34391e-05
0.0216883
7.77357e-05
0.0217615
7.18204e-05
0.0218294
6.59789e-05
0.0218921
6.04632e-05
0.0219501
5.54924e-05
0.022004
5.1256e-05
4.7923e-05
0.0220546
0.0136353
2.71997e-05
0.0136983
2.57027e-05
0.0137578
2.39915e-05
0.0138134
2.21742e-05
0.0138649
2.03301e-05
0.0139123
1.85458e-05
0.0139559
1.68797e-05
0.0139959
1.53993e-05
0.014033
1.41452e-05
1.31708e-05
0.0140677
0.00489847
0.00492418
0.00494817
0.00497035
0.00499068
0.00500923
0.0050261
0.0050415
0.00505564
0.00506881
0.00502501
1.23493e-05
0.00501305
1.19873e-05
0.00500108
1.19935e-05
0.0049887
1.24005e-05
0.00497549
1.32383e-05
0.00496097
1.45458e-05
0.00494463
1.63629e-05
0.00492591
1.87429e-05
0.00490418
2.17429e-05
0.00487876
2.54384e-05
0.00484887
2.99116e-05
0.00481362
3.52671e-05
0.00477202
4.16195e-05
0.00472292
4.91102e-05
0.00466504
5.78937e-05
0.0045969
6.81564e-05
0.00451681
8.01028e-05
0.00442284
9.3977e-05
0.00431281
0.000110051
0.00418417
0.000128649
0.00403404
0.000150141
0.00385909
0.00017496
0.00365553
0.000203577
0.00341907
0.000236469
0.00314512
0.000273965
0.00282916
0.000315973
0.00246777
0.000361403
0.00206053
0.000407249
0.00161329
0.000447251
0.00114282
0.000470484
0.000682175
0.000460655
0.000284055
0.000398141
1.62034e-05
0.000267846
-6.57238e-05
8.19308e-05
-6.57258e-05
0.0139771
4.51041e-05
0.0139453
4.38473e-05
0.0139135
4.38653e-05
0.0138807
4.52779e-05
0.0138458
4.82095e-05
0.0138076
5.28003e-05
0.0137648
5.92092e-05
0.0137159
6.76261e-05
0.0136595
7.82739e-05
0.0135935
9.14209e-05
0.0135161
0.000107383
0.0134249
0.000126539
0.0133172
0.000149327
0.0131901
0.000176265
0.0130401
0.000207952
0.0128632
0.000245082
0.0126548
0.000288452
0.0124099
0.000338986
0.0121222
0.000397739
0.011785
0.00046593
0.0113902
0.000544944
0.0109289
0.000636324
0.0103908
0.000741693
0.00976477
0.000862532
0.0090391
0.000999676
0.0082028
0.0011523
0.00724811
0.00131612
0.00617485
0.00148053
0.00499742
0.00162472
0.00375428
0.00171366
0.00251824
0.00169677
0.00140205
0.00151435
0.000548159
0.00112178
8.23145e-05
0.000547739
1.65862e-05
0.0219486
9.30433e-05
0.0219019
9.0536e-05
0.0218553
9.05669e-05
0.0218072
9.3392e-05
0.0217562
9.92786e-05
0.0217005
0.000108522
0.0216383
0.000121461
0.0215675
0.00013849
0.0214857
0.000160079
0.0213904
0.00018679
0.0212785
0.000219288
0.0211467
0.000258366
0.0209912
0.000304955
0.0208073
0.000360153
0.0205901
0.000425238
0.0203335
0.000501701
0.0200307
0.000591265
0.0196738
0.000695925
0.0192536
0.000817978
0.0187595
0.000960056
0.0181793
0.00112514
0.0174992
0.00131651
0.0167033
0.00153758
0.0157745
0.00179142
0.0146944
0.00207979
0.0134456
0.00240118
0.0120143
0.00274752
0.010396
0.00309883
0.00860467
0.00341611
0.00668481
0.00363361
0.00472647
0.00365515
0.00287728
0.00336363
0.00133968
0.00265935
0.000333786
0.00155364
0.00035037
0.0289352
0.000150641
0.0288791
0.000146668
0.028823
0.00014668
0.0287653
0.000151107
0.0287042
0.000160395
0.0286378
0.000175032
0.0285637
0.000195578
0.0284795
0.000222683
0.0283825
0.000257122
0.0282695
0.000299817
0.028137
0.000351868
0.0279808
0.000414582
0.0277963
0.000489509
0.027578
0.000578478
0.0273197
0.000683632
0.0270139
0.00080748
0.0266523
0.000952944
0.0262248
0.00112342
0.02572
0.00132283
0.0251244
0.00155568
0.0244225
0.00182709
0.0235963
0.00214273
0.0226254
0.00250855
0.0214868
0.00293011
0.0201555
0.00341116
0.0186058
0.00395088
0.0168144
0.00453895
0.0147656
0.00514773
0.0124608
0.00572099
0.00993385
0.00616063
0.00727251
0.00631661
0.00464423
0.00599195
0.00231688
0.00498677
0.00064868
0.00322185
0.000999061
0.034932
0.000212142
0.0348721
0.000206628
0.0348122
0.00020658
0.0347507
0.000212619
0.0346858
0.00022539
0.0346152
0.000245596
0.0345368
0.00027404
0.0344479
0.000311656
0.0343455
0.000359551
0.0342263
0.000419047
0.0340865
0.000491723
0.0339216
0.000579463
0.0337267
0.000684507
0.0334957
0.000809508
0.0332217
0.000957595
0.0328968
0.00113245
0.0325114
0.00133837
0.0320544
0.0015804
0.0315129
0.00186438
0.0308715
0.00219709
0.0301124
0.00258627
0.0292146
0.00304061
0.0281537
0.00356945
0.0269018
0.00418208
0.0254269
0.00488602
0.0236942
0.00568369
0.0216669
0.00656631
0.0193111
0.0075036
0.0166042
0.00842799
0.0135517
0.00921322
0.0102169
0.00965147
0.00676727
0.00944171
0.00353406
0.00822008
0.00105478
0.00570123
0.00205385
0.0399347
0.000271882
0.0398765
0.000264896
0.0398183
0.00026476
0.0397587
0.00027229
0.0396958
0.000288331
0.0396276
0.000313806
0.0395519
0.00034976
0.0394662
0.000397412
0.0393675
0.000458207
0.0392527
0.000533872
0.039118
0.000626474
0.038959
0.000738484
0.0387707
0.000872855
0.0385471
0.00103309
0.0382814
0.00122336
0.0379653
0.00144856
0.0375892
0.0017145
0.0371417
0.00202795
0.0366092
0.00239689
0.0359757
0.00283059
0.0352222
0.00333981
0.0343261
0.00393679
0.0332604
0.00463515
0.0319934
0.00544918
0.0304871
0.00639231
0.0286972
0.00747365
0.0265722
0.00869135
0.0240552
0.0100207
0.0210895
0.0113938
0.0176339
0.0126688
0.0136982
0.0135873
0.00941191
0.0137282
0.00514207
0.01249
0.00163309
0.00921044
0.00368698
0.0439399
0.000324626
0.0438885
0.000316372
0.0438371
0.000316152
0.0437844
0.000324962
0.043729
0.000343835
0.0436689
0.000373891
0.0436023
0.000416403
0.0435269
0.000472855
0.0434401
0.000545003
0.043339
0.000634953
0.0432203
0.000745229
0.0430799
0.00087886
0.0429133
0.00103947
0.0427151
0.0012314
0.0424787
0.00145978
0.0421965
0.00173076
0.0418595
0.00205155
0.0414567
0.00243074
0.0409752
0.00287841
0.0403994
0.00340643
0.0397105
0.00402872
0.0388859
0.00476141
0.0378981
0.00562295
0.0367136
0.00663375
0.0352908
0.00781508
0.0335784
0.00918615
0.0315117
0.0107581
0.0290107
0.0125217
0.0259793
0.0144252
0.0223138
0.0163345
0.0179336
0.0179677
0.0128643
0.0187976
0.00742388
0.0179309
0.0025487
0.014086
0.00623575
0.0469458
0.000365893
0.0469055
0.000356685
0.0468652
0.00035642
0.0468239
0.000366244
0.0467804
0.000387338
0.0467334
0.000420992
0.0466811
0.000468666
0.0466219
0.000532065
0.0465537
0.000613211
0.0464742
0.00071453
0.0463805
0.000838938
0.0462694
0.000989945
0.0461371
0.00117177
0.0459791
0.00138945
0.0457899
0.00164904
0.0455629
0.00195772
0.0452904
0.00232406
0.0449629
0.00275824
0.044569
0.00327234
0.0440948
0.00388066
0.0435234
0.00460013
0.0428341
0.00545073
0.0420013
0.0064558
0.0409928
0.00764226
0.0397677
0.00904021
0.0382727
0.0106812
0.0364366
0.0125941
0.0341636
0.0147948
0.0313235
0.0172655
0.0277451
0.0199129
0.0232256
0.0224874
0.0175913
0.0244323
0.0109117
0.0246108
0.00411862
0.0208796
0.0103544
0.0489518
0.000392241
0.048926
0.000382474
0.0489002
0.000382232
0.0488737
0.000392759
0.0488457
0.000415344
0.0488153
0.000451392
0.0487815
0.000502499
0.048743
0.00057053
0.0486985
0.000657701
0.0486464
0.000766676
0.0485847
0.000900668
0.0485111
0.00106355
0.0484229
0.00125999
0.0483167
0.0014956
0.0481887
0.00177712
0.0480338
0.00211261
0.0478462
0.00251168
0.0476186
0.00298585
0.0473421
0.0035488
0.0470059
0.0042169
0.0465965
0.00500962
0.046097
0.00595019
0.0454866
0.00706626
0.0447383
0.00839053
0.0438173
0.00996127
0.0426764
0.0118222
0.0412501
0.0140204
0.0394438
0.0166011
0.0371169
0.0195924
0.0340575
0.0229725
0.0299511
0.0265939
0.0243622
0.0300212
0.0168109
0.0321625
0.00737238
0.0303183
0.0177268
0.0499587
0.00040149
0.0499495
0.000391603
0.0499403
0.000391462
0.0499307
0.000402352
0.0499204
0.000425611
0.0499091
0.000462702
0.0498964
0.000515289
0.0498816
0.000585322
0.0498641
0.000675125
0.0498433
0.000787496
0.0498182
0.000925821
0.0497876
0.00109419
0.04975
0.00129756
0.0497037
0.00154189
0.0496465
0.00183436
0.0495755
0.0021836
0.0494873
0.00259995
0.0493773
0.00309579
0.0492402
0.00368593
0.049069
0.00438812
0.048855
0.0052236
0.0485874
0.00621781
0.0482524
0.00740129
0.0478323
0.00881066
0.0473039
0.0104897
0.0466357
0.0124904
0.0457831
0.014873
0.0446796
0.0177046
0.0432205
0.0210515
0.0412336
0.0249594
0.038425
0.0294024
0.0342854
0.0341608
0.0279189
0.0385287
0.0175777
0.0406593
0.0353044
0.0499679
0.000392868
0.0499762
0.000383306
0.0499843
0.000383334
0.0499924
0.000394219
0.0500007
0.000417286
0.0500094
0.000453988
0.0500187
0.000505986
0.0500288
0.00057523
0.0500399
0.000664053
0.0500521
0.000775275
0.0500656
0.000912311
0.0500805
0.00107931
0.0500968
0.00128129
0.0501144
0.00152433
0.050133