/*--------------------------------*- C++ -*----------------------------------*\
| =========                 |                                                 |
| \\      /  F ield         | OpenFOAM: The Open Source CFD Toolbox           |
|  \\    /   O peration     | Version:  2406                                  |
|   \\  /    A nd           | Website:  www.openfoam.com                      |
|    \\/     M anipulation  |                                                 |
\*---------------------------------------------------------------------------*/
FoamFile
{
    version     2.0;
    format      ascii;
    arch        "LSB;label=32;scalar=64";
    class       volVectorField;
    location    "26";
    object      U;
}
// * * * * * * * * * * * * * * * * * * * * * * * * * * * * * * * * * * * * * //

dimensions      [0 1 -1 0 0 0 0];

internalField   nonuniform List<vector> 
1800
(
(0.187009 -0.00125938 0)
(0.194792 -0.00100456 0)
(0.198672 -0.000872328 0)
(0.201632 -0.000957826 0)
(0.205403 -0.00122373 0)
(0.210594 -0.00182458 0)
(0.218191 -0.00311403 0)
(0.230568 -0.00610448 0)
(0.25536 -0.0165803 0)
(0.294188 -0.0635696 0)
(0.502935 -0.00370174 0)
(0.510123 -0.00551296 0)
(0.515177 -0.00559737 0)
(0.51959 -0.00643487 0)
(0.525885 -0.00832694 0)
(0.534651 -0.0117332 0)
(0.546771 -0.0178714 0)
(0.564096 -0.0292145 0)
(0.589721 -0.0514782 0)
(0.619117 -0.0996136 0)
(0.743282 -0.00349323 0)
(0.74903 -0.00719365 0)
(0.753073 -0.00934738 0)
(0.756453 -0.0119645 0)
(0.761845 -0.0158799 0)
(0.769527 -0.0218936 0)
(0.779594 -0.0314329 0)
(0.792323 -0.0469046 0)
(0.807282 -0.0724163 0)
(0.819213 -0.114362 0)
(0.903677 -0.0031235 0)
(0.908437 -0.00781956 0)
(0.911092 -0.0115871 0)
(0.912369 -0.015759 0)
(0.915028 -0.0212388 0)
(0.919114 -0.0289028 0)
(0.92408 -0.0400032 0)
(0.929252 -0.0562648 0)
(0.933093 -0.0798471 0)
(0.93159 -0.1126 0)
(0.983815 -0.00271342 0)
(0.987761 -0.00745805 0)
(0.988964 -0.0119008 0)
(0.987915 -0.016811 0)
(0.987371 -0.0228949 0)
(0.987232 -0.0309023 0)
(0.986618 -0.0417465 0)
(0.984513 -0.0564593 0)
(0.979325 -0.075967 0)
(0.968309 -0.100437 0)
(0.98374 -0.00200543 0)
(0.987005 -0.00602557 0)
(0.986872 -0.0103362 0)
(0.983794 -0.015159 0)
(0.980469 -0.0209061 0)
(0.976673 -0.0281371 0)
(0.971408 -0.037436 0)
(0.963644 -0.0493352 0)
(0.952059 -0.0641298 0)
(0.934864 -0.081479 0)
(0.903462 -0.000869768 0)
(0.906321 -0.00362507 0)
(0.90526 -0.00730727 0)
(0.900901 -0.0114382 0)
(0.895803 -0.0161438 0)
(0.889619 -0.021819 0)
(0.88137 -0.0288022 0)
(0.870164 -0.0373226 0)
(0.855021 -0.0474087 0)
(0.834821 -0.0586671 0)
(0.742975 0.000797339 0)
(0.746072 -0.000628647 0)
(0.74496 -0.00361203 0)
(0.740504 -0.00673134 0)
(0.735036 -0.00997984 0)
(0.728145 -0.0136835 0)
(0.719004 -0.0180359 0)
(0.706948 -0.0231222 0)
(0.691327 -0.0289035 0)
(0.671499 -0.0351079 0)
(0.50266 0.00246684 0)
(0.507356 0.00179221 0)
(0.507469 -0.000607776 0)
(0.504314 -0.00253401 0)
(0.500029 -0.00420379 0)
(0.494333 -0.005945 0)
(0.486695 -0.00786777 0)
(0.476737 -0.0100109 0)
(0.464105 -0.012356 0)
(0.448492 -0.0147865 0)
(0.186924 0.00109509 0)
(0.193555 0.000481005 0)
(0.194933 3.34819e-05 0)
(0.193998 -0.000224856 0)
(0.192268 -0.000449084 0)
(0.18974 -0.000666269 0)
(0.186253 -0.000890057 0)
(0.181709 -0.00112017 0)
(0.17601 -0.00135257 0)
(0.16908 -0.00157701 0)
(-0.000454834 0.000443579 0)
(-0.00272833 0.00080752 0)
(-0.00550023 0.000792273 0)
(-0.00766238 0.000544574 0)
(-0.00846082 0.000213466 0)
(-0.00769144 -0.000122135 0)
(-0.00545017 -0.000416452 0)
(-0.00198135 -0.000647599 0)
(0.00240811 -0.000809197 0)
(0.00740263 -0.000904424 0)
(0.0127103 -0.0009417 0)
(0.0180805 -0.000931905 0)
(0.0233111 -0.000886355 0)
(0.0282498 -0.000815934 0)
(0.0327904 -0.000730119 0)
(0.0368672 -0.000636872 0)
(0.0404484 -0.000542312 0)
(0.0435287 -0.000451022 0)
(0.0461234 -0.000366038 0)
(0.0482617 -0.000289282 0)
(0.0499823 -0.000221638 0)
(0.0513291 -0.000163356 0)
(0.052348 -0.00011411 0)
(0.0530847 -7.33135e-05 0)
(0.0535829 -4.01283e-05 0)
(0.0538832 -1.3685e-05 0)
(0.0540226 6.94524e-06 0)
(0.054034 2.26102e-05 0)
(0.0539461 3.41284e-05 0)
(0.0537839 4.22028e-05 0)
(0.0535683 4.74792e-05 0)
(0.0533171 5.04893e-05 0)
(0.0530446 5.17096e-05 0)
(0.0527627 5.15222e-05 0)
(0.0524803 5.02694e-05 0)
(-0.000913632 0.00277658 0)
(-0.00554078 0.00507286 0)
(-0.0103975 0.00470814 0)
(-0.0134661 0.00262541 0)
(-0.0134133 -0.000209867 0)
(-0.00992309 -0.00312486 0)
(-0.00324965 -0.00571538 0)
(0.00605472 -0.00777728 0)
(0.0173135 -0.00924067 0)
(0.0298382 -0.0101198 0)
(0.0429939 -0.0104773 0)
(0.0562352 -0.0103993 0)
(0.069121 -0.00997989 0)
(0.0813152 -0.00931063 0)
(0.0925798 -0.00847453 0)
(0.102763 -0.00754276 0)
(0.111787 -0.00657353 0)
(0.119632 -0.00561217 0)
(0.126322 -0.00469217 0)
(0.131918 -0.00383664 0)
(0.1365 -0.00306005 0)
(0.140164 -0.00236986 0)
(0.143011 -0.00176823 0)
(0.145147 -0.00125332 0)
(0.146671 -0.000820588 0)
(0.147681 -0.0004637 0)
(0.148263 -0.000175322 0)
(0.148499 5.23047e-05 0)
(0.14846 0.00022695 0)
(0.148209 0.000356118 0)
(0.147798 0.000446858 0)
(0.147275 0.000505637 0)
(0.146678 0.000538307 0)
(0.146037 0.000550086 0)
(0.145379 0.000545577 0)
(-0.00112249 0.00614475 0)
(-0.0064472 0.0103784 0)
(-0.0109933 0.00868221 0)
(-0.0124638 0.00341856 0)
(-0.00952286 -0.00333621 0)
(-0.0020507 -0.0101332 0)
(0.00944305 -0.0160992 0)
(0.0241448 -0.0207986 0)
(0.0411416 -0.024093 0)
(0.0595417 -0.0260283 0)
(0.0785441 -0.0267546 0)
(0.0974717 -0.0264725 0)
(0.115782 -0.0253975 0)
(0.133066 -0.0237389 0)
(0.149033 -0.0216858 0)
(0.163498 -0.0194017 0)
(0.176369 -0.0170209 0)
(0.187621 -0.0146493 0)
(0.197288 -0.0123666 0)
(0.205445 -0.0102292 0)
(0.212197 -0.00827364 0)
(0.217668 -0.00652061 0)
(0.22199 -0.00497793 0)
(0.225301 -0.00364397 0)
(0.227737 -0.00251014 0)
(0.229425 -0.00156325 0)
(0.230487 -0.000787172 0)
(0.231033 -0.000164334 0)
(0.231164 0.000323321 0)
(0.230968 0.000693542 0)
(0.230522 0.000963309 0)
(0.229893 0.00114844 0)
(0.229136 0.00126347 0)
(0.228299 0.00132151 0)
(0.22742 0.00133429 0)
(-0.00122281 0.00980816 0)
(-0.00601973 0.0151825 0)
(-0.00833622 0.0108011 0)
(-0.00604483 0.00103284 0)
(0.00169241 -0.0106864 0)
(0.0144857 -0.0220784 0)
(0.0314302 -0.031834 0)
(0.0514489 -0.0393451 0)
(0.0734728 -0.0444635 0)
(0.096533 -0.0473172 0)
(0.119802 -0.0481838 0)
(0.142607 -0.0474072 0)
(0.164423 -0.0453465 0)
(0.184865 -0.0423437 0)
(0.20367 -0.0387062 0)
(0.220679 -0.0346982 0)
(0.235818 -0.0305371 0)
(0.249083 -0.0263954 0)
(0.260526 -0.0224036 0)
(0.270238 -0.0186551 0)
(0.278336 -0.0152121 0)
(0.28496 -0.0121105 0)
(0.290257 -0.00936566 0)
(0.294378 -0.00697716 0)
(0.297473 -0.00493275 0)
(0.299686 -0.00321208 0)
(0.301152 -0.00178951 0)
(0.301997 -0.000636414 0)
(0.302335 0.000277057 0)
(0.302267 0.000980702 0)
(0.301884 0.00150335 0)
(0.301265 0.00187224 0)
(0.300475 0.00211259 0)
(0.299572 0.00224748 0)
(0.298603 0.00229767 0)
(-0.0012895 0.013101 0)
(-0.00441482 0.0178272 0)
(-0.00243434 0.00888628 0)
(0.00595304 -0.00666817 0)
(0.0204876 -0.023924 0)
(0.0399623 -0.0399237 0)
(0.0629865 -0.0531215 0)
(0.0882552 -0.0629078 0)
(0.114647 -0.0692475 0)
(0.141245 -0.0724277 0)
(0.167327 -0.0728948 0)
(0.192342 -0.0711543 0)
(0.215888 -0.0677109 0)
(0.237689 -0.0630343 0)
(0.257573 -0.0575405 0)
(0.275456 -0.0515834 0)
(0.291323 -0.0454534 0)
(0.305212 -0.0393804 0)
(0.317203 -0.0335383 0)
(0.327407 -0.0280523 0)
(0.335954 -0.0230059 0)
(0.342989 -0.0184482 0)
(0.348661 -0.0144004 0)
(0.353124 -0.0108628 0)
(0.356525 -0.00781938 0)
(0.35901 -0.00524285 0)
(0.360712 -0.00309842 0)
(0.361758 -0.00134676 0)
(0.362262 5.35573e-05 0)
(0.362329 0.00114425 0)
(0.36205 0.00196609 0)
(0.361506 0.00255789 0)
(0.360769 0.00295599 0)
(0.359896 0.00319384 0)
(0.358939 0.00330188 0)
(-0.00123465 0.0154712 0)
(-0.00101094 0.0165173 0)
(0.00807581 0.000496427 0)
(0.0253956 -0.0219927 0)
(0.0488276 -0.0447638 0)
(0.0761408 -0.0646221 0)
(0.105525 -0.0801661 0)
(0.135611 -0.0910461 0)
(0.1654 -0.0974958 0)
(0.19419 -0.10004 0)
(0.221499 -0.0993207 0)
(0.247005 -0.0960048 0)
(0.270511 -0.0907261 0)
(0.291914 -0.0840582 0)
(0.311184 -0.0765 0)
(0.328344 -0.0684711 0)
(0.343463 -0.0603125 0)
(0.356635 -0.0522924 0)
(0.367979 -0.0446126 0)
(0.377627 -0.0374179 0)
(0.385719 -0.0308039 0)
(0.3924 -0.0248261 0)
(0.397815 -0.0195079 0)
(0.402105 -0.0148474 0)
(0.405408 -0.0108238 0)
(0.407854 -0.00740292 0)
(0.409566 -0.00454123 0)
(0.410658 -0.00218973 0)
(0.411233 -0.000296575 0)
(0.411388 0.00119073 0)
(0.411207 0.00232368 0)
(0.410764 0.00315171 0)
(0.410126 0.00372136 0)
(0.409348 0.00407581 0)
(0.408479 0.00425463 0)
(-0.000745431 0.0162937 0)
(0.00623373 0.00861418 0)
(0.0267159 -0.0176113 0)
(0.0564011 -0.0475463 0)
(0.0905437 -0.0747321 0)
(0.126082 -0.0966559 0)
(0.161201 -0.112612 0)
(0.194829 -0.122799 0)
(0.226364 -0.127845 0)
(0.255502 -0.128545 0)
(0.282123 -0.125726 0)
(0.306217 -0.120181 0)
(0.327845 -0.112633 0)
(0.347107 -0.103719 0)
(0.364134 -0.0939816 0)
(0.379073 -0.083872 0)
(0.392077 -0.0737524 0)
(0.403304 -0.0639042 0)
(0.412909 -0.0545371 0)
(0.421041 -0.0457989 0)
(0.427847 -0.0377855 0)
(0.433463 -0.0305498 0)
(0.438021 -0.0241109 0)
(0.441644 -0.0184612 0)
(0.444447 -0.0135734 0)
(0.446539 -0.00940567 0)
(0.448018 -0.00590651 0)
(0.448979 -0.00301842 0)
(0.449504 -0.000680839 0)
(0.449672 0.00116758 0)
(0.449552 0.00258717 0)
(0.449205 0.00363599 0)
(0.448686 0.00436905 0)
(0.448042 0.00483765 0)
(0.447314 0.00508906 0)
(0.0010536 0.0132942 0)
(0.0224564 -0.011222 0)
(0.0608211 -0.0501895 0)
(0.10617 -0.0859609 0)
(0.151322 -0.114492 0)
(0.193611 -0.135315 0)
(0.232156 -0.14893 0)
(0.266718 -0.156216 0)
(0.297373 -0.158178 0)
(0.32436 -0.155811 0)
(0.347985 -0.150049 0)
(0.368569 -0.141738 0)
(0.386426 -0.131625 0)
(0.401856 -0.120356 0)
(0.415134 -0.108474 0)
(0.426514 -0.0964215 0)
(0.436223 -0.0845506 0)
(0.444464 -0.0731297 0)
(0.451419 -0.062355 0)
(0.457243 -0.0523609 0)
(0.462078 -0.0432305 0)
(0.466044 -0.0350052 0)
(0.46925 -0.0276934 0)
(0.471793 -0.0212779 0)
(0.473757 -0.0157227 0)
(0.47522 -0.0109781 0)
(0.476254 -0.00698517 0)
(0.476921 -0.00367946 0)
(0.477279 -0.000993695 0)
(0.477382 0.00113995 0)
(0.477277 0.00278811 0)
(0.477007 0.00401505 0)
(0.47661 0.00488179 0)
(0.47612 0.00544549 0)
(0.475567 0.00575911 0)
(0.0128899 -0.00943195 0)
(0.06246 -0.0569931 0)
(0.125057 -0.103874 0)
(0.185579 -0.13843 0)
(0.237755 -0.162297 0)
(0.281887 -0.177579 0)
(0.319131 -0.185744 0)
(0.350426 -0.188014 0)
(0.376592 -0.185487 0)
(0.398374 -0.179164 0)
(0.416437 -0.169945 0)
(0.431359 -0.158632 0)
(0.443644 -0.145929 0)
(0.453727 -0.132434 0)
(0.461983 -0.118646 0)
(0.46873 -0.104967 0)
(0.474237 -0.0917093 0)
(0.478726 -0.0791057 0)
(0.482379 -0.0673211 0)
(0.485343 -0.0564627 0)
(0.487737 -0.0465903 0)
(0.489656 -0.0377261 0)
(0.491176 -0.0298629 0)
(0.492358 -0.022971 0)
(0.493253 -0.0170045 0)
(0.493902 -0.0119057 0)
(0.49434 -0.00760951 0)
(0.494599 -0.00404634 0)
(0.494706 -0.00114455 0)
(0.494685 0.00116754 0)
(0.494559 0.00296011 0)
(0.494348 0.00430075 0)
(0.494073 0.00525376 0)
(0.493748 0.00587954 0)
(0.49339 0.00623425 0)
(0.0914503 -0.0797332 0)
(0.171441 -0.1416 0)
(0.245509 -0.176594 0)
(0.306682 -0.197892 0)
(0.353769 -0.210523 0)
(0.390445 -0.216672 0)
(0.419366 -0.217426 0)
(0.442072 -0.213627 0)
(0.459678 -0.206101 0)
(0.473116 -0.195651 0)
(0.483183 -0.183037 0)
(0.490551 -0.168949 0)
(0.495793 -0.153997 0)
(0.499387 -0.1387 0)
(0.501734 -0.123482 0)
(0.503162 -0.10868 0)
(0.503932 -0.0945506 0)
(0.504251 -0.0812749 0)
(0.504275 -0.068975 0)
(0.504119 -0.0577218 0)
(0.503866 -0.0475461 0)
(0.50357 -0.0384465 0)
(0.503268 -0.0303978 0)
(0.50298 -0.0233569 0)
(0.502714 -0.017268 0)
(0.502475 -0.0120668 0)
(0.50226 -0.00768359 0)
(0.502065 -0.00404588 0)
(0.501886 -0.0010803 0)
(0.501719 0.00128583 0)
(0.50156 0.00312331 0)
(0.501405 0.00450016 0)
(0.501253 0.00548109 0)
(0.501103 0.00612699 0)
(0.500956 0.00649462 0)
(0.385326 -0.179305 0)
(0.407433 -0.215971 0)
(0.43598 -0.232549 0)
(0.466752 -0.241277 0)
(0.491748 -0.244365 0)
(0.510612 -0.242778 0)
(0.524361 -0.237191 0)
(0.533737 -0.22821 0)
(0.539419 -0.216475 0)
(0.542099 -0.20265 0)
(0.542438 -0.187375 0)
(0.541029 -0.171242 0)
(0.538383 -0.154764 0)
(0.534929 -0.138376 0)
(0.53102 -0.122422 0)
(0.526934 -0.107166 0)
(0.522882 -0.0927998 0)
(0.51902 -0.0794494 0)
(0.51545 -0.06719 0)
(0.512237 -0.0560541 0)
(0.509411 -0.0460419 0)
(0.506979 -0.0371287 0)
(0.504929 -0.0292721 0)
(0.503236 -0.0224169 0)
(0.501869 -0.0164994 0)
(0.50079 -0.0114509 0)
(0.499961 -0.00719956 0)
(0.499345 -0.0036728 0)
(0.498907 -0.00079833 0)
(0.498614 0.00149471 0)
(0.498437 0.0032748 0)
(0.498352 0.0046076 0)
(0.498336 0.00555546 0)
(0.498372 0.00617714 0)
(0.498444 0.00652745 0)
(0.638341 -0.1795 0)
(0.630926 -0.224617 0)
(0.625907 -0.245164 0)
(0.625903 -0.25351 0)
(0.625817 -0.254232 0)
(0.623892 -0.249457 0)
(0.619962 -0.240591 0)
(0.614083 -0.228642 0)
(0.606472 -0.214426 0)
(0.597502 -0.198656 0)
(0.587607 -0.181962 0)
(0.577211 -0.164891 0)
(0.566693 -0.147894 0)
(0.556371 -0.131333 0)
(0.546497 -0.115483 0)
(0.537258 -0.10054 0)
(0.528782 -0.0866345 0)
(0.521145 -0.0738406 0)
(0.51438 -0.0621901 0)
(0.508485 -0.0516809 0)
(0.503431 -0.0422864 0)
(0.49917 -0.0339624 0)
(0.49564 -0.026653 0)
(0.492773 -0.0202946 0)
(0.490497 -0.0148193 0)
(0.488737 -0.010157 0)
(0.487424 -0.0062372 0)
(0.486488 -0.0029901 0)
(0.485869 -0.000347384 0)
(0.48551 0.00175714 0)
(0.485359 0.00338704 0)
(0.485373 0.004603 0)
(0.485512 0.00546259 0)
(0.485744 0.00602004 0)
(0.486042 0.00632601 0)
(0.816594 -0.169317 0)
(0.796707 -0.208972 0)
(0.773326 -0.230982 0)
(0.75191 -0.240826 0)
(0.73159 -0.242065 0)
(0.711502 -0.236999 0)
(0.691446 -0.227419 0)
(0.671379 -0.214693 0)
(0.651368 -0.199865 0)
(0.631611 -0.18377 0)
(0.612369 -0.167077 0)
(0.593912 -0.150322 0)
(0.576473 -0.133919 0)
(0.560237 -0.118174 0)
(0.545337 -0.103303 0)
(0.531847 -0.0894459 0)
(0.519797 -0.0766819 0)
(0.509173 -0.0650428 0)
(0.499929 -0.0545251 0)
(0.491993 -0.0451002 0)
(0.485277 -0.0367221 0)
(0.479678 -0.029334 0)
(0.47509 -0.0228722 0)
(0.471405 -0.0172701 0)
(0.468515 -0.0124599 0)
(0.466316 -0.00837431 0)
(0.46471 -0.0049475 0)
(0.463607 -0.00211555 0)
(0.462922 0.000183175 0)
(0.46258 0.00200769 0)
(0.462513 0.00341439 0)
(0.462664 0.00445686 0)
(0.462979 0.00518586 0)
(0.463415 0.00564916 0)
(0.463934 0.00589146 0)
(0.918247 -0.151016 0)
(0.892018 -0.182313 0)
(0.85965 -0.202143 0)
(0.826002 -0.211946 0)
(0.792444 -0.213759 0)
(0.759398 -0.209397 0)
(0.727221 -0.200527 0)
(0.696173 -0.188567 0)
(0.666453 -0.174647 0)
(0.63826 -0.15965 0)
(0.611788 -0.144259 0)
(0.5872 -0.128989 0)
(0.564613 -0.114213 0)
(0.544093 -0.10019 0)
(0.525651 -0.0870857 0)
(0.509258 -0.0749936 0)
(0.494844 -0.0639537 0)
(0.482309 -0.053966 0)
(0.471534 -0.0450039 0)
(0.462385 -0.0370222 0)
(0.454719 -0.0299652 0)
(0.448392 -0.023771 0)
(0.443261 -0.0183756 0)
(0.439185 -0.0137147 0)
(0.436031 -0.00972581 0)
(0.433675 -0.00634814 0)
(0.432 -0.00352384 0)
(0.430899 -0.00119754 0)
(0.430274 0.000683307 0)
(0.430039 0.00216873 0)
(0.430115 0.00330611 0)
(0.430434 0.00414043 0)
(0.430937 0.00471413 0)
(0.431572 0.00506721 0)
(0.432295 0.00523706 0)
(0.948 -0.127306 0)
(0.917798 -0.150258 0)
(0.881081 -0.165841 0)
(0.841359 -0.173939 0)
(0.800635 -0.175538 0)
(0.760103 -0.171876 0)
(0.720637 -0.164273 0)
(0.682851 -0.153957 0)
(0.647158 -0.141964 0)
(0.613841 -0.12911 0)
(0.583088 -0.11602 0)
(0.555004 -0.103147 0)
(0.52962 -0.0908074 0)
(0.506903 -0.0792056 0)
(0.486771 -0.0684612 0)
(0.469101 -0.0586306 0)
(0.453745 -0.0497253 0)
(0.440534 -0.0417261 0)
(0.429293 -0.0345942 0)
(0.41984 -0.0282788 0)
(0.411997 -0.0227236 0)
(0.405589 -0.0178698 0)
(0.400449 -0.0136593 0)
(0.39642 -0.0100357 0)
(0.393356 -0.00694565 0)
(0.391121 -0.00433844 0)
(0.38959 -0.00216664 0)
(0.388649 -0.000385514 0)
(0.388197 0.00104696 0)
(0.38814 0.00217047 0)
(0.388398 0.00302245 0)
(0.388899 0.00363833 0)
(0.389581 0.00405147 0)
(0.39039 0.00429333 0)
(0.391281 0.00439331 0)
(0.910221 -0.0996346 0)
(0.877864 -0.11528 0)
(0.839659 -0.126154 0)
(0.798049 -0.131787 0)
(0.754977 -0.132634 0)
(0.711895 -0.129506 0)
(0.66993 -0.123358 0)
(0.6299 -0.115136 0)
(0.592359 -0.105662 0)
(0.55765 -0.0955945 0)
(0.525957 -0.0854296 0)
(0.497342 -0.0755223 0)
(0.471772 -0.066109 0)
(0.449143 -0.0573351 0)
(0.429302 -0.0492762 0)
(0.412066 -0.0419599 0)
(0.397234 -0.0353794 0)
(0.384596 -0.0295074 0)
(0.373942 -0.024303 0)
(0.36507 -0.0197195 0)
(0.357782 -0.0157071 0)
(0.351895 -0.0122171 0)
(0.347235 -0.00920199 0)
(0.343644 -0.00661758 0)
(0.340974 -0.00442216 0)
(0.339091 -0.00257756 0)
(0.337873 -0.00104792 0)
(0.337208 0.000199646 0)
(0.336999 0.00119623 0)
(0.337155 0.00197062 0)
(0.3376 0.00255026 0)
(0.338264 0.00296066 0)
(0.339087 0.00322623 0)
(0.340018 0.00336959 0)
(0.341015 0.00341226 0)
(0.808629 -0.0699903 0)
(0.776453 -0.0796126 0)
(0.739516 -0.0862169 0)
(0.699588 -0.0894242 0)
(0.658343 -0.0894754 0)
(0.617183 -0.0868943 0)
(0.577235 -0.0823238 0)
(0.539331 -0.0764095 0)
(0.504029 -0.0697189 0)
(0.471657 -0.0627046 0)
(0.442364 -0.0557035 0)
(0.416163 -0.0489495 0)
(0.39297 -0.0425933 0)
(0.372639 -0.0367205 0)
(0.354978 -0.0313704 0)
(0.339776 -0.0265494 0)
(0.326812 -0.0222432 0)
(0.315868 -0.0184244 0)
(0.306729 -0.0150593 0)
(0.299195 -0.0121108 0)
(0.293077 -0.00954212 0)
(0.288201 -0.00731761 0)
(0.284405 -0.00540409 0)
(0.281543 -0.0037706 0)
(0.279482 -0.00238915 0)
(0.278101 -0.00123381 0)
(0.27729 -0.000281159 0)
(0.276952 0.000490687 0)
(0.276998 0.00110172 0)
(0.27735 0.00157089 0)
(0.27794 0.00191571 0)
(0.278707 0.00215293 0)
(0.279598 0.00229809 0)
(0.280569 0.00236605 0)
(0.281584 0.00237052 0)
(0.647056 -0.0411244 0)
(0.618196 -0.0460812 0)
(0.585851 -0.0493217 0)
(0.55135 -0.0506573 0)
(0.516033 -0.050243 0)
(0.481072 -0.0483963 0)
(0.447406 -0.0454948 0)
(0.415721 -0.0419094 0)
(0.386461 -0.0379606 0)
(0.359865 -0.0338986 0)
(0.336013 -0.0299049 0)
(0.314871 -0.0261004 0)
(0.296324 -0.0225592 0)
(0.28021 -0.0193191 0)
(0.266336 -0.0163932 0)
(0.2545 -0.0137772 0)
(0.244498 -0.0114572 0)
(0.236133 -0.0094129 0)
(0.22922 -0.00762187 0)
(0.223587 -0.00606085 0)
(0.219073 -0.00470763 0)
(0.215535 -0.00354112 0)
(0.21284 -0.00254226 0)
(0.21087 -0.00169351 0)
(0.209518 -0.000979316 0)
(0.208686 -0.000385384 0)
(0.208288 0.000101003 0)
(0.208246 0.000491675 0)
(0.208491 0.000797368 0)
(0.208961 0.00102824 0)
(0.209602 0.00119365 0)
(0.210368 0.00130255 0)
(0.211216 0.00136326 0)
(0.212114 0.00138373 0)
(0.213031 0.00137133 0)
(0.429786 -0.0170511 0)
(0.408264 -0.0188171 0)
(0.384625 -0.0198481 0)
(0.359804 -0.0201025 0)
(0.334735 -0.0196738 0)
(0.310221 -0.0187131 0)
(0.286886 -0.0173824 0)
(0.265166 -0.015833 0)
(0.24532 -0.0141886 0)
(0.227465 -0.0125424 0)
(0.211611 -0.0109574 0)
(0.197695 -0.00947407 0)
(0.185601 -0.00811352 0)
(0.175191 -0.00688484 0)
(0.166312 -0.00578748 0)
(0.158808 -0.00481625 0)
(0.15253 -0.00396213 0)
(0.147336 -0.00321551 0)
(0.143094 -0.00256569 0)
(0.139686 -0.00200305 0)
(0.137001 -0.00151797 0)
(0.134943 -0.00110234 0)
(0.133424 -0.000748343 0)
(0.132364 -0.000449568 0)
(0.131693 -0.000199832 0)
(0.131348 5.89419e-06 0)
(0.131271 0.000172577 0)
(0.131413 0.000304324 0)
(0.131728 0.000405308 0)
(0.132177 0.000479058 0)
(0.132725 0.000529225 0)
(0.133341 0.000558954 0)
(0.134 0.000571512 0)
(0.134679 0.000569723 0)
(0.135361 0.000556494 0)
(0.160928 -0.00176789 0)
(0.151723 -0.00188799 0)
(0.141801 -0.00191747 0)
(0.131573 -0.00186446 0)
(0.121428 -0.0017506 0)
(0.111678 -0.00159805 0)
(0.10255 -0.00142588 0)
(0.094186 -0.00124904 0)
(0.0866566 -0.00107791 0)
(0.0799775 -0.000918611 0)
(0.0741259 -0.000774314 0)
(0.0690544 -0.000646106 0)
(0.0647017 -0.000533886 0)
(0.0610003 -0.000436715 0)
(0.0578815 -0.00035329 0)
(0.055279 -0.000282072 0)
(0.0531307 -0.00022157 0)
(0.0513799 -0.000170339 0)
(0.0499749 -0.000127119 0)
(0.0488698 -9.07652e-05 0)
(0.0480234 -6.03225e-05 0)
(0.0473991 -3.49379e-05 0)
(0.0469644 -1.39177e-05 0)
(0.0466902 3.35683e-06 0)
(0.0465508 1.73816e-05 0)
(0.0465231 2.86045e-05 0)
(0.0465865 3.73824e-05 0)
(0.0467227 4.40437e-05 0)
(0.0469154 4.88531e-05 0)
(0.0471503 5.20637e-05 0)
(0.0474146 5.38841e-05 0)
(0.0476976 5.452e-05 0)
(0.0479898 5.41459e-05 0)
(0.0482836 5.29378e-05 0)
(0.0485724 5.10485e-05 0)
(0.0522047 4.82199e-05 0)
(0.0519408 4.56194e-05 0)
(0.0516923 4.2656e-05 0)
(0.0514613 3.9509e-05 0)
(0.0512487 3.63107e-05 0)
(0.0510545 3.31978e-05 0)
(0.050878 3.02623e-05 0)
(0.0507177 2.76092e-05 0)
(0.0505714 2.53053e-05 0)
(0.0504366 2.34375e-05 0)
(0.144724 0.000528801 0)
(0.144085 0.000503238 0)
(0.143475 0.000471877 0)
(0.142901 0.000437258 0)
(0.142366 0.000401529 0)
(0.141872 0.000366484 0)
(0.141418 0.000333623 0)
(0.141003 0.00030418 0)
(0.14062 0.000279188 0)
(0.140265 0.000259504 0)
(0.226529 0.00131217 0)
(0.225651 0.00126424 0)
(0.224803 0.00119836 0)
(0.223996 0.00112134 0)
(0.223239 0.00103896 0)
(0.222534 0.00095613 0)
(0.221883 0.000876987 0)
(0.221282 0.000805016 0)
(0.220727 0.000743125 0)
(0.220209 0.000693803 0)
(0.297604 0.00228174 0)
(0.296607 0.00221604 0)
(0.295633 0.00211491 0)
(0.294699 0.00199078 0)
(0.293815 0.00185432 0)
(0.292988 0.00171467 0)
(0.292218 0.00157954 0)
(0.291504 0.00145546 0)
(0.290841 0.00134796 0)
(0.290221 0.00126173 0)
(0.357938 0.00330747 0)
(0.356926 0.00323494 0)
(0.355929 0.00310575 0)
(0.354964 0.00293863 0)
(0.354045 0.00274978 0)
(0.353178 0.00255311 0)
(0.352368 0.00236049 0)
(0.351613 0.00218201 0)
(0.350909 0.00202621 0)
(0.350248 0.00190043 0)
(0.407559 0.00429363 0)
(0.406619 0.00422489 0)
(0.405684 0.00407687 0)
(0.404774 0.00387456 0)
(0.403901 0.00363972 0)
(0.403074 0.00339115 0)
(0.402297 0.00314496 0)
(0.401569 0.00291491 0)
(0.400889 0.00271275 0)
(0.400249 0.00254855 0)
(0.446535 0.00516637 0)
(0.445734 0.00510837 0)
(0.444933 0.00494969 0)
(0.444148 0.00472093 0)
(0.443393 0.00444887 0)
(0.442673 0.00415677 0)
(0.441995 0.00386467 0)
(0.441357 0.00358976 0)
(0.440759 0.00334678 0)
(0.440195 0.00314844 0)
(0.474974 0.00587111 0)
(0.474362 0.00582541 0)
(0.473749 0.0056614 0)
(0.473146 0.00541407 0)
(0.472564 0.00511419 0)
(0.472008 0.00478861 0)
(0.471482 0.0044606 0)
(0.470986 0.00415019 0)
(0.47052 0.00387464 0)
(0.47008 0.00364885 0)
(0.493012 0.00636951 0)
(0.492625 0.0063323 0)
(0.492237 0.00616497 0)
(0.491857 0.0059053 0)
(0.491489 0.00558667 0)
(0.491138 0.00523834 0)
(0.490805 0.00488575 0)
(0.490491 0.00455092 0)
(0.490195 0.00425286 0)
(0.489915 0.00400809 0)
(0.50081 0.00663634 0)
(0.500668 0.00659998 0)
(0.50053 0.00642881 0)
(0.500397 0.00616161 0)
(0.50027 0.00583278 0)
(0.500149 0.00547258 0)
(0.500034 0.00510741 0)
(0.499926 0.0047602 0)
(0.499823 0.00445084 0)
(0.499726 0.00419664 0)
(0.498541 0.00665714 0)
(0.498654 0.00661269 0)
(0.498774 0.0064363 0)
(0.498897 0.00616589 0)
(0.499019 0.00583525 0)
(0.499137 0.00547416 0)
(0.499249 0.00510871 0)
(0.499355 0.00476163 0)
(0.499455 0.00445266 0)
(0.499548 0.00419907 0)
(0.486382 0.00642749 0)
(0.486746 0.00636762 0)
(0.48712 0.00618569 0)
(0.487493 0.0059171 0)
(0.487856 0.00559345 0)
(0.488205 0.00524271 0)
(0.488536 0.00488941 0)
(0.488848 0.00455497 0)
(0.489142 0.00425808 0)
(0.489419 0.00401506 0)
(0.464506 0.00595424 0)
(0.465105 0.0058757 0)
(0.465712 0.00569066 0)
(0.466311 0.00543061 0)
(0.466891 0.00512366 0)
(0.467446 0.00479479 0)
(0.467971 0.00446593 0)
(0.468465 0.00415626 0)
(0.468929 0.00388252 0)
(0.469367 0.00365943 0)
(0.433072 0.00525847 0)
(0.433873 0.00516346 0)
(0.434675 0.00498134 0)
(0.43546 0.00473859 0)
(0.436216 0.00445896 0)
(0.436936 0.00416348 0)
(0.437615 0.00387074 0)
(0.438252 0.00359693 0)
(0.438849 0.00335627 0)
(0.439412 0.0031612 0)
(0.392217 0.00437879 0)
(0.393167 0.00427503 0)
(0.394108 0.00410515 0)
(0.395023 0.00389006 0)
(0.395898 0.00364854 0)
(0.396726 0.00339725 0)
(0.397504 0.00315088 0)
(0.398232 0.00292224 0)
(0.398913 0.00272261 0)
(0.399553 0.00256185 0)
(0.342042 0.00337398 0)
(0.34307 0.00327325 0)
(0.344077 0.00312678 0)
(0.345048 0.00294991 0)
(0.34597 0.00275619 0)
(0.346838 0.00255787 0)
(0.34765 0.00236552 0)
(0.348406 0.00218862 0)
(0.349111 0.00203519 0)
(0.349773 0.0019126 0)
(0.28261 0.00232451 0)
(0.283625 0.00223981 0)
(0.284608 0.00212744 0)
(0.285548 0.00199718 0)
(0.286435 0.00185801 0)
(0.287264 0.00171766 0)
(0.288035 0.00158318 0)
(0.28875 0.00146047 0)
(0.289415 0.00135496 0)
(0.290038 0.00127115 0)
(0.213944 0.00133303 0)
(0.214836 0.00127517 0)
(0.215692 0.00120367 0)
(0.216502 0.0011238 0)
(0.217262 0.00104035 0)
(0.217967 0.000957504 0)
(0.21862 0.000878989 0)
(0.219222 0.000807996 0)
(0.21978 0.000747381 0)
(0.2203 0.000699572 0)
(0.13603 0.000534307 0)
(0.136676 0.000505679 0)
(0.137289 0.000472695 0)
(0.137865 0.000437448 0)
(0.138401 0.000401589 0)
(0.138895 0.000366788 0)
(0.13935 0.000334272 0)
(0.139767 0.000305336 0)
(0.140151 0.000280853 0)
(0.140508 0.000261844 0)
(0.0488514 4.86339e-05 0)
(0.0491166 4.58306e-05 0)
(0.0493656 4.27765e-05 0)
(0.0495966 3.95922e-05 0)
(0.0498092 3.63977e-05 0)
(0.0500034 3.32952e-05 0)
(0.0501802 3.03869e-05 0)
(0.0503411 2.77599e-05 0)
(0.0504882 2.54976e-05 0)
(0.0506241 2.36716e-05 0)
(0.0503106 2.20524e-05 0)
(0.0501899 2.12279e-05 0)
(0.0500711 2.10014e-05 0)
(0.0499503 2.14509e-05 0)
(0.0498234 2.26138e-05 0)
(0.0496859 2.45783e-05 0)
(0.0495328 2.73923e-05 0)
(0.0493589 3.11653e-05 0)
(0.0491582 3.59668e-05 0)
(0.0489242 4.19378e-05 0)
(0.0486496 4.91795e-05 0)
(0.0483261 5.78736e-05 0)
(0.0479443 6.81617e-05 0)
(0.0474937 8.02727e-05 0)
(0.0469621 9.43954e-05 0)
(0.0463357 0.000110812 0)
(0.0455988 0.000129768 0)
(0.0447335 0.000151615 0)
(0.0437191 0.00017669 0)
(0.0425322 0.000205472 0)
(0.0411458 0.000238486 0)
(0.039529 0.000276487 0)
(0.0376459 0.000320366 0)
(0.0354562 0.000371287 0)
(0.0329147 0.000430401 0)
(0.0299739 0.000498486 0)
(0.0265911 0.000574719 0)
(0.0227412 0.000654717 0)
(0.018443 0.000727142 0)
(0.0137993 0.00076954 0)
(0.00905105 0.0007448 0)
(0.00463212 0.000601677 0)
(0.0011806 0.000286637 0)
(-0.00062707 -0.000187214 0)
(-0.000512735 -0.000519474 0)
(0.139931 0.000245867 0)
(0.139611 0.000238926 0)
(0.139295 0.0002393 0)
(0.138974 0.000247597 0)
(0.138639 0.000264475 0)
(0.138276 0.000290668 0)
(0.137874 0.000327034 0)
(0.13742 0.000374587 0)
(0.136897 0.000434543 0)
(0.13629 0.000508353 0)
(0.135578 0.000597742 0)
(0.134741 0.000704747 0)
(0.133753 0.000831758 0)
(0.132587 0.000981552 0)
(0.131211 0.00115734 0)
(0.129586 0.00136283 0)
(0.127672 0.00160224 0)
(0.12542 0.00188047 0)
(0.122772 0.00220312 0)
(0.119666 0.00257667 0)
(0.116027 0.00300859 0)
(0.11177 0.00350736 0)
(0.106799 0.00408212 0)
(0.101007 0.00474158 0)
(0.094277 0.00549118 0)
(0.0864914 0.0063272 0)
(0.0775484 0.00722591 0)
(0.0673948 0.00812594 0)
(0.056082 0.00890381 0)
(0.0438503 0.00934885 0)
(0.0312347 0.00915392 0)
(0.0191625 0.00795868 0)
(0.00897383 0.00550838 0)
(0.00220989 0.00206103 0)
(-0.000232077 -0.000705919 0)
(0.219721 0.000659169 0)
(0.219251 0.000641146 0)
(0.218788 0.000641501 0)
(0.218318 0.000662018 0)
(0.217826 0.000704539 0)
(0.217297 0.000771139 0)
(0.216712 0.000864162 0)
(0.216053 0.000986404 0)
(0.215296 0.00114114 0)
(0.214417 0.00133232 0)
(0.213389 0.0015646 0)
(0.212179 0.00184352 0)
(0.210753 0.00217558 0)
(0.209067 0.00256843 0)
(0.207075 0.00303089 0)
(0.204722 0.00357327 0)
(0.201943 0.00420742 0)
(0.198665 0.00494704 0)
(0.194804 0.00580783 0)
(0.190261 0.00680784 0)
(0.184922 0.00796748 0)
(0.178657 0.00930933 0)
(0.171318 0.0108568 0)
(0.16274 0.0126308 0)
(0.152741 0.0146424 0)
(0.141138 0.0168783 0)
(0.127764 0.0192753 0)
(0.11251 0.021681 0)
(0.095398 0.0238003 0)
(0.0766847 0.0251409 0)
(0.0570051 0.0249964 0)
(0.0375196 0.022536 0)
(0.0200282 0.0171283 0)
(0.00697346 0.00910598 0)
(0.000326083 0.00123541 0)
(0.289634 0.00120084 0)
(0.289069 0.00116891 0)
(0.288512 0.00116935 0)
(0.287948 0.0012055 0)
(0.287358 0.00128086 0)
(0.286726 0.00139927 0)
(0.286029 0.00156514 0)
(0.285244 0.00178362 0)
(0.284345 0.00206081 0)
(0.283304 0.00240399 0)
(0.282085 0.00282185 0)
(0.280652 0.00332467 0)
(0.278961 0.00392464 0)
(0.276962 0.00463607 0)
(0.274595 0.00547573 0)
(0.271794 0.00646312 0)
(0.268479 0.00762093 0)
(0.26456 0.0089754 0)
(0.25993 0.0105568 0)
(0.254463 0.0123998 0)
(0.248017 0.0145436 0)
(0.240425 0.0170314 0)
(0.231493 0.0199079 0)
(0.221006 0.0232136 0)
(0.208721 0.0269725 0)
(0.19438 0.031168 0)
(0.177729 0.0357014 0)
(0.158552 0.0403266 0)
(0.136749 0.0445598 0)
(0.112452 0.0475809 0)
(0.086203 0.0481788 0)
(0.0591934 0.0448462 0)
(0.0335937 0.0362244 0)
(0.0129957 0.0221913 0)
(0.00100254 0.00598403 0)
(0.349622 0.00181102 0)
(0.349019 0.00176366 0)
(0.348423 0.00176365 0)
(0.347821 0.00181622 0)
(0.347194 0.0019268 0)
(0.346521 0.00210131 0)
(0.345783 0.00234653 0)
(0.344953 0.00267036 0)
(0.344004 0.00308217 0)
(0.342904 0.00359312 0)
(0.341619 0.00421654 0)
(0.340108 0.00496831 0)
(0.338322 0.00586728 0)
(0.336208 0.00693569 0)
(0.333701 0.00819973 0)
(0.330729 0.00969007 0)
(0.327202 0.0114425 0)
(0.32302 0.0134988 0)
(0.318062 0.0159072 0)
(0.312189 0.0187232 0)
(0.305234 0.0220103 0)
(0.297005 0.0258387 0)
(0.287277 0.0302827 0)
(0.275788 0.0354134 0)
(0.262239 0.0412822 0)
(0.246293 0.0478895 0)
(0.227584 0.0551286 0)
(0.205746 0.0626937 0)
(0.180463 0.0699455 0)
(0.151598 0.0757446 0)
(0.119394 0.0783036 0)
(0.0848339 0.0751937 0)
(0.0502935 0.0637714 0)
(0.0207144 0.0425515 0)
(0.00190693 0.0142635 0)
(0.399641 0.0024311 0)
(0.399054 0.00236827 0)
(0.398476 0.00236739 0)
(0.397891 0.00243567 0)
(0.397282 0.00258058 0)
(0.396632 0.00281026 0)
(0.395919 0.00313398 0)
(0.395118 0.00356252 0)
(0.394204 0.00410868 0)
(0.393145 0.00478772 0)
(0.391908 0.0056179 0)
(0.39045 0.00662104 0)
(0.388727 0.00782311 0)
(0.386684 0.00925493 0)
(0.384256 0.0109529 0)
(0.381368 0.01296 0)
(0.377933 0.0153266 0)
(0.373846 0.0181117 0)
(0.368982 0.0213841 0)
(0.363195 0.0252237 0)
(0.356312 0.0297222 0)
(0.348125 0.0349833 0)
(0.338389 0.04112 0)
(0.326812 0.0482472 0)
(0.313048 0.0564644 0)
(0.296688 0.0658208 0)