/*--------------------------------*- C++ -*----------------------------------*\
| =========                 |                                                 |
| \\      /  F ield         | OpenFOAM: The Open Source CFD Toolbox           |
|  \\    /   O peration     | Version:  2406                                  |
|   \\  /    A nd           | Website:  www.openfoam.com                      |
|    \\/     M anipulation  |                                                 |
\*---------------------------------------------------------------------------*/
FoamFile
{
    version     2.0;
    format      ascii;
    arch        "LSB;label=32;scalar=64";
    class       surfaceScalarField;
    location    "132";
    object      phi;
}
// * * * * * * * * * * * * * * * * * * * * * * * * * * * * * * * * * * * * * //

dimensions      [0 3 -1 0 0 0 0];

oriented        oriented;

internalField   nonuniform List<scalar> 
3698
(
0.009887
-0.000137002
0.0100154
-0.000128362
0.0100952
-7.98744e-05
0.0101474
-5.21349e-05
0.010184
-3.66722e-05
0.01021
-2.595e-05
0.0102285
-1.8497e-05
0.0102421
-1.36445e-05
0.0102526
-1.0451e-05
0.0102608
-8.21094e-06
0.0102673
-6.55668e-06
0.0102726
-5.29487e-06
0.0102769
-4.29914e-06
0.0102804
-3.47945e-06
0.0102832
-2.77127e-06
0.0102853
-2.12525e-06
0.0102868
-1.49872e-06
0.0102876
-8.50133e-07
0.0102878
-1.34729e-07
0.0102871
6.99061e-07
0.0102853
1.71453e-06
0.0102823
2.99298e-06
0.0102777
4.64069e-06
0.0102709
6.79809e-06
0.0102612
9.65184e-06
0.0102478
1.34508e-05
0.0102292
1.85264e-05
0.0102039
2.5319e-05
0.0101695
3.44108e-05
0.0101229
4.65665e-05
0.0100601
6.27803e-05
0.00997577
8.43288e-05
0.00986294
0.000112822
0.00971268
0.000150244
0.00951371
0.000198953
0.00925207
0.000261622
0.00891101
0.000341048
0.00847122
0.00043977
0.00791179
0.00055942
0.00721201
0.000699759
0.00635453
0.000857469
0.00532974
0.00102477
0.00414224
0.00118748
0.00282437
0.00131784
0.00148058
0.00134376
0.0004108
0.00106974
0.00041079
0.0277069
-9.38987e-05
0.0277291
-0.000150597
0.0277775
-0.000128254
0.0278259
-0.000100591
0.0278695
-8.02134e-05
0.0279069
-6.33254e-05
0.0279378
-4.94352e-05
0.0279631
-3.89215e-05
0.0279838
-3.11636e-05
0.0280008
-2.52861e-05
0.028015
-2.0699e-05
0.0280267
-1.70442e-05
0.0280365
-1.40638e-05
0.0280445
-1.15552e-05
0.0280511
-9.35856e-06
0.0280563
-7.34225e-06
0.0280602
-5.38703e-06
0.0280627
-3.37347e-06
0.0280638
-1.17111e-06
0.0280631
1.37302e-06
0.0280603
4.44798e-06
0.028055
8.29542e-06
0.0280464
1.32312e-05
0.0280335
1.96732e-05
0.028015
2.81785e-05
0.0279889
3.94911e-05
0.0279528
5.46062e-05
0.0279033
7.48526e-05
0.0278356
0.000101999
0.0277438
0.000138391
0.0276194
0.000187115
0.0274515
0.0002522
0.0272255
0.000338845
0.026922
0.00045365
0.0265161
0.000604819
0.0259755
0.00080224
0.0252592
0.00105732
0.0243165
0.00138236
0.0230868
0.00178909
0.0215004
0.00228618
0.0194827
0.0028751
0.0169632
0.00354424
0.0138912
0.00425935
0.0102714
0.0049376
0.00625264
0.00536242
0.00238431
0.00493799
0.0027951
0.0437119
-5.57659e-05
0.0436789
-0.000117606
0.043674
-0.000123353
0.0436853
-0.00011194
0.0437045
-9.94408e-05
0.0437273
-8.60997e-05
0.0437505
-7.26008e-05
0.0437722
-6.06328e-05
0.0437917
-5.07238e-05
0.043809
-4.25667e-05
0.0438241
-3.57842e-05
0.0438371
-3.01011e-05
0.0438483
-2.528e-05
0.0438579
-2.10983e-05
0.0438659
-1.73542e-05
0.0438724
-1.38639e-05
0.0438774
-1.04475e-05
0.043881
-6.91492e-06
0.0438828
-3.05123e-06
0.0438828
1.40106e-06
0.0438805
6.76364e-06
0.0438753
1.34504e-05
0.0438665
2.20043e-05
0.043853
3.31453e-05
0.0438334
4.78355e-05
0.0438055
6.73637e-05
0.0437666
9.34598e-05
0.043713
0.000128444
0.0436395
0.000175425
0.0435394
0.000238554
0.0434031
0.000323355
0.0432181
0.00043714
0.0429674
0.000589516
0.0426281
0.000792986
0.0421692
0.00106361
0.0415498
0.00142166
0.040715
0.00189208
0.0395928
0.00250454
0.0380895
0.00329235
0.0360859
0.00428972
0.0334351
0.00552587
0.029965
0.00701429
0.0254909
0.00873343
0.0198516
0.0105768
0.0130148
0.0121991
0.0055377
0.0124151
0.00833279
0.057728
-3.37983e-05
0.0576924
-8.2023e-05
0.0576676
-9.84809e-05
0.0576546
-9.90169e-05
0.0576504
-9.52465e-05
0.0576529
-8.85448e-05
0.0576598
-7.94974e-05
0.057669
-6.99044e-05
0.0576793
-6.09462e-05
0.0576896
-5.28949e-05
0.0576995
-4.57175e-05
0.0577088
-3.9349e-05
0.0577172
-3.36876e-05
0.0577246
-2.85868e-05
0.0577312
-2.38767e-05
0.0577367
-1.93768e-05
0.0577411
-1.48898e-05
0.0577444
-1.01906e-05
0.0577463
-5.01105e-06
0.0577467
9.80284e-07
0.0577453
8.20513e-06
0.0577415
1.72119e-05
0.0577348
2.87244e-05
0.0577242
4.37068e-05
0.0577086
6.34511e-05
0.0576862
8.96946e-05
0.0576549
0.000124777
0.0576115
0.000171851
0.0575517
0.000235165
0.0574698
0.000320436
0.0573578
0.000435347
0.0572047
0.000590194
0.0569955
0.000798732
0.0567092
0.00107925
0.0563168
0.00145593
0.055778
0.00196046
0.0550362
0.00263389
0.0540121
0.00352857
0.0525948
0.00470966
0.0506291
0.00625534
0.0479008
0.00825412
0.0441195
0.0107955
0.038904
0.0139488
0.0317844
0.0176963
0.0222612
0.0217223
0.0104271
0.0242491
0.0187599
0.0697375
-2.13442e-05
0.0697116
-5.60711e-05
0.0696863
-7.32448e-05
0.0696661
-7.87542e-05
0.0696507
-7.98468e-05
0.0696401
-7.79279e-05
0.0696338
-7.32284e-05
0.0696309
-6.70085e-05
0.0696304
-6.04285e-05
0.0696314
-5.39836e-05
0.0696336
-4.78325e-05
0.0696363
-4.20527e-05
0.0696392
-3.66594e-05
0.0696422
-3.15953e-05
0.0696451
-2.67505e-05
0.0696477
-2.19796e-05
0.0696499
-1.71023e-05
0.0696516
-1.18942e-05
0.0696527
-6.073e-06
0.0696529
7.22255e-07
0.0696521
8.96066e-06
0.0696501
1.92597e-05
0.0696464
3.24405e-05
0.0696404
4.96021e-05
0.0696317
7.22233e-05
0.069619
0.000102299
0.0696013
0.000142527
0.0695766
0.000196556
0.0695424
0.000269334
0.0694952
0.000367563
0.0694302
0.000500331
0.0693404
0.000679957
0.069216
0.000923146
0.0690427
0.00125254
0.0687998
0.00169879
0.0684568
0.00230342
0.0679682
0.00312245
0.0672654
0.00423137
0.0662438
0.00573126
0.0647428
0.00775629
0.0625148
0.010482
0.0591787
0.0141316
0.0541497
0.0189778
0.0465465
0.0252994
0.0350436
0.033225
0.01828
0.0410127
0.0370399
0.0797426
-1.39178e-05
0.0797247
-3.82179e-05
0.079704
-5.25559e-05
0.0796843
-5.90101e-05
0.0796663
-6.18635e-05
0.0796506
-6.22558e-05
0.0796376
-6.02692e-05
0.0796273
-5.66654e-05
0.0796192
-5.23309e-05
0.079613
-4.77425e-05
0.0796082
-4.30981e-05
0.0796047
-3.85119e-05
0.0796021
-3.4044e-05
0.0796001
-2.96859e-05
0.0795988
-2.53714e-05
0.0795978
-2.09903e-05
0.079597
-1.63906e-05
0.0795965
-1.13703e-05
0.0795961
-5.66437e-06
0.0795957
1.07574e-06
0.0795954
9.31029e-06
0.079595
1.96516e-05
0.0795945
3.29193e-05
0.0795939
5.02157e-05
0.079593
7.30291e-05
0.079592
0.000103374
0.0795905
0.000143983
0.0795885
0.000198571
0.0795856
0.000272194
0.0795814
0.000371747
0.079575
0.000506653
0.0795652
0.000689816
0.0795493
0.000938954
0.0795234
0.00127847
0.07948
0.00174213
0.0794066
0.00237682
0.079281
0.00324802
0.0790645
0.00444781
0.0786892
0.00610651
0.0780354
0.00841009
0.0768909
0.0116264
0.0748785
0.0161439
0.0713197
0.0225366
0.0649889
0.03163
0.0534664
0.0447476
0.0320356
0.0624434
0.0690755
0.0877451
-9.0517e-06
0.0877323
-2.54339e-05
0.0877159
-3.60744e-05
0.0876985
-4.165e-05
0.0876812
-4.45974e-05
0.0876647
-4.57145e-05
0.0876495
-4.50509e-05
0.0876358
-4.30546e-05
0.0876238
-4.03335e-05
0.0876134
-3.72619e-05
0.0876043
-3.40104e-05
0.0875964
-3.0678e-05
0.0875897
-2.73226e-05
0.087584
-2.39496e-05
0.0875791
-2.0515e-05
0.087575
-1.69353e-05
0.0875717
-1.30881e-05
0.0875692
-8.80567e-06
0.0875674
-3.86292e-06
0.0875664
2.04041e-06
0.0875664
9.30483e-06
0.0875676
1.84665e-05
0.0875702
3.02464e-05
0.0875748
4.56172e-05
0.0875819
6.58957e-05
0.0875924
9.28687e-05
0.0876074
0.000128967
0.0876285
0.000177506
0.0876576
0.000243016
0.0876977
0.000331708
0.0877522
0.000452124
0.0878259
0.000616057
0.087925
0.00083987
0.088057
0.0011464
0.0882314
0.00156774
0.0884588
0.0021494
0.0887502
0.00295657
0.0891142
0.00408382
0.0895502
0.00567044
0.090035
0.00792531
0.0904919
0.0111695
0.0907249
0.0159108
0.0902618
0.0229996
0.0879646
0.0339272
0.0808399
0.0518722
0.0606581
0.082625
0.129734
0.0937464
-5.48105e-06
0.0937366
-1.55789e-05
0.093723
-2.24923e-05
0.0937077
-2.64095e-05
0.0936918
-2.86338e-05
0.0936757
-2.96463e-05
0.0936601
-2.94827e-05
0.0936455
-2.83964e-05
0.0936319
-2.67623e-05
0.0936195
-2.48322e-05
0.0936082
-2.27274e-05
0.093598
-2.05166e-05
0.0935889
-1.82399e-05
0.0935809
-1.5902e-05
0.0935738
-1.34725e-05
0.0935678
-1.08915e-05
0.0935628
-8.07011e-06
0.0935588
-4.88551e-06
0.0935561
-1.17171e-06
0.0935549
3.29358e-06
0.0935554
8.80786e-06
0.093558
1.57703e-05
0.0935636
2.47184e-05
0.0935728
3.63785e-05
0.0935869
5.1735e-05
0.0936077
7.21258e-05
0.0936372
9.9374e-05
0.0936788
0.000135971
0.0937364
0.000185333
0.093816
0.000252158
0.0939251
0.000342939
0.0940745
0.000466694
0.0942783
0.00063603
0.094556
0.000868703
0.0949337
0.00118996
0.095447
0.00163608
0.0961437
0.00225989
0.097088
0.00313948
0.0983663
0.00439215
0.100094
0.00619745
0.102428
0.00883565
0.105585
0.0127532
0.109913
0.0186718
0.116071
0.0277693
0.126185
0.0417574
0.146386
0.0624243
0.0863868
0.189733
0.0977471
-2.56049e-06
0.0977388
-7.31351e-06
0.097727
-1.0638e-05
0.0977131
-1.25713e-05
0.0976982
-1.36788e-05
0.0976827
-1.41809e-05
0.0976673
-1.40954e-05
0.0976524
-1.35372e-05
0.0976383
-1.26838e-05
0.0976252
-1.166e-05
0.097613
-1.05278e-05
0.0976018
-9.32092e-06
0.0975916
-8.05817e-06
0.0975824
-6.74019e-06
0.0975743
-5.3492e-06
0.0975672
-3.85153e-06
0.0975614
-2.19787e-06
0.0975568
-3.20535e-07
0.0975537
1.87145e-06
0.0975525
4.49943e-06
0.0975536
7.7253e-06
0.0975576
1.17657e-05
0.0975654
1.69118e-05
0.0975782
2.35562e-05
0.0975977
3.22305e-05
0.0976262
4.36567e-05
0.0976667
5.88185e-05
0.0977236
7.90605e-05
0.0978027
0.000106228
0.097912
0.000142863
0.0980624
0.000192488
0.0982691
0.000260011
0.0985528
0.000352319
0.0989423
0.000479169
0.0994777
0.000654516
0.100215
0.00089857
0.101234
0.00124099
0.102648
0.00172591
0.10462
0.00242
0.107392
0.00342505
0.111331
0.00489702
0.117011
0.00707303
0.125394
0.010288
0.138172
0.0149919
0.158513
0.0214161
0.191185
0.0297521
0.0410627
0.236509
0.0997474
8.33942e-08
0.0997398
2.49763e-07
0.0997287
4.14522e-07
0.0997156
5.80859e-07
0.0997011
7.50688e-07
0.099686
9.25769e-07
0.0996708
1.10804e-06
0.099656
1.29965e-06
0.0996418
1.50299e-06
0.0996284
1.72068e-06
0.0996159
1.95564e-06
0.0996044
2.21106e-06
0.0995938
2.49048e-06
0.0995843
2.79781e-06
0.0995758
3.13738e-06
0.0995684
3.514e-06
0.0995623
3.933e-06
0.0995576
4.40035e-06
0.0995545
4.92269e-06
0.0995535
5.50749e-06
0.0995551
6.1631e-06
0.0995599
6.89898e-06
0.0995691
7.7258e-06
0.099584
8.65573e-06
0.0996065
9.70269e-06
0.0996393
1.08828e-05
0.0996858
1.22147e-05
0.0997512
1.37207e-05
0.099842
1.54271e-05
0.0999674
1.73665e-05
0.10014
1.95792e-05
0.100378
2.21169e-05
0.100705
2.50476e-05
0.101156
2.84632e-05
0.101778
3.2492e-05
0.102639
3.7319e-05
0.103837
4.3218e-05
0.105512
5.06108e-05
0.107872
6.01617e-05
0.111224
7.29611e-05
0.11603
9.08474e-05
0.122986
0.000117003
0.133117
0.000157139
0.147888
0.000221156
0.168978
0.000326229
0.198223
0.000506736
0.000786717
0.238499
0.0997474
2.72488e-06
0.0997398
7.80589e-06
0.0997288
1.14551e-05
0.0997156
1.37162e-05
0.0997012
1.51582e-05
0.0996861
1.60049e-05
0.0996709
1.62782e-05
0.0996561
1.6097e-05
0.099642
1.56436e-05
0.0996287
1.50479e-05
0.0996162
1.43778e-05
0.0996048
1.36732e-05
0.0995943
1.29598e-05
0.0995849
1.22461e-05
0.0995765
1.15228e-05
0.0995692
1.07656e-05
0.0995632
9.93577e-06
0.0995586
8.97732e-06
0.0995557
7.81236e-06
0.0995549
6.33417e-06
0.0995566
4.3973e-06
0.0995617
1.80358e-06
0.0995712
-1.71715e-06
0.0995863
-6.5338e-06
0.0996092
-1.31508e-05
0.0996423
-2.22587e-05
0.0996893
-3.48049e-05
0.0997551
-5.20914e-05
0.0998464
-7.59122e-05
0.0999725
-0.000108748
0.100146
-0.000154045
0.100385
-0.000216612
0.100713
-0.000303213
0.101165
-0.000423435
0.101788
-0.000591003
0.102652
-0.000825797
0.103852
-0.001157
0.10553
-0.00162803
0.107895
-0.00230444
0.111254
-0.00328625
0.116071
-0.0047265
0.123046
-0.00685735
0.133207
-0.0100045
0.14803
-0.014602
0.169203
-0.0208459
0.198571
-0.0288611
-0.0397048
0.239062
0.0977471
5.63836e-06
0.0977388
1.605e-05
0.097727
2.32738e-05
0.0977132
2.75041e-05
0.0976983
3.00475e-05
0.0976829
3.13884e-05
0.0976677
3.15663e-05
0.0976529
3.08385e-05
0.097639
2.95846e-05
0.0976259
2.8061e-05
0.0976139
2.63949e-05
0.0976029
2.46608e-05
0.097593
2.29055e-05
0.0975841
2.1141e-05
0.0975763
1.93451e-05
0.0975696
1.74667e-05
0.0975641
1.54271e-05
0.0975599
1.31146e-05
0.0975573
1.03754e-05
0.0975567
7.00116e-06
0.0975583
2.70992e-06
0.097563
-2.88008e-06
0.0975716
-1.02867e-05
0.0975853
-2.02141e-05
0.0976057
-3.36214e-05
0.0976353
-5.18176e-05
0.097677
-7.65929e-05
0.0977353
-0.0001104
0.097816
-0.00015661
0.0979271
-0.000219867
0.0980797
-0.000306601
0.0982888
-0.00042575
0.0985754
-0.000589822
0.0989684
-0.000816446
0.099508
-0.0011307
0.100251
-0.00156865
0.101277
-0.00218284
0.1027
-0.00305093
0.104685
-0.00428967
0.107476
-0.00607787
0.111445
-0.00869478
0.117173
-0.0125856
0.125639
-0.0184706
0.138564
-0.027527
0.159178
-0.0414595
0.192357
-0.0620403
-0.0859271
0.23858
0.0937464
9.19729e-06
0.0937366
2.587e-05
0.0937231
3.67975e-05
0.0937079
4.2662e-05
0.0936921
4.59032e-05
0.0936761
4.7322e-05
0.0936607
4.69715e-05
0.0936463
4.53033e-05
0.0936329
4.29298e-05
0.0936207
4.02296e-05
0.0936097
3.73785e-05
0.0935999
3.44811e-05
0.0935912
3.16013e-05
0.0935836
2.87514e-05
0.0935771
2.58948e-05
0.0935716
2.29562e-05
0.0935672
1.98223e-05
0.0935639
1.63356e-05
0.093562
1.22822e-05
0.0935616
7.3744e-06
0.0935631
1.22579e-06
0.0935669
-6.68414e-06
0.0935737
-1.70587e-05
0.0935843
-3.08509e-05
0.0936
-4.93552e-05
0.0936225
-7.43336e-05
0.0936541
-0.000108189
0.0936979
-0.000154203
0.0937581
-0.000216872
0.0938406
-0.000302364
0.0939532
-0.000419174
0.0941065
-0.000579042
0.0943149
-0.000798267
0.094598
-0.00109962
0.0949824
-0.0015151
0.0955039
-0.00209016
0.096211
-0.0028899
0.0971689
-0.00400885
0.0984655
-0.00558635
0.100219
-0.00783157
0.102591
-0.0110664
0.105806
-0.0158008
0.110226
-0.0228904
0.116537
-0.0338387
0.126942
-0.0518644
0.147763
-0.0828607
-0.130767
0.192603
0.0877451
1.40473e-05
0.0877324
3.86059e-05
0.087716
5.3199e-05
0.0876988
5.99089e-05
0.0876816
6.30214e-05
0.0876653
6.36789e-05
0.0876503
6.19666e-05
0.0876369
5.86496e-05
0.0876252
5.46184e-05
0.0876151
5.03536e-05
0.0876064
4.60578e-05
0.087599
4.18502e-05
0.0875928
3.77962e-05
0.0875877
3.38933e-05
0.0875835
3.00817e-05
0.0875802
2.62587e-05
0.0875777
2.228e-05
0.0875761
1.79527e-05
0.0875754
1.30212e-05
0.0875756
7.14809e-06
0.0875769
-1.14902e-07
0.0875796
-9.36662e-06
0.0875839
-2.14117e-05
0.0875904
-3.73361e-05
0.0875997
-5.86096e-05
0.0876125
-8.72263e-05
0.0876302
-0.000125897
0.0876543
-0.000178311
0.0876869
-0.000249499
0.0877309
-0.000346329
0.0877899
-0.000478194
0.0878688
-0.000657971
0.0879739
-0.000903354
0.088113
-0.00123874
0.0882957
-0.00169788
0.0885333
-0.0023277
0.0888372
-0.00319382
0.0892168
-0.00438853
0.0896731
-0.00604262
0.0901845
-0.00834294
0.0906771
-0.011559
0.0909586
-0.0160823
0.0905608
-0.0224926
0.088347
-0.0316249
0.0813086
-0.0448261
0.0611389
-0.062691
-0.0696281
0.0797426
2.14536e-05
0.0797248
5.63993e-05
0.0797042
7.37881e-05
0.0796846
7.95119e-05
0.0796668
8.08205e-05
0.0796513
7.91215e-05
0.0796387
7.46484e-05
0.0796286
6.86646e-05
0.0796209
6.23335e-05
0.0796151
5.61538e-05
0.0796109
5.02883e-05
0.0796079
4.48183e-05
0.0796059
3.97638e-05
0.0796048
3.50724e-05
0.0796042
3.06397e-05
0.0796041
2.63261e-05
0.0796044
2.19579e-05
0.0796051
1.7318e-05
0.0796059
1.21321e-05
0.079607
6.04806e-06
0.0796083
-1.39347e-06
0.0796097
-1.07992e-05
0.0796113
-2.29783e-05
0.079613
-3.9017e-05
0.0796147
-6.03799e-05
0.0796165
-8.90467e-05
0.0796183
-0.000127699
0.07962
-0.00017997
0.0796212
-0.00025079
0.0796217
-0.000346846
0.0796207
-0.000477215
0.079617
-0.000654213
0.0796081
-0.00089455
0.0795903
-0.00122089
0.0795564
-0.00166398
0.0794941
-0.00226541
0.0793817
-0.00308147
0.0791812
-0.00418799
0.0788252
-0.00568668
0.078195
-0.00771272
0.0770792
-0.0104433
0.0751011
-0.0141042
0.0715806
-0.0189722
0.0652874
-0.0253318
0.0537836
-0.0333224
0.0323021
-0.0412096
-0.0373261
0.0697376
3.38841e-05
0.0697117
8.22811e-05
0.0696866
9.89075e-05
0.0696665
9.96099e-05
0.0696513
9.60056e-05
0.0696409
8.94716e-05
0.069635
8.05961e-05
0.0696324
7.11813e-05
0.0696324
6.24105e-05
0.069634
5.45588e-05
0.0696366
4.75958e-05
0.06964
4.14602e-05
0.0696437
3.60536e-05
0.0696475
3.12331e-05
0.0696513
2.68333e-05
0.069655
2.2678e-05
0.0696584
1.85749e-05
0.0696614
1.43044e-05
0.0696639
9.60427e-06
0.0696658
4.14975e-06
0.0696668
-2.4737e-06
0.0696668
-1.08065e-05
0.0696654
-2.1564e-05
0.0696621
-3.57009e-05
0.0696562
-5.44996e-05
0.0696468
-7.96869e-05
0.0696327
-0.000113593
0.0696121
-0.00015936
0.0695825
-0.00022123
0.0695405
-0.000304914
0.0694814
-0.000418096
0.0693983
-0.000571084
0.0692814
-0.000777661
0.0691166
-0.00105617
0.0688835
-0.00143087
0.0685517
-0.00193362
0.0680759
-0.00260571
0.0673878
-0.00349985
0.0663829
-0.00468178
0.0649006
-0.00623052
0.0626931
-0.00823576
0.0593775
-0.0107887
0.0543658
-0.0139605
0.0467699
-0.017736
0.0352498
-0.0218024
0.0184192
-0.0243792
-0.0189069
0.0577281
5.58252e-05
0.0576925
0.000117786
0.0576678
0.000123651
0.0576551
0.000112353
0.0576511
9.99655e-05
0.0576538
8.67367e-05
0.0576611
7.33519e-05
0.0576707
6.15017e-05
0.0576814
5.17163e-05
0.0576923
4.36905e-05
0.0577028
3.70493e-05
0.0577128
3.15197e-05
0.057722
2.68667e-05
0.0577303
2.28703e-05
0.0577378
1.93315e-05
0.0577444
1.60694e-05
0.0577501
1.29076e-05
0.0577547
9.65954e-06
0.0577582
6.11415e-06
0.0577603
2.01827e-06
0.0577608
-2.94496e-06
0.0577591
-9.1845e-06
0.0577548
-1.72376e-05
0.0577469
-2.78189e-05
0.0577343
-4.18841e-05
0.0577153
-6.07167e-05
0.0576877
-8.6041e-05
0.0576485
-0.000120173
0.0575935
-0.000166219
0.0575169
-0.000228333
0.0574108
-0.000312047
0.0572644
-0.00042469
0.0570626
-0.0005759
0.0567847
-0.000778236
0.0564017
-0.00104784
0.0558732
-0.00140513
0.0551427
-0.00187525
0.054131
-0.00248814
0.0527267
-0.00327753
0.0507743
-0.00427815
0.0480584
-0.00551987
0.0442866
-0.00701692
0.0390745
-0.00874843
0.0319468
-0.0106084
0.0223959
-0.0122516
0.0105047
-0.0124881
-0.00840225
0.0437119
9.39306e-05
0.043679
0.000150698
0.0436742
0.000128422
0.0436857
0.000100821
0.0437052
8.0504e-05
0.0437282
6.36753e-05
0.0437517
4.98449e-05
0.0437739
3.93927e-05
0.0437939
3.16991e-05
0.0438117
2.58901e-05
0.0438273
2.13767e-05
0.043841
1.78022e-05
0.043853
1.49099e-05
0.0438634
1.24986e-05
0.0438723
1.04099e-05
0.0438798
8.51389e-06
0.043886
6.69295e-06
0.0438909
4.82962e-06
0.0438942
2.79535e-06
0.0438957
4.39561e-07
0.0438952
-2.42444e-06
0.043892
-6.03569e-06
0.0438855
-1.07074e-05
0.0438745
-1.68546e-05
0.0438577
-2.50316e-05
0.0438329
-3.59799e-05
0.0437975
-5.06929e-05
0.0437478
-7.04982e-05
0.0436788
-9.7166e-05
0.0435835
-0.000133044
0.0434526
-0.000181228
0.0432737
-0.000245762
0.0430296
-0.000331869
0.0426976
-0.000446189
0.0422467
-0.000596984
0.0416358
-0.00079423
0.04081
-0.00104946
0.039697
-0.00137511
0.0382026
-0.00178315
0.0362069
-0.00228246
0.0335617
-0.00287476
0.0300934
-0.00354863
0.0256147
-0.00426985
0.0199617
-0.00495547
0.0130985
-0.00538854
0.0055805
-0.00497027
-0.00282177
0.0277069
0.000137011
0.0277292
0.000128396
0.0277777
7.99308e-05
0.0278263
5.22113e-05
0.02787
3.67673e-05
0.0279077
2.60632e-05
0.0279389
1.86282e-05
0.0279645
1.37942e-05
0.0279855
1.06202e-05
0.028003
8.40084e-06
0.0280176
6.76897e-06
0.0280299
5.53158e-06
0.0280402
4.56279e-06
0.028049
3.7729e-06
0.0280563
3.09794e-06
0.0280623
2.48895e-06
0.0280671
1.9039e-06
0.0280706
1.30179e-06
0.0280727
6.38657e-07
0.0280733
-1.36838e-07
0.0280719
-1.08727e-06
0.0280682
-2.29294e-06
0.0280613
-3.85921e-06
0.0280504
-5.92589e-06
0.028034
-8.67885e-06
0.0280104
-1.23665e-05
0.027977
-1.73198e-05
0.0279305
-2.39795e-05
0.0278662
-3.29285e-05
0.0277781
-4.49338e-05
0.0276578
-6.09932e-05
0.0274945
-8.23903e-05
0.0272733
-0.000110745
0.0269752
-0.000148057
0.0265749
-0.000196707
0.0260401
-0.000259399
0.0253296
-0.00033897
0.0243924
-0.000438008
0.0231675
-0.000558198
0.0215843
-0.000699353
0.0195677
-0.000858187
0.0170459
-0.00102691
0.0139673
-0.00119127
0.0103352
-0.00132342
0.00629762
-0.00135111
0.0024051
-0.00107786
-0.000416691
0.00988701
0.0100154
0.0100953
0.0101475
0.0101843
0.0102104
0.010229
0.0102428
0.0102534
0.0102618
0.0102686
0.0102741
0.0102787
0.0102825
0.0102855
0.010288
0.0102899
0.0102912
0.0102919
0.0102917
0.0102907
0.0102884
0.0102845
0.0102786
0.0102699
0.0102575
0.0102402
0.0102162
0.0101833
0.0101383
0.0100774
0.00999496
0.00988421
0.00973615
0.00953945
0.00928005
0.00894107
0.00850307
0.00794486
0.00724551
0.00638732
0.0053604
0.00416912
0.00284569
0.00149456
0.000416691
0.138592
0.0511407
0.116048
0.0225439
0.105241
0.0108062
0.10014
0.00510103
0.0979631
0.00217374
-0.000831284
0.098794
0.254391
0.0332584
0.257376
0.019559
0.255259
0.0129219
0.250935
0.00942376
0.245879
0.00722997
0.00605159
0.238994
0.27045
0.00130767
0.287899
0.00210954
0.297697
0.00312423
0.30274
0.00438063
0.303964
0.00600399
0.00812949
0.301888
0.271237
-0.0308671
0.289012
-0.0156647
0.299448
-0.00731091
0.305595
-0.00176742
0.308454
0.00314736
0.00810019
0.308484
0.257569
-0.0498561
0.26241
-0.0205048
0.263124
-0.0080249
0.262537
-0.00117833
0.262286
0.0033987
0.00909742
0.26129
0.142747
0.122242
0.114218
0.113039
0.116439
0.125537
-0.000601244
0.000600964
-0.00192364
0.0013217
-0.00343466
0.00151039
-0.00484964
0.00141443
-0.00608659
0.00123645
-0.00713533
0.00104828
-0.00800682
0.000871033
-0.00871717
0.000709924
-0.00928327
0.000565694
-0.00972183
0.000438172
-0.0100492
0.00032704
-0.0102815
0.000231877
-0.0104339
0.000152117
-0.0105213
8.70511e-05
-0.0105575
3.5838e-05
-0.0105553
-2.47065e-06
-0.0105267
-2.8904e-05
-0.0104825
-4.45911e-05
-0.0104321
-5.0761e-05
-0.0103837
-4.8717e-05
-0.0103442
-3.98016e-05
-0.0103192
-2.5367e-05
-0.0103129
-6.72636e-06
-0.0103281
1.49002e-05
-0.0103669
3.84107e-05
-0.0104301
6.28299e-05
-0.0105178
8.73372e-05
-0.0106295
0.000111258
-0.0107639
0.000134049
-0.0109195
0.000155265
-0.0110943
0.000174539
-0.0112862
0.000191556
-0.0114924
0.000206017
-0.0117102
0.00021757
-0.0119361
0.000225702
-0.0121658
0.000229587
-0.0123937
0.000227838
-0.0126119
0.000218246
-0.0128093
0.000197424
-0.0129693
0.000160279
-0.0130681
9.90346e-05
-0.0130721
4.30726e-06
-0.0129421
-0.000130018
-0.0126335
-0.000307707
-0.0120667
-0.000566632
-0.011103
-0.000963157
-0.00133222
-0.00186111
0.00246135
-0.00509053
0.00454919
-0.0085023
0.00492059
-0.0116152
0.00452601
-0.0142917
0.0039117
-0.0165275
0.00328303
-0.0183618
0.00270426
-0.0198432
0.00219027
-0.021019
0.00174059
-0.0219329
0.00135114
-0.0226242
0.00101758
-0.023129
0.000735829
-0.0234798
0.000502102
-0.0237063
0.000312825
-0.0238358
0.000164554
-0.0238929
5.3907e-05
-0.0239
-2.25288e-05
-0.0238772
-6.82603e-05
-0.0238418
-8.69195e-05
-0.023809
-8.22946e-05
-0.0237914
-5.82919e-05
-0.0237988
-1.88612e-05
-0.0238385
3.21315e-05
-0.0239155
9.10019e-05
-0.0240323
0.000154385
-0.0241897
0.00021929
-0.0243864
0.000283155
-0.0246198
0.000343805
-0.0248859
0.000399425
-0.0251799
0.000448448
-0.0254956
0.000489513
-0.0258261
0.000521369
-0.0261634
0.000542776
-0.0264986
0.000552291
-0.0268212
0.000547988
-0.0271188
0.000527051
-0.0273762
0.000485239
-0.0275741
0.000416275
-0.0276874
0.000311191
-0.0276845
0.000157916
-0.0275257
-5.90875e-05
-0.0271644
-0.000356675
-0.0265464
-0.000747231
-0.02562
-0.00123357
-0.0243696
-0.00181543
-0.0228672
-0.00246537
-0.00294842
-0.0028824
0.00534283
-0.00731629
0.00898132
-0.0116353
0.00923816
-0.0153965
0.0082859
-0.0185453
0.00705948
-0.0211352
0.00587194
-0.0232457
0.00481376
-0.0249544
0.00389812
-0.0263286
0.00311393
-0.0274241
0.00244587
-0.0282876
0.0018803
-0.0289585
0.00140595
-0.0294706
0.00101353
-0.0298537
0.000695254
-0.0301343
0.000444406
-0.030336
0.000254942
-0.0304804
0.000121159
-0.0305868
3.73845e-05
-0.0306722
-2.23205e-06
-0.0307514
-3.82816e-06
-0.0308367
2.61703e-05
-0.0309375
8.11623e-05
-0.0310607
0.000154541
-0.0312104
0.000239922
-0.0313882
0.000331336
-0.0315931
0.000423419
-0.0318222
0.000511459
-0.0320705
0.000591423
-0.0323316
0.000659818
-0.0325974
0.000713591
-0.0328585
0.000749978
-0.0331041
0.000766437
-0.0333222
0.000760452
-0.0334995
0.000729244
-0.0336211
0.000669358
-0.0336703
0.000576118
-0.033628
0.000443035
-0.0334726
0.000261009
-0.0331789
1.79058e-05
-0.0327193
-0.000301201
-0.0320647
-0.000713163
-0.0311857
-0.0012353
-0.0300534
-0.00187919
-0.0286529
-0.00263278
-0.02703
-0.00343787
-0.0252889
-0.0042058
-0.00474684
-0.00349028
0.00883232
-0.00812447
0.0136135
-0.0120816
0.0131937
-0.0152735
0.0114766
-0.0178587
0.00964354
-0.0199719
0.00798411
-0.0217215
0.00656233
-0.0231924
0.00536816
-0.0244466
0.00436732
-0.0255276
0.00352602
-0.0264659
0.00281788
-0.0272838
0.0022232
-0.0279981
0.00172717
-0.0286221
0.00131858
-0.0291671
0.00098876
-0.0296436
0.000730736
-0.0300615
0.0005384
-0.0304307
0.00040584
-0.0307605
0.000326822
-0.0310596
0.00029454
-0.0313356
0.000301456
-0.0315947
0.000339463
-0.031841
0.000400059
-0.0320766
0.000474757
-0.0323014
0.000555361
-0.0325131
0.000634337
-0.0327073
0.000704925
-0.0328779
0.000761252
-0.0330169
0.000798147
-0.0331149
0.000811
-0.0331611
0.000795566
-0.0331431
0.000748
-0.0330477
0.000664647
-0.0328606
0.00054179
-0.0325666
0.00037515
-0.03215
0.00015944
-0.0315948
-0.000112135
-0.0308855
-0.000448197
-0.0300076
-0.000859703
-0.0289489
-0.00135946
-0.0277013
-0.00196045
-0.0262625
-0.00267392
-0.0246359
-0.0035054
-0.0228339
-0.00443408
-0.0209022
-0.00536788
-0.0189279
-0.00617875
-0.00680814
-0.00348491
0.0123163
-0.00658626
0.0167128
-0.00833694
0.0149427
-0.00947993
0.0126182
-0.0104198
0.0105822
-0.0112934
0.00885658
-0.0121654
0.00743324
-0.0130743
0.00627622
-0.0140351
0.00532729
-0.0150451
0.00453522
-0.0160919
0.00386406
-0.0171587
0.00328934
-0.0182265
0.00279429
-0.0192762
0.00236772
-0.0202906
0.00200246
-0.0212549
0.00169435
-0.0221578
0.00144068
-0.0229916
0.00123884
-0.0237512
0.00108576
-0.0244347
0.000977175
-0.0250414
0.000907399
-0.025572
0.000869225
-0.026027
0.000854333
-0.0264067
0.000853619
-0.02671
0.000857868
-0.0269346
0.000858128
-0.0270766
0.000846232
-0.027131
0.00081484
-0.027091
0.00075751
-0.026949
0.000668268
-0.0266956
0.000541616
-0.0263208
0.000372602
-0.0258135
0.000156932
-0.0251627
-0.000109442
-0.0243574
-0.000430442
-0.0233877
-0.000810428
-0.0222454
-0.00125456
-0.0209245
-0.00176907
-0.019423
-0.00236111
-0.0177443
-0.00303808
-0.0158991
-0.00380561
-0.013907
-0.00466609
-0.0117975
-0.00561466
-0.00960675
-0.00662345
-0.00736498
-0.00760757
-0.00509902
-0.00844289
-0.0092856
-0.00154762
0.0138624
0.000631009
0.0145314
0.00359482
0.0119771
0.00589428
0.0103173
0.007367
0.00910834
0.00812553
0.00809701
0.00827887
0.00727893
0.0079172
0.00663701
0.00712508
0.00611861
0.0059841
0.00567546
0.00457169
0.00527579
0.0029605
0.00489988
0.00121827
0.00453588
-0.000592971
0.00417833
-0.00241811
0.00382695
-0.00420915
0.00348474
-0.00592578
0.00315663
-0.00753588
0.00284825
-0.00901518
0.00256432
-0.0103464
0.00230769
-0.0115184
0.00207863
-0.0125246
0.00187471
-0.013362
0.00169094
-0.0140295
0.00152033
-0.014527
0.0013546
-0.0148546
0.001185
-0.0150121
0.00100294
-0.0149985
0.000800508
-0.0148122
0.000570539
-0.0144509
0.000306244
-0.013911
1.08279e-06
-0.0131885
-0.000350511
-0.012279
-0.000753161
-0.0111784
-0.00121057
-0.00988337
-0.00172585
-0.00839231
-0.00230181
-0.00670599
-0.00294114
-0.00482882
-0.00364642
-0.00277023
-0.00441982
-0.000546342
-0.00526203
0.00181877
-0.0061709
0.00429259
-0.00714003
0.00683289
-0.00815488
0.00939374
-0.00918267
0.0119534
-0.010165
0.0145174
-0.011005
-0.0118927
0.0151711
-0.00131055
0.0268561
0.00284455
0.034525
0.00430694
0.0396015
0.00523975
0.0426912
0.00601775
0.0442165
0.00657079
0.0445264
0.00696829
0.0438816
0.00728112
0.0424784
0.00752117
0.0404772
0.00767612
0.038017
0.0077355
0.0352216
0.00769478
0.0322028
0.00755426
0.0290617
0.007319
0.0258893
0.00699891
0.0227657
0.00660789
0.0197594
0.00616246
0.0169271
0.00568005
0.0143137
0.00517726
0.0119524
0.00466835
0.00986631
0.00416409
0.00806924
0.0036711
0.00656768
0.00319178
0.00536251
0.00272473
0.00445073
0.00226558
0.00382695
0.00180796
0.00348454
0.00134452
0.00341637
0.00086782
0.00361519
0.000370858
0.00407411
-0.000153523
0.00478672
-0.000712358
0.00574696
-0.00131155
0.00694913
-0.00195606
0.00838709
-0.0026492
0.0100537
-0.00339301
0.0119398
-0.0041885
0.014034
-0.0050357
0.0163208
-0.00593358
0.0187803
-0.0068796
0.0213871
-0.00786897
0.0241094
-0.00889336
0.0269085
-0.00993946
0.0297401
-0.0109859
0.0325579
-0.0119995
0.0353305
-0.0129358
0.0380453
-0.0137185
-0.0145031
0.100029
-0.00254701
0.103291
-0.000418875
0.105547
0.00204993
0.106613
0.00417409
0.106517
0.00611317
0.105261
0.0078262
0.10297
0.00925843
0.0998231
0.0104281
0.0959832
0.0113608
0.0915965
0.0120625
0.0867984
0.0125333
0.0817157
0.0127772
0.0764666
0.0128031
0.0711614
0.012624
0.0659022
0.0122579
0.060782
0.0117278
0.0558834
0.0110609
0.0512769
0.0102862
0.0470206
0.00943324
0.0431591
0.00852952
0.0397239
0.00759895
0.0367341
0.00666046
0.0341981
0.00572737
0.032115
0.00480739
0.0304768
0.00390325
0.0292705
0.0030137
0.0284798
0.00213474
0.0280862
0.0012608
0.0280707
0.000385744
0.0284133
-0.000496764
0.0290939
-0.00139368
0.0300929
-0.00231114
0.0313906
-0.00325438
0.0329675
-0.00422664
0.0348032
-0.00522926
0.0368761
-0.00626188
0.0391626
-0.0073225
0.041636
-0.00840729
0.0442664
-0.0095103
0.0470201
-0.0106227
0.0498588
-0.0117322
0.0527405
-0.0128211
0.0556205
-0.0138659
0.0584563
-0.0148343
0.0612087
-0.0156872
0.0638672
-0.0163765
-0.0169524
0.230333
0.00611382
0.222176
0.00773832
0.214327
0.00989847
0.206563
0.011938
0.198823
0.0138536
0.191013
0.0156357
0.183065
0.0172065
0.174961
0.0185318
0.166715
0.0196063
0.158359
0.0204184
0.149939
0.0209527
0.141516
0.0211997
0.133161
0.021158
0.124951
0.020834
0.116966
0.0202422
0.109288
0.0194058
0.101994
0.0183554