/*--------------------------------*- C++ -*----------------------------------*\
| =========                 |                                                 |
| \\      /  F ield         | OpenFOAM: The Open Source CFD Toolbox           |
|  \\    /   O peration     | Version:  2406                                  |
|   \\  /    A nd           | Website:  www.openfoam.com                      |
|    \\/     M anipulation  |                                                 |
\*---------------------------------------------------------------------------*/
FoamFile
{
    version     2.0;
    format      ascii;
    arch        "LSB;label=32;scalar=64";
    class       surfaceScalarField;
    location    "2000";
    object      phi;
}
// * * * * * * * * * * * * * * * * * * * * * * * * * * * * * * * * * * * * * //

dimensions      [0 3 -1 0 0 0 0];

oriented        oriented;

internalField   nonuniform List<scalar> 
3796
(
0.0979633
-0.000468373
0.0985906
-0.000640697
0.0991999
-0.000623229
0.0997619
-0.0005756
0.100275
-0.000527403
0.100736
-0.000475003
0.101143
-0.000420809
0.101497
-0.000368814
0.101805
-0.000322872
0.102073
-0.000282339
0.102305
-0.000248163
0.102508
-0.000218749
0.102685
-0.000195405
0.102844
-0.000176411
0.102988
-0.000163387
0.103123
-0.000154614
0.103253
-0.000152294
0.103387
-0.000154996
0.103528
-0.00016572
0.103688
-0.000183576
0.103875
-0.000212658
0.104102
-0.000253059
0.104385
-0.000310588
0.104745
-0.000387105
0.105207
-0.000491219
0.105808
-0.000627938
0.106588
-0.000810619
0.107611
-0.00104985
0.108948
-0.0013671
0.110704
-0.00178278
0.113007
-0.00233228
0.116035
-0.00305296
0.120014
-0.0040036
0.125244
-0.00524967
0.132111
-0.00688671
0.141123
-0.00902195
0.152915
-0.0118001
0.168294
-0.0153762
0.188236
-0.0199369
0.213905
-0.0256547
0.246612
-0.0326898
0.287736
-0.0410997
0.338585
-0.0508229
0.400043
-0.0614295
0.472331
-0.0722537
0.554206
-0.0818215
-0.0884291
0.642681
0.277244
-0.000216985
0.277047
-0.000457494
0.276939
-0.00052875
0.27689
-0.00053981
0.276883
-0.000533984
0.276909
-0.000515299
0.276959
-0.000484583
0.277024
-0.000448784
0.2771
-0.000412121
0.27718
-0.000377989
0.277264
-0.000346282
0.277347
-0.000319017
0.277432
-0.000295719
0.277515
-0.000278573
0.277601
-0.000266909
0.277689
-0.000263295
0.277785
-0.00026738
0.277889
-0.000282691
0.278012
-0.000309756
0.278157
-0.000353658
0.278337
-0.000416569
0.278563
-0.000506139
0.278855
-0.000627487
0.279232
-0.000792541
0.279727
-0.00101156
0.280373
-0.00130372
0.281225
-0.0016882
0.282342
-0.00219645
0.283812
-0.00286297
0.28574
-0.00373992
0.288272
-0.00488775
0.291585
-0.00639302
0.295921
-0.00835873
0.301574
-0.0109263
0.30894
-0.0142643
0.318497
-0.0185939
0.330869
-0.024172
0.346804
-0.0313148
0.367242
-0.0403625
0.393284
-0.051688
0.426229
-0.0656121
0.467508
-0.0823626
0.518628
-0.101914
0.580863
-0.123644
0.655174
-0.146525
0.740585
-0.167195
-0.182142
0.834371
0.437395
-0.000114852
0.437239
-0.000311554
0.4371
-0.000400758
0.436982
-0.000431377
0.436878
-0.000439839
0.436787
-0.000434733
0.43671
-0.000417798
0.436645
-0.000392863
0.436587
-0.000365143
0.436537
-0.000337294
0.436491
-0.000311416
0.436449
-0.000288308
0.436411
-0.000269772
0.436377
-0.000256582
0.436348
-0.000250724
0.436324
-0.000253229
0.436309
-0.000266835
0.436305
-0.000293555
0.436316
-0.000337653
0.43635
-0.000402998
0.436412
-0.000496494
0.436514
-0.000625305
0.436668
-0.000800829
0.436894
-0.00103593
0.437212
-0.00134964
0.437655
-0.00176463
0.438259
-0.0023129
0.439079
-0.0030338
0.440177
-0.00398129
0.441643
-0.00522289
0.443585
-0.00684924
0.446151
-0.00897465
0.449526
-0.0117497
0.453952
-0.0153639
0.459738
-0.0200618
0.467286
-0.0261463
0.477106
-0.0339968
0.489864
-0.0440675
0.5064
-0.0568946
0.527802
-0.0730746
0.555406
-0.0932038
0.590894
-0.117826
0.636142
-0.147143
0.693317
-0.180793
0.764812
-0.217978
0.850314
-0.252637
-0.282305
0.950521
0.577451
-6.9318e-05
0.577346
-0.000214901
0.577232
-0.000295706
0.577124
-0.000331958
0.577021
-0.000345342
0.576924
-0.000345471
0.576832
-0.000334763
0.576747
-0.000315959
0.576667
-0.000292937
0.57659
-0.000268766
0.576515
-0.000245526
0.576443
-0.000224716
0.576372
-0.000207942
0.576302
-0.000196762
0.576234
-0.000193026
0.576168
-0.00019873
0.576107
-0.00021654
0.57605
-0.000249668
0.576003
-0.000302489
0.575967
-0.000380488
0.575948
-0.00049108
0.575952
-0.000643728
0.575988
-0.000851085
0.576067
-0.00112945
0.576203
-0.00150044
0.576415
-0.00199203
0.576729
-0.00264109
0.577175
-0.0034954
0.577797
-0.00461768
0.578649
-0.00608917
0.579803
-0.00801593
0.58135
-0.0105351
0.583415
-0.0138247
0.586155
-0.0181136
0.589783
-0.0236962
0.59458
-0.030948
0.60093
-0.0403452
0.609351
-0.0524857
0.62057
-0.0681047
0.635604
-0.0880983
0.65588
-0.11346
0.683402
-0.14533
0.72072
-0.184441
0.771307
-0.231342
0.839209
-0.285841
0.92553
-0.338914
-0.405364
1.0487
0.697471
-4.28149e-05
0.697398
-0.000150574
0.697308
-0.000214166
0.697215
-0.000246545
0.697121
-0.000258923
0.697027
-0.000259116
0.696935
-0.000249877
0.696845
-0.000233605
0.696758
-0.000212809
0.696672
-0.000190508
0.696587
-0.000168405
0.696503
-0.000148508
0.696419
-0.000132014
0.696334
-0.000121056
0.696249
-0.000117093
0.696163
-0.000122847
0.696078
-0.000140578
0.695992
-0.000174348
0.695906
-0.000228149
0.695823
-0.000308497
0.695743
-0.00042251
0.695667
-0.000580956
0.695601
-0.000796397
0.695545
-0.00108687
0.695507
-0.00147429
0.695491
-0.00198908
0.695507
-0.00266909
0.695564
-0.00356577
0.695679
-0.00474412
0.695869
-0.00629113
0.696161
-0.00831781
0.696586
-0.0109712
0.697194
-0.01444
0.698045
-0.0189724
0.699234
-0.0248881
0.70089
-0.0326059
0.703214
-0.0426666
0.706512
-0.0557788
0.711274
-0.0728573
0.718292
-0.0951053
0.728903
-0.124051
0.745292
-0.161701
0.771172
-0.210285
0.812067
-0.272207
0.875965
-0.349668
0.967934
-0.430707
-0.571703
1.13424
0.79748
-2.52623e-05
0.797426
-0.000104727
0.797353
-0.000149476
0.797271
-0.00017235
0.797185
-0.00017978
0.797095
-0.000176811
0.797005
-0.000166323
0.796914
-0.000149925
0.796824
-0.000129741
0.796734
-0.000107716
0.796644
-8.58308e-05
0.796553
-6.54329e-05
0.796461
-4.82035e-05
0.796368
-3.55422e-05
0.796272
-2.94906e-05
0.796172
-3.19677e-05
0.796068
-4.58755e-05
0.795958
-7.4327e-05
0.795841
-0.000121941
0.795717
-0.00019408
0.795582
-0.000298415
0.795434
-0.00044426
0.795271
-0.000644541
0.795088
-0.000915386
0.794881
-0.00127871
0.794643
-0.00176229
0.794366
-0.00240335
0.794039
-0.00324957
0.793649
-0.00436423
0.793177
-0.00582895
0.792601
-0.00775152
0.791894
-0.0102716
0.79102
-0.0135735
0.789941
-0.0178974
0.78861
-0.0235608
0.786987
-0.0309813
0.785039
-0.0407163
0.782778
-0.0535093
0.780301
-0.0703722
0.777897
-0.0926853
0.776277
-0.122415
0.776902
-0.162295
0.783375
-0.216729
0.802337
-0.291095
0.850343
-0.397517
0.94632
-0.526738
-0.758893
1.13373
0.877484
-1.18289e-05
0.877441
-6.94298e-05
0.87738
-9.61815e-05
0.877307
-0.000107363
0.877227
-0.00010741
0.877143
-9.95564e-05
0.877055
-8.5896e-05
0.876966
-6.77858e-05
0.876876
-4.66036e-05
0.876785
-2.38587e-05
0.876692
-9.82397e-07
0.876599
2.07573e-05
0.876503
4.01094e-05
0.876403
5.57337e-05
0.876299
6.6082e-05
0.876189
6.93304e-05
0.876071
6.32079e-05
0.875943
4.48566e-05
0.8758
1.0573e-05
0.87564
-4.44335e-05
0.875458
-0.000126433
0.875247
-0.000243595
0.874998
-0.00040663
0.874702
-0.000629519
0.874343
-0.000930581
0.873904
-0.00133375
0.87336
-0.00187033
0.872682
-0.00258126
0.871828
-0.0035201
0.870747
-0.00475691
0.869371
-0.00638355
0.867613
-0.00852051
0.86536
-0.0113265
0.86247
-0.0150109
0.85876
-0.0198522
0.854002
-0.0262224
0.847914
-0.034624
0.840154
-0.0457425
0.830324
-0.0605315
0.817976
-0.0803244
0.802671
-0.10709
0.783999
-0.1436
0.762026
-0.194714
0.737632
-0.26663
0.718712
-0.378599
0.738367
-0.546223
-0.924296
0.903722
0.937487
-1.2571e-06
0.937449
-3.99894e-05
0.937395
-5.0375e-05
0.93733
-4.93943e-05
0.937256
-4.0937e-05
0.937176
-2.71001e-05
0.937092
-9.26439e-06
0.937005
1.1616e-05
0.936916
3.46695e-05
0.936826
5.89142e-05
0.936734
8.33943e-05
0.93664
0.000107193
0.936543
0.000129434
0.936441
0.00014914
0.936334
0.00016522
0.936218
0.000176332
0.936091
0.00018086
0.935949
0.000176711
0.935789
0.000161236
0.935604
0.000130936
0.935385
8.13016e-05
0.935125
6.38148e-06
0.93481
-0.000101557
0.934422
-0.000252686
0.933942
-0.00046027
0.933339
-0.000741725
0.932579
-0.00111977
0.931612
-0.0016242
0.930377
-0.00229398
0.928792
-0.00318027
0.926751
-0.00435013
0.924116
-0.00589198
0.920707
-0.00792249
0.916289
-0.0105968
0.910558
-0.0141219
0.903114
-0.0187773
0.893438
-0.0249436
0.880848
-0.0331457
0.864446
-0.0441204
0.843042
-0.0589095
0.815008
-0.0790398
0.778095
-0.106667
0.728608
-0.145204
0.660677
-0.198659
0.557384
-0.275238
0.389219
-0.378102
-0.535036
0.977488
8.12162e-06
0.977454
-1.4101e-05
0.977405
-9.46224e-06
0.977344
3.48236e-06
0.977274
2.07653e-05
0.977198
4.09704e-05
0.977118
6.33224e-05
0.977035
8.7334e-05
0.976949
0.000112573
0.976861
0.000138578
0.976772
0.000164863
0.97668
0.00019097
0.976584
0.000216434
0.976484
0.000240769
0.976377
0.000263395
0.976261
0.000283638
0.976131
0.000300647
0.975985
0.00031336
0.975816
0.000320381
0.975616
0.000319912
0.975378
0.00030958
0.975087
0.000286297
0.974729
0.000245987
0.974282
0.000183335
0.97372
9.13395e-05
0.973008
-3.91339e-05
0.972098
-0.000220089
0.970931
-0.000467211
0.96943
-0.000801121
0.96749
-0.00124883
0.964978
-0.00184591
0.961719
-0.00263921
0.957482
-0.00369088
0.951966
-0.00508357
0.944771
-0.00692823
0.93537
-0.00937492
0.923058
-0.0126291
0.906893
-0.0169752
0.885592
-0.0228125
0.857399
-0.0307071
0.819845
-0.0414747
0.769464
-0.0562745
0.701089
-0.0767997
0.607741
-0.105299
0.477241
-0.144758
0.296539
-0.197297
-0.238534
0.997489
1.62953e-05
0.997456
1.00722e-05
0.997409
2.87062e-05
0.997351
5.29961e-05
0.997285
7.88189e-05
0.997212
0.000105165
0.997135
0.000131816
0.997056
0.000158737
0.996974
0.000185948
0.99689
0.000213457
0.996805
0.000241283
0.996718
0.000269426
0.996628
0.000297909
0.996533
0.000326735
0.996431
0.000355935
0.996319
0.000385527
0.996194
0.000415558
0.996051
0.00044605
0.995884
0.000477058
0.995684
0.000508605
0.995442
0.000540744
0.995144
0.000573488
0.994772
0.000606878
0.994304
0.000640903
0.993709
0.000675573
0.992948
0.000710833
0.991972
0.000746638
0.990712
0.000782844
0.989082
0.000819311
0.986969
0.000855757
0.984224
0.000891885
0.980651
0.000927177
0.975994
0.000961063
0.969914
0.000992655
0.961963
0.00102096
0.951543
0.00104446
0.937854
0.00106149
0.919812
0.00106962
0.895937
0.0010662
0.864187
0.00104757
0.821708
0.00100914
0.764497
0.000943677
0.686855
0.000839642
0.580892
0.000684534
0.435706
0.000478593
0.238368
-8.38509e-05
-9.42427e-05
0.997489
2.43448e-05
0.997456
3.3642e-05
0.99741
6.57039e-05
0.997353
0.000100692
0.997288
0.000134338
0.997218
0.000166101
0.997145
0.000196309
0.997069
0.000225398
0.996992
0.000253818
0.996914
0.000282065
0.996836
0.000310641
0.996755
0.000340025
0.996673
0.000370697
0.996586
0.000403181
0.996494
0.000438092
0.996393
0.000476166
0.996279
0.000518315
0.996149
0.000565683
0.995995
0.000619734
0.995809
0.000682353
0.995583
0.000755978
0.995301
0.000843771
0.994946
0.000949842
0.994496
0.00107954
0.993921
0.00123984
0.993181
0.00143982
0.992226
0.00169135
0.990988
0.00200992
0.989382
0.00241579
0.987294
0.00293553
0.984574
0.003604
0.981027
0.00446722
0.976396
0.00558601
0.970343
0.00704152
0.962418
0.00894245
0.952025
0.0114363
0.938361
0.0147247
0.920342
0.0190881
0.896488
0.02492
0.864755
0.03278
0.822286
0.0434739
0.765073
0.0581484
0.687427
0.0784806
0.581431
0.106663
0.436135
0.14567
0.238795
0.197409
0.238654
0.977489
3.21754e-05
0.977454
5.80618e-05
0.977407
0.00010335
0.977349
0.000148193
0.977285
0.000188508
0.977217
0.000224452
0.977146
0.000256977
0.977074
0.000286972
0.977003
0.000315321
0.976932
0.000343032
0.976861
0.000371071
0.97679
0.000400372
0.976718
0.000431822
0.976644
0.000466437
0.976565
0.000505344
0.97648
0.000549945
0.976385
0.000601911
0.976275
0.000663418
0.976146
0.000737183
0.975989
0.000826792
0.975796
0.000936818
0.975554
0.00107329
0.975247
0.00124399
0.974856
0.00145913
0.974351
0.00173196
0.9737
0.00207987
0.972854
0.00252546
0.971755
0.00309836
0.970324
0.00383725
0.968457
0.00479284
0.966021
0.00603162
0.962839
0.0076411
0.958682
0.0097369
0.953246
0.0124724
0.946131
0.016053
0.936809
0.0207551
0.924574
0.0269564
0.908481
0.0351773
0.887246
0.0461503
0.859108
0.0609104
0.821593
0.0809788
0.771228
0.108498
0.702814
0.146872
0.609345
0.200082
0.478705
0.27638
0.297367
0.378628
0.535963
0.937488
4.09438e-05
0.93745
8.48812e-05
0.937398
0.000143653
0.937338
0.000197308
0.937273
0.000242605
0.937205
0.000280959
0.937137
0.000314046
0.93707
0.000343164
0.937004
0.000369679
0.936941
0.000395121
0.93688
0.000420909
0.93682
0.000448338
0.936761
0.000478654
0.936702
0.000513249
0.936641
0.000553687
0.936577
0.000601874
0.936506
0.000660108
0.936425
0.00073135
0.936329
0.000819342
0.936214
0.000928992
0.936071
0.00106661
0.93589
0.00124047
0.935659
0.00146131
0.935362
0.00174321
0.934977
0.00210447
0.934475
0.00256906
0.933821
0.00316817
0.932965
0.00394268
0.931845
0.00494586
0.93038
0.0062475
0.928464
0.00793887
0.925957
0.0101398
0.922679
0.0130079
0.918394
0.0167512
0.912795
0.0216463
0.905482
0.0280627
0.895933
0.0365
0.883464
0.04764
0.867174
0.0624318
0.845869
0.0822046
0.817907
0.108923
0.781029
0.145351
0.731502
0.196358
0.663446
0.268122
0.559721
0.379982
0.390981
0.547247
0.92685
0.877486
5.12141e-05
0.877441
0.00011678
0.877383
0.000189552
0.877318
0.000250237
0.87725
0.000298079
0.877182
0.000336437
0.877116
0.00036776
0.877053
0.000393614
0.876994
0.000416059
0.876939
0.000437063
0.876889
0.000458562
0.876842
0.000481943
0.876798
0.000508872
0.876757
0.000540805
0.876717
0.000579797
0.876677
0.000627843
0.876635
0.000687873
0.876589
0.000763089
0.876536
0.000858154
0.876471
0.000978537
0.876391
0.00113195
0.876289
0.00132784
0.876157
0.00157915
0.875984
0.00190215
0.875756
0.00231874
0.875454
0.00285682
0.875056
0.00355351
0.874529
0.00445657
0.873835
0.00562899
0.872919
0.0071524
0.871714
0.00913389
0.870131
0.011713
0.868059
0.0150726
0.86535
0.0194522
0.861823
0.0251672
0.857245
0.0326337
0.851332
0.0424051
0.843739
0.055223
0.834066
0.0720934
0.821859
0.0943948
0.806668
0.124087
0.788076
0.163907
0.76612
0.21827
0.7416
0.292558
0.722321
0.399149
0.740907
0.528524
0.764099
0.903431
0.797481
6.53612e-05
0.797426
0.000158171
0.797356
0.000244964
0.797283
0.000309414
0.797211
0.000356288
0.797142
0.000391708
0.797077
0.000418239
0.797018
0.000437982
0.796966
0.000453595
0.796921
0.000467832
0.796883
0.000482618
0.79685
0.000499708
0.796823
0.000520592
0.796802
0.000547142
0.796784
0.000581167
0.796772
0.0006251
0.796762
0.000681603
0.796754
0.000754422
0.796748
0.000848005
0.796742
0.000968528
0.796733
0.00112363
0.796721
0.0013237
0.796702
0.00158189
0.796673
0.00191582
0.796628
0.00234805
0.796562
0.00290848
0.796465
0.00363572
0.796327
0.00458053
0.796135
0.00580869
0.795869
0.00740627
0.795507
0.00948503
0.795019
0.0121906
0.794371
0.0157122
0.793518
0.0202959
0.792416
0.0262614
0.791017
0.034024
0.789289
0.0441239
0.787237
0.0572635
0.784958
0.0743573
0.782732
0.0965992
0.781272
0.125519
0.782026
0.163114
0.788612
0.211629
0.807635
0.273462
0.855701
0.351
0.951949
0.432111
0.575041
1.1409
0.697473
8.71987e-05
0.697397
0.000217388
0.69731
0.000315712
0.697226
0.000377448
0.697147
0.000418329
0.697076
0.000446781
0.697013
0.000464674
0.69696
0.000474838
0.696916
0.000480768
0.696882
0.000485792
0.696856
0.000491616
0.696838
0.000500142
0.696828
0.000512572
0.696827
0.000530958
0.696833
0.00055669
0.696848
0.000592332
0.696871
0.000640025
0.696903
0.000703622
0.696945
0.000786934
0.696999
0.000896166
0.697066
0.00103814
0.697148
0.00122311
0.697249
0.00146312
0.697371
0.00177533
0.697521
0.00218075
0.697705
0.00270822
0.69793
0.00339407
0.698209
0.00428692
0.698554
0.00544895
0.698985
0.00696213
0.699526
0.00893202
0.700209
0.0114961
0.70108
0.0148318
0.702199
0.0191675
0.703654
0.0247968
0.705575
0.0320934
0.708156
0.0415317
0.7117
0.0537055
0.716693
0.0693467
0.723923
0.0893453
0.734719
0.11469
0.751276
0.146515
0.777305
0.185554
0.818354
0.232353
0.882464
0.286791
0.974796
0.339712
0.406455
1.14329
0.577453
0.000127667
0.577343
0.000308093
0.57723
0.000408942
0.57713
0.000457918
0.577043
0.000486453
0.576968
0.000502022
0.576908
0.000506046
0.576861
0.000502116
0.576827
0.000495362
0.576804
0.000488326
0.576793
0.000483182
0.576792
0.00048067
0.576801
0.000482729
0.57682
0.000490044
0.576851
0.000504757
0.576894
0.000527794
0.576951
0.000562059
0.577022
0.000609459
0.577114
0.000674444
0.577226
0.000760824
0.577368
0.000875684
0.577543
0.0010262
0.577761
0.00122394
0.578033
0.00148189
0.578375
0.00181923
0.578805
0.0022589
0.579348
0.00283295
0.580036
0.0035813
0.580911
0.00455768
0.582027
0.00583057
0.583456
0.00748997
0.585288
0.0096516
0.587643
0.0124646
0.59068
0.0161202
0.594605
0.02086
0.599698
0.0269891
0.606334
0.0348811
0.615031
0.0449921
0.626507
0.0578482
0.641777
0.0740473
0.662258
0.0941718
0.689962
0.118769
0.727436
0.148029
0.778148
0.181582
0.846214
0.218671
0.932711
0.253137
0.282486
1.05662
0.437396
0.000223565
0.437231
0.000447272
0.43709
0.000524328
0.436977
0.000546468
0.436885
0.000553345
0.436815
0.000547485
0.436765
0.000530063
0.436736
0.000506945
0.436722
0.000483156
0.436724
0.000461072
0.436739
0.00044172
0.436767
0.000425977
0.436808
0.000414687
0.436862
0.000408697
0.43693
0.00040882
0.437014
0.000416091
0.437116
0.000431817
0.43724
0.000457828
0.437389
0.000496502
0.437571
0.000551071
0.437793
0.000625762
0.438066
0.000726237
0.438402
0.000859901
0.438822
0.00103655
0.439346
0.001269
0.440007
0.00157412
0.440842
0.001974
0.441904
0.00249756
0.443258
0.00318265
0.44499
0.0040786
0.447213
0.00524973
0.450068
0.0067793
0.453743
0.00877476
0.458474
0.0113733
0.464571
0.0147483
0.472427
0.0191153
0.482554
0.0247356
0.495605
0.0319169
0.512422
0.0410028
0.534078
0.0523533
0.561915
0.0662922
0.597602
0.0830323
0.643022
0.102555
0.700333
0.124218
0.771944
0.146993
0.857535
0.167492
0.182168
0.957852
0.277244
0.000466791
0.277031
0.000627078
0.276911
0.000610403
0.276858
0.000567559
0.276854
0.000524462
0.276891
0.000477971
0.276959
0.000429037
0.277051
0.000382633
0.277159
0.000341221
0.277281
0.000305674
0.277413
0.000275351
0.277554
0.000250484
0.277703
0.000230499
0.277861
0.000215792
0.278028
0.00020578
0.278207
0.000201115
0.278401
0.000201532
0.278614
0.000208232
0.278853
0.000221499
0.279125
0.000243313
0.279439
0.00027487
0.279811
0.000319384
0.280256
0.000379587
0.280799
0.000460701
0.281467
0.000568106
0.282299
0.000710434
0.283345
0.000897666
0.28467
0.00114428
0.286358
0.00146825
0.288517
0.00189417
0.29129
0.0024538
0.294858
0.00318905
0.299457
0.00415482
0.305388
0.00542142
0.313034
0.00708001
0.322882
0.00924269
0.335541
0.0120485
0.351768
0.0156564
0.372485
0.0202448
0.3988
0.0259882
0.431999
0.033038
0.473518
0.0414522
0.524854
0.0511621
0.587269
0.0617316
0.661711
0.0724849
0.747236
0.0819673
0.0883976
0.840975
0.0979565
0.0985671
0.0991615
0.099713
0.100222
0.100684
0.101097
0.101463
0.101789
0.102078
0.102337
0.10257
0.102784
0.102982
0.103171
0.103354
0.103538
0.103729
0.103933
0.104158
0.104416
0.104719
0.105082
0.105526
0.106079
0.106774
0.107658
0.108788
0.110244
0.112126
0.114569
0.117747
0.121891
0.127302
0.134369
0.143599
0.15563
0.171267
0.191487
0.217447
0.250453
0.291875
0.342999
0.404692
0.477171
0.559122
0.647547
0.732579
-0.0898294
0.816534
-0.0838972
0.889042
-0.0724675
0.948408
-0.0593336
0.994861
-0.0464334
-0.0344046
1.02929
0.930691
-0.186094
1.02134
-0.174488
1.10154
-0.152623
1.17016
-0.127909
1.22685
-0.10309
-0.0794582
1.27195
1.05819
-0.293702
1.16071
-0.276936
1.25248
-0.244323
1.32995
-0.205324
1.39066
-0.16372
-0.124164
1.43547
1.19087
-0.43583
1.31465
-0.400616
1.40936
-0.338997
1.47154
-0.267379
1.50496
-0.197035
-0.138034
1.51891
1.29329
-0.594691
1.36457
-0.471961
1.3625
-0.33668
1.31973
-0.224521
1.26126
-0.138439
-0.0806551
1.2043
1.13372
-0.594786
0.971018
-0.30889
0.761207
-0.12665
0.595635
-0.0585611
0.468234
-0.0102174
0.0120302
0.376089
0.309141
0.000459636
-0.125811
-0.183849
-0.193785
-0.181153
0.301994
0.601116
-0.00700398
0.308407
-0.128258
0.120718
-0.172439
0.0435716
-0.166354
-0.00686996
-0.0284476
-0.138652
1.14242
0.599451
0.979151
0.471539
0.770142
0.329535
0.599329
0.214139
0.461524
0.130777
0.0784842
0.354016
1.30558
0.437082
1.37735
0.3997
1.37263
0.334233
1.32614
0.260645
1.26475
0.19205
0.137346
1.2059
1.20026
0.29342
1.32442
0.275538
1.41761
0.241083
1.47751
0.20078
1.50989
0.159799
0.122315
1.52493
1.06563
0.185627
1.16789
0.173333
1.2585
0.150561
1.33421
0.125192
1.39363
0.100475
0.0775529
1.43853
0.93709
0.0895719
1.02718
0.0833007
1.10637
0.0714793
1.17364
0.0580777
1.22914
0.04516
0.0332639
1.2736
0.737144
0.820492
0.892055
0.950233
0.995493
1.02883
1.05323
-0.0239042
1.06868
-0.0154073
1.07748
-0.00876121
1.08081
-0.00329657
1.07891
0.00194135
1.07133
0.00761474
1.05737
0.0139835
1.0361
0.0212928
1.00638
0.0297093
0.967131
0.0392228
0.917432
0.0496381
0.856742
0.0606068
0.784999
0.0716381
0.702793
0.08209
0.611513
0.0911563
0.513506
0.097883
0.41212
0.101266
0.311586
0.10042
0.216647
0.0948348
0.131963
0.0845956
0.0613621
0.0705264
0.00683665
0.0544816
-0.0318507
0.0386742
-0.0563201
0.0244963
-0.0692882
0.0130095
-0.0738331
0.00458388
-0.0730005
-0.000818642
-0.069519
-0.00353061
-0.0653083
-0.00431788
-0.0615501
-0.00396328
-0.0586855
-0.00313877
-0.0560534
-0.00299652
-0.052253
-0.00422581
-0.0456134
-0.00712984
-0.0343602
-0.011777
-0.0171741
-0.0177506
0.00645272
-0.0241836
0.0368738
-0.0309486
0.073142
-0.0367129
0.113975
-0.0412184
0.158515
-0.0448591
0.20595
-0.0477001
0.255701
-0.0499584
0.307119
-0.0515594
0.360651
-0.0536239
0.413719
-0.0531096
-0.0614742
1.30695
-0.0588484
1.33396
-0.0423408
1.355
-0.0297365
1.37182
-0.0200523
1.38592
-0.0121159
1.39821
-0.0046319
1.40858
0.0036388
1.41631
0.0135666
1.42038
0.0256196
1.41961
0.0399513
1.41266
0.0565257
1.39804
0.0751452
1.37416
0.0954404
1.33934
0.116817
1.29208
0.138334
1.23125
0.15864
1.15646
0.175981
1.06842
0.188408
0.969088
0.194115
0.861752
0.191899
0.750688
0.181569
0.640973
0.164189
0.537708
0.14194
0.444952
0.117264
0.365627
0.0923333
0.301323
0.0688734
0.252437
0.0479918
0.218658
0.0301243
0.199055
0.0150608
0.192932
0.00187929
0.199298
-0.00985648
0.216365
-0.0204357
0.242173
-0.0304239
0.274968
-0.0403094
0.313169
-0.050339
0.355521
-0.0604427
0.401284
-0.0702472
0.449432
-0.0793723
0.49974
-0.0872535
0.551959
-0.0936464
0.605551
-0.0986228
0.660084
-0.102385
0.715122
-0.105112
0.770828
-0.107347
0.826272
-0.109116
0.884897
-0.111758
-0.116435
1.46789
-0.0911423
1.49176
-0.0660934
1.51015
-0.0480083
1.52514
-0.0349607
1.53789
-0.0248016
1.54875
-0.0154465
1.55761
-0.00521053
1.56425
0.00691933
1.56838
0.0214607
1.56973
0.0385436
1.56821
0.0579846
1.56381
0.0794704
1.55648
0.102695
1.54588
0.127338
1.53124
0.152913
1.51124
0.178583
1.48414
0.203031
1.44805
0.224457
1.40138
0.240751
1.34341
0.249843
1.27476
0.250195
1.19765
0.241272
1.11584
0.22372
1.03392
0.199145
0.956461
0.169735
0.887435
0.137819
0.829861
0.10546
0.78565
0.0742007
0.755612
0.044938
0.739221
0.0180822
0.735466
-0.00630051
0.743204
-0.028382
0.760894
-0.0483166
0.78668
-0.0662939
0.818671
-0.0825156
0.855112
-0.0970563
0.894533
-0.109824
0.935689
-0.120665
0.977729
-0.129413
1.02001
-0.136032
1.06196
-0.140661
1.1031
-0.143589
1.14303
-0.145102
1.18162
-0.145971
1.21837
-0.145893
1.25473
-0.148124
-0.146902
1.52265
-0.0946926
1.52228
-0.0655355
1.52155
-0.0471064
1.52236
-0.0356619
1.52542
-0.0277843
1.53059
-0.0205959
1.53732
-0.0119602
1.54465
-0.000466763
1.55163
0.0144011
1.55771
0.0323801
1.56265
0.0529528
1.56647
0.0755762
1.56924
0.0998635
1.57098
0.125554
1.57152
0.152341
1.57045
0.17962
1.56707
0.206392
1.5603
0.2312
1.54881
0.252212
1.53126
0.267348
1.50679
0.274629
1.47532
0.272685
1.43786
0.261116
1.39638
0.240541
1.35356
0.212455
1.31236
0.178903
1.27557
0.142121
1.24544
0.104185
1.22339
0.0668228
1.20995
0.0313513
1.20484
-0.00136855
1.20713
-0.0308424
1.21569
-0.0570407
1.22921
-0.0799639
1.24629
-0.0997328
1.26559
-0.116468
1.28589
-0.130226
1.30617
-0.141038
1.32564
-0.148959
1.34369
-0.154143
1.35984
-0.156868
1.37374
-0.157535
1.38519
-0.156594
1.39393
-0.154728
1.40006
-0.152038
1.40287
-0.150935
-0.145825
1.15676
-0.0468047
1.11906
-0.0274542
1.09201
-0.0197644
1.07478
-0.0182275
1.06658
-0.0194989
1.06627
-0.0202974
1.07254
-0.0183064
1.08457
-0.0126445
1.10174
-0.00293194
1.12333
0.0106475
1.14895
0.0272301
1.17842
0.0460746
1.21137
0.0669096
1.24704
0.089922
1.2842
0.115215
1.32136
0.142509
1.35686
0.170903
1.38915
0.198914
1.41677
0.224551
1.43869
0.245374
1.45441
0.258836
1.46394
0.263058
1.46771
0.257231
1.46653
0.241593
1.46159
0.217258
1.45432
0.186024
1.44625
0.150036
1.43879
0.111502
1.43293
0.0725472
1.42917
0.0349784
1.42751
0.000166395
1.42762
-0.0310529
1.42887
-0.0583789
1.43051
-0.0816805
1.43171
-0.100998
1.43164
-0.116444
1.42954
-0.128174
1.42486
-0.136394
1.41726
-0.141397
1.40665
-0.143571
1.39317
-0.143409
1.37705
-0.141441
1.35872
-0.138291
1.33832
-0.134339
1.31676
-0.130492
1.29192
-0.126092
-0.122738
0.325957
0.00429775
0.29226
0.00729055
0.287514
-0.0140532
0.304069
-0.0342183
0.332953
-0.0481717
0.367
-0.0543677
0.402248
-0.0537755
0.436731
-0.0474328
0.470553
-0.0370959
0.505503
-0.0245932
0.54367
-0.0111154
0.586844
0.00284414
0.636219
0.0175742
0.692167
0.0340651
0.754031
0.0534385
0.820272
0.0763447
0.888709
0.102483
0.956806
0.130813
1.02185
0.15947
1.08164
0.185508
1.13518
0.205197
1.1822
0.215891
1.22279
0.216479
1.2572
0.206989
1.28583
0.188432
1.3091
0.162557
1.3276
0.131366
1.34194
0.0970113
1.35247
0.0618817
1.35935
0.0279999
1.36256
-0.00311766
1.36198
-0.0305207
1.35727
-0.053691
1.3481
-0.0725101
1.33425
-0.0871438
1.31574
-0.0979289
1.29288
-0.105307
1.26628
-0.109793
1.23683
-0.111941
1.20558
-0.112325
1.17368
-0.111517
1.14224
-0.110019
1.11232
-0.108384
1.08459
-0.106613
1.06014
-0.106038
1.03713
-0.10308
-0.107776
-0.0728479
-0.103109
-0.0202673
-0.044003
0.000163413
-0.03332
0.012902
-0.0464016
0.0288488
-0.0641194
0.0500849
-0.075928
0.0748697
-0.0790884
0.100997
-0.0741755
0.126188
-0.0628892
0.149015
-0.0479388
0.169701
-0.0321394
0.189943
-0.0176146
0.213008
-0.00552476
0.242617
0.00441704
0.281378
0.0147081
0.329884
0.0277693
0.387633
0.0447051
0.452897
0.0654567
0.522306
0.0899654
0.591843
0.115823
0.65978
0.137064
0.725146
0.150286
0.786775
0.154555
0.843645
0.149807
0.894912
0.136891
0.939613
0.117602
0.977287
0.0934871
1.0079
0.0662151
1.03102
0.0386268
1.04613
0.0127952
1.05267
-0.00970042
1.05068
-0.0285272
1.04097
-0.0439487
1.02494
-0.0564308
1.00433
-0.0664656
0.981009
-0.0745493
0.956909
-0.0811555
0.93386
-0.0867042
0.913492
-0.0915479
0.897147
-0.0959677
0.885806
-0.100176
0.88011
-0.104332
0.880274
-0.10856
0.886449
-0.112795
0.898022
-0.117616
0.91536
-0.120418
-0.130317
-0.0616251
-0.0410586
-0.0849837
-0.0201403
-0.117136
-0.00099769
-0.152794
-0.0108126
-0.183841
-0.0332583
-0.203494
-0.0565459
-0.209455
-0.0734001
-0.20301
-0.0808635
-0.187314
-0.0787782
-0.166159
-0.0692246
-0.14321
-0.0552081
-0.121152
-0.0397234
-0.101925
-0.0248385
-0.0867991
-0.0107758
-0.0755508
0.00328417
-0.0645071
0.0165441
-0.0488825
0.0288017
-0.0239616
0.0402548
0.014213
0.0514726
0.0659949
0.0636852
0.126489
0.0761852
0.191072
0.0852452
0.256881
0.0882755
0.321154
0.0850888
0.381791
0.075777
0.436243
0.0626455
0.483884
0.0453942
0.525292
0.0245238
0.557861
0.00588157
0.582071
-0.0114885
0.601114
-0.028737
0.61842
-0.0457656
0.636307
-0.0617302
0.656213
-0.0762141
0.678968
-0.0890975
0.704969
-0.10044
0.734287
-0.110382
0.766749
-0.1191
0.802018
-0.126772
0.839649
-0.133576
0.879138
-0.139657
0.919996
-0.145194
0.961665
-0.150237
1.00402
-0.155162
1.04598
-0.159573
1.09029
-0.164728
-0.170387
-0.0837345
0.0425681
-0.161683
0.0575968
-0.228087
0.0653035
-0.286136
0.0471911
-0.337115
0.0177283
-0.37837
-0.0151951
-0.408573
-0.0430153
-0.42797
-0.0612121
-0.438075
-0.068409
-0.440931
-0.0661246
-0.440223
-0.0557255
-0.440345
-0.0394757
-0.4446
-0.0205335
-0.453886
-0.00150132
-0.466373
0.0156888
-0.478901
0.0289451
-0.487498
0.0372538
-0.487479
0.0400895
-0.474718
0.0385403
-0.446222
0.0349993
-0.400704
0.0304239
-0.339685
0.0239373
-0.26581
0.0140121
-0.182927
0.00165303
-0.0937137
-0.0141566
0.00187094
-0.0337561
0.10057
-0.0539419
0.198671
-0.0739003
0.296945
-0.0925391
0.394727
-0.109306
0.489703
-0.123676
0.579916
-0.135898
0.664574
-0.146284
0.743537
-0.155064
0.816973
-0.162424
0.885172
-0.168538
0.948447
-0.173572
1.00709
-0.17767
1.06132
-0.180961
1.11134
-0.18356
1.15727
-0.185561
1.19919
-0.1871
1.23715
-0.188191
1.27131
-0.189319
1.30141
-0.189663
1.32919
-0.192506
-0.190133
-0.0839642
0.126224
-0.170056
0.143425
-0.241454
0.136625
-0.302194
0.108058
-0.355172
0.0710229
-0.403056
0.0331281
-0.447186
0.00159054
-0.48791
-0.0200387
-0.525229
-0.0306949
-0.556419
-0.0346154
-0.581528
-0.0304089
-0.601898
-0.0189794
-0.618003
-0.00439633
-0.630166
0.0106403
-0.637317
0.022781
-0.636868
0.0284283
-0.625123
0.025403
-0.597959
0.0127725
-0.55204
-0.00756588
-0.486835
-0.0304304
-0.4028
-0.0538728
-0.300753
-0.0783912
-0.182965
-0.104081
-0.0526005
-0.129051
0.0849565
-0.15203
0.224317
-0.173327
0.362394
-0.192139
0.495158
-0.206731
0.619796
-0.217202
0.734625
-0.224127
0.839018
-0.228036
0.932795
-0.229622
1.0161
-0.229523
1.08934
-0.228228
1.15309
-0.226098
1.20801
-0.223387
1.25478
-0.220273
1.29403
-0.216867
1.32636
-0.21324
1.35227
-0.209431
1.3722
-0.205464
1.3865
-0.201386
1.39551
-0.197184
1.39935
-0.193153
1.39835
-0.188654
1.39233
-0.186477
-0.177547
-0.0546196
0.180363
-0.110391
0.198705
-0.148521
0.174611
-0.173127
0.1329
-0.191341
0.0898232
-0.211034
0.0536805
-0.237003
0.0286408
-0.26934
0.0134584
-0.30598
0.00714638
-0.337515
-0.00221185
-0.360632
-0.00663064
-0.375385
-0.00378283
-0.380529
0.00107705
-0.374673
0.00500422
-0.35626
0.00459533
-0.326385
-0.00133774
-0.28554
-0.0154451