/*--------------------------------*- C++ -*----------------------------------*\
| =========                 |                                                 |
| \\      /  F ield         | OpenFOAM: The Open Source CFD Toolbox           |
|  \\    /   O peration     | Version:  2406                                  |
|   \\  /    A nd           | Website:  www.openfoam.com                      |
|    \\/     M anipulation  |                                                 |
\*---------------------------------------------------------------------------*/
FoamFile
{
    version     2.0;
    format      ascii;
    arch        "LSB;label=32;scalar=64";
    class       volScalarField;
    location    "79";
    object      p;
}
// * * * * * * * * * * * * * * * * * * * * * * * * * * * * * * * * * * * * * //

dimensions      [0 2 -2 0 0 0 0];

internalField   nonuniform List<scalar> 
2000
(
0.166121
0.165849
0.165021
0.163864
0.162547
0.161123
0.159625
0.15808
0.156505
0.154906
0.167403
0.166279
0.165065
0.163845
0.162519
0.161087
0.159588
0.158048
0.156478
0.154884
0.16819
0.166522
0.165018
0.16378
0.162477
0.161044
0.159542
0.158008
0.156445
0.154856
0.168699
0.1668
0.165073
0.163763
0.162452
0.161007
0.159495
0.157959
0.156402
0.154819
0.169096
0.167092
0.165198
0.163791
0.162448
0.160984
0.159455
0.157912
0.156356
0.154776
0.169406
0.167346
0.165339
0.163846
0.162465
0.160979
0.15943
0.157876
0.156315
0.154736
0.169643
0.16755
0.16547
0.163913
0.162495
0.160986
0.159419
0.157851
0.156284
0.154703
0.169814
0.167703
0.165578
0.163976
0.162527
0.160998
0.159415
0.157836
0.156262
0.154678
0.169926
0.167804
0.165653
0.164023
0.162554
0.16101
0.159415
0.157827
0.156249
0.154661
0.169981
0.167855
0.165692
0.164048
0.162569
0.161017
0.159416
0.157824
0.156242
0.154653
0.169981
0.167855
0.165692
0.164048
0.162569
0.161017
0.159416
0.157824
0.156242
0.154653
0.169926
0.167804
0.165653
0.164023
0.162554
0.16101
0.159415
0.157827
0.156249
0.154661
0.169814
0.167703
0.165578
0.163976
0.162527
0.160998
0.159415
0.157836
0.156262
0.154678
0.169643
0.16755
0.16547
0.163913
0.162495
0.160986
0.159419
0.157851
0.156284
0.154703
0.169406
0.167346
0.165339
0.163846
0.162465
0.160979
0.15943
0.157876
0.156315
0.154736
0.169096
0.167092
0.165198
0.163791
0.162448
0.160984
0.159455
0.157912
0.156356
0.154776
0.168699
0.1668
0.165073
0.163763
0.162452
0.161007
0.159495
0.157959
0.156402
0.154819
0.16819
0.166522
0.165018
0.16378
0.162477
0.161044
0.159542
0.158008
0.156445
0.154856
0.167403
0.166278
0.165065
0.163845
0.162519
0.161087
0.159588
0.158048
0.156478
0.154884
0.166121
0.165849
0.165021
0.163864
0.162547
0.161123
0.159625
0.15808
0.156505
0.154906
0.15329
0.151661
0.150021
0.148373
0.146717
0.145056
0.143389
0.141717
0.140042
0.138363
0.136681
0.134996
0.133309
0.131619
0.129927
0.128233
0.126537
0.124839
0.12314
0.121439
0.119737
0.118033
0.116328
0.114623
0.112915
0.111207
0.109498
0.107788
0.106077
0.104365
0.102653
0.100939
0.0992253
0.0975104
0.0957949
0.153271
0.151645
0.150007
0.148361
0.146707
0.145046
0.143381
0.14171
0.140035
0.138357
0.136676
0.134991
0.133304
0.131614
0.129923
0.128229
0.126533
0.124836
0.123137
0.121436
0.119734
0.118031
0.116326
0.11462
0.112913
0.111205
0.109496
0.107786
0.106075
0.104364
0.102651
0.100938
0.0992237
0.0975089
0.0957934
0.153248
0.151625
0.14999
0.148346
0.146694
0.145035
0.143371
0.141701
0.140028
0.13835
0.136669
0.134986
0.133299
0.13161
0.129918
0.128225
0.12653
0.124832
0.123133
0.121433
0.119731
0.118028
0.116324
0.114618
0.112911
0.111203
0.109494
0.107784
0.106074
0.104362
0.102649
0.100936
0.0992222
0.0975075
0.0957921
0.153216
0.151597
0.149967
0.148326
0.146677
0.14502
0.143357
0.14169
0.140018
0.138342
0.136662
0.134979
0.133293
0.131604
0.129913
0.12822
0.126525
0.124829
0.12313
0.12143
0.119728
0.118026
0.116321
0.114616
0.112909
0.111201
0.109492
0.107783
0.106072
0.10436
0.102648
0.100935
0.0992209
0.0975062
0.0957909
0.153176
0.151562
0.149936
0.148299
0.146653
0.144999
0.143339
0.141674
0.140004
0.13833
0.136652
0.13497
0.133285
0.131597
0.129907
0.128214
0.12652
0.124824
0.123126
0.121426
0.119725
0.118022
0.116318
0.114613
0.112906
0.111199
0.10949
0.10778
0.10607
0.104358
0.102646
0.100933
0.0992193
0.0975047
0.0957894
0.153138
0.151526
0.149903
0.148271
0.146628
0.144976
0.143318
0.141655
0.139988
0.138316
0.13664
0.134959
0.133275
0.131588
0.129898
0.128207
0.126513
0.124818
0.12312
0.121421
0.119721
0.118018
0.116314
0.114609
0.112903
0.111195
0.109487
0.107778
0.106067
0.104356
0.102644
0.100931
0.0992173
0.0975029
0.0957877
0.153104
0.151493
0.149874
0.148244
0.146604
0.144954
0.143298
0.141637
0.139972
0.138302
0.136628
0.134949
0.133265
0.131579
0.12989
0.128199
0.126506
0.124812
0.123115
0.121416
0.119716
0.118014
0.116311
0.114606
0.112899
0.111192
0.109484
0.107775
0.106065
0.104354
0.102642
0.100929
0.0992153
0.097501
0.0957859
0.153078
0.151467
0.149849
0.148222
0.146584
0.144936
0.143281
0.141621
0.139958
0.13829
0.136617
0.134939
0.133257
0.131571
0.129883
0.128192
0.1265
0.124806
0.12311
0.121412
0.119712
0.118011
0.116307
0.114602
0.112896
0.111189
0.109481
0.107772
0.106062
0.104351
0.10264
0.100927
0.0992135
0.0974993
0.0957842
0.15306
0.15145
0.149832
0.148206
0.146569
0.144923
0.143269
0.14161
0.139948
0.138281
0.13661
0.134933
0.133251
0.131566
0.129878
0.128187
0.126496
0.124802
0.123106
0.121409
0.11971
0.118008
0.116305
0.1146
0.112894
0.111187
0.109479
0.10777
0.10606
0.10435
0.102638
0.100926
0.0992122
0.097498
0.095783
0.153051
0.15144
0.149823
0.148198
0.146562
0.144916
0.143262
0.141604
0.139942
0.138276
0.136606
0.134929
0.133248
0.131563
0.129875
0.128185
0.126493
0.1248
0.123105
0.121407
0.119708
0.118007
0.116303
0.114599
0.112893
0.111186
0.109478
0.107769
0.106059
0.104349
0.102637
0.100925
0.0992115
0.0974973
0.0957823
0.153051
0.15144
0.149823
0.148198
0.146562
0.144916
0.143262
0.141604
0.139942
0.138276
0.136606
0.134929
0.133248
0.131563
0.129875
0.128185
0.126493
0.1248
0.123105
0.121407
0.119708
0.118007
0.116303
0.114599
0.112893
0.111186
0.109478
0.107769
0.106059
0.104349
0.102637
0.100925
0.0992114
0.0974973
0.0957823
0.15306
0.15145
0.149832
0.148206
0.146569
0.144923
0.143269
0.14161
0.139948
0.138281
0.13661
0.134933
0.133251
0.131566
0.129878
0.128187
0.126496
0.124802
0.123106
0.121409
0.119709
0.118008
0.116305
0.1146
0.112894
0.111187
0.109479
0.10777
0.10606
0.10435
0.102638
0.100925
0.0992121
0.0974979
0.0957829
0.153078
0.151468
0.149849
0.148222
0.146584
0.144936
0.143281
0.141622
0.139958
0.13829
0.136617
0.134939
0.133257
0.131571
0.129883
0.128192
0.1265
0.124806
0.12311
0.121412
0.119712
0.118011
0.116307
0.114602
0.112896
0.111189
0.109481
0.107772
0.106062
0.104351
0.10264
0.100927
0.0992135
0.0974992
0.0957841
0.153104
0.151493
0.149873
0.148244
0.146604
0.144954
0.143298
0.141637
0.139972
0.138302
0.136627
0.134948
0.133265
0.131579
0.12989
0.128199
0.126506
0.124812
0.123115
0.121416
0.119716
0.118014
0.11631
0.114605
0.112899
0.111192
0.109484
0.107775
0.106064
0.104353
0.102642
0.100929
0.0992152
0.0975009
0.0957857
0.153138
0.151526
0.149903
0.148271
0.146628
0.144976
0.143318
0.141655
0.139988
0.138316
0.136639
0.134959
0.133275
0.131588
0.129898
0.128207
0.126513
0.124818
0.12312
0.121421
0.11972
0.118018
0.116314
0.114609
0.112903
0.111195
0.109487
0.107778
0.106067
0.104356
0.102644
0.100931
0.0992172
0.0975028
0.0957876
0.153176
0.151562
0.149936
0.148299
0.146653
0.144999
0.143339
0.141674
0.140004
0.13833
0.136651
0.13497
0.133285
0.131597
0.129907
0.128214
0.12652
0.124824
0.123126
0.121426
0.119725
0.118022
0.116318
0.114613
0.112906
0.111199
0.10949
0.10778
0.10607
0.104358
0.102646
0.100933
0.0992191
0.0975046
0.0957893
0.153216
0.151597
0.149967
0.148326
0.146677
0.14502
0.143357
0.14169
0.140018
0.138342
0.136662
0.134979
0.133293
0.131604
0.129913
0.12822
0.126525
0.124829
0.12313
0.12143
0.119728
0.118025
0.116321
0.114616
0.112909
0.111201
0.109492
0.107783
0.106072
0.10436
0.102648
0.100935
0.0992208
0.0975061
0.0957908
0.153248
0.151625
0.14999
0.148346
0.146694
0.145035
0.143371
0.141701
0.140028
0.13835
0.136669
0.134986
0.133299
0.13161
0.129918
0.128225
0.126529
0.124832
0.123133
0.121433
0.119731
0.118028
0.116324
0.114618
0.112911
0.111203
0.109494
0.107784
0.106074
0.104362
0.102649
0.100936
0.0992221
0.0975074
0.095792
0.153272
0.151645
0.150007
0.148361
0.146707
0.145046
0.143381
0.14171
0.140035
0.138357
0.136676
0.134991
0.133304
0.131614
0.129923
0.128229
0.126533
0.124836
0.123137
0.121436
0.119734
0.118031
0.116326
0.11462
0.112913
0.111205
0.109496
0.107786
0.106075
0.104364
0.102651
0.100938
0.0992236
0.0975088
0.0957933
0.15329
0.151661
0.150021
0.148373
0.146717
0.145056
0.143389
0.141717
0.140042
0.138363
0.136681
0.134996
0.133309
0.131619
0.129927
0.128233
0.126537
0.124839
0.12314
0.121439
0.119737
0.118033
0.116328
0.114622
0.112915
0.111207
0.109498
0.107788
0.106077
0.104365
0.102653
0.100939
0.0992252
0.0975103
0.0957948
0.0940787
0.0923619
0.0906445
0.0889265
0.087208
0.0854889
0.0837693
0.0820493
0.0803287
0.0786077
0.0940773
0.0923605
0.0906432
0.0889252
0.0872068
0.0854877
0.0837682
0.0820482
0.0803277
0.0786067
0.094076
0.0923593
0.090642
0.0889241
0.0872056
0.0854867
0.0837672
0.0820472
0.0803267
0.0786058
0.0940749
0.0923582
0.0906409
0.0889231
0.0872047
0.0854857
0.0837663
0.0820463
0.0803259
0.078605
0.0940735
0.0923569
0.0906397
0.0889218
0.0872035
0.0854846
0.0837652
0.0820453
0.0803249
0.078604
0.0940718
0.0923553
0.0906381
0.0889204
0.0872021
0.0854832
0.0837639
0.082044
0.0803237
0.0786029
0.0940701
0.0923536
0.0906365
0.0889188
0.0872006
0.0854818
0.0837625
0.0820427
0.0803225
0.0786018
0.0940684
0.092352
0.090635
0.0889173
0.0871991
0.0854804
0.0837612
0.0820415
0.0803213
0.0786007
0.0940672
0.0923508
0.0906338
0.0889162
0.087198
0.0854794
0.0837602
0.0820406
0.0803205
0.0785998
0.0940666
0.0923502
0.0906331
0.0889156
0.0871974
0.0854788
0.0837597
0.0820401
0.08032
0.0785994
0.0940665
0.0923501
0.0906331
0.0889155
0.0871974
0.0854788
0.0837597
0.0820401
0.08032
0.0785994
0.0940672
0.0923508
0.0906337
0.0889161
0.087198
0.0854793
0.0837602
0.0820405
0.0803204
0.0785998
0.0940683
0.0923519
0.0906349
0.0889172
0.0871991
0.0854804
0.0837612
0.0820415
0.0803213
0.0786006
0.0940699
0.0923535
0.0906364
0.0889187
0.0872005
0.0854817
0.0837624
0.0820426
0.0803224
0.0786016
0.0940717
0.0923551
0.090638
0.0889202
0.0872019
0.0854831
0.0837638
0.0820439
0.0803236
0.0786028
0.0940733
0.0923567
0.0906395
0.0889217
0.0872033
0.0854844
0.083765
0.0820451
0.0803247
0.0786039
0.0940747
0.0923581
0.0906408
0.0889229
0.0872045
0.0854856
0.0837661
0.0820461
0.0803257
0.0786048
0.0940759
0.0923592
0.0906418
0.0889239
0.0872055
0.0854865
0.083767
0.082047
0.0803265
0.0786056
0.0940772
0.0923604
0.090643
0.0889251
0.0872066
0.0854876
0.083768
0.082048
0.0803275
0.0786065
0.0940786
0.0923617
0.0906443
0.0889263
0.0872078
0.0854887
0.0837691
0.0820491
0.0803285
0.0786075
0.0768863
0.0751645
0.0734422
0.0717196
0.0699966
0.0682732
0.0665494
0.0648253
0.0631009
0.0613762
0.0596511
0.0579258
0.0562001
0.0544742
0.052748
0.0510215
0.0492948
0.0475678
0.0458406
0.0441132
0.0423855
0.0406576
0.0389295
0.0372011
0.0354726
0.0337439
0.032015
0.0302859
0.0285566
0.0268271
0.0250975
0.0233676
0.0216377
0.0199075
0.0181772
0.0768853
0.0751635
0.0734413
0.0717187
0.0699957
0.0682723
0.0665486
0.0648246
0.0631002
0.0613754
0.0596504
0.0579251
0.0561994
0.0544735
0.0527474
0.0510209
0.0492942
0.0475672
0.04584
0.0441126
0.042385
0.0406571
0.038929
0.0372007
0.0354721
0.0337434
0.0320145
0.0302854
0.0285561
0.0268267
0.025097
0.0233672
0.0216373
0.0199072
0.0181769
0.0768844
0.0751627
0.0734405
0.0717179
0.0699949
0.0682716
0.0665479
0.0648238
0.0630995
0.0613748
0.0596498
0.0579244
0.0561988
0.0544729
0.0527468
0.0510204
0.0492937
0.0475667
0.0458395
0.0441121
0.0423845
0.0406566
0.0389285
0.0372002
0.0354717
0.033743
0.0320141
0.030285
0.0285558
0.0268263
0.0250967
0.0233669
0.0216369
0.0199068
0.0181766
0.0768837
0.0751619
0.0734398
0.0717172
0.0699943
0.068271
0.0665473
0.0648233
0.0630989
0.0613742
0.0596492
0.0579239
0.0561983
0.0544725
0.0527463
0.0510199
0.0492932
0.0475663
0.0458391
0.0441117
0.0423841
0.0406562
0.0389281
0.0371999
0.0354714
0.0337427
0.0320138
0.0302847
0.0285554
0.026826
0.0250964
0.0233666
0.0216367
0.0199066
0.0181763
0.0768828
0.0751611
0.0734389
0.0717164
0.0699935
0.0682702
0.0665466
0.0648226
0.0630982
0.0613736
0.0596486
0.0579233
0.0561977
0.0544719
0.0527458
0.0510194
0.0492927
0.0475658
0.0458386
0.0441113
0.0423836
0.0406558
0.0389277
0.0371995
0.035471
0.0337423
0.0320134
0.0302843
0.0285551
0.0268257
0.0250961
0.0233663
0.0216364
0.0199063
0.018176
0.0768817
0.0751601
0.073438
0.0717155
0.0699926
0.0682694
0.0665457
0.0648218
0.0630975
0.0613728
0.0596479
0.0579226
0.0561971
0.0544712
0.0527451
0.0510188
0.0492921
0.0475652
0.0458381
0.0441107
0.0423831
0.0406553
0.0389272
0.037199
0.0354705
0.0337418
0.032013
0.0302839
0.0285547
0.0268253
0.0250957
0.0233659
0.021636
0.0199059
0.0181757
0.0768806
0.075159
0.0734369
0.0717145
0.0699917
0.0682684
0.0665448
0.0648209
0.0630966
0.061372
0.0596471
0.0579218
0.0561963
0.0544705
0.0527444
0.0510181
0.0492915
0.0475646
0.0458375
0.0441101
0.0423825
0.0406547
0.0389267
0.0371984
0.03547
0.0337413
0.0320125
0.0302834
0.0285542
0.0268248
0.0250953
0.0233655
0.0216356
0.0199055
0.0181753
0.0768796
0.075158
0.073436
0.0717136
0.0699907
0.0682675
0.066544
0.0648201
0.0630958
0.0613712
0.0596463
0.0579211
0.0561956
0.0544698
0.0527438
0.0510175
0.0492909
0.047564
0.0458369
0.0441096
0.042382
0.0406542
0.0389262
0.0371979
0.0354695
0.0337409
0.032012
0.030283
0.0285538
0.0268244
0.0250948
0.0233651
0.0216352
0.0199051
0.0181749
0.0768788
0.0751572
0.0734352
0.0717128
0.06999
0.0682669
0.0665433
0.0648194
0.0630952
0.0613706
0.0596457
0.0579205
0.0561951
0.0544693
0.0527433
0.051017
0.0492904
0.0475635
0.0458364
0.0441091
0.0423816
0.0406538
0.0389257
0.0371975
0.0354691
0.0337405
0.0320116
0.0302826
0.0285534
0.026824
0.0250945
0.0233648
0.0216349
0.0199048
0.0181746
0.0768783
0.0751568
0.0734348
0.0717124
0.0699896
0.0682665
0.0665429
0.064819
0.0630948
0.0613702
0.0596454
0.0579202
0.0561947
0.054469
0.052743
0.0510167
0.0492901
0.0475633
0.0458362
0.0441088
0.0423813
0.0406535
0.0389255
0.0371973
0.0354688
0.0337402
0.0320114
0.0302824
0.0285532
0.0268238
0.0250942
0.0233645
0.0216347
0.0199046
0.0181744
0.0768783
0.0751568
0.0734348
0.0717124
0.0699896
0.0682664
0.0665429
0.064819
0.0630948
0.0613702
0.0596453
0.0579202
0.0561947
0.054469
0.0527429
0.0510166
0.04929
0.0475632
0.0458361
0.0441088
0.0423812
0.0406534
0.0389254
0.0371972
0.0354688
0.0337401
0.0320113
0.0302823
0.0285531
0.0268237
0.0250942
0.0233645
0.0216346
0.0199046
0.0181744
0.0768787
0.0751572
0.0734352
0.0717128
0.06999
0.0682668
0.0665432
0.0648193
0.0630951
0.0613705
0.0596456
0.0579204
0.056195
0.0544692
0.0527432
0.0510168
0.0492903
0.0475634
0.0458363
0.044109
0.0423814
0.0406536
0.0389256
0.0371974
0.0354689
0.0337403
0.0320115
0.0302824
0.0285532
0.0268239
0.0250943
0.0233646
0.0216347
0.0199046
0.0181745
0.0768795
0.0751579
0.0734359
0.0717134
0.0699906
0.0682674
0.0665438
0.0648199
0.0630956
0.0613711
0.0596462
0.057921
0.0561955
0.0544697
0.0527436
0.0510173
0.0492907
0.0475638
0.0458367
0.0441094
0.0423818
0.040654
0.0389259
0.0371977
0.0354693
0.0337406
0.0320118
0.0302827
0.0285535
0.0268241
0.0250946
0.0233648
0.0216349
0.0199049
0.0181747
0.0768805
0.0751588
0.0734368
0.0717143
0.0699915
0.0682682
0.0665446
0.0648207
0.0630964
0.0613718
0.0596469
0.0579216
0.0561961
0.0544703
0.0527442
0.0510179
0.0492912
0.0475644
0.0458372
0.0441099
0.0423823
0.0406544
0.0389264
0.0371981
0.0354697
0.033741
0.0320122
0.0302831
0.0285539
0.0268245
0.0250949
0.0233652
0.0216352
0.0199052
0.018175
0.0768815
0.0751599
0.0734378
0.0717153
0.0699924
0.0682691
0.0665455
0.0648215
0.0630972
0.0613726
0.0596476
0.0579224
0.0561968
0.054471
0.0527449
0.0510185
0.0492918
0.0475649
0.0458378
0.0441104
0.0423828
0.0406549
0.0389269
0.0371986
0.0354701
0.0337415
0.0320126
0.0302835
0.0285543
0.0268249
0.0250953
0.0233655
0.0216356
0.0199055
0.0181753
0.0768826
0.0751609
0.0734387
0.0717162
0.0699933
0.06827
0.0665463
0.0648223
0.063098
0.0613733
0.0596483
0.057923
0.0561975
0.0544716
0.0527455
0.0510191
0.0492924
0.0475655
0.0458383
0.0441109
0.0423833
0.0406554
0.0389273
0.0371991
0.0354706
0.0337419
0.032013
0.0302839
0.0285547
0.0268252
0.0250956
0.0233658
0.0216359
0.0199058
0.0181756
0.0768835
0.0751617
0.0734396
0.071717
0.069994
0.0682707
0.066547
0.064823
0.0630986
0.0613739
0.0596489
0.0579236
0.056198
0.0544722
0.052746
0.0510196
0.0492929
0.0475659
0.0458388
0.0441114
0.0423837
0.0406558
0.0389277
0.0371994
0.0354709
0.0337422
0.0320133
0.0302843
0.028555
0.0268256
0.0250959
0.0233662
0.0216362
0.0199061
0.0181759
0.0768842
0.0751625
0.0734403
0.0717177
0.0699947
0.0682713
0.0665476
0.0648236
0.0630992
0.0613745
0.0596495
0.0579242
0.0561985
0.0544726
0.0527465
0.05102
0.0492933
0.0475664
0.0458392
0.0441118
0.0423841
0.0406562
0.0389281
0.0371998
0.0354713
0.0337426
0.0320137
0.0302846
0.0285553
0.0268259
0.0250962
0.0233664
0.0216365
0.0199064
0.0181761
0.0768851
0.0751633
0.0734411
0.0717185
0.0699955
0.0682721
0.0665484
0.0648243
0.0630999
0.0613752
0.0596501
0.0579248
0.0561991
0.0544732
0.052747
0.0510206
0.0492939
0.0475669
0.0458397
0.0441123
0.0423846
0.0406567
0.0389286
0.0372003
0.0354717
0.033743
0.0320141
0.030285
0.0285557
0.0268262
0.0250966
0.0233668
0.0216368
0.0199067
0.0181764
0.0768861
0.0751643
0.073442
0.0717194
0.0699963
0.0682729
0.0665492
0.0648251
0.0631007
0.0613759
0.0596508
0.0579255
0.0561998
0.0544739
0.0527477
0.0510212
0.0492945
0.0475675
0.0458403
0.0441128
0.0423851
0.0406572
0.0389291
0.0372008
0.0354722
0.0337435
0.0320146
0.0302854
0.0285561
0.0268267
0.025097
0.0233672
0.0216372
0.0199071
0.0181768
0.0164468
0.0147162
0.0129855
0.0112546
0.00952354
0.00779238
0.00606108
0.00432965
0.00259804
0.000866353
0.0164464
0.0147159
0.0129851
0.0112542
0.00952323
0.00779208
0.00606078
0.00432943
0.00259775
0.000866288
0.0164461
0.0147156
0.0129848
0.011254
0.00952297
0.00779183
0.00606053
0.00432924
0.00259744
0.000866369
0.0164459
0.0147153
0.0129846
0.0112538
0.00952278
0.00779166
0.00606038
0.0043291
0.00259726
0.000866379
0.0164456
0.0147151
0.0129844
0.0112535
0.00952257
0.00779148
0.00606022
0.00432895
0.00259714
0.000866176
0.0164453
0.0147148
0.0129841
0.0112533
0.00952234
0.00779127
0.00606005
0.00432881
0.00259707
0.000865755
0.0164449
0.0147144
0.0129838
0.011253
0.00952207
0.00779104
0.00605987
0.00432864
0.00259708
0.000865153
0.0164446
0.0147141
0.0129835
0.0112527
0.00952181
0.0077908
0.00605969
0.00432849
0.00259713
0.000864503
0.0164443
0.0147138
0.0129832
0.0112524
0.00952158
0.0077906
0.00605954
0.00432836
0.00259719
0.000863964
0.0164441
0.0147136
0.012983
0.0112523
0.00952143
0.00779047
0.00605944
0.00432828
0.00259723
0.000863675
0.016444
0.0147136
0.0129829
0.0112522
0.00952138
0.00779043
0.0060594
0.00432826
0.0025972
0.000863723
0.0164441
0.0147136
0.012983
0.0112523
0.00952143
0.00779047
0.00605944
0.00432829
0.00259714
0.000864097
0.0164443
0.0147138
0.0129832
0.0112524
0.00952158
0.0077906
0.00605952
0.00432839
0.00259703
0.000864704
0.0164446
0.0147141
0.0129834
0.0112527
0.00952178
0.00779078
0.00605966
0.0043285
0.00259696
0.000865392
0.0164449
0.0147144
0.0129837
0.0112529
0.009522
0.00779098
0.00605981
0.00432864
0.00259694
0.000865998
0.0164452
0.0147146
0.012984
0.0112532
0.00952222
0.00779117
0.00605997
0.00432879
0.002597
0.000866393
0.0164454
0.0147149
0.0129842
0.0112534
0.00952243
0.00779135
0.00606014
0.00432892
0.00259714
0.000866547
0.0164457
0.0147151
0.0129844
0.0112536
0.00952263
0.00779154
0.00606028
0.00432907
0.00259733
0.000866476
0.016446
0.0147155
0.0129847
0.0112539
0.00952292
0.0077918
0.00606056
0.00432927
0.00259765
0.000866331
0.0164464
0.0147158
0.0129851
0.0112542
0.00952325
0.00779213
0.00606088
0.0043295
0.00259797
0.000866358
)
;

boundaryField
{
    inlet
    {
        type            zeroGradient;
    }
    outlet
    {
        type            fixedValue;
        value           uniform 0;
    }
    upperWall
    {
        type            zeroGradient;
    }
    lowerWall
    {
        type            zeroGradient;
    }
    frontAndBack
    {
        type            empty;
    }
}


// ************************************************************************* //
