/*--------------------------------*- C++ -*----------------------------------*\
| =========                 |                                                 |
| \\      /  F ield         | OpenFOAM: The Open Source CFD Toolbox           |
|  \\    /   O peration     | Version:  2406                                  |
|   \\  /    A nd           | Website:  www.openfoam.com                      |
|    \\/     M anipulation  |                                                 |
\*---------------------------------------------------------------------------*/
FoamFile
{
    version     2.0;
    format      ascii;
    arch        "LSB;label=32;scalar=64";
    class       volScalarField;
    location    "2000";
    object      p;
}
// * * * * * * * * * * * * * * * * * * * * * * * * * * * * * * * * * * * * * //

dimensions      [0 2 -2 0 0 0 0];

internalField   nonuniform List<scalar> 
1964
(
62.1867
62.1859
62.1822
62.1761
62.1683
62.159
62.1482
62.1362
62.1233
62.1095
62.0951
62.08
62.0645
62.0485
62.0322
62.0155
61.9985
61.9812
61.9636
61.9456
61.9274
61.9087
61.8895
61.8697
61.8491
61.8275
61.8045
61.7799
61.753
61.723
61.6889
61.6492
61.6017
61.5434
61.4696
61.3735
61.2445
61.0665
60.8145
60.4501
59.9145
59.1199
57.9405
56.2041
53.6989
50.1946
45.5155
62.2001
62.1917
62.1837
62.1768
62.1689
62.1594
62.1484
62.1363
62.1233
62.1094
62.095
62.0799
62.0643
62.0484
62.032
62.0154
61.9985
61.9813
61.9638
61.946
61.9279
61.9094
61.8905
61.8711
61.8509
61.8299
61.8078
61.7842
61.7586
61.7304
61.6986
61.662
61.6186
61.5656
61.4989
61.4118
61.2945
61.131
60.8963
60.5509
60.034
59.2524
58.0708
56.2979
53.6939
49.9824
44.9728
62.2135
62.1974
62.1839
62.1756
62.1677
62.158
62.1468
62.1347
62.1219
62.1083
62.0939
62.079
62.0637
62.0479
62.0318
62.0155
61.9989
61.9821
61.9651
61.948
61.9307
61.9133
61.8957
61.8779
61.86
61.8418
61.8234
61.8046
61.7853
61.7654
61.7444
61.7219
61.6968
61.6676
61.6315
61.5835
61.5151
61.4118
61.2488
60.9847
60.5522
59.8458
58.7067
56.9016
54.1318
49.9752
44.1568
62.2243
62.2043
62.1868
62.1767
62.1682
62.1579
62.1462
62.1339
62.121
62.1075
62.0933
62.0785
62.0633
62.0478
62.032
62.0161
62.0001
61.9841
61.9681
61.9522
61.9365
61.9212
61.9063
61.8921
61.8788
61.8665
61.8559
61.8472
61.8411
61.8384
61.8398
61.8463
61.8589
61.8784
61.9048
61.9365
61.9688
61.9906
61.9794
61.893
61.6552
61.139
60.1384
58.3494
55.3837
50.5985
43.7635
62.233
62.211
62.1905
62.1782
62.1685
62.1576
62.1453
62.1326
62.1197
62.1061
62.0921
62.0775
62.0626
62.0475
62.0323
62.017
62.0019
61.987
61.9725
61.9585
61.9453
61.9331
61.9223
61.9134
61.9069
61.9036
61.9046
61.9111
61.9248
61.9478
61.9827
62.0329
62.1021
62.195
62.3161
62.4698
62.6581
62.8779
63.1147
63.3327
63.4527
63.3273
62.6624
61.0185
57.5909
51.4864
42.5272
62.2396
62.2165
62.194
62.1798
62.169
62.1573
62.1446
62.1316
62.1185
62.105
62.091
62.0767
62.0621
62.0474
62.0328
62.0184
62.0043
61.9908
61.978
61.9663
61.9561
61.9477
61.942
61.9396
61.9416
61.9494
61.9648
61.9901
62.0283
62.0832
62.1598
62.2643
62.4042
62.5891
62.8299
63.1393
63.5299
64.0123
64.5893
65.2465
65.9266
66.5021
66.6333
65.7676
62.1554
54.2617
36.7097
62.2443
62.2204
62.1966
62.181
62.1692
62.1569
62.1437
62.1304
62.117
62.1035
62.0896
62.0755
62.0613
62.0471
62.0331
62.0195
62.0066
61.9945
61.9836
61.9743
61.9672
61.963
61.9626
61.9671
61.9782
61.9978
62.0285
62.0739
62.1383
62.2274
62.3485
62.5112
62.7272
63.0116
63.3828
63.8635
64.4797
65.2608
66.2354
67.4259
68.8294
70.3991
71.9248
73.037
71.9967
66.7769
38.7051
62.2469
62.2227
62.1981
62.1815
62.1689
62.1561
62.1425
62.1289
62.1154
62.1019
62.0881
62.0742
62.0603
62.0465
62.0331
62.0203
62.0083
61.9976
61.9884
61.9814
61.9772
61.9767
61.9812
61.9921
62.0114
62.0419
62.0868
62.1506
62.2391
62.3597
62.522
62.7386
63.0253
63.4026
63.8963
64.539
65.3711
66.4415
67.808
69.5349
71.6856
74.3107
77.3952
80.8524
84.1204
86.7683
82.3319
62.2478
62.2234
62.1982
62.181
62.1679
62.1547
62.1409
62.1271
62.1135
62.1
62.0863
62.0725
62.0588
62.0454
62.0325
62.0202
62.009
61.9992
61.9914
61.986
61.984
61.9865
61.9947
62.0104
62.0362
62.0749
62.1306
62.2086
62.3155
62.4603
62.6543
62.9124
63.2536
63.7027
64.2916
65.0608
66.0624
67.3617
69.0406
71.1983
73.9503
77.4209
81.7105
86.8408
92.5535
98.1375
101.722
62.2469
62.2224
62.197
62.1795
62.1662
62.1528
62.1388
62.125
62.1114
62.0978
62.0842
62.0705
62.0569
62.0437
62.031
62.0191
62.0083
61.9991
61.9919
61.9875
61.9867
61.9906
62.0008
62.0192
62.0484
62.0916
62.1532
62.2388
62.3558
62.5137
62.7249
63.0055
63.3764
63.8647
64.5054
65.3439
66.4383
67.8633
69.7135
72.107
75.1853
79.1076
84.0189
89.9843
96.7737
103.59
108.189
62.2444
62.2198
62.1944
62.177
62.1636
62.1503
62.1364
62.1226
62.109
62.0955
62.0819
62.0682
62.0546
62.0414
62.0287
62.0168
62.006
61.9968
61.9896
61.9852
61.9844
61.9883
61.9985
62.0169
62.046
62.0892
62.1508
62.2364
62.3534
62.5113
62.7226
63.0032
63.3742
63.8626
64.5034
65.3418
66.4363
67.8612
69.7113
72.1043
75.182
79.1032
84.0129
89.9764
96.7636
103.58
108.185
62.2403
62.2159
62.1907
62.1736
62.1605
62.1474
62.1337
62.12
62.1066
62.0931
62.0794
62.0657
62.052
62.0386
62.0257
62.0135
62.0023
61.9926
61.9847
61.9793
61.9773
61.9797
61.9878
62.0035
62.0292
62.0679
62.1236
62.2016
62.3086
62.4534
62.6475
62.9057
63.2471
63.6964
64.2854
65.0547
66.0562
67.3553
69.0334
71.1896
73.939
77.4055
81.6889
86.811
92.5136
98.0827
101.652
62.2349
62.2107
62.186
62.1695
62.1569
62.1443
62.1309
62.1175
62.1042
62.0907
62.077
62.0632
62.0493
62.0356
62.0223
62.0095
61.9976
61.9868
61.9776
61.9706
61.9663
61.9658
61.9702
61.981
62.0003
62.0307
62.0755
62.1393
62.2278
62.3485
62.511
62.7277
63.0146
63.3922
63.8861
64.5289
65.3607
66.4305
67.7954
69.5193
71.6646
74.281
77.3518
80.7894
84.0251
86.6358
82.0302
62.2282
62.2044
62.1805
62.165
62.1533
62.1412
62.1283
62.1152
62.102
62.0887
62.0749
62.0609
62.0467
62.0326
62.0188
62.0052
61.9923
61.9802
61.9693
61.96
61.9529
61.9486
61.948
61.9525
61.9634
61.9829
62.0136
62.0589
62.1233
62.2124
62.3337
62.4965
62.7127
62.9973
63.3687
63.8493
64.4651
65.2449
66.2169
67.4025
68.7974
70.3525
71.8532
72.9252
71.7988
66.4234
37.7275
62.2202
62.1972
62.1746
62.1604
62.1498
62.1384
62.126
62.1133
62.1004
62.0871
62.0733
62.0591
62.0446
62.0301
62.0156
62.0012
61.9872
61.9737
61.9609
61.9492
61.9389
61.9305
61.9246
61.922
61.9239
61.9316
61.9469
61.9721
62.0103
62.0652
62.1418
62.2463
62.3863
62.5712
62.812
63.121
63.5107
63.9911
64.5643
65.2146
65.8826
66.4379
66.5343
65.6112
61.8898
53.8196
35.9215
62.2111
62.1892
62.1687
62.1564
62.1469
62.1363
62.1244
62.112
62.0993
62.086
62.0721
62.0577
62.043
62.028
62.0129
61.9978
61.9828
61.9679
61.9534
61.9394
61.9261
61.9138
61.9029
61.8938
61.8871
61.8837
61.8845
61.8909
61.9044
61.9273
61.9621
62.0121
62.0812
62.1738
62.2945
62.4473
62.634
62.8509
63.0826
63.2918
63.3972
63.2485
62.5463
60.8458
57.3338
51.116
42.0345
62.2008
62.1808
62.1633
62.1533
62.145
62.1351
62.1238
62.1118
62.0992
62.0859
62.0719
62.0573
62.0423
62.027
62.0114
61.9956
61.9797
61.9637
61.9478
61.9319
61.9161
61.9007
61.8857
61.8713
61.8578
61.8453
61.8344
61.8255
61.8191
61.8161
61.8171
61.8233
61.8354
61.8542
61.8796
61.9098
61.9396
61.9575
61.9398
61.8431
61.5892
61.0488
60.0127
58.1743
55.1453
50.2841
43.3722
62.1891
62.173
62.1596
62.1513
62.1437
62.1343
62.1234
62.1117
62.0991
62.0858
62.0717
62.0571
62.042
62.0264
62.0105
61.9943
61.9779
61.9611
61.9442
61.9271
61.9097
61.8922
61.8745
61.8565
61.8384
61.8199
61.8012
61.782
61.7623
61.7419
61.7203
61.6971
61.6711
61.6407
61.6029
61.5525
61.4808
61.3724
61.2017
60.9261
60.4768
59.7459
58.5731
56.7231
53.8975
49.6752
43.7855
62.1754
62.1671
62.1591
62.1523
62.1447
62.1354
62.1247
62.113
62.1002
62.0867
62.0725
62.0577
62.0424
62.0266
62.0105
61.994
61.9772
61.9601
61.9427
61.9249
61.9068
61.8882
61.8692
61.8495
61.8292
61.8078
61.7853
61.7612
61.7351
61.7062
61.6736
61.6359
61.5912
61.5365
61.4675
61.3774
61.2558
61.0862
60.8428
60.4851
59.9506
59.1447
57.9302
56.1149
53.459
49.6883
44.6158
62.1622
62.1614
62.1577
62.1518
62.1442
62.1351
62.1246
62.113
62.1003
62.0869
62.0727
62.0579
62.0427
62.0269
62.0108
61.9943
61.9774
61.9602
61.9427
61.9248
61.9065
61.8877
61.8684
61.8483
61.8275
61.8056
61.7822
61.7571
61.7296
61.6989
61.6638
61.623
61.574
61.5138
61.4374
61.3379
61.2042
61.0197
60.7587
60.3817
59.8284
59.0098
57.7982
56.021
53.4667
49.9072
45.1738
39.6381
32.812
25.6504
18.8403
12.7665
7.53183
38.6496
31.3741
23.9838
17.1958
11.2538
6.18705
36.5247
27.9135
19.9839
13.3082
7.6911
3.07921
33.5637
21.8279
12.6923
6.09701
0.926277
-2.83411
26.4067
9.3779
-0.905291
-6.46102
-9.9285
-11.4106
4.38077
-10.9922
-15.6285
-16.3343
-15.7581
-13.9502
-20.8855
-17.8353
-16.5519
-17.7043
-17.3096
-15.5131
-23.1595
-19.8192
-18.1959
-18.8721
-18.0997
-16.0022
2.94778
-12.7807
-17.2902
-16.903
-15.2799
-12.8314
25.7004
8.47498
-1.70411
-6.68805
-9.66262
-11.0244
33.0662
21.2239
12.1066
5.6805
0.692584
-3.00978
36.0729
27.3916
19.4592
12.8803
7.4281
2.97336
38.2364
30.9272
23.5571
16.8643
11.0783
6.19265
39.2531
32.4122
25.2833
18.5639
12.6349
7.58316
3.13345
-0.487896
-3.45406
-5.89526
-7.88468
-9.4823
-10.7492
-11.6911
-12.2794
-12.492
-12.3325
-11.8373
-11.0794
-10.1666
-9.23204
-8.41439
-7.83089
-7.54737
-7.55535
-7.76759
-8.04018
-8.2167
-8.20147
-7.9768
-7.56349
-7.03995
-6.47451
-5.91702
-5.39447
-4.90818
-4.44707
-3.99758
-3.54554
-3.06576
-2.51494
-1.8523
-1.06935
-0.200912
0.699334
1.5606
2.29186
2.80577
3.04342
2.94348
2.53233
1.5858
0.963311
1.99052
-1.42636
-4.23682
-6.60433
-8.64485
-10.4056
-11.8712
-13.0077
-13.7698
-14.1195
-14.045
-13.5705
-12.7602
-11.719
-10.5864
-9.51902
-8.66408
-8.12159
-7.91087
-7.95597
-8.1069
-8.19692
-8.10731
-7.80436
-7.35191
-6.8358
-6.31249
-5.81197
-5.34255
-4.90502
-4.49347
-4.08798
-3.66443
-3.19283
-2.63269
-1.95322
-1.15625
-0.282539
0.606419
1.44002
2.13934
2.6228
2.83364
2.70664
2.28922
1.27723
0.934557
-0.533346
-3.38392
-5.79246
-7.94197
-9.88994
-11.6452
-13.1967
-14.512
-15.5368
-16.2162
-16.5206
-16.4506
-16.0353
-15.3275
-14.3974
-13.3281
-12.2087
-11.1261
-10.1496
-9.31674
-8.62519
-8.04138
-7.52628
-7.05706
-6.62539
-6.22109
-5.82902
-5.43813
-5.04505
-4.64893
-4.25143
-3.84624
-3.41194
-2.92469
-2.35702
-1.6918
-0.938037
-0.134581
0.660559
1.38166
1.96033
2.33226
2.4531
2.28331
1.86004
1.01803
0.671455
-5.21753
-6.82824
-8.2952
-9.88771
-11.6301
-13.4563
-15.2553
-16.8897
-18.2452
-19.2523
-19.8726
-20.0963
-19.9398
-19.436
-18.6216
-17.5322
-16.2013
-14.6677
-12.9803
-11.2054
-9.42814
-7.74677
-6.25566
-5.02185
-4.06707
-3.36778
-2.87136
-2.5171
-2.25208
-2.03337
-1.8265
-1.61391
-1.37777
-1.09271
-0.735604
-0.298185
0.205813
0.740721
1.25708
1.70127
2.02268
2.1807
2.149
1.92615
1.51274
0.983834
0.278838
-11.5112
-11.3323
-11.4513
-12.0863
-13.2921
-14.9828
-16.9325
-18.8848
-20.623
-22.006
-22.9772
-23.5292
-23.68
-23.4469
-22.8302
-21.8081
-20.3512
-18.4385
-16.08
-13.337
-10.341
-7.29113
-4.41573
-1.91744
0.0746846
1.52249
2.46738
2.9951
3.20183
3.18122
3.02234
2.7911
2.53277
2.29783
2.13039
2.05146
2.05571
2.11682
2.19597
2.25149
2.24604
2.15324
1.95649
1.66949
1.26988
0.940906
0.064483
-11.9627
-11.1711
-11.2736
-12.0674
-13.4306
-15.2759
-17.3892
-19.5024
-21.3993
-22.9415
-24.0623
-24.7677
-25.1033
-25.1066
-24.7686
-24.0204
-22.7563
-20.8614
-18.2499
-14.9124
-10.974
-6.71277
-2.50043
1.2987
4.41873
6.74039
8.27991
9.12177
9.36221
9.11672
8.5235
7.71253
6.79287
5.87401
5.04421
4.35038
3.79991
3.3726
3.03381
2.74559
2.47397
2.19249
1.88333
1.53977
1.1585
0.788624
0.218111
-12.5504
-11.2005
-11.0216
-11.7372
-13.1945
-15.1931
-17.4484
-19.6746
-21.6454
-23.2202
-24.343
-25.0355
-25.3596
-25.3802
-25.1101
-24.4843
-23.3738
-21.6112
-19.0217
-15.4907
-11.0718
-6.06332
-0.939112
3.79818
7.75046
10.7163
12.7064
13.8116
14.0953
13.66
12.6726
11.3232
9.79494
8.27042
6.88703
5.71728
4.7759
4.03787
3.45805
2.98683
2.58024
2.202
1.83014
1.43174
1.04411
0.496828
0.417987
-11.23
-11.0196
-11.1916
-11.9977
-13.5037
-15.5119
-17.7319
-19.893
-21.7971
-23.3238
-24.425
-25.1102
-25.4286
-25.4357
-25.1448
-24.4953
-23.365
-21.5854
-18.9693
-15.3634
-10.7667
-5.45582
0.0674425
5.23406
9.57808
12.8484
15.0482
16.2607
16.5232
15.9624
14.7358
13.0396
11.1217
9.21922
7.50166
6.05739
4.90586
4.01975
3.34718
2.82896
2.40981
2.04224
1.69342
1.31789
0.951551
0.340317
0.490116
-10.5671
-10.9427
-11.589
-12.6276
-14.1139
-15.913
-17.835
-19.7126
-21.4254
-22.8823
-24.0113
-24.766
-25.1539
-25.2132
-24.9501
-24.307
-23.1568
-21.3251
-18.6174
-14.8963
-10.208
-4.84453
0.700351
5.83105
10.0526
13.2073
15.3975
16.581
16.6977
15.9372
14.5437
12.7692
10.86
9.02019
7.38612
6.01998
4.9244
4.06524
3.3921
2.8525
2.40003
1.99821
1.61929
1.24089
0.858166
0.385196
0.264076
-10.8565
-11.6486
-12.8543
-14.226
-15.6549
-17.0464
-18.3473
-19.5473
-20.6662
-21.7188
-22.6855
-23.4932
-24.0565
-24.3256
-24.2645
-23.8156
-22.8582
-21.2134
-18.6791
-15.1192
-10.5858
-5.35697
0.102948
5.18805
9.41214
12.6763
14.8867
15.9476
15.9992
15.2479
13.9155
12.2324
10.4163
8.64911
7.0552
5.69565
4.58031
3.68708
2.97829
2.41253
1.95112
1.56482
1.22543
0.936271
0.631008
0.484012
-0.126434
-11.9631
-13.0672
-14.6722
-16.2798
-17.6772
-18.7964
-19.6498
-20.2774
-20.7652
-21.2235
-21.7487
-22.3421
-22.8987
-23.3471
-23.6091
-23.5757
-23.1086
-21.9591
-19.7782
-16.3704
-11.8818
-6.7128
-1.33999
3.74883
8.039
11.194
13.1595
14.0573
14.017
13.2142
11.8834
10.2672
8.57643
6.97144
5.55391
4.36852
3.41585
2.67018
2.09348
1.64704
1.29544
1.01548
0.781263
0.61502
0.418734
0.514446
-0.36793
-12.9354
-14.1005
-15.7128
-17.2866
-18.6069
-19.6242
-20.3545
-20.8301
-21.1089
-21.2769
-21.4358
-21.6774
-22.0365
-22.5248
-23.0538
-23.4296
-23.3782
-22.5059
-20.4347
-17.114
-12.7947
-7.83888
-2.73016
2.02213
5.92103
8.68795
10.3169
10.9317
10.6984
9.83854
8.60005
7.20438
5.82105
4.56516
3.50074
2.64689
1.99024
1.49925
1.13665
0.868135
0.665333
0.511482
0.386864
0.315581
0.211565
0.364999
-0.339807
-13.0603
-13.8285
-15.399
-17.116
-18.5743
-19.6723
-20.4227
-20.8731
-21.1004
-21.2104
-21.3094
-21.5078
-21.8945
-22.4701
-23.0824
-23.4617
-23.3435
-22.3886
-20.2769
-16.9596
-12.7409
-8.12334
-3.58706
0.442287
3.61017
5.73534
6.84282
7.09006
6.68964
5.87473
4.86603
3.83779
2.90449
2.12698
1.52449
1.08663
0.786661
0.590025
0.462703
0.376958
0.313274
0.261635
0.21224
0.182258
0.125406
0.195057
-0.136322
-12.6903
-12.4703
-13.8859
-15.7852
-17.4796
-18.8025
-19.7469
-20.3581
-20.7327
-20.9958
-21.2419
-21.5399
-21.9579
-22.4782
-22.9273
-23.0057
-22.4248
-20.9815
-18.5699
-15.2786
-11.4318
-7.46566
-3.77679
-0.683819
1.59147
2.97188
3.54491
3.50679
3.08305
2.48055
1.85808
1.31497
0.899226
0.616869
0.445785
0.352085
0.309353
0.294961
0.288987
0.278416
0.256702
0.224538
0.183689
0.147243
0.102696
0.0966537
-0.0116442
-10.926
-11.4701
-13.1935
-15.1661
-16.9368
-18.3635
-19.4107
-20.111
-20.5553
-20.851
-21.0754
-21.2641
-21.4194
-21.4849
-21.3126
-20.6971
-19.4872
-17.6246
-15.1264
-12.1212
-8.88037
-5.75464
-3.05724
-0.990876
0.366679
1.06382
1.25007
1.11181
0.836826
0.577797
0.396213
0.286471
0.235718
0.224621
0.233168
0.247379
0.264138
0.276585
0.276438
0.260845
0.23223
0.196237
0.158018
0.124333
0.0951383
0.0850023
0.0428609
-11.3733
-12.0815
-13.3682
-14.9306
-16.4393
-17.6921
-18.5954
-19.1377
-19.3652
-19.3527
-19.1623
-18.8261
-18.3544
-17.7334
-16.9105
-15.8026
-14.3376
-12.4872
-10.2897
-7.88057
-5.49402
-3.39176
-1.75809
-0.670284
-0.0948786
0.128502
0.191728
0.17014
0.107713
0.0763383
0.102381
0.151164
0.188195
0.197755
0.197553
0.207863
0.230696
0.25346
0.26455
0.258721
0.236984
0.204441
0.167568
0.132425
0.103549
0.0865612
0.0571477
-5.49812
-7.45928
-9.39471
-11.266
-12.8462
-14.0018
-14.7168
-15.0223
-14.9746
-14.6451
-14.1051
-13.4167
-12.6298
-11.7744
-10.8455
-9.79935
-8.57393
-7.13311
-5.52319
-3.907
-2.50968
-1.47077
-0.752211
-0.299628
-0.121048
-0.119322
-0.0825642
0.00512931
0.0406696
0.0228173
0.0274577
0.0817834
0.150447
0.194485
0.210473
0.218646
0.229684
0.240223
0.244193
0.238042
0.22198
0.198697
0.172462
0.146914
0.12548
0.111632
0.0890813
-0.543941
-3.38233
-5.80129
-7.82728
-9.37855
-10.4149
-10.9557
-11.0511
-10.7618
-10.1586
-9.32438
-8.35049
-7.33198
-6.35726
-5.48825
-4.73549
-4.04133
-3.2993
-2.43902
-1.54916
-0.876559
-0.580193
-0.471514
-0.298167
-0.146174
-0.156028
-0.18572
-0.133932
-0.037121
0.0250184
0.0566859
0.0942066
0.135455
0.167717
0.187983
0.202035
0.213409
0.221375
0.223823
0.219702
0.209269
0.194262
0.177055
0.159545
0.143233
0.132615
0.10799
2.17663
-1.05439
-3.66107
-5.73288
-7.23863
-8.14624
-8.4625
-8.2293
-7.52023
-6.44359
-5.1447
-3.80209
-2.61337
-1.76112
-1.35907
-1.38893
-1.66693
-1.88787
-1.77876
-1.28728
-0.733358
-0.505388
-0.530622
-0.505237
-0.356308
-0.220351
-0.157401
-0.102942
-0.0416201
0.00925888
0.0512409
0.0907982
0.125448
0.152641
0.173077
0.188751
0.200501
0.207893
0.210279
0.207545
0.200317
0.189945
0.178071
0.165481
0.153286
0.142711
0.107293
3.40769
0.0797924
-2.43526
-4.24192
-5.4902
-6.23028
-6.45155
-6.17198
-5.46734
-4.46155
-3.3127
-2.20105
-1.30837
-0.783106
-0.693247
-0.982634
-1.45588
-1.82296
-1.89179
-1.61644
-1.13995
-0.742586
-0.555585
-0.450391
-0.330097
-0.232348
-0.16154
-0.0944539
-0.0366891
0.010017
0.0524796
0.0917063
0.124521
0.149955
0.169404
0.18433
0.195081
0.201321
0.202865
0.199968
0.193416
0.184431
0.174324
0.163755
0.153961
0.140759
0.0741876
)
;

boundaryField
{
    inlet
    {
        type            zeroGradient;
    }
    outlet
    {
        type            fixedValue;
        value           uniform 0;
    }
    upperWall
    {
        type            zeroGradient;
    }
    lowerWall
    {
        type            zeroGradient;
    }
    frontAndBack
    {
        type            empty;
    }
}


// ************************************************************************* //
