/*--------------------------------*- C++ -*----------------------------------*\
| =========                 |                                                 |
| \\      /  F ield         | OpenFOAM: The Open Source CFD Toolbox           |
|  \\    /   O peration     | Version:  2406                                  |
|   \\  /    A nd           | Website:  www.openfoam.com                      |
|    \\/     M anipulation  |                                                 |
\*---------------------------------------------------------------------------*/
FoamFile
{
    version     2.0;
    format      ascii;
    arch        "LSB;label=32;scalar=64";
    class       volVectorField;
    location    "2000";
    object      U;
}
// * * * * * * * * * * * * * * * * * * * * * * * * * * * * * * * * * * * * * //

dimensions      [0 1 -1 0 0 0 0];

internalField   nonuniform List<vector> 
1964
(
(0.977152 -0.00305986 0)
(0.982759 -0.00545068 0)
(0.988915 -0.00527804 0)
(0.994876 -0.00446045 0)
(1.0003 -0.00371914 0)
(1.00516 -0.00308425 0)
(1.00949 -0.00252558 0)
(1.0133 -0.00205188 0)
(1.0166 -0.00167462 0)
(1.01947 -0.00137308 0)
(1.02196 -0.00113456 0)
(1.02412 -0.000940225 0)
(1.02601 -0.000791019 0)
(1.02768 -0.000675472 0)
(1.02919 -0.000599773 0)
(1.03057 -0.000554072 0)
(1.03188 -0.000548111 0)
(1.03319 -0.000573594 0)
(1.03455 -0.000643996 0)
(1.03603 -0.000753432 0)
(1.03774 -0.000920669 0)
(1.03978 -0.0011447 0)
(1.04229 -0.00145297 0)
(1.04546 -0.00185343 0)
(1.0495 -0.00238775 0)
(1.05473 -0.00307985 0)
(1.06153 -0.00399549 0)
(1.0704 -0.00518678 0)
(1.08201 -0.00676092 0)
(1.09724 -0.00882022 0)
(1.11723 -0.0115439 0)
(1.14348 -0.0151225 0)
(1.178 -0.0198583 0)
(1.22338 -0.0260903 0)
(1.28305 -0.0343171 0)
(1.36142 -0.0450982 0)
(1.4642 -0.0591906 0)
(1.59855 -0.0773933 0)
(1.77339 -0.100654 0)
(1.99938 -0.129797 0)
(2.28892 -0.165533 0)
(2.65544 -0.207937 0)
(3.11259 -0.256406 0)
(3.67156 -0.308325 0)
(4.3385 -0.359461 0)
(5.1095 -0.401474 0)
(5.96485 -0.425101 0)
(2.77274 -0.0025982 0)
(2.77095 -0.00566174 0)
(2.76993 -0.00656686 0)
(2.76913 -0.00659879 0)
(2.76876 -0.00640631 0)
(2.76885 -0.0060883 0)
(2.76927 -0.00565498 0)
(2.76988 -0.0051679 0)
(2.7706 -0.00468542 0)
(2.77138 -0.00423758 0)
(2.77221 -0.00383259 0)
(2.77305 -0.0034772 0)
(2.77389 -0.00317485 0)
(2.77473 -0.00293164 0)
(2.77558 -0.00275026 0)
(2.77644 -0.0026383 0)
(2.77735 -0.00260225 0)
(2.77834 -0.00265623 0)
(2.77946 -0.00281485 0)
(2.78077 -0.00310326 0)
(2.78237 -0.00354966 0)
(2.78437 -0.00419769 0)
(2.78691 -0.00509913 0)
(2.7902 -0.00632908 0)
(2.79448 -0.0079798 0)
(2.80008 -0.0101803 0)
(2.80744 -0.013093 0)
(2.81711 -0.0169392 0)
(2.82983 -0.0220018 0)
(2.84653 -0.0286604 0)
(2.86847 -0.0374028 0)
(2.89722 -0.0488744 0)
(2.93487 -0.0639029 0)
(2.98407 -0.0835624 0)
(3.04824 -0.109207 0)
(3.13173 -0.142539 0)
(3.24002 -0.185609 0)
(3.37994 -0.240834 0)
(3.55994 -0.31086 0)
(3.79017 -0.398377 0)
(4.08269 -0.505625 0)
(4.45094 -0.633675 0)
(4.91016 -0.781676 0)
(5.47358 -0.94385 0)
(6.15379 -1.11127 0)
(6.95234 -1.26071 0)
(7.85295 -1.36521 0)
(4.3735 -0.00149969 0)
(4.37268 -0.00361928 0)
(4.37188 -0.0044587 0)
(4.37058 -0.00467824 0)
(4.36927 -0.00469292 0)
(4.36824 -0.00459075 0)
(4.36744 -0.00437796 0)
(4.36675 -0.00409786 0)
(4.36614 -0.00379958 0)
(4.3656 -0.00351445 0)
(4.36512 -0.00325381 0)
(4.36469 -0.00302844 0)
(4.36429 -0.00284568 0)
(4.36393 -0.00271786 0)
(4.36361 -0.00265356 0)
(4.36334 -0.00266863 0)
(4.36314 -0.00277782 0)
(4.36304 -0.00300697 0)
(4.36306 -0.00338365 0)
(4.36327 -0.00395101 0)
(4.36372 -0.00475874 0)
(4.36451 -0.00587957 0)
(4.36576 -0.00740134 0)
(4.36761 -0.00944732 0)
(4.37026 -0.0121707 0)
(4.37398 -0.0157813 0)
(4.37911 -0.0205444 0)
(4.38609 -0.0268172 0)
(4.3955 -0.0350556 0)
(4.40808 -0.0458665 0)
(4.42482 -0.0600264 0)
(4.44698 -0.0785574 0)
(4.4762 -0.102762 0)
(4.51459 -0.134327 0)
(4.56488 -0.175374 0)
(4.63061 -0.22858 0)
(4.7163 -0.297202 0)
(4.82778 -0.385159 0)
(4.97252 -0.496886 0)
(5.16007 -0.637184 0)
(5.4025 -0.810435 0)
(5.7144 -1.01986 0)
(6.11481 -1.26522 0)
(6.62025 -1.53961 0)
(7.26096 -1.83155 0)
(8.04024 -2.09885 0)
(8.96463 -2.30589 0)
(5.77389 -0.000874364 0)
(5.77352 -0.00247548 0)
(5.77308 -0.00335043 0)
(5.77199 -0.00375601 0)
(5.77074 -0.00392064 0)
(5.76966 -0.00393528 0)
(5.76875 -0.00382844 0)
(5.76789 -0.00363323 0)
(5.76706 -0.0033946 0)
(5.76627 -0.00314357 0)
(5.76551 -0.00290274 0)
(5.76478 -0.00268526 0)
(5.76407 -0.00250859 0)
(5.76336 -0.00238575 0)
(5.76267 -0.00233626 0)
(5.762 -0.00237666 0)
(5.76136 -0.00253419 0)
(5.76077 -0.00283654 0)
(5.76024 -0.0033273 0)
(5.75981 -0.00405515 0)
(5.75952 -0.00509247 0)
(5.75943 -0.00652497 0)
(5.7596 -0.00847444 0)
(5.76014 -0.0110904 0)
(5.76117 -0.0145792 0)
(5.76286 -0.0191998 0)
(5.76541 -0.0253021 0)
(5.76912 -0.0333314 0)
(5.77434 -0.043881 0)
(5.78155 -0.0577107 0)
(5.79137 -0.0758221 0)
(5.80462 -0.0994987 0)
(5.82235 -0.130415 0)
(5.84595 -0.170708 0)
(5.87727 -0.223125 0)
(5.91874 -0.291131 0)
(5.97364 -0.37909 0)
(6.04644 -0.492368 0)
(6.14323 -0.637432 0)
(6.27263 -0.82184 0)
(6.44636 -1.05349 0)
(6.68139 -1.34047 0)
(6.99995 -1.68586 0)
(7.42892 -2.08744 0)
(8.01838 -2.52891 0)
(8.76661 -2.93693 0)
(9.77794 -3.29548 0)
(6.9741 -0.00054271 0)
(6.9739 -0.00175482 0)
(6.97368 -0.00247762 0)
(6.97283 -0.00284639 0)
(6.97172 -0.00299095 0)
(6.9707 -0.00299685 0)
(6.96979 -0.00289891 0)
(6.9689 -0.00272538 0)
(6.96801 -0.00250702 0)
(6.96714 -0.00227435 0)
(6.96628 -0.00204726 0)
(6.96544 -0.00184407 0)
(6.9646 -0.00167903 0)
(6.96376 -0.00157085 0)
(6.96292 -0.00153628 0)
(6.96206 -0.00159929 0)
(6.9612 -0.00178485 0)
(6.96034 -0.00212997 0)
(6.95948 -0.00267713 0)
(6.95863 -0.00348746 0)
(6.95781 -0.00463484 0)
(6.95702 -0.0062223 0)
(6.9563 -0.00837809 0)
(6.95567 -0.011277 0)
(6.95518 -0.0151405 0)
(6.95489 -0.0202658 0)
(6.95485 -0.0270332 0)
(6.95518 -0.0359476 0)
(6.95598 -0.0476591 0)
(6.95744 -0.0630241 0)
(6.95976 -0.0831475 0)
(6.96323 -0.109477 0)
(6.96825 -0.143879 0)
(6.97536 -0.188785 0)
(6.98533 -0.247326 0)
(6.99926 -0.323555 0)
(7.01877 -0.422664 0)
(7.04639 -0.551337 0)
(7.0859 -0.718022 0)
(7.14383 -0.933512 0)
(7.22943 -1.21075 0)
(7.36234 -1.56609 0)
(7.5619 -2.01438 0)
(7.89163 -2.5707 0)
(8.37605 -3.23741 0)
(9.13857 -3.89495 0)
(10.3263 -4.70923 0)
(7.97422 -0.000333466 0)
(7.97411 -0.00123996 0)
(7.97401 -0.00177115 0)
(7.97332 -0.00205302 0)
(7.97234 -0.00216178 0)
(7.97138 -0.0021564 0)
(7.97048 -0.00206642 0)
(7.96959 -0.00191218 0)
(7.96869 -0.00171566 0)
(7.96778 -0.00150077 0)
(7.96688 -0.00128636 0)
(7.96598 -0.00108951 0)
(7.96507 -0.000925112 0)
(7.96415 -0.000810959 0)
(7.9632 -0.000765152 0)
(7.96222 -0.000811157 0)
(7.96121 -0.000975606 0)
(7.96014 -0.00129481 0)
(7.95901 -0.00181295 0)
(7.9578 -0.00259023 0)
(7.95651 -0.00370225 0)
(7.95509 -0.00525094 0)
(7.95354 -0.00736629 0)
(7.95182 -0.0102218 0)
(7.94987 -0.0140407 0)
(7.94765 -0.0191188 0)
(7.94509 -0.0258382 0)
(7.94208 -0.0347025 0)
(7.9385 -0.0463649 0)
(7.93421 -0.0616824 0)
(7.929 -0.0817684 0)
(7.92262 -0.108082 0)
(7.91476 -0.142521 0)
(7.90507 -0.187572 0)
(7.89311 -0.246482 0)
(7.87847 -0.323519 0)
(7.86077 -0.424291 0)
(7.83996 -0.556227 0)
(7.81644 -0.72922 0)
(7.79256 -0.956576 0)
(7.7716 -1.25643 0)
(7.76954 -1.65357 0)
(7.7917 -2.18361 0)
(7.9438 -2.88902 0)
(8.14845 -3.85977 0)
(9.01054 -4.96785 0)
(9.98898 -7.05967 0)
(8.77429 -0.000182712 0)
(8.77423 -0.000850064 0)
(8.7742 -0.00119827 0)
(8.77362 -0.00136892 0)
(8.77273 -0.00141181 0)
(8.77184 -0.00136309 0)
(8.77098 -0.00124639 0)
(8.77011 -0.00107701 0)
(8.76921 -0.000872434 0)
(8.7683 -0.000649833 0)
(8.76738 -0.000426441 0)
(8.76646 -0.000215889 0)
(8.76551 -3.3165e-05 0)
(8.76454 0.00010759 0)
(8.76352 0.000188173 0)
(8.76246 0.000189363 0)
(8.76132 8.49485e-05 0)
(8.76009 -0.000155591 0)
(8.75874 -0.000574423 0)
(8.75724 -0.00122333 0)
(8.75554 -0.00217301 0)
(8.75358 -0.0035125 0)
(8.7513 -0.00536179 0)
(8.74859 -0.00787412 0)
(8.74534 -0.0112538 0)
(8.74139 -0.0157639 0)
(8.73652 -0.0217526 0)
(8.73047 -0.0296705 0)
(8.72289 -0.0401114 0)
(8.71332 -0.0538465 0)
(8.70117 -0.0718907 0)
(8.68568 -0.0955674 0)
(8.66586 -0.126621 0)
(8.64045 -0.167339 0)
(8.60787 -0.220757 0)
(8.56608 -0.2909 0)
(8.51259 -0.383177 0)
(8.44437 -0.504892 0)
(8.35775 -0.666121 0)
(8.24902 -0.880796 0)
(8.11293 -1.16927 0)
(7.95037 -1.55994 0)
(7.74612 -2.10155 0)
(7.56734 -2.85437 0)
(7.25837 -3.98852 0)
(7.74615 -5.5167 0)
(7.07089 -9.02764 0)
(9.37434 -6.46786e-05 0)
(9.3743 -0.000534888 0)
(9.37431 -0.000714066 0)
(9.3738 -0.000763262 0)
(9.37299 -0.000722704 0)
(9.37215 -0.000616306 0)
(9.37133 -0.000460452 0)
(9.37049 -0.000267006 0)
(9.36961 -4.74019e-05 0)
(9.36871 0.000186088 0)
(9.3678 0.000421588 0)
(9.36687 0.000648063 0)
(9.36592 0.000854682 0)
(9.36493 0.0010297 0)
(9.36389 0.00115971 0)
(9.36277 0.00122865 0)
(9.36157 0.00121675 0)
(9.36023 0.00109884 0)
(9.35873 0.000842614 0)
(9.35702 0.00040595 0)
(9.35501 -0.000265982 0)
(9.35264 -0.00124492 0)
(9.34979 -0.00262465 0)
(9.34631 -0.00452788 0)
(9.34201 -0.00711516 0)
(9.33666 -0.0105966 0)
(9.32992 -0.0152467 0)
(9.32139 -0.021425 0)
(9.31051 -0.0296015 0)
(9.29658 -0.0403924 0)
(9.27868 -0.0546052 0)
(9.2556 -0.0733018 0)
(9.22577 -0.097882 0)
(9.18716 -0.1302 0)
(9.13711 -0.172725 0)
(9.07217 -0.228775 0)
(8.98784 -0.302848 0)
(8.87825 -0.401116 0)
(8.73571 -0.532207 0)
(8.55028 -0.708251 0)
(8.30825 -0.947127 0)
(7.99271 -1.27398 0)
(7.5734 -1.73097 0)
(7.02518 -2.37013 0)
(6.20827 -3.32336 0)
(5.23903 -4.74777 0)
(2.00654 -7.22098 0)
(9.77437 3.39524e-05 0)
(9.77434 -0.000263312 0)
(9.77437 -0.000287763 0)
(9.77391 -0.000215808 0)
(9.77315 -8.66015e-05 0)
(9.77236 8.34274e-05 0)
(9.77158 0.000284193 0)
(9.77077 0.000508537 0)
(9.76992 0.000749927 0)
(9.76905 0.00100128 0)
(9.76816 0.00125545 0)
(9.76726 0.00150553 0)
(9.76633 0.00174466 0)
(9.76535 0.00196538 0)
(9.76432 0.00215918 0)
(9.76321 0.00231578 0)
(9.76199 0.00242261 0)
(9.76062 0.00246362 0)
(9.75905 0.00241821 0)
(9.75723 0.00225945 0)
(9.75506 0.00195234 0)
(9.75244 0.00145095 0)
(9.74923 0.00069524 0)
(9.74525 -0.000393461 0)
(9.74026 -0.00191813 0)
(9.73397 -0.00401365 0)
(9.72595 -0.00685642 0)
(9.7157 -0.0106775 0)
(9.70253 -0.0157795 0)
(9.68555 -0.0225594 0)
(9.66359 -0.0315385 0)
(9.63512 -0.0434041 0)
(9.59815 -0.0590642 0)
(9.55006 -0.0797264 0)
(9.48741 -0.107007 0)
(9.40564 -0.143086 0)
(9.29872 -0.190941 0)
(9.15861 -0.25468 0)
(8.97448 -0.340061 0)
(8.73166 -0.455224 0)
(8.40989 -0.611952 0)
(7.98128 -0.826878 0)
(7.40564 -1.12507 0)
(6.62784 -1.53673 0)
(5.56515 -2.11234 0)
(4.0975 -2.84 0)
(1.98084 -3.6081 0)
(9.97439 0.000120885 0)
(9.97436 -1.65111e-05 0)
(9.9744 0.000102278 0)
(9.97397 0.00029053 0)
(9.97324 0.000507634 0)
(9.97248 0.000741736 0)
(9.97173 0.000988101 0)
(9.97096 0.00124416 0)
(9.97015 0.00150783 0)
(9.96932 0.00177689 1.29599e-33)
(9.96848 0.00204898 0)
(9.96762 0.0023218 0)
(9.96674 0.0025931 0)
(9.96581 0.00286039 0)
(9.96483 0.0031209 0)
(9.96377 0.00337126 1.29463e-33)
(9.96259 0.0036074 0)
(9.96126 0.00382404 0)
(9.95973 0.00401435 0)
(9.95791 0.00416934 0)
(9.95573 0.0042772 0)
(9.95305 0.00432233 0)
(9.94974 0.00428422 0)
(9.94559 0.00413579 -1.2965e-33)
(9.94034 0.00384153 0)
(9.93365 0.00335473 0)
(9.92507 0.00261422 0)
(9.91404 0.00153961 0)
(9.89978 2.54213e-05 0)
(9.88132 -0.00206691 0)
(9.85736 -0.00491959 0)
(9.8262 -0.00877312 0)
(9.78562 -0.0139459 0)
(9.73269 -0.0208619 0)
(9.66354 -0.0300895 0)
(9.57304 -0.0423975 0)
(9.45433 -0.0588362 0)
(9.29821 -0.080858 0)
(9.09216 -0.110493 0)
(8.81916 -0.150609 0)
(8.45556 -0.205287 0)
(7.96902 -0.280296 -1.983e-33)
(7.31364 -0.383594 0)
(6.43145 -0.525785 0)
(5.23529 -0.716542 0)
(3.68833 -0.965115 0)
(1.5825 -1.15527 0)
(9.97439 0.000201312 0)
(9.97436 0.000219098 0)
(9.9744 0.000473268 0)
(9.97398 0.000771294 0)
(9.97327 0.00107103 0)
(9.97253 0.00136431 0)
(9.97181 0.00165139 0)
(9.97107 0.00193418 0)
(9.97031 0.00221503 0)
(9.96953 0.00249646 -1.29586e-33)
(9.96875 0.0027811 0)
(9.96795 0.00307141 0)
(9.96714 0.00336996 0)
(9.9663 0.00367947 0)
(9.96541 0.00400321 0)
(9.96445 0.004345 -1.29441e-33)
(9.96339 0.00470971 0)
(9.96218 0.00510326 0)
(9.96077 0.00553334 0)
(9.95909 0.00600966 0)
(9.95705 0.00654485 0)
(9.95454 0.00715503 0)
(9.9514 0.00786129 0)
(9.94742 0.00869073 1.29568e-33)
(9.94236 0.00967878 0)
(9.93587 0.0108713 0)
(9.9275 0.0123283 0)
(9.91669 0.0141278 0)
(9.90266 0.0163718 0)
(9.88444 0.019194 0)
(9.86073 0.0227697 0)
(9.82982 0.0273301 0)
(9.78951 0.0331811 0)
(9.73684 0.0407302 0)
(9.66796 0.0505242 0)
(9.57773 0.0633038 0)
(9.45928 0.0800828 0)
(9.3034 0.102268 0)
(9.09758 0.131832 0)
(8.82476 0.171571 0)
(8.46131 0.22546 0)
(7.97483 0.299119 1.97871e-33)
(7.31938 0.400271 0)
(6.43709 0.539028 0)
(5.24015 0.724891 0)
(3.6928 0.962101 0)
(1.58568 1.15136 0)
(9.77438 0.000279991 0)
(9.77434 0.000455633 0)
(9.77438 0.000841156 0)
(9.77394 0.00124164 0)
(9.77323 0.00161484 0)
(9.7725 0.00195757 0)
(9.7718 0.00227546 0)
(9.7711 0.00257504 0)
(9.77039 0.00286298 0)
(9.76967 0.0031467 0)
(9.76896 0.00343349 0)
(9.76825 0.00373052 0)
(9.76754 0.00404479 0)
(9.76681 0.00438415 0)
(9.76605 0.00475745 0)
(9.76524 0.00517559 0)
(9.76435 0.00565171 0)
(9.76333 0.00620268 0)
(9.76215 0.0068498 0)
(9.76073 0.00762085 0)
(9.759 0.0085515 0)
(9.75685 0.00968844 0)
(9.75414 0.0110921 0)
(9.7507 0.0128415 0)
(9.74628 0.0150395 0)
(9.74057 0.0178204 0)
(9.73319 0.0213595 0)
(9.7236 0.0258859 0)
(9.71112 0.0316989 0)
(9.69485 0.0391912 0)
(9.67363 0.0488777 0)
(9.64593 0.0614365 0)
(9.60975 0.0777641 0)
(9.56246 0.0990522 0)
(9.50061 0.126896 0)
(9.41964 0.163451 0)
(9.3135 0.211658 0)
(9.17414 0.275585 0)
(8.99071 0.36094 0)
(8.74851 0.475798 0)
(8.42722 0.631865 0)
(7.99888 0.845651 0)
(7.42319 1.1421 0)
(6.64458 1.55101 0)
(5.5806 2.12294 0)
(4.11049 2.84392 0)
(1.9877 3.61392 0)
(9.37435 0.000362031 0)
(9.3743 0.00070677 0)
(9.37432 0.00122348 0)
(9.37385 0.00171768 0)
(9.37311 0.002151 0)
(9.37238 0.00252843 0)
(9.3717 0.002862 0)
(9.37103 0.00316293 0)
(9.37037 0.00344264 0)
(9.36972 0.00371368 0)
(9.36909 0.00398795 0)
(9.36849 0.00427678 0)
(9.3679 0.004591 0)
(9.36732 0.00494286 0)
(9.36672 0.00534597 0)
(9.3661 0.00581715 0)
(9.36543 0.00637656 0)
(9.36467 0.00705029 0)
(9.3638 0.00787121 0)
(9.36276 0.00888246 0)
(9.36148 0.0101394 0)
(9.35988 0.0117147 0)
(9.35785 0.0137024 0)
(9.35525 0.0162261 0)
(9.35188 0.0194461 0)
(9.3475 0.0235725 0)
(9.3418 0.0288788 0)
(9.33435 0.0357231 0)
(9.3246 0.0445727 0)
(9.31186 0.05604 0)
(9.29518 0.0709268 0)
(9.27336 0.0902871 0)
(9.24484 0.11551 0)
(9.20755 0.148434 0)
(9.15883 0.191511 0)
(9.09521 0.248032 0)
(9.01216 0.322466 0)
(8.90382 0.420943 0)
(8.76245 0.552053 0)
(8.57807 0.72787 0)
(8.3369 0.966226 0)
(8.0219 1.2922 0)
(7.60262 1.74792 0)
(7.05344 2.38526 0)
(6.23451 3.3367 0)
(5.2586 4.75667 0)
(2.02965 7.23483 0)
(8.77431 0.000455619 0)
(8.77423 0.000992114 0)
(8.77421 0.00164325 0)
(8.77368 0.00221864 0)
(8.77289 0.00269339 0)
(8.77213 0.00308596 0)
(8.77146 0.00341566 0)
(8.77083 0.00369721 0)
(8.77022 0.00394777 0)
(8.76965 0.00418477 0)
(8.76912 0.00442523 0)
(8.76864 0.00468309 0)
(8.76819 0.00497328 0)
(8.76777 0.00531041 0)
(8.76737 0.00571289 0)
(8.76697 0.00620064 0)
(8.76656 0.00680024 0)
(8.76613 0.00754312 0)
(8.76564 0.00847196 0)
(8.76505 0.00963958 0)
(8.76434 0.0111172 0)
(8.76344 0.012995 0)
(8.76229 0.0153932 0)
(8.76078 0.0184662 0)
(8.7588 0.0224182 0)
(8.75618 0.027513 0)
(8.75273 0.0340976 0)
(8.74817 0.0426228 0)
(8.74214 0.0536793 0)
(8.73419 0.068037 0)
(8.72372 0.0867044 0)
(8.70997 0.111 0)
(8.69193 0.142657 0)
(8.66834 0.183953 0)
(8.63758 0.237901 0)
(8.59761 0.308509 0)
(8.5459 0.40115 0)
(8.4794 0.523101 0)
(8.3944 0.684387 0)
(8.28715 0.898913 0)
(8.15232 1.18698 0)
(7.99071 1.57698 0)
(7.78684 2.11778 0)
(7.6076 2.86966 0)
(7.29527 4.00472 0)
(7.77869 5.53381 0)
(7.08203 9.07694 0)
(7.97424 0.000573971 0)
(7.97411 0.00134291 0)
(7.97402 0.00213264 0)
(7.97338 0.00276687 0)
(7.97251 0.00325329 0)
(7.97172 0.00363381 0)
(7.97106 0.00393474 0)
(7.97046 0.0041748 0)
(7.96991 0.00437645 0)
(7.96942 0.00456257 0)
(7.969 0.00475285 0)
(7.96864 0.00496338 0)
(7.96835 0.0052103 0)
(7.96811 0.00551044 0)
(7.96792 0.00588353 0)
(7.96777 0.00635213 0)
(7.96765 0.00694483 0)
(7.96757 0.00769702 0)
(7.9675 0.00865519 0)
(7.96744 0.00987862 0)
(7.96737 0.0114455 0)
(7.96727 0.0134568 0)
(7.96711 0.0160453 0)
(7.96687 0.0193833 0)
(7.96651 0.0236969 0)
(7.96596 0.0292803 0)
(7.96515 0.0365185 0)
(7.96399 0.0459125 0)
(7.96235 0.0581172 0)
(7.96008 0.0739855 0)
(7.95697 0.0946309 0)
(7.95276 0.121504 0)
(7.94713 0.156499 0)
(7.9397 0.202089 0)
(7.93003 0.261508 0)
(7.91766 0.339 0)
(7.90219 0.440149 0)
(7.88352 0.572348 0)
(7.86202 0.745452 0)
(7.84002 0.972717 0)
(7.8207 1.27226 0)
(7.82006 1.66882 0)
(7.84315 2.1982 0)
(7.99628 2.90281 0)
(8.1999 3.87523 0)
(9.06542 4.98416 0)
(10.051 7.10683 0)
(6.97412 0.000743779 0)
(6.9739 0.00181092 0)
(6.97367 0.00273936 0)
(6.97287 0.0033984 0)
(6.97189 0.00385551 0)
(6.97106 0.00418136 0)
(6.9704 0.0044071 0)
(6.96984 0.00456003 0)
(6.96936 0.00467007 0)
(6.96896 0.00476777 0)
(6.96866 0.00487245 0)
(6.96844 0.00500299 0)
(6.96831 0.00517322 0)
(6.96826 0.00540278 0)
(6.96828 0.00570802 0)
(6.96838 0.00611409 0)
(6.96857 0.00664561 0)
(6.96884 0.0073409 0)
(6.96921 0.00824225 0)
(6.96969 0.00941232 0)
(6.97028 0.010925 0)
(6.97102 0.012885 0)
(6.97192 0.015421 0)
(6.97302 0.0187093 0)
(6.97436 0.0229723 0)
(6.976 0.0285084 0)
(6.97801 0.0356992 0)
(6.98049 0.0450502 0)
(6.98355 0.0572131 0)
(6.98737 0.0730426 0)
(6.99214 0.0936454 0)
(6.99815 0.120463 0)
(7.00578 0.155362 0)
(7.01555 0.200761 0)
(7.02819 0.259786 0)
(7.04479 0.336461 0)
(7.06691 0.435969 0)
(7.09704 0.56494 0)
(7.13893 0.731805 0)
(7.19906 0.947276 0)
(7.2866 1.22428 0)
(7.42123 1.57909 0)
(7.6222 2.02662 0)
(7.95332 2.5819 0)
(8.43935 3.24838 0)
(9.20446 3.90483 0)
(10.4029 4.72635 0)
(5.77391 0.00102802 0)
(5.7735 0.00247724 0)
(5.77304 0.00349923 0)
(5.772 0.00412581 0)
(5.77086 0.00453035 0)
(5.76998 0.00479185 0)
(5.76933 0.00493439 0)
(5.76881 0.00499062 0)
(5.76841 0.00500328 0)
(5.76812 0.00500413 0)
(5.76795 0.00501409 0)
(5.76789 0.00504797 0)
(5.76794 0.00512172 0)
(5.76808 0.00525052 0)
(5.76833 0.00545233 0)
(5.76869 0.00574615 0)
(5.76919 0.00615737 0)
(5.76982 0.00671648 0)
(5.77063 0.00746506 0)
(5.77163 0.0084552 0)
(5.77289 0.00975711 0)
(5.77445 0.0114605 0)
(5.77639 0.0136851 0)
(5.77881 0.0165853 0)
(5.78184 0.020365 0)
(5.78564 0.0252891 0)
(5.79043 0.031705 0)
(5.79649 0.0400649 0)
(5.80418 0.0509588 0)
(5.81398 0.0651544 0)
(5.8265 0.0836482 0)
(5.84254 0.107732 0)
(5.86315 0.13907 0)
(5.8897 0.179805 0)
(5.92399 0.232667 0)
(5.96843 0.301119 0)
(6.02625 0.389487 0)
(6.10186 0.503125 0)
(6.2013 0.648431 0)
(6.33315 0.832938 0)
(6.50906 1.06444 0)
(6.74597 1.35102 0)
(7.06619 1.69566 0)
(7.49645 2.09609 0)
(8.08754 2.53634 0)
(8.8376 2.94219 0)
(9.85257 3.29808 0)
(4.37352 0.00159948 0)
(4.37264 0.00355934 0)
(4.37178 0.00448721 0)
(4.37049 0.0048539 0)
(4.36927 0.00503089 0)
(4.3684 0.00509451 0)
(4.36783 0.00505132 0)
(4.36746 0.00493956 0)
(4.36725 0.00481091 0)
(4.36719 0.00469168 0)
(4.36727 0.00459743 0)
(4.36749 0.00453392 0)
(4.36784 0.00451422 0)
(4.36831 0.00454519 0)
(4.36892 0.00464201 0)
(4.36968 0.00481435 0)
(4.3706 0.00508415 0)
(4.37172 0.00547038 0)
(4.37307 0.00600853 0)
(4.37471 0.0067345 0)
(4.37671 0.00770668 0)
(4.37915 0.00899048 0)
(4.38216 0.0106833 0)
(4.38589 0.0129013 0)
(4.39054 0.015808 0)
(4.39638 0.0196067 0)
(4.40375 0.024574 0)
(4.4131 0.0310611 0)
(4.42499 0.0395362 0)
(4.44019 0.0506013 0)
(4.45966 0.065045 0)
(4.48467 0.0838854 0)
(4.51684 0.108435 0)
(4.55826 0.140375 0)
(4.61164 0.18183 0)
(4.68047 0.235465 0)
(4.76923 0.304524 0)
(4.8837 0.392897 0)
(5.0313 0.504973 0)
(5.22151 0.645503 0)
(5.46637 0.818794 0)
(5.78039 1.02801 0)
(6.18267 1.27289 0)
(6.68966 1.54635 0)
(7.33175 1.83713 0)
(8.11227 2.10261 0)
(9.03769 2.30664 0)
(2.77276 0.00264286 0)
(2.77088 0.00551526 0)
(2.7697 0.0064403 0)
(2.76882 0.00654493 0)
(2.76844 0.0064333 0)
(2.7686 0.0061994 0)
(2.76916 0.00585151 0)
(2.76999 0.00544975 0)
(2.771 0.00505066 0)
(2.77216 0.00468389 0)
(2.77344 0.00435658 0)
(2.77481 0.00407624 0)
(2.77626 0.00384595 0)
(2.7778 0.00367321 0)
(2.77942 0.00356018 0)
(2.78114 0.00351569 0)
(2.783 0.0035455 0)
(2.78502 0.0036649 0)
(2.78726 0.0038878 0)
(2.78979 0.00424051 0)
(2.7927 0.00475102 0)
(2.7961 0.00546439 0)
(2.80014 0.00643285 0)
(2.80501 0.00773306 0)
(2.81099 0.00945878 0)
(2.81838 0.0117408 0)
(2.82764 0.0147443 0)
(2.83932 0.0186926 0)
(2.85416 0.0238734 0)
(2.87311 0.0306676 0)
(2.8974 0.0395708 0)
(2.92863 0.0512289 0)
(2.96887 0.0664798 0)
(3.02077 0.0863949 0)
(3.08773 0.11234 0)
(3.17407 0.146005 0)
(3.28524 0.189448 0)
(3.42805 0.245054 0)
(3.61089 0.315457 0)
(3.84387 0.403279 0)
(4.13901 0.51074 0)
(4.50973 0.638818 0)
(4.97124 0.786669 0)
(5.53673 0.948395 0)
(6.21858 1.11499 0)
(7.01848 1.26326 0)
(7.91966 1.36588 0)
(0.977146 0.00305196 0)
(0.982606 0.00537566 0)
(0.988595 0.00519458 0)
(0.994433 0.00437983 0)
(0.99978 0.00364369 0)
(1.00462 0.00302486 0)
(1.00899 0.00248442 0)
(1.01289 0.0020313 0)
(1.01634 0.00166635 0)
(1.0194 0.00137534 0)
(1.02213 0.00113863 0)
(1.02458 0.000948207 0)
(1.0268 0.000797044 0)
(1.02885 0.000684747 0)
(1.03078 0.000606535 0)
(1.03263 0.000563896 0)
(1.03445 0.000553937 0)
(1.03631 0.000581064 0)
(1.03827 0.00064521 0)
(1.0404 0.000754715 0)
(1.04279 0.000914171 0)
(1.04556 0.00113823 0)
(1.04885 0.00143942 0)
(1.05283 0.00184272 0)
(1.05775 0.00237436 0)
(1.06391 0.00307673 0)
(1.07169 0.00399963 0)
(1.08162 0.00521542 0)
(1.09436 0.00681503 0)
(1.1108 0.008923 0)
(1.13211 0.0117022 0)
(1.15981 0.0153681 0)
(1.1959 0.020206 0)
(1.243 0.0265822 0)
(1.30456 0.0349757 0)
(1.38501 0.0459745 0)
(1.49005 0.0603075 0)
(1.62687 0.0787961 0)
(1.80437 0.102341 0)
(2.03318 0.13177 0)
(2.32566 0.167736 0)
(2.69516 0.210304 0)
(3.15522 0.258824 0)
(3.71683 0.310642 0)
(4.38599 0.361403 0)
(5.15851 0.402969 0)
(6.01417 0.425581 0)
(6.86539 -0.420802 0)
(7.74896 -0.383055 0)
(8.54739 -0.321219 0)
(9.2169 -0.250994 0)
(9.7478 -0.181818 0)
(10.1498 -0.117787 0)
(8.81335 -1.38403 0)
(9.76461 -1.29036 0)
(10.6355 -1.12273 0)
(11.3877 -0.93246 0)
(12.0147 -0.744464 0)
(12.5218 -0.569994 0)
(10.0103 -2.35574 0)
(11.0972 -2.19254 0)
(12.1013 -1.91397 0)
(12.9562 -1.6061 0)
(13.6443 -1.29414 0)
(14.1674 -0.997391 0)
(11.1299 -3.42226 0)
(12.5715 -3.25509 0)
(13.728 -2.90655 0)
(14.4915 -2.45919 0)
(14.9382 -1.96471 0)
(15.1578 -1.49288 0)
(12.1746 -5.03626 0)
(13.5024 -4.72825 0)
(13.8405 -4.00114 0)
(13.4798 -3.09358 0)
(12.9098 -2.22958 0)
(12.3227 -1.53716 0)
(11.8621 -7.15306 0)
(10.9226 -5.32071 0)
(8.67584 -3.30184 0)
(6.66317 -1.73403 0)
(5.22337 -0.639701 0)
(4.19363 0.0652673 0)
(7.17219 -6.04471 0)
(2.2126 -1.34637 0)
(-1.7816 0.999833 0)
(-1.63411 0.623573 0)
(-2.03177 0.317257 0)
(-1.84525 -0.112993 0)
(7.17628 6.07656 0)
(2.0568 1.24322 0)
(-1.86963 -1.24875 0)
(-1.55193 -0.939064 0)
(-1.84311 -0.473879 0)
(-1.42948 0.276883 0)
(11.9596 7.22611 0)
(10.9801 5.32939 0)
(8.74587 3.25086 0)
(6.76133 1.66162 0)
(5.23591 0.555471 0)
(4.11745 -0.211472 0)
(12.2842 5.06495 0)
(13.6288 4.73216 0)
(13.9557 3.95587 0)
(13.5691 3.0143 0)
(12.963 2.15897 0)
(12.356 1.50762 0)
(11.2155 3.42078 0)
(12.6697 3.23878 0)
(13.8207 2.86398 0)
(14.5634 2.40291 0)
(14.9921 1.92505 0)
(15.211 1.49238 0)
(10.084 2.35114 0)
(11.171 2.17893 0)
(12.169 1.88886 0)
(13.0089 1.57387 0)
(13.6805 1.26561 0)
(14.1962 0.979683 0)
(8.87887 1.38129 0)
(9.82657 1.28236 0)
(10.6901 1.10822 0)
(11.4305 0.912945 0)
(12.0442 0.724076 0)
(12.5415 0.551996 0)
(6.91322 0.419862 0)
(7.79253 0.379866 0)
(8.58338 0.315221 0)
(9.24217 0.242738 0)
(9.76081 0.17275 0)
(10.151 0.108918 0)
(10.4383 -0.0619171 0)
(10.6311 -0.0160431 0)
(10.7479 0.0206126 0)
(10.8057 0.0510281 0)
(10.8145 0.0801858 0)
(10.767 0.113182 0)
(10.6599 0.153196 0)
(10.486 0.201482 0)
(10.2342 0.257894 0)
(9.89248 0.32094 0)
(9.4504 0.387781 0)
(8.90033 0.454352 0)
(8.23882 0.51543 0)
(7.46797 0.564641 0)
(6.59698 0.594572 0)
(5.64382 0.597267 0)
(4.63635 0.565461 0)
(3.61231 0.494504 0)
(2.61711 0.384839 0)
(1.69922 0.244246 0)
(0.90341 0.0897396 0)
(0.270813 -0.0457299 0)
(-0.160915 -0.125993 0)
(-0.453044 -0.164596 0)
(-0.638362 -0.169025 0)
(-0.723001 -0.148005 0)
(-0.736765 -0.113562 0)
(-0.713283 -0.0742283 0)
(-0.676504 -0.0336248 0)
(-0.636846 0.00595669 0)
(-0.603059 0.0390068 0)
(-0.576699 0.0550558 0)
(-0.549515 0.0500122 0)
(-0.504225 0.0268204 0)
(-0.418681 -0.00886311 0)
(-0.273207 -0.0506377 0)
(-0.0596859 -0.0930096 0)
(0.218549 -0.132195 0)
(0.552183 -0.161737 0)
(0.931308 -0.182654 0)
(1.35488 -0.197933 0)
(1.81234 -0.208927 0)
(2.30348 -0.218336 0)
(2.79611 -0.223374 0)
(3.3627 -0.23726 0)
(3.76224 -0.224541 0)
(4.64941 -0.282851 0)
(12.9193 -0.419451 0)
(13.2249 -0.298171 0)
(13.4601 -0.203345 0)
(13.6449 -0.126692 0)
(13.7945 -0.058266 0)
(13.9251 0.0111713 0)
(14.039 0.0886268 0)
(14.1314 0.179281 0)
(14.1932 0.2865 0)
(14.2133 0.411621 0)
(14.1788 0.553976 0)
(14.0756 0.711118 0)
(13.888 0.878796 0)
(13.5993 1.05057 0)
(13.1928 1.217 0)
(12.6544 1.36534 0)
(11.9754 1.47997 0)
(11.1565 1.54436 0)
(10.2108 1.54435 0)
(9.16552 1.47214 0)
(8.06075 1.32973 0)
(6.94461 1.13139 0)
(5.87094 0.901091 0)
(4.88467 0.661212 0)
(4.01834 0.433617 0)
(3.29733 0.2362 0)
(2.73129 0.0793838 0)
(2.31786 -0.0334145 0)
(2.0537 -0.108239 0)
(1.92121 -0.160286 0)
(1.92937 -0.196132 0)
(2.05568 -0.222938 0)
(2.2762 -0.250141 0)
(2.573 -0.285737 0)
(2.93118 -0.335768 0)
(3.33705 -0.400953 0)
(3.77877 -0.475294 0)
(4.2497 -0.551407 0)
(4.74325 -0.620463 0)
(5.25606 -0.679688 0)
(5.7853 -0.728523 0)
(6.32519 -0.767583 0)
(6.8764 -0.798358 0)
(7.41995 -0.823886 0)
(8.00936 -0.848495 0)
(8.45639 -0.866624 0)
(9.33686 -0.936292 0)
(14.5466 -0.741452 0)
(14.8188 -0.540348 0)
(15.0221 -0.391399 0)
(15.1844 -0.280358 0)
(15.321 -0.189883 0)
(15.4384 -0.103832 0)
(15.5367 -0.00907676 0)
(15.6141 0.10317 0)
(15.6687 0.237451 0)
(15.697 0.395371 0)
(15.6967 0.576738 0)
(15.6675 0.780108 0)
(15.6097 1.00305 0)
(15.5218 1.2416 0)
(15.3984 1.48889 0)
(15.2293 1.73376 0)
(14.9985 1.9601 0)
(14.6869 2.14777 0)
(14.2757 2.2753 0)
(13.7521 2.3241 0)
(13.1149 2.28337 0)
(12.3787 2.15386 0)
(11.5736 1.94822 0)
(10.7429 1.68801 0)
(9.93469 1.39844 0)
(9.19324 1.1029 0)
(8.55418 0.819441 0)
(8.04212 0.559007 0)
(7.66965 0.325635 0)
(7.4413 0.118048 0)
(7.34218 -0.0686923 0)
(7.36658 -0.238198 0)
(7.49889 -0.394521 0)
(7.72118 -0.540794 0)
(8.01472 -0.67903 0)
(8.36102 -0.809002 0)
(8.74356 -0.928348 0)
(9.14894 -1.03428 0)
(9.56676 -1.12357 0)
(9.98962 -1.19485 0)
(10.4117 -1.2488 0)
(10.8275 -1.28763 0)
(11.2342 -1.31341 0)
(11.6237 -1.33325 0)
(12.0137 -1.34461 0)
(12.3225 -1.37378 0)
(12.8214 -1.39793 0)
(15.2321 -1.09568 0)
(15.2345 -0.79021 0)
(15.2193 -0.572475 0)
(15.2157 -0.422238 0)
(15.2339 -0.313711 0)
(15.2749 -0.21967 0)
(15.335 -0.117414 0)
(15.4081 0.00764174 0)
(15.4815 0.162336 0)
(15.548 0.346107 0)
(15.604 0.55503 0)
(15.6483 0.784592 0)
(15.6815 1.03111 0)
(15.7045 1.29141 0)
(15.7166 1.56141 0)
(15.7154 1.83408 0)
(15.6955 2.09836 0)
(15.6479 2.33863 0)
(15.5602 2.53558 0)
(15.4182 2.66837 0)
(15.2095 2.71873 0)
(14.9286 2.67587 0)
(14.5797 2.53947 0)
(14.1782 2.31928 0)
(13.7488 2.0327 0)
(13.3208 1.70117 0)
(12.9243 1.34654 0)
(12.585 0.98785 0)
(12.3217 0.639549 0)
(12.1442 0.311435 0)
(12.054 0.00872602 0)
(12.0427 -0.266584 0)
(12.1003 -0.51437 0)
(12.2144 -0.735164 0)
(12.3711 -0.930082 0)
(12.5563 -1.09985 0)
(12.757 -1.24428 0)
(12.9621 -1.36284 0)
(13.1625 -1.45504 0)
(13.3512 -1.52151 0)
(13.5229 -1.56429 0)
(13.6738 -1.58679 0)
(13.8002 -1.59261 0)
(13.903 -1.58941 0)
(13.9733 -1.57533 0)
(14.0284 -1.58215 0)
(14.022 -1.54965 0)
(11.7892 -1.05203 0)
(11.3586 -0.731432 0)
(11.0346 -0.529843 0)
(10.8139 -0.400389 0)
(10.6865 -0.311045 0)
(10.6442 -0.236611 0)
(10.676 -0.155681 0)
(10.7666 -0.0532873 0)
(10.9155 0.0789215 0)
(11.1121 0.242832 0)
(11.3502 0.43448 0)
(11.6273 0.648679 0)
(11.9412 0.882623 0)
(12.2868 1.13528 0)
(12.6544 1.40508 0)
(13.0302 1.68684 0)
(13.3981 1.97045 0)
(13.7414 2.24082 0)
(14.0448 2.47884 0)
(14.2952 2.66247 0)
(14.4845 2.76999 0)
(14.61 2.78561 0)
(14.6741 2.70278 0)
(14.6833 2.52458 0)
(14.6481 2.26266 0)
(14.5824 1.93517 0)
(14.5016 1.5635 0)
(14.4206 1.16936 0)
(14.352 0.772787 0)
(14.3031 0.390308 0)
(14.2776 0.0338586 0)
(14.2712 -0.289443 0)
(14.2799 -0.575792 0)
(14.2969 -0.824064 0)
(14.3137 -1.03474 0)
(14.3217 -1.2088 0)
(14.3125 -1.34721 0)
(14.2797 -1.45104 0)
(14.2186 -1.52192 0)
(14.1274 -1.56243 0)
(14.006 -1.57638 0)
(13.8573 -1.56846 0)
(13.6827 -1.54421 0)
(13.4921 -1.50931 0)
(13.2683 -1.46854 0)
(13.086 -1.43407 0)
(12.7123 -1.37435 0)
(3.42541 0.281024 0)
(3.02614 0.296478 0)
(2.83845 0.210164 0)
(2.92286 0.0703447 0)
(3.16707 -0.0675848 0)
(3.48678 -0.163609 0)
(3.83631 -0.202477 0)
(4.18781 -0.185292 0)
(4.52523 -0.119351 0)
(4.8679 -0.014016 0)
(5.23373 0.120205 0)
(5.63947 0.275416 0)
(6.10014 0.449163 0)
(6.62545 0.645374 0)
(7.21644 0.869508 0)
(7.86204 1.12388 0)
(8.54257 1.40299 0)
(9.23334 1.6937 0)
(9.90711 1.97539 0)
(10.5378 2.21989 0)
(11.1074 2.3955 0)
(11.6098 2.4789 0)
(12.0455 2.45953 0)
(12.4173 2.33812 0)
(12.7294 2.12482 0)
(12.9865 1.8372 0)
(13.1934 1.4961 0)
(13.3557 1.12353 0)
(13.4785 0.741855 0)
(13.5648 0.37059 0)
(13.6162 0.0253812 0)
(13.6302 -0.285165 0)
(13.6054 -0.554942 0)
(13.5379 -0.781413 0)
(13.424 -0.964379 0)
(13.2624 -1.1051 0)
(13.0545 -1.20593 0)
(12.8052 -1.27019 0)
(12.5221 -1.30218 0)
(12.2155 -1.3071 0)
(11.8966 -1.29094 0)
(11.5771 -1.25971 0)
(11.2674 -1.22042 0)
(10.9789 -1.17558 0)
(10.7103 -1.13802 0)
(10.5014 -1.08614 0)
(10.2273 -1.07085 0)
(-1.1589 -0.681061 0)
(-0.415103 -0.355386 0)
(-0.0327272 -0.478282 0)
(0.073318 -0.625524 0)
(0.16599 -0.755016 0)
(0.348404 -0.811179 0)
(0.58458 -0.795929 0)
(0.847289 -0.72085 0)
(1.11514 -0.603703 0)
(1.36665 -0.466586 0)
(1.59428 -0.3259 0)
(1.8016 -0.189315 0)