/*--------------------------------*- C++ -*----------------------------------*\
| =========                 |                                                 |
| \\      /  F ield         | OpenFOAM: The Open Source CFD Toolbox           |
|  \\    /   O peration     | Version:  2406                                  |
|   \\  /    A nd           | Website:  www.openfoam.com                      |
|    \\/     M anipulation  |                                                 |
\*---------------------------------------------------------------------------*/
FoamFile
{
    version     2.0;
    format      ascii;
    arch        "LSB;label=32;scalar=64";
    class       volScalarField;
    location    "79";
    object      p;
}
// * * * * * * * * * * * * * * * * * * * * * * * * * * * * * * * * * * * * * //

dimensions      [0 2 -2 0 0 0 0];

internalField   nonuniform List<scalar> 
2000
(
0.083611
0.0842699
0.0844723
0.0842571
0.0838575
0.0833538
0.0827665
0.0821167
0.0814234
0.0806987
0.0847492
0.0846738
0.0845399
0.084257
0.0838363
0.0833173
0.082726
0.0820799
0.081392
0.0806719
0.0855704
0.0849435
0.0844997
0.0841806
0.083777
0.0832583
0.0826666
0.0820272
0.081348
0.080635
0.0861604
0.0852879
0.0846074
0.0841928
0.0837603
0.0832181
0.0826087
0.0819646
0.0812893
0.0805823
0.0866323
0.0856453
0.0847884
0.0842556
0.0837701
0.0831973
0.0825648
0.0819086
0.0812309
0.080526
0.0870073
0.0859562
0.0849805
0.0843476
0.0838062
0.0832003
0.0825424
0.081869
0.0811833
0.0804762
0.0872968
0.0862083
0.0851572
0.0844495
0.0838572
0.0832179
0.0825348
0.0818434
0.0811473
0.0804355
0.0875089
0.0863986
0.0853005
0.0845408
0.083908
0.0832401
0.0825358
0.0818289
0.081123
0.0804057
0.0876484
0.0865257
0.0854001
0.0846081
0.083948
0.0832598
0.0825401
0.0818219
0.0811083
0.0803863
0.0877176
0.0865893
0.085451
0.0846436
0.0839699
0.0832711
0.0825434
0.0818192
0.0811014
0.0803768
0.0877176
0.0865893
0.085451
0.0846436
0.0839699
0.0832711
0.0825434
0.0818192
0.0811014
0.0803768
0.0876484
0.0865257
0.0854001
0.0846081
0.083948
0.0832598
0.0825401
0.0818219
0.0811082
0.0803863
0.0875089
0.0863986
0.0853005
0.0845408
0.083908
0.0832401
0.0825358
0.0818289
0.0811229
0.0804056
0.0872968
0.0862083
0.0851572
0.0844495
0.0838572
0.0832179
0.0825348
0.0818434
0.0811473
0.0804355
0.0870073
0.0859562
0.0849805
0.0843475
0.0838062
0.0832003
0.0825424
0.081869
0.0811833
0.0804761
0.0866323
0.0856452
0.0847884
0.0842556
0.08377
0.0831973
0.0825648
0.0819086
0.0812309
0.080526
0.0861604
0.0852879
0.0846074
0.0841928
0.0837603
0.0832181
0.0826087
0.0819646
0.0812893
0.0805822
0.0855704
0.0849435
0.0844997
0.0841806
0.0837769
0.0832583
0.0826667
0.0820272
0.081348
0.080635
0.0847491
0.0846738
0.0845399
0.0842569
0.0838363
0.0833173
0.082726
0.0820799
0.081392
0.0806719
0.083611
0.0842699
0.0844723
0.084257
0.0838574
0.0833538
0.0827665
0.0821167
0.0814234
0.0806987
0.0799496
0.0791815
0.078398
0.0776019
0.0767953
0.0759797
0.0751564
0.0743262
0.0734901
0.0726487
0.0718025
0.070952
0.0700976
0.0692396
0.0683783
0.0675139
0.0666468
0.065777
0.0649048
0.0640303
0.0631537
0.062275
0.0613945
0.0605122
0.0596282
0.0587425
0.0578554
0.0569668
0.0560768
0.0551855
0.054293
0.0533993
0.0525044
0.0516085
0.0507115
0.0799268
0.079162
0.0783813
0.0775874
0.0767827
0.0759686
0.0751465
0.0743173
0.0734821
0.0726413
0.0717958
0.0709458
0.0700919
0.0692343
0.0683734
0.0675094
0.0666425
0.0657729
0.0649009
0.0640266
0.0631502
0.0622717
0.0613914
0.0605092
0.0596253
0.0587398
0.0578528
0.0569643
0.0560744
0.0551832
0.0542908
0.0533971
0.0525024
0.0516065
0.0507096
0.0798952
0.0791348
0.078358
0.0775674
0.0767652
0.0759532
0.0751328
0.0743053
0.0734714
0.0726319
0.0717873
0.0709382
0.070085
0.069228
0.0683676
0.067504
0.0666376
0.0657684
0.0648967
0.0640227
0.0631466
0.0622683
0.0613882
0.0605062
0.0596225
0.0587371
0.0578502
0.0569618
0.0560721
0.055181
0.0542886
0.0533951
0.0525004
0.0516046
0.0507078
0.0798482
0.0790933
0.0783219
0.0775363
0.0767382
0.0759294
0.0751118
0.0742868
0.0734552
0.0726178
0.071775
0.0709273
0.0700751
0.069219
0.0683593
0.0674965
0.0666307
0.0657622
0.0648912
0.0640177
0.0631419
0.062264
0.0613841
0.0605024
0.0596189
0.0587337
0.057847
0.0569589
0.0560693
0.0551783
0.0542862
0.0533928
0.0524982
0.0516025
0.0507058
0.0797953
0.0790446
0.078278
0.0774973
0.0767037
0.0758986
0.075084
0.0742618
0.0734332
0.0725985
0.0717581
0.0709123
0.0700616
0.0692066
0.0683479
0.067486
0.0666211
0.0657536
0.0648834
0.0640106
0.0631355
0.0622581
0.0613786
0.0604972
0.059614
0.0587291
0.0578426
0.0569547
0.0560654
0.0551747
0.0542828
0.0533896
0.0524952
0.0515997
0.0507031
0.0797459
0.0789973
0.0782341
0.0774576
0.0766679
0.0758661
0.0750544
0.0742349
0.073409
0.0725772
0.0717394
0.0708958
0.0700467
0.0691929
0.0683352
0.0674741
0.0666102
0.0657436
0.0648744
0.0640026
0.0631282
0.0622514
0.0613724
0.0604913
0.0596083
0.0587237
0.0578375
0.0569499
0.0560608
0.0551705
0.0542788
0.0533859
0.0524918
0.0515965
0.0507
0.0797038
0.0789556
0.0781946
0.0774213
0.0766349
0.0758359
0.0750266
0.0742093
0.0733858
0.0725566
0.0717213
0.0708798
0.0700324
0.0691798
0.0683229
0.0674626
0.0665995
0.0657338
0.0648655
0.0639946
0.0631211
0.0622449
0.0613663
0.0604856
0.0596028
0.0587184
0.0578324
0.056945
0.0560562
0.0551662
0.0542749
0.0533822
0.0524883
0.0515932
0.0506969
0.0796714
0.0789227
0.0781628
0.0773916
0.0766077
0.0758109
0.0750034
0.0741878
0.0733662
0.072539
0.0717059
0.0708662
0.0700203
0.0691687
0.0683125
0.0674528
0.0665903
0.0657253
0.0648578
0.0639877
0.0631149
0.0622393
0.0613612
0.0604807
0.0595982
0.0587138
0.057828
0.0569407
0.0560522
0.0551624
0.0542714
0.053379
0.0524854
0.0515904
0.0506943
0.0796495
0.0789
0.0781405
0.0773707
0.0765884
0.0757931
0.0749868
0.0741724
0.073352
0.0725262
0.0716946
0.0708564
0.0700116
0.0691608
0.0683051
0.0674458
0.0665837
0.0657191
0.0648522
0.0639826
0.0631104
0.0622353
0.0613575
0.0604772
0.0595948
0.0587106
0.0578248
0.0569377
0.0560493
0.0551597
0.0542688
0.0533766
0.0524832
0.0515884
0.0506924
0.0796385
0.0788885
0.0781292
0.07736
0.0765785
0.0757839
0.0749782
0.0741643
0.0733445
0.0725195
0.0716887
0.0708512
0.070007
0.0691566
0.0683013
0.0674422
0.0665802
0.0657159
0.0648492
0.06398
0.063108
0.0622331
0.0613555
0.0604754
0.0595931
0.0587089
0.0578232
0.0569361
0.0560478
0.0551582
0.0542674
0.0533754
0.052482
0.0515873
0.0506914
0.0796385
0.0788885
0.0781292
0.07736
0.0765784
0.0757839
0.0749782
0.0741643
0.0733445
0.0725195
0.0716886
0.0708512
0.070007
0.0691566
0.0683013
0.0674422
0.0665803
0.0657159
0.0648492
0.06398
0.063108
0.0622331
0.0613555
0.0604754
0.0595931
0.0587089
0.0578232
0.0569361
0.0560478
0.0551582
0.0542674
0.0533754
0.052482
0.0515873
0.0506914
0.0796495
0.0789
0.0781405
0.0773706
0.0765883
0.0757931
0.0749868
0.0741725
0.0733521
0.0725263
0.0716945
0.0708563
0.0700115
0.0691607
0.0683052
0.0674459
0.0665838
0.0657192
0.0648522
0.0639826
0.0631103
0.0622352
0.0613574
0.0604772
0.0595948
0.0587106
0.0578248
0.0569377
0.0560493
0.0551597
0.0542688
0.0533766
0.0524831
0.0515884
0.0506923
0.0796714
0.0789228
0.0781628
0.0773915
0.0766075
0.0758109
0.0750035
0.074188
0.0733663
0.072539
0.0717058
0.0708661
0.0700202
0.0691687
0.0683126
0.0674529
0.0665904
0.0657254
0.0648578
0.0639877
0.0631148
0.0622393
0.0613611
0.0604807
0.0595982
0.0587139
0.057828
0.0569408
0.0560522
0.0551624
0.0542714
0.053379
0.0524853
0.0515904
0.0506943
0.0797039
0.0789557
0.0781946
0.0774211
0.0766347
0.0758359
0.0750267
0.0742095
0.073386
0.0725566
0.0717212
0.0708796
0.0700323
0.0691797
0.068323
0.0674627
0.0665996
0.0657338
0.0648655
0.0639945
0.063121
0.0622448
0.0613663
0.0604855
0.0596028
0.0587184
0.0578324
0.056945
0.0560562
0.0551662
0.0542748
0.0533822
0.0524883
0.0515932
0.0506969
0.079746
0.0789974
0.0782341
0.0774575
0.0766678
0.0758661
0.0750545
0.0742351
0.0734091
0.0725771
0.0717393
0.0708956
0.0700466
0.0691929
0.0683352
0.0674742
0.0666103
0.0657436
0.0648744
0.0640025
0.0631281
0.0622514
0.0613723
0.0604913
0.0596083
0.0587237
0.0578375
0.0569499
0.0560608
0.0551705
0.0542788
0.0533859
0.0524918
0.0515964
0.0507
0.0797954
0.0790446
0.078278
0.0774972
0.0767036
0.0758986
0.0750841
0.074262
0.0734332
0.0725984
0.071758
0.0709122
0.0700615
0.0692066
0.068348
0.0674861
0.0666212
0.0657536
0.0648833
0.0640106
0.0631354
0.0622581
0.0613786
0.0604972
0.059614
0.0587291
0.0578426
0.0569547
0.0560654
0.0551747
0.0542828
0.0533896
0.0524952
0.0515997
0.050703
0.0798482
0.0790933
0.0783218
0.0775362
0.0767381
0.0759295
0.0751119
0.0742868
0.0734552
0.0726178
0.0717749
0.0709272
0.0700751
0.069219
0.0683594
0.0674965
0.0666307
0.0657622
0.0648911
0.0640176
0.0631419
0.062264
0.0613841
0.0605024
0.0596189
0.0587337
0.057847
0.0569588
0.0560692
0.0551783
0.0542861
0.0533927
0.0524981
0.0516025
0.0507057
0.0798952
0.0791348
0.0783579
0.0775673
0.0767652
0.0759532
0.0751329
0.0743053
0.0734714
0.0726319
0.0717873
0.0709382
0.070085
0.069228
0.0683676
0.067504
0.0666375
0.0657684
0.0648967
0.0640227
0.0631465
0.0622683
0.0613882
0.0605062
0.0596225
0.0587371
0.0578502
0.0569618
0.056072
0.0551809
0.0542886
0.0533951
0.0525004
0.0516046
0.0507077
0.0799268
0.079162
0.0783813
0.0775874
0.0767827
0.0759686
0.0751465
0.0743173
0.073482
0.0726413
0.0717958
0.0709458
0.0700919
0.0692343
0.0683734
0.0675093
0.0666424
0.0657729
0.0649009
0.0640266
0.0631502
0.0622717
0.0613914
0.0605092
0.0596253
0.0587398
0.0578528
0.0569643
0.0560744
0.0551832
0.0542907
0.0533971
0.0525023
0.0516065
0.0507095
0.0799496
0.0791815
0.078398
0.0776019
0.0767953
0.0759797
0.0751564
0.0743262
0.0734901
0.0726487
0.0718025
0.070952
0.0700976
0.0692396
0.0683783
0.0675139
0.0666468
0.065777
0.0649048
0.0640303
0.0631537
0.062275
0.0613945
0.0605122
0.0596281
0.0587425
0.0578553
0.0569667
0.0560768
0.0551855
0.054293
0.0533993
0.0525044
0.0516084
0.0507114
0.0498135
0.0489145
0.0480146
0.0471138
0.0462122
0.0453097
0.0444065
0.0435025
0.0425977
0.0416922
0.0498116
0.0489127
0.0480129
0.0471122
0.0462106
0.0453082
0.044405
0.043501
0.0425963
0.0416908
0.0498099
0.0489111
0.0480113
0.0471106
0.0462091
0.0453067
0.0444036
0.0434996
0.0425949
0.0416895
0.049808
0.0489092
0.0480095
0.0471089
0.0462075
0.0453052
0.0444021
0.0434982
0.0425936
0.0416882
0.0498054
0.0489068
0.0480072
0.0471067
0.0462053
0.0453031
0.0444001
0.0434963
0.0425918
0.0416865
0.0498025
0.0489039
0.0480044
0.047104
0.0462027
0.0453006
0.0443977
0.043494
0.0425896
0.0416845
0.0497995
0.0489011
0.0480017
0.0471013
0.0462001
0.0452981
0.0443953
0.0434917
0.0425874
0.0416823
0.049797
0.0488986
0.0479993
0.047099
0.0461978
0.0452959
0.0443931
0.0434896
0.0425854
0.0416805
0.0497952
0.0488969
0.0479975
0.0470973
0.0461961
0.0452942
0.0443915
0.0434881
0.042584
0.0416791
0.0497942
0.0488959
0.0479966
0.0470964
0.0461953
0.0452934
0.0443907
0.0434873
0.0425832
0.0416784
0.0497942
0.0488959
0.0479966
0.0470964
0.0461953
0.0452934
0.0443907
0.0434873
0.0425832
0.0416784
0.0497951
0.0488968
0.0479975
0.0470973
0.0461961
0.0452942
0.0443915
0.0434881
0.042584
0.0416791
0.049797
0.0488986
0.0479992
0.047099
0.0461978
0.0452959
0.0443931
0.0434896
0.0425854
0.0416805
0.0497995
0.0489011
0.0480016
0.0471013
0.0462001
0.0452981
0.0443953
0.0434917
0.0425874
0.0416823
0.0498024
0.0489039
0.0480044
0.047104
0.0462027
0.0453006
0.0443977
0.043494
0.0425896
0.0416844
0.0498054
0.0489067
0.0480072
0.0471066
0.0462053
0.0453031
0.0444
0.0434962
0.0425917
0.0416865
0.049808
0.0489092
0.0480095
0.0471089
0.0462074
0.0453051
0.044402
0.0434981
0.0425935
0.0416882
0.0498099
0.048911
0.0480113
0.0471106
0.046209
0.0453067
0.0444035
0.0434996
0.0425949
0.0416895
0.0498116
0.0489127
0.0480129
0.0471121
0.0462105
0.0453081
0.0444049
0.0435009
0.0425962
0.0416908
0.0498134
0.0489145
0.0480146
0.0471138
0.0462122
0.0453097
0.0444064
0.0435024
0.0425976
0.0416922
0.0407861
0.0398792
0.0389718
0.0380637
0.037155
0.0362457
0.0353359
0.0344255
0.0335145
0.0326031
0.0316912
0.0307787
0.0298658
0.0289524
0.0280386
0.0271244
0.0262097
0.0252946
0.0243791
0.0234632
0.022547
0.0216303
0.0207133
0.019796
0.0188783
0.0179603
0.0170419
0.0161232
0.0152042
0.0142849
0.0133653
0.0124454
0.0115252
0.0106047
0.00968396
0.0407847
0.0398779
0.0389705
0.0380624
0.0371538
0.0362445
0.0353347
0.0344244
0.0335135
0.032602
0.0316901
0.0307777
0.0298648
0.0289515
0.0280377
0.0271234
0.0262088
0.0252937
0.0243783
0.0234624
0.0225461
0.0216295
0.0207125
0.0197952
0.0188775
0.0179595
0.0170412
0.0161225
0.0152035
0.0142842
0.0133646
0.0124447
0.0115245
0.0106041
0.00968334
0.0407835
0.0398767
0.0389693
0.0380613
0.0371527
0.0362435
0.0353337
0.0344234
0.0335125
0.0326011
0.0316892
0.0307768
0.0298639
0.0289506
0.0280368
0.0271226
0.026208
0.0252929
0.0243775
0.0234617
0.0225454
0.0216288
0.0207119
0.0197945
0.0188769
0.0179589
0.0170405
0.0161219
0.0152029
0.0142836
0.013364
0.0124442
0.011524
0.0106035
0.00968281
0.0407822
0.0398755
0.0389682
0.0380602
0.0371516
0.0362424
0.0353327
0.0344224
0.0335115
0.0326002
0.0316883
0.0307759
0.0298631
0.0289498
0.028036
0.0271219
0.0262072
0.0252922
0.0243768
0.023461
0.0225448
0.0216282
0.0207112
0.0197939
0.0188763
0.0179583
0.01704
0.0161213
0.0152024
0.0142831
0.0133635
0.0124437
0.0115235
0.0106031
0.00968236
0.0407805
0.0398739
0.0389666
0.0380587
0.0371502
0.0362411
0.0353314
0.0344211
0.0335103
0.032599
0.0316871
0.0307748
0.029862
0.0289487
0.028035
0.0271209
0.0262063
0.0252913
0.0243759
0.0234601
0.0225439
0.0216274
0.0207104
0.0197932
0.0188755
0.0179576
0.0170393
0.0161206
0.0152017
0.0142824
0.0133629
0.012443
0.0115229
0.0106025
0.00968182
0.0407786
0.0398721
0.0389649
0.038057
0.0371485
0.0362395
0.0353298
0.0344196
0.0335088
0.0325976
0.0316858
0.0307735
0.0298607
0.0289475
0.0280338
0.0271197
0.0262052
0.0252902
0.0243748
0.0234591
0.0225429
0.0216264
0.0207095
0.0197923
0.0188746
0.0179567
0.0170384
0.0161198
0.0152009
0.0142817
0.0133622
0.0124423
0.0115222
0.0106018
0.00968119
0.0407766
0.0398701
0.038963
0.0380553
0.0371468
0.0362378
0.0353282
0.034418
0.0335073
0.0325961
0.0316843
0.0307721
0.0298594
0.0289462
0.0280326
0.0271185
0.026204
0.0252891
0.0243738
0.023458
0.0225419
0.0216254
0.0207085
0.0197913
0.0188737
0.0179558
0.0170375
0.016119
0.0152001
0.0142809
0.0133614
0.0124416
0.0115215
0.0106011
0.00968052
0.0407748
0.0398685
0.0389614
0.0380537
0.0371454
0.0362364
0.0353268
0.0344167
0.033506
0.0325948
0.0316831
0.0307708
0.0298582
0.028945
0.0280314
0.0271174
0.0262029
0.0252881
0.0243728
0.0234571
0.022541
0.0216245
0.0207077
0.0197904
0.0188729
0.017955
0.0170367
0.0161182
0.0151993
0.0142801
0.0133607
0.0124409
0.0115208
0.0106005
0.00967991
0.0407735
0.0398672
0.0389602
0.0380526
0.0371443
0.0362353
0.0353258
0.0344156
0.033505
0.0325938
0.0316821
0.0307699
0.0298573
0.0289441
0.0280306
0.0271166
0.0262021
0.0252873
0.024372
0.0234563
0.0225403
0.0216238
0.020707
0.0197898
0.0188722
0.0179544
0.0170361
0.0161176
0.0151987
0.0142796
0.0133601
0.0124403
0.0115203
0.0106
0.00967943
0.0407728
0.0398666
0.0389596
0.038052
0.0371437
0.0362347
0.0353252
0.0344151
0.0335044
0.0325933
0.0316816
0.0307694
0.0298568
0.0289437
0.0280301
0.0271161
0.0262017
0.0252869
0.0243716
0.023456
0.0225399
0.0216234
0.0207066
0.0197894
0.0188719
0.017954
0.0170358
0.0161173
0.0151984
0.0142793
0.0133598
0.0124401
0.01152
0.0105997
0.00967917
0.0407728
0.0398665
0.0389596
0.038052
0.0371437
0.0362347
0.0353252
0.0344151
0.0335044
0.0325933
0.0316816
0.0307694
0.0298568
0.0289437
0.0280301
0.0271161
0.0262017
0.0252869
0.0243716
0.0234559
0.0225399
0.0216234
0.0207066
0.0197894
0.0188719
0.017954
0.0170358
0.0161172
0.0151984
0.0142792
0.0133598
0.01244
0.01152
0.0105997
0.00967916
0.0407735
0.0398672
0.0389602
0.0380525
0.0371442
0.0362353
0.0353257
0.0344156
0.033505
0.0325938
0.0316821
0.0307699
0.0298572
0.0289441
0.0280306
0.0271166
0.0262021
0.0252873
0.024372
0.0234563
0.0225402
0.0216238
0.020707
0.0197898
0.0188722
0.0179543
0.0170361
0.0161176
0.0151987
0.0142795
0.0133601
0.0124403
0.0115203
0.0106
0.0096794
0.0407748
0.0398684
0.0389614
0.0380537
0.0371453
0.0362363
0.0353268
0.0344166
0.0335059
0.0325947
0.031683
0.0307708
0.0298581
0.028945
0.0280314
0.0271174
0.0262029
0.025288
0.0243727
0.023457
0.0225409
0.0216244
0.0207076
0.0197904
0.0188728
0.0179549
0.0170367
0.0161181
0.0151993
0.0142801
0.0133606
0.0124408
0.0115208
0.0106004
0.00967985
0.0407766
0.0398701
0.038963
0.0380552
0.0371468
0.0362378
0.0353282
0.034418
0.0335073
0.032596
0.0316843
0.0307721
0.0298593
0.0289462
0.0280325
0.0271185
0.026204
0.025289
0.0243737
0.023458
0.0225418
0.0216253
0.0207085
0.0197912
0.0188737
0.0179557
0.0170375
0.0161189
0.0152
0.0142808
0.0133613
0.0124415
0.0115214
0.0106011
0.00968045
0.0407786
0.039872
0.0389648
0.038057
0.0371485
0.0362394
0.0353298
0.0344195
0.0335088
0.0325975
0.0316857
0.0307734
0.0298607
0.0289474
0.0280338
0.0271197
0.0262051
0.0252902
0.0243748
0.023459
0.0225429
0.0216263
0.0207094
0.0197922
0.0188746
0.0179566
0.0170383
0.0161197
0.0152008
0.0142816
0.0133621
0.0124423
0.0115221
0.0106018
0.00968111
0.0407805
0.0398739
0.0389666
0.0380587
0.0371501
0.036241
0.0353313
0.034421
0.0335102
0.0325989
0.0316871
0.0307747
0.0298619
0.0289487
0.028035
0.0271208
0.0262062
0.0252912
0.0243758
0.02346
0.0225438
0.0216273
0.0207103
0.0197931
0.0188754
0.0179575
0.0170392
0.0161205
0.0152016
0.0142823
0.0133628
0.012443
0.0115228
0.0106024
0.00968173
0.0407821
0.0398754
0.0389681
0.0380601
0.0371515
0.0362424
0.0353326
0.0344223
0.0335115
0.0326001
0.0316882
0.0307759
0.029863
0.0289497
0.028036
0.0271218
0.0262072
0.0252921
0.0243767
0.0234609
0.0225447
0.0216281
0.0207111
0.0197938
0.0188762
0.0179582
0.0170399
0.0161212
0.0152023
0.014283
0.0133634
0.0124436
0.0115234
0.010603
0.00968227
0.0407834
0.0398767
0.0389693
0.0380613
0.0371526
0.0362434
0.0353336
0.0344233
0.0335124
0.032601
0.0316891
0.0307767
0.0298639
0.0289505
0.0280368
0.0271226
0.0262079
0.0252929
0.0243774
0.0234616
0.0225453
0.0216287
0.0207118
0.0197945
0.0188768
0.0179588
0.0170404
0.0161218
0.0152028
0.0142835
0.0133639
0.0124441
0.0115239
0.0106034
0.00968272
0.0407846
0.0398779
0.0389704
0.0380624
0.0371537
0.0362445
0.0353347
0.0344243
0.0335134
0.032602
0.03169
0.0307776
0.0298647
0.0289514
0.0280376
0.0271234
0.0262087
0.0252936
0.0243782
0.0234623
0.0225461
0.0216294
0.0207125
0.0197951
0.0188774
0.0179594
0.0170411
0.0161224
0.0152034
0.0142841
0.0133645
0.0124446
0.0115244
0.010604
0.00968325
0.040786
0.0398792
0.0389717
0.0380636
0.0371549
0.0362457
0.0353358
0.0344254
0.0335145
0.032603
0.0316911
0.0307787
0.0298657
0.0289524
0.0280386
0.0271243
0.0262096
0.0252945
0.024379
0.0234632
0.0225469
0.0216303
0.0207133
0.0197959
0.0188782
0.0179602
0.0170418
0.0161231
0.0152041
0.0142848
0.0133652
0.0124453
0.0115251
0.0106046
0.00968387
0.00876293
0.00784164
0.00692009
0.00599829
0.00507623
0.00415392
0.00323135
0.00230856
0.00138545
0.000462488
0.00876233
0.00784105
0.00691951
0.00599772
0.00507567
0.00415337
0.0032308
0.0023081
0.00138481
0.000462584
0.00876182
0.00784055
0.00691903
0.00599725
0.00507522
0.00415294
0.00323037
0.00230775
0.00138422
0.000462938
0.00876138
0.00784014
0.00691864
0.00599689
0.00507489
0.00415264
0.0032301
0.00230753
0.00138391
0.000463048
0.00876087
0.00783965
0.00691819
0.00599647
0.00507452
0.00415233
0.00322986
0.00230732
0.00138387
0.000462604
0.00876027
0.0078391
0.00691768
0.00599602
0.00507413
0.00415201
0.00322965
0.00230718
0.00138411
0.000461638
0.00875964
0.00783851
0.00691713
0.00599553
0.00507372
0.00415169
0.00322949
0.00230706
0.00138458
0.000460337
0.00875906
0.00783796
0.00691664
0.00599509
0.00507335
0.00415141
0.00322936
0.00230701
0.00138513
0.000459031
0.00875861
0.00783755
0.00691626
0.00599476
0.00507308
0.00415121
0.00322928
0.00230697
0.00138559
0.00045801
0.00875836
0.00783732
0.00691605
0.00599457
0.00507293
0.00415109
0.00322924
0.00230696
0.00138585
0.000457467
0.00875835
0.00783731
0.00691604
0.00599456
0.00507291
0.00415108
0.00322923
0.00230696
0.00138583
0.000457492
0.00875858
0.00783751
0.00691622
0.00599472
0.00507304
0.00415118
0.00322926
0.00230696
0.00138557
0.000458077
0.008759
0.00783791
0.00691658
0.00599504
0.0050733
0.00415137
0.00322932
0.00230699
0.00138509
0.000459133
0.00875957
0.00783844
0.00691706
0.00599546
0.00507365
0.00415163
0.00322944
0.00230704
0.00138455
0.000460457
0.00876019
0.00783902
0.0069176
0.00599594
0.00507405
0.00415195
0.0032296
0.00230715
0.00138407
0.000461757
0.00876078
0.00783957
0.0069181
0.00599639
0.00507444
0.00415226
0.0032298
0.00230729
0.00138382
0.000462704
0.00876129
0.00784005
0.00691855
0.00599681
0.00507481
0.00415258
0.00323005
0.00230749
0.00138388
0.00046312
0.00876173
0.00784047
0.00691895
0.00599717
0.00507515
0.00415288
0.00323032
0.00230772
0.00138419
0.000462978
0.00876224
0.00784097
0.00691943
0.00599764
0.0050756
0.00415331
0.00323076
0.00230806
0.00138479
0.000462592
0.00876285
0.00784156
0.00692002
0.00599822
0.00507616
0.00415386
0.00323131
0.00230853
0.00138542
0.000462485
)
;

boundaryField
{
    inlet
    {
        type            zeroGradient;
    }
    outlet
    {
        type            fixedValue;
        value           uniform 0;
    }
    upperWall
    {
        type            zeroGradient;
    }
    lowerWall
    {
        type            zeroGradient;
    }
    frontAndBack
    {
        type            empty;
    }
}


// ************************************************************************* //
