/*--------------------------------*- C++ -*----------------------------------*\
| =========                 |                                                 |
| \\      /  F ield         | OpenFOAM: The Open Source CFD Toolbox           |
|  \\    /   O peration     | Version:  2406                                  |
|   \\  /    A nd           | Website:  www.openfoam.com                      |
|    \\/     M anipulation  |                                                 |
\*---------------------------------------------------------------------------*/
FoamFile
{
    version     2.0;
    format      ascii;
    arch        "LSB;label=32;scalar=64";
    class       volScalarField;
    location    "39";
    object      p;
}
// * * * * * * * * * * * * * * * * * * * * * * * * * * * * * * * * * * * * * //

dimensions      [0 2 -2 0 0 0 0];

internalField   nonuniform List<scalar> 
1964
(
0.689274
0.688565
0.687273
0.685687
0.683944
0.682093
0.68017
0.678204
0.67621
0.674195
0.672164
0.67012
0.668066
0.666003
0.663934
0.661858
0.659776
0.657689
0.655595
0.653494
0.651386
0.64927
0.647144
0.645005
0.642849
0.640672
0.638467
0.636225
0.633934
0.631577
0.629131
0.626565
0.623837
0.620888
0.617636
0.613966
0.609719
0.604664
0.598479
0.590699
0.580669
0.567472
0.549868
0.526277
0.494889
0.45396
0.402724
0.690628
0.689011
0.687309
0.685663
0.683918
0.682059
0.680134
0.678175
0.676188
0.674176
0.672144
0.670101
0.668049
0.665993
0.663928
0.661854
0.659772
0.657682
0.655586
0.653485
0.651377
0.649262
0.647137
0.644999
0.642844
0.640667
0.63846
0.636216
0.633922
0.631562
0.629112
0.626542
0.62381
0.620858
0.617603
0.613935
0.609694
0.604655
0.598495
0.59075
0.580745
0.567525
0.54975
0.525645
0.493075
0.449816
0.39495
0.691426
0.689261
0.687264
0.685603
0.683883
0.682019
0.680085
0.678131
0.67616
0.674157
0.672126
0.670076
0.668025
0.665972
0.663916
0.66185
0.659773
0.657685
0.655589
0.653487
0.651381
0.649269
0.647152
0.645023
0.642882
0.640721
0.638536
0.636319
0.634062
0.631749
0.629365
0.626883
0.624271
0.621479
0.618441
0.61506
0.611197
0.606643
0.601087
0.594054
0.584811
0.572261
0.554769
0.530048
0.495129
0.446272
0.381532
0.691921
0.689523
0.6873
0.685584
0.683865
0.681986
0.680031
0.678081
0.676131
0.674146
0.672113
0.670053
0.667992
0.665942
0.663898
0.66185
0.659786
0.657706
0.655612
0.653511
0.651408
0.649305
0.647203
0.645099
0.642991
0.640875
0.638748
0.636607
0.634448
0.632268
0.630058
0.627812
0.625513
0.623141
0.620658
0.618009
0.615096
0.611756
0.607708
0.602464
0.595197
0.584522
0.568239
0.543116
0.504714
0.447271
0.367312
0.692304
0.689803
0.687409
0.685612
0.683869
0.681961
0.679978
0.678024
0.676096
0.674134
0.672103
0.670027
0.667949
0.665897
0.663867
0.661841
0.659801
0.657738
0.655654
0.653558
0.651461
0.64937
0.64729
0.645223
0.643167
0.641123
0.639091
0.637074
0.635078
0.633112
0.631188
0.629322
0.62753
0.625833
0.624245
0.622776
0.621405
0.620059
0.618539
0.616413
0.612795
0.605985
0.592822
0.568044
0.522948
0.447907
0.334698
0.692603
0.690046
0.68753
0.685662
0.683891
0.681951
0.679936
0.677974
0.676067
0.674128
0.672102
0.670008
0.667908
0.665846
0.663827
0.661827
0.659816
0.657778
0.655711
0.653625
0.651538
0.649462
0.647409
0.645386
0.643396
0.641443
0.639533
0.637677
0.635894
0.634207
0.632655
0.631281
0.630147
0.629325
0.628905
0.628986
0.62967
0.631031
0.63306
0.635542
0.637798
0.638215
0.63305
0.614765
0.565272
0.458561
0.230472
0.692829
0.690242
0.687644
0.685725
0.683928
0.681958
0.679909
0.677935
0.676043
0.674127
0.672106
0.669997
0.667874
0.665799
0.663786
0.661808
0.659829
0.657819
0.655774
0.653703
0.651627
0.649568
0.647544
0.645567
0.643647
0.641793
0.640016
0.638338
0.636788
0.63541
0.634266
0.633436
0.633027
0.633176
0.634056
0.635878
0.638899
0.643404
0.649677
0.657921
0.668071
0.679416
0.689598
0.692839
0.670909
0.582473
0.218995
0.692993
0.690389
0.687737
0.685785
0.68397
0.681972
0.67989
0.677903
0.676022
0.674127
0.672114
0.669994
0.667851
0.665762
0.66375
0.661791
0.659837
0.657855
0.655832
0.653778
0.651715
0.649673
0.647675
0.64574
0.643884
0.64212
0.640469
0.638956
0.637626
0.636539
0.63578
0.635464
0.635742
0.636812
0.63893
0.642425
0.647715
0.655314
0.665846
0.680016
0.698548
0.72202
0.75042
0.78255
0.812849
0.829241
0.762222
0.6931
0.690486
0.687802
0.68583
0.684004
0.681985
0.679879
0.677881
0.676008
0.674128
0.672123
0.669996
0.667838
0.665737
0.663725
0.661777
0.659843
0.657881
0.655876
0.653835
0.651785
0.649756
0.647778
0.645876
0.644069
0.642375
0.640819
0.639436
0.638276
0.637415
0.636957
0.63704
0.637853
0.639643
0.642734
0.647549
0.654639
0.664714
0.678678
0.697656
0.722992
0.756182
0.798547
0.850611
0.90969
0.967221
0.989631
0.693153
0.690536
0.687834
0.685852
0.684022
0.681994
0.679875
0.67787
0.676001
0.674128
0.672127
0.669998
0.667833
0.665726
0.663713
0.66177
0.659845
0.657895
0.655899
0.653867
0.651823
0.649802
0.647835
0.645951
0.64417
0.642514
0.641011
0.639697
0.638631
0.637894
0.637599
0.637901
0.639008
0.641192
0.644817
0.650358
0.658441
0.669884
0.685746
0.707375
0.73643
0.774823
0.824399
0.88612
0.957687
1.02977
1.07186
0.693153
0.690535
0.687835
0.685852
0.684022
0.681994
0.679876
0.677871
0.676001
0.674127
0.672126
0.669997
0.667833
0.665727
0.663714
0.661771
0.659846
0.657895
0.655899
0.653866
0.651822
0.649801
0.647835
0.645951
0.644171
0.642515
0.641012
0.639698
0.638632
0.637895
0.6376
0.637902
0.639009
0.641193
0.644818
0.650359
0.658443
0.669886
0.685748
0.707377
0.736434
0.774828
0.824399
0.886138
0.957688
1.02975
1.07186
0.6931
0.690486
0.687802
0.685829
0.684003
0.681986
0.679882
0.677883
0.676008
0.674125
0.672119
0.669995
0.66784
0.665741
0.66373
0.66178
0.659844
0.657881
0.655874
0.653833
0.651783
0.649755
0.647778
0.645877
0.64407
0.642377
0.640822
0.639438
0.638279
0.637418
0.636959
0.637043
0.637856
0.639646
0.642736
0.647552
0.654642
0.664718
0.678682
0.697662
0.722998
0.756189
0.798557
0.850619
0.909669
0.967241
0.989615
0.692993
0.690388
0.687738
0.685784
0.683968
0.681972
0.679894
0.677906
0.676022
0.674122
0.67211
0.669993
0.667854
0.665768
0.663757
0.661795
0.659839
0.657855
0.65583
0.653775
0.651713
0.649671
0.647675
0.645742
0.643887
0.642124
0.640472
0.63896
0.63763
0.636543
0.635784
0.635468
0.635746
0.636816
0.638934
0.64243
0.64772
0.65532
0.665853
0.680025
0.698558
0.722033
0.750434
0.782544
0.81284
0.829216
0.762208
0.692829
0.690242
0.687645
0.685724
0.683926
0.681959
0.679914
0.677939
0.676042
0.674121
0.672101
0.669996
0.667878
0.665806
0.663793
0.661813
0.65983
0.657818
0.655771
0.6537
0.651625
0.649567
0.647545
0.645569
0.64365
0.641797
0.640021
0.638343
0.636792
0.635415
0.63427
0.633441
0.633032
0.633182
0.634061
0.635884
0.638906
0.643412
0.649687
0.657934
0.668086
0.679432
0.68961
0.692845
0.670882
0.582373
0.219006
0.692603
0.690046
0.687531
0.685662
0.683889
0.681953
0.679942
0.677979
0.676066
0.674123
0.672097
0.670007
0.667913
0.665853
0.663834
0.661831
0.659818
0.657777
0.655709
0.653623
0.651536
0.649461
0.64741
0.645388
0.6434
0.641447
0.639538
0.637683
0.635899
0.634213
0.63266
0.631287
0.630153
0.629331
0.628912
0.628993
0.629678
0.631041
0.633072
0.635556
0.637815
0.63823
0.633069
0.614761
0.565249
0.458552
0.230406
0.692304
0.689802
0.68741
0.685611
0.683867
0.681962
0.679983
0.678028
0.676095
0.674129
0.6721
0.670028
0.667954
0.665902
0.663872
0.661844
0.659802
0.657737
0.655653
0.653557
0.65146
0.649371
0.647292
0.645226
0.643171
0.641128
0.639096
0.63708
0.635084
0.633118
0.631195
0.629328
0.627537
0.625839
0.624253
0.622784
0.621416
0.620071
0.618555
0.616433
0.612818
0.606016
0.592851
0.568091
0.522987
0.447902
0.334724
0.691921
0.689523
0.687301
0.685584
0.683864
0.681986
0.680035
0.678083
0.676129
0.674143
0.672112
0.670055
0.667995
0.665946
0.663902
0.661851
0.659787
0.657706
0.655612
0.653511
0.651408
0.649306
0.647205
0.645102
0.642994
0.640879
0.638753
0.636613
0.634454
0.632274
0.630065
0.627818
0.62552
0.623148
0.620666
0.618018
0.615107
0.61177
0.607725
0.602487
0.595224
0.584559
0.568287
0.543164
0.504772
0.447338
0.367277
0.691426
0.689261
0.687265
0.685603
0.683882
0.68202
0.680087
0.678133
0.67616
0.674157
0.672126
0.670078
0.668027
0.665975
0.663919
0.661852
0.659775
0.657686
0.65559
0.653487
0.651381
0.64927
0.647153
0.645026
0.642885
0.640725
0.638541
0.636325
0.634067
0.631755
0.629371
0.62689
0.624278
0.621487
0.61845
0.61507
0.611209
0.606658
0.601106
0.594076
0.584839
0.572292
0.554807
0.530091
0.495162
0.446282
0.381533
0.690628
0.68901
0.68731
0.685663
0.683917
0.682059
0.680135
0.678175
0.676188
0.674176
0.672145
0.670102
0.668051
0.665994
0.66393
0.661856
0.659773
0.657683
0.655587
0.653486
0.651378
0.649263
0.647139
0.645002
0.642847
0.640671
0.638465
0.636221
0.633927
0.631567
0.629118
0.626549
0.623817
0.620865
0.617612
0.613946
0.609707
0.60467
0.598513
0.590771
0.58077
0.567553
0.54978
0.525671
0.493094
0.449823
0.39493
0.689274
0.688565
0.687273
0.685687
0.683944
0.682094
0.680171
0.678205
0.676211
0.674196
0.672165
0.670121
0.668067
0.666005
0.663936
0.66186
0.659778
0.65769
0.655596
0.653495
0.651388
0.649272
0.647146
0.645007
0.642852
0.640676
0.638471
0.63623
0.633939
0.631582
0.629136
0.626571
0.623844
0.620896
0.617645
0.613977
0.609731
0.604679
0.598496
0.590719
0.580691
0.567496
0.549894
0.526299
0.494901
0.453962
0.402717
0.342065
0.27592
0.210888
0.152281
0.101918
0.0600266
0.329353
0.259056
0.19302
0.135916
0.0881377
0.0493777
0.3
0.216355
0.147886
0.0952671
0.0529611
0.0194305
0.252081
0.140589
0.0687717
0.0241996
-0.00891032
-0.0329205
0.152634
0.00882058
-0.0525883
-0.0798012
-0.0975187
-0.105792
-0.120838
-0.224061
-0.207271
-0.189738
-0.179146
-0.168501
-0.507145
-0.419587
-0.286649
-0.238938
-0.212652
-0.189201
-0.507095
-0.419528
-0.28659
-0.238883
-0.212605
-0.189162
-0.120785
-0.223982
-0.207255
-0.189701
-0.179096
-0.168441
0.152614
0.00874768
-0.0526732
-0.0798881
-0.0974999
-0.10574
0.252014
0.140474
0.0686624
0.0241308
-0.00891732
-0.0328794
0.299924
0.216265
0.147808
0.0952214
0.0529186
0.0194102
0.329315
0.258993
0.192951
0.135834
0.0880545
0.0493142
0.342049
0.275881
0.21083
0.152212
0.101851
0.0599725
0.026768
0.00190917
-0.0153905
-0.0262959
-0.0319897
-0.0335616
-0.0320042
-0.028202
-0.0229021
-0.0167013
-0.0100562
-0.00330498
0.00330921
0.00961662
0.0155023
0.0208915
0.0257386
0.0300195
0.0337261
0.0368624
0.0394418
0.0414843
0.0430154
0.0440646
0.0446638
0.0448471
0.0446487
0.0441027
0.0432422
0.0420992
0.0407042
0.0390861
0.0372713
0.0352843
0.0331473
0.0308805
0.0285018
0.0260274
0.0234714
0.0208467
0.0181643
0.0154342
0.0126652
0.00986557
0.00704232
0.00420116
0.00133282
0.0195251
-0.00199899
-0.0164489
-0.0252139
-0.0294369
-0.0300674
-0.0279918
-0.0240177
-0.0188099
-0.0128756
-0.00659233
-0.000239271
0.00597915
0.0119153
0.017464
0.0225527
0.0271344
0.0311828
0.0346869
0.0376486
0.0400787
0.0419952
0.0434214
0.0443841
0.0449131
0.0450397
0.0447965
0.0442155
0.0433281
0.042165
0.0407555
0.0391273
0.037306
0.0353154
0.033177
0.0309104
0.0285331
0.0260608
0.0235075
0.0208855
0.018206
0.0154787
0.012712
0.00991332
0.00709349
0.00424452
0.00131101
-0.00470664
-0.0202329
-0.0292395
-0.0336211
-0.0344026
-0.0322507
-0.027934
-0.022248
-0.0158298
-0.00912474
-0.00243449
0.00404028
0.0101719
0.0158814
0.021119
0.0258534
0.0300664
0.0337508
0.0369086
0.0395496
0.0416892
0.0433475
0.0445476
0.0453154
0.0456783
0.0456648
0.0453041
0.0446253
0.0436576
0.0424293
0.0409676
0.0392978
0.0374441
0.0354285
0.0332712
0.0309905
0.028603
0.0261235
0.0235652
0.0209399
0.018258
0.0155289
0.0127604
0.00995944
0.00713383
0.00428724
0.00125809
-0.0470213
-0.0528812
-0.053841
-0.0520342
-0.0477713
-0.0411539
-0.03286
-0.0237639
-0.0145547
-0.00569356
0.00253117
0.00997134
0.0165868
0.0224025
0.0274695
0.0318438
0.0355776
0.0387182
0.0413085
0.043388
0.044993
0.0461571
0.0469113
0.0472844
0.0473038
0.0469957
0.0463854
0.0454976
0.0443566
0.042986
0.0414082
0.0396449
0.0377162
0.0356413
0.0334375
0.0311208
0.0287057
0.0262051
0.023631
0.0209937
0.0183028
0.0155666
0.0127922
0.00998714
0.00715225
0.00431599
0.00118042
-0.103916
-0.0951672
-0.08547
-0.0762257
-0.0658638
-0.0537395
-0.0405286
-0.0271236
-0.0141944
-0.00223834
0.00839973
0.0175586
0.0252446
0.0315698
0.0366912
0.0407728
0.043967
0.0464086
0.0482132
0.0494769
0.0502789
0.0506822
0.0507369
0.0504823
0.0499495
0.0491637
0.0481464
0.0469161
0.0454902
0.0438849
0.0421157
0.0401977
0.0381452
0.0359719
0.0336908
0.0313138
0.0288522
0.026316
0.0237147
0.0210567
0.0183499
0.0156014
0.0128171
0.010005
0.0071623
0.00433557
0.00113553
-0.15232
-0.129687
-0.111876
-0.0977838
-0.082797
-0.0659655
-0.0483609
-0.0309308
-0.0143207
0.000887072
0.014226
0.0254607
0.0345862
0.0417536
0.0471927
0.05116
0.053908
0.0556685
0.0566439
0.0570038
0.0568851
0.0563937
0.0556091
0.0545889
0.0533734
0.0519904
0.0504589
0.0487924
0.0470007
0.0450922
0.0430743
0.0409541
0.0387387
0.0364353
0.0340511
0.031593
0.0290681
0.0264827
0.0238433
0.0211558
0.0184258
0.0156587
0.0128593
0.0100342
0.00718383
0.00434419
0.00118899
-0.167563
-0.140146
-0.121544
-0.107505
-0.0914412
-0.072732
-0.0528786
-0.032969
-0.0137965
0.00386549
0.0193862
0.0324165
0.042887
0.05093
0.0567978
0.0608005
0.0632632
0.0644971
0.0647818
0.0643552
0.0634105
0.0620976
0.0605277
0.0587793
0.0569051
0.0549383
0.0528982
0.0507953
0.0486341
0.0464162
0.044142
0.0418115
0.0394251
0.0369838
0.0344891
0.0319431
0.0293484
0.026708
0.0240251
0.021303
0.018545
0.0157546
0.0129355
0.0100901
0.00722899
0.00434061
0.00137324
-0.157881
-0.135789
-0.121003
-0.108517
-0.0930503
-0.0744121
-0.0539644
-0.0329355
-0.0124033
0.00665691
0.0234958
0.0376753
0.0490562
0.0577295
0.063939
0.068015
0.0703222
0.071221
0.0710418
0.0700701
0.0685396
0.0666328
0.0644853
0.0621931
0.0598196
0.057404
0.0549677
0.0525203
0.0500635
0.0475952
0.045111
0.0426061
0.0400761
0.0375174
0.0349274
0.0323044
0.0296477
0.0269574
0.0242342
0.0214792
0.0186939
0.0158798
0.0130395
0.0101695
0.00729688
0.00433054
0.00165345
-0.13316
-0.125509
-0.116903
-0.10566
-0.090809
-0.0726894
-0.052362
-0.031112
-0.0101898
0.00933356
0.0266532
0.0412804
0.0530296
0.0619595
0.0682993
0.0723816
0.0745848
0.0752903
0.0748513
0.0735756
0.0717168
0.069474
0.0669961
0.0643883
0.0617209
0.0590372
0.0563605
0.0537009
0.0510593
0.048432
0.0458125
0.0431935
0.0405683
0.0379305
0.0352753
0.0325987
0.0298982
0.0271719
0.024419
0.0216392
0.0188329
0.0159998
0.0131422
0.0102506
0.00736707
0.00432376
0.00193378
-0.119803
-0.117569
-0.112104
-0.102158
-0.0880062
-0.0703474
-0.0503019
-0.0292163
-0.00837843
0.011147
0.0285137
0.0431999
0.0550001
0.0639573
0.070293
0.0743376
0.0764723
0.0770833
0.0765301
0.0751267
0.0731327
0.0707522
0.0681383
0.0653996
0.0626089
0.059811
0.0570304
0.0542776
0.0515535
0.0488541
0.0461723
0.0435001
0.0408295
0.0381537
0.0354666
0.0327636
0.030041
0.0272964
0.0245281
0.0217353
0.0189176
0.0160742
0.0132069
0.0103026
0.007413
0.004323
0.00210715
-0.119801
-0.117572
-0.112107
-0.102154
-0.0879989
-0.0703415
-0.0502993
-0.0292165
-0.00837971
0.0111457
0.0285119
0.043198
0.0549984
0.0639561
0.070292
0.0743366
0.0764711
0.0770816
0.076528
0.0751241
0.0731299
0.0707494
0.0681357
0.0653974
0.0626072
0.0598099
0.0570298
0.0542773
0.0515535
0.0488542
0.0461724
0.0435
0.0408294
0.0381534
0.0354662
0.0327631
0.0300404
0.0272958
0.0245277
0.0217349
0.0189173
0.0160739
0.0132066
0.0103025
0.0074131
0.00432274
0.00210756
-0.133148
-0.125503
-0.116901
-0.105654
-0.0908014
-0.0726828
-0.0523573
-0.0311101
-0.0101902
0.00933094
0.0266484
0.0412745
0.0530242
0.0619552
0.068296
0.0723787
0.0745817
0.0752862
0.074846
0.073569
0.0717095
0.0694665
0.066989
0.0643822
0.0617162
0.0590339
0.0563585
0.0536998
0.0510589
0.0484319
0.0458124
0.0431932
0.0405676
0.0379295
0.035274
0.0325973
0.0298967
0.0271705
0.0244177
0.0216382
0.018832
0.0159991
0.0131416
0.0102501
0.00736685
0.00432369
0.00193487
-0.157862
-0.135768
-0.120987
-0.10851
-0.0930423
-0.0744003
-0.0539525
-0.0329267
-0.0123995
0.00665526
0.0234895
0.0376667
0.0490477
0.0577226
0.0639337
0.0680108
0.070318
0.0712161
0.0710356
0.0700625
0.0685308
0.0666236
0.0644765
0.0621852
0.0598131
0.0573992
0.0549644
0.0525183
0.0500624
0.0475946
0.0451105
0.0426054
0.0400751
0.037516
0.0349256
0.0323025
0.0296457
0.0269555
0.0242324
0.0214777
0.0186927
0.0158788
0.0130388
0.010169
0.00729674
0.00433022
0.00165513
-0.167544
-0.140123
-0.121526
-0.107499
-0.0914379
-0.0727278
-0.0528735
-0.0329638
-0.0137932
0.00386494
0.0193815
0.0324092
0.0428791
0.0509231
0.0567921
0.0607958
0.0632587
0.0644923
0.0647761
0.0643485
0.0634029
0.0620895
0.0605196
0.0587719
0.0568986
0.0549331
0.0528943
0.0507925
0.0486321
0.0464148
0.0441408
0.0418102
0.0394236
0.036982
0.034487
0.0319409
0.0293462
0.026706
0.0240232
0.0213014
0.0185437
0.0157536
0.0129346
0.0100895
0.00722891
0.00434022
0.00137498
-0.152282
-0.129671
-0.11186
-0.0977695
-0.0827908
-0.0659657
-0.0483611
-0.0309283
-0.0143164
0.000889899
0.0142267
0.0254592
0.0345843
0.0417514
0.047191
0.0511579
0.0539057
0.0556654
0.0566403
0.0569993
0.0568801
0.0563881
0.0556035
0.0545832
0.0533682
0.0519857
0.0504551
0.0487891
0.0469982
0.04509
0.0430724
0.0409521
0.0387368
0.0364332
0.0340489
0.0315908
0.0290659
0.0264806
0.0238415
0.0211541
0.0184245
0.0156576
0.0128586
0.0100337
0.00718351
0.00434425
0.00119013
-0.103856
-0.0951341
-0.0854458
-0.0762006
-0.0658454
-0.0537305
-0.0405249
-0.0271214
-0.0141924
-0.00223606
0.00840239
0.017562
0.0252485
0.0315737
0.0366943
0.0407746
0.0439674
0.046408
0.0482116
0.0494748
0.0502762
0.0506791
0.0507334
0.0504785
0.0499456
0.04916
0.0481428
0.0469128
0.0454872
0.0438822
0.0421132
0.0401953
0.0381429
0.0359696
0.0336885
0.0313116
0.02885
0.0263139
0.0237128
0.0210551
0.0183486
0.0156004
0.0128163
0.0100044
0.00716219
0.00433559
0.00113583
-0.0469754
-0.0528472
-0.053811
-0.0520044
-0.0477474
-0.0411376
-0.0328507
-0.0237581
-0.0145504
-0.00568767
0.00253854
0.00998041
0.0165956
0.0224105
0.0274753
0.031848
0.0355797
0.0387193
0.0413084
0.0433876
0.0449917
0.0461556
0.0469089
0.0472817
0.0473005
0.0469924
0.0463818
0.0454944
0.0443534
0.0429831
0.0414053
0.0396424
0.0377136
0.035639
0.0334351
0.0311186
0.0287034
0.0262032
0.023629
0.0209922
0.0183013
0.0155656
0.0127913
0.00998661
0.00715185
0.00431639
0.00118004
-0.00470608
-0.0202156
-0.0292143
-0.033596
-0.0343811
-0.0322356
-0.027924
-0.0222409
-0.0158218
-0.00911486
-0.00242236
0.00405254
0.0101835
0.0158906
0.0211262
0.0258583
0.03007
0.033753
0.0369103
0.0395503
0.0416894
0.0433466
0.0445463
0.0453132
0.0456758
0.0456618
0.0453011
0.0446222
0.0436548
0.0424265
0.040965
0.0392953
0.0374418
0.0354261
0.033269
0.0309883
0.0286011
0.0261215
0.0235636
0.0209383
0.0182568
0.0155279
0.0127598
0.00995886
0.00713361
0.00428766
0.00125757
0.0194991
-0.001994
-0.0164292
-0.0251918
-0.0294183
-0.0300538
-0.0279814
-0.0240082
-0.0187991
-0.0128631
-0.00657914
-0.000226696
0.00599017
0.0119242
0.0174709
0.0225578
0.0271382
0.0311854
0.0346886
0.0376494
0.0400787
0.0419944
0.0434199
0.0443821
0.0449106
0.0450371
0.0447938
0.0442128
0.0433255
0.0421625
0.0407531
0.0391249
0.0373037
0.0353132
0.0331749
0.0309084
0.0285312
0.026059
0.0235059
0.0208841
0.0182048
0.0154778
0.0127112
0.00991286
0.00709336
0.0042447
0.00131062
0.0267344
0.00189552
-0.0153891
-0.0262854
-0.0319748
-0.0335454
-0.0319885
-0.0281872
-0.0228881
-0.0166879
-0.0100435
-0.00329307
0.00332
0.00962603
0.0155102
0.0208977
0.0257432
0.0300227
0.0337279
0.0368631
0.0394416
0.0414834
0.0430139
0.0440627
0.0446617
0.0448448
0.0446463
0.0441003
0.0432397
0.0420968
0.0407019
0.0390838
0.0372691
0.0352822
0.0331454
0.0308787
0.0285001
0.0260258
0.02347
0.0208454
0.0181633
0.0154334
0.0126647
0.00986534
0.00704202
0.00420116
0.0013329
)
;

boundaryField
{
    inlet
    {
        type            zeroGradient;
    }
    outlet
    {
        type            fixedValue;
        value           uniform 0;
    }
    upperWall
    {
        type            zeroGradient;
    }
    lowerWall
    {
        type            zeroGradient;
    }
    frontAndBack
    {
        type            empty;
    }
}


// ************************************************************************* //
