/*--------------------------------*- C++ -*----------------------------------*\
| =========                 |                                                 |
| \\      /  F ield         | OpenFOAM: The Open Source CFD Toolbox           |
|  \\    /   O peration     | Version:  2406                                  |
|   \\  /    A nd           | Website:  www.openfoam.com                      |
|    \\/     M anipulation  |                                                 |
\*---------------------------------------------------------------------------*/
FoamFile
{
    version     2.0;
    format      ascii;
    arch        "LSB;label=32;scalar=64";
    class       surfaceScalarField;
    location    "39";
    object      phi;
}
// * * * * * * * * * * * * * * * * * * * * * * * * * * * * * * * * * * * * * //

dimensions      [0 3 -1 0 0 0 0];

oriented        oriented;

internalField   nonuniform List<scalar> 
3796
(
0.00992599
-0.000175983
0.0101084
-0.000182311
0.0102342
-0.000125674
0.0103206
-8.63905e-05
0.0103832
-6.26275e-05
0.0104292
-4.60025e-05
0.0104632
-3.38698e-05
0.010489
-2.56655e-05
0.0105094
-2.03833e-05
0.0105262
-1.68685e-05
0.0105402
-1.41546e-05
0.010552
-1.1878e-05
0.010562
-1.00113e-05
0.0105709
-8.69964e-06
0.0105789
-7.86645e-06
0.0105865
-7.51054e-06
0.010594
-7.40173e-06
0.0106016
-7.54385e-06
0.0106093
-7.84487e-06
0.0106177
-8.41017e-06
0.0106268
-9.31235e-06
0.0106375
-1.07343e-05
0.0106504
-1.28336e-05
0.0106663
-1.58841e-05
0.0106866
-2.0129e-05
0.0107127
-2.60173e-05
0.0107468
-3.39959e-05
0.0107918
-4.48468e-05
0.0108514
-5.94599e-05
0.0109307
-7.92298e-05
0.0110366
-0.00010589
0.0111786
-0.000141959
0.0113694
-0.000190711
0.0116262
-0.000256708
0.0119722
-0.000345948
0.0124389
-0.000466505
0.0130679
-0.000628742
0.013914
-0.000845794
0.0150476
-0.00113313
0.0165556
-0.00150758
0.01854
-0.00198386
0.0211093
-0.00256851
0.0243593
-0.00324924
0.0283389
-0.00397877
0.0330011
-0.00466037
0.0381137
-0.0051103
-0.00514022
0.0432543
0.027677
-0.000102909
0.0276792
-0.000184467
0.0277275
-0.000173838
0.0277876
-0.000146328
0.0278475
-0.00012246
0.0279027
-0.00010118
0.0279512
-8.23573e-05
0.0279929
-6.72201e-05
0.0280286
-5.59125e-05
0.0280593
-4.75646e-05
0.028086
-4.0953e-05
0.0281093
-3.53444e-05
0.0281299
-3.05868e-05
0.0281482
-2.68944e-05
0.0281649
-2.43237e-05
0.0281806
-2.28881e-05
0.0281957
-2.23229e-05
0.0282108
-2.25117e-05
0.0282263
-2.33234e-05
0.0282426
-2.48639e-05
0.0282604
-2.73399e-05
0.0282807
-3.11452e-05
0.0283046
-3.67643e-05
0.0283336
-4.48785e-05
0.0283699
-5.62697e-05
0.0284162
-7.20579e-05
0.0284761
-9.35933e-05
0.0285544
-0.000122832
0.0286574
-0.000162271
0.0287938
-0.000215436
0.0289751
-0.000286954
0.0292164
-0.000383189
0.0295384
-0.000512547
0.0299682
-0.000686326
0.0305418
-0.000919326
0.0313065
-0.00123086
0.0323236
-0.00164541
0.0336715
-0.00219313
0.0354483
-0.00290914
0.0377725
-0.00383091
0.0407816
-0.00499188
0.0446244
-0.00641003
0.0494427
-0.00806628
0.0553425
-0.00987724
0.0623362
-0.0116529
0.0702196
-0.0129944
-0.0135222
0.0785996
0.043703
-5.59422e-05
0.0436491
-0.000130391
0.0436242
-0.000148827
0.0436217
-0.000143745
0.0436332
-0.000134054
0.0436538
-0.000121694
0.0436789
-0.000107443
0.0437055
-9.36288e-05
0.0437318
-8.19565e-05
0.0437568
-7.25282e-05
0.0437804
-6.44891e-05
0.0438022
-5.72179e-05
0.0438222
-5.06872e-05
0.0438406
-4.52777e-05
0.0438577
-4.13932e-05
0.0438741
-3.90615e-05
0.0438902
-3.81825e-05
0.0439065
-3.85066e-05
0.0439233
-3.99234e-05
0.0439411
-4.25342e-05
0.0439603
-4.66435e-05
0.0439819
-5.28523e-05
0.0440069
-6.19531e-05
0.0440369
-7.50096e-05
0.044074
-9.33893e-05
0.0441209
-0.00011882
0.0441811
-0.00015363
0.0442594
-0.000200843
0.044362
-0.000264593
0.0444972
-0.000350373
0.0446762
-0.000465623
0.0449134
-0.000620266
0.0452286
-0.000827555
0.0456474
-0.001105
0.0462039
-0.00147559
0.0469422
-0.00196905
0.0479202
-0.00262316
0.0492121
-0.00348465
0.0509123
-0.00460894
0.0531395
-0.00605767
0.0560392
-0.00789128
0.0597853
-0.0101557
0.0645711
-0.012853
0.0706037
-0.0159124
0.0780389
-0.0190897
0.0868681
-0.0218235
-0.0236754
0.0970131
0.0577275
-3.33811e-05
0.057684
-8.69413e-05
0.057647
-0.000111754
0.0576211
-0.000117735
0.0576046
-0.000117391
0.0575962
-0.000113365
0.0575945
-0.000105971
0.0575979
-9.69954e-05
0.0576046
-8.84467e-05
0.0576135
-8.10298e-05
0.0576238
-7.43533e-05
0.0576346
-6.78634e-05
0.0576453
-6.16088e-05
0.0576558
-5.61225e-05
0.0576662
-5.20229e-05
0.0576767
-4.96107e-05
0.0576876
-4.89029e-05
0.0576993
-4.97146e-05
0.0577118
-5.19466e-05
0.0577253
-5.56717e-05
0.05774
-6.1288e-05
0.0577566
-6.94835e-05
0.0577758
-8.13023e-05
0.0577986
-9.8099e-05
0.0578267
-0.000121658
0.057862
-0.000154237
0.0579073
-0.000198824
0.057966
-0.000259325
0.0580426
-0.000340996
0.0581434
-0.00045084
0.0582764
-0.000598286
0.0584523
-0.000795901
0.0586855
-0.00106047
0.0589948
-0.00141416
0.0594056
-0.00188622
0.0599514
-0.00251472
0.0606771
-0.00334877
0.0616432
-0.00445062
0.0629318
-0.00589739
0.0646553
-0.00778124
0.0669692
-0.0102053
0.0700861
-0.0132739
0.074287
-0.0170574
0.0799425
-0.0215701
0.0874248
-0.0265748
0.0972199
-0.031628
-0.0367131
0.110266
0.0697379
-2.13645e-05
0.0697098
-5.86895e-05
0.0696796
-8.134e-05
0.0696528
-9.08406e-05
0.0696298
-9.4428e-05
0.0696107
-9.45722e-05
0.0695959
-9.14402e-05
0.0695851
-8.6298e-05
0.0695779
-8.08682e-05
0.0695734
-7.59937e-05
0.0695711
-7.14329e-05
0.0695703
-6.66825e-05
0.0695703
-6.17279e-05
0.0695708
-5.7187e-05
0.069572
-5.37242e-05
0.0695738
-5.18817e-05
0.0695767
-5.1747e-05
0.0695806
-5.32577e-05
0.0695856
-5.6307e-05
0.0695915
-6.09849e-05
0.0695984
-6.76849e-05
0.0696063
-7.71622e-05
0.0696155
-9.05267e-05
0.0696264
-0.000109326
0.0696399
-0.000135501
0.069657
-0.000171637
0.069679
-0.000220999
0.0697076
-0.000287986
0.0697451
-0.000378354
0.0697944
-0.000499885
0.0698594
-0.000662931
0.0699453
-0.000881413
0.0700591
-0.00117386
0.0702102
-0.00156498
0.0704117
-0.00208752
0.070682
-0.00278481
0.0710472
-0.00371386
0.0715461
-0.00494944
0.0722378
-0.00658907
0.0732154
-0.00875899
0.0746301
-0.0116205
0.0767298
-0.0153754
0.0799227
-0.0202519
0.0848439
-0.0264955
0.0923469
-0.0340852
0.103756
-0.0430265
-0.0536982
0.120743
0.0797428
-1.41461e-05
0.0797243
-4.01669e-05
0.0797013
-5.82602e-05
0.0796783
-6.76425e-05
0.0796563
-7.23353e-05
0.0796356
-7.4145e-05
0.0796168
-7.32524e-05
0.0796006
-7.04443e-05
0.0795871
-6.70815e-05
0.0795759
-6.40006e-05
0.0795665
-6.10765e-05
0.0795584
-5.78877e-05
0.079551
-5.43721e-05
0.0795442
-5.09795e-05
0.0795379
-4.84152e-05
0.0795324
-4.72021e-05
0.0795278
-4.75792e-05
0.0795244
-4.95434e-05
0.0795218
-5.30268e-05
0.0795199
-5.81258e-05
0.0795183
-6.51808e-05
0.0795166
-7.49047e-05
0.0795146
-8.83736e-05
0.0795121
-0.000107075
0.0795091
-0.000132964
0.0795055
-0.000168551
0.0795011
-0.000217115
0.0794958
-0.000282945
0.0794892
-0.000371744
0.0794806
-0.000491126
0.0794693
-0.000651296
0.0794542
-0.000865941
0.0794342
-0.0011534
0.0794079
-0.00153826
0.0793742
-0.00205345
0.0793328
-0.00274311
0.0792857
-0.00366665
0.0792407
-0.00490433
0.0792172
-0.0065655
0.0792591
-0.00880102
0.0794607
-0.0118227
0.0800192
-0.0159348
0.0813526
-0.0215876
0.0843047
-0.0294527
0.0906878
-0.0404622
0.103296
-0.0556367
-0.0720323
0.121644
0.0877452
-9.3701e-06
0.087732
-2.69254e-05
0.0877142
-4.01646e-05
0.0876947
-4.79192e-05
0.0876746
-5.23209e-05
0.0876546
-5.45057e-05
0.0876352
-5.45788e-05
0.0876175
-5.30862e-05
0.0876017
-5.10681e-05
0.0875878
-4.91873e-05
0.0875753
-4.74091e-05
0.0875637
-4.53718e-05
0.0875524
-4.29941e-05
0.0875413
-4.06155e-05
0.0875305
-3.88177e-05
0.0875202
-3.80953e-05
0.0875107
-3.87045e-05
0.0875018
-4.06835e-05
0.0874935
-4.40099e-05
0.0874853
-4.8743e-05
0.0874764
-5.51835e-05
0.0874663
-6.39073e-05
0.0874543
-7.58483e-05
0.0874394
-9.22812e-05
0.0874209
-0.00011491
0.0873976
-0.000145922
0.087368
-0.000188177
0.0873299
-0.000245409
0.0872804
-0.000322584
0.0872156
-0.000426321
0.0871301
-0.000565515
0.0870167
-0.000752107
0.086866
-0.00100218
0.0866656
-0.00133741
0.0863997
-0.00178708
0.0860479
-0.00239093
0.0855848
-0.00320328
0.0849797
-0.00429907
0.0841973
-0.00578319
0.083201
-0.00780503
0.0819606
-0.010583
0.0804696
-0.0144452
0.0787955
-0.0199168
0.0772014
-0.0278578
0.0767805
-0.0400475
0.0808609
-0.0597091
-0.0871478
0.0959826
0.0937464
-5.74721e-06
0.0937362
-1.66667e-05
0.0937215
-2.52884e-05
0.0937045
-3.06744e-05
0.0936862
-3.39423e-05
0.0936671
-3.57576e-05
0.0936479
-3.61531e-05
0.0936297
-3.54548e-05
0.093613
-3.43321e-05
0.093598
-3.32456e-05
0.0935842
-3.22005e-05
0.0935709
-3.09855e-05
0.0935578
-2.95267e-05
0.0935445
-2.80478e-05
0.0935313
-2.69435e-05
0.0935182
-2.65699e-05
0.0935057
-2.71361e-05
0.0934935
-2.86922e-05
0.0934814
-3.12419e-05
0.0934687
-3.48438e-05
0.0934547
-3.971e-05
0.0934382
-4.62686e-05
0.0934183
-5.51855e-05
0.0933935
-6.74013e-05
0.0933624
-8.41564e-05
0.0933227
-0.000107066
0.0932719
-0.000138232
0.0932061
-0.00018041
0.0931203
-0.000237261
0.0930074
-0.000313668
0.0928583
-0.000416201
0.0926602
-0.000553696
0.0923967
-0.000738094
0.0920455
-0.000985551
0.091577
-0.00131804
0.0909521
-0.00176562
0.0901189
-0.00236975
0.0890083
-0.0031883
0.087528
-0.0043031
0.0855541
-0.00583159
0.0829153
-0.00794515
0.0793641
-0.0108958
0.0745074
-0.0150621
0.0676318
-0.0209868
0.0571432
-0.0295591
0.0390345
-0.0416032
-0.0481145
0.097747
-2.7608e-06
0.0977384
-7.98835e-06
0.0977255
-1.22103e-05
0.0977101
-1.49487e-05
0.0976929
-1.66922e-05
0.0976744
-1.7725e-05
0.0976555
-1.80304e-05
0.0976371
-1.77658e-05
0.0976201
-1.72574e-05
0.0976046
-1.67455e-05
0.0975901
-1.62513e-05
0.0975761
-1.56817e-05
0.097562
-1.5007e-05
0.0975476
-1.43297e-05
0.097533
-1.38402e-05
0.0975185
-1.37173e-05
0.0975043
-1.40605e-05
0.0974901
-1.4908e-05
0.0974758
-1.62655e-05
0.0974604
-1.81793e-05
0.097443
-2.07719e-05
0.0974224
-2.42734e-05
0.0973972
-2.90418e-05
0.0973656
-3.5568e-05
0.0973256
-4.45058e-05
0.0972744
-5.67031e-05
0.0972084
-7.32666e-05
0.0971228
-9.56554e-05
0.0970106
-0.000125804
0.0968629
-0.000166308
0.0966674
-0.000220651
0.0964076
-0.000293536
0.0960614
-0.00039132
0.0955992
-0.000522636
0.094981
-0.000699252
0.0941533
-0.000937342
0.0930432
-0.00125932
0.0915516
-0.00169658
0.089542
-0.00229365
0.0868241
-0.0031143
0.0831285
-0.00425062
0.0780657
-0.00583504
0.0710578
-0.00805678
0.0612333
-0.0111649
0.047147
-0.0154782
0.0263622
-0.0208239
-0.0217537
0.0997472
-4.69734e-09
0.0997393
1.41258e-08
0.0997273
6.63405e-09
0.0997127
-5.87843e-09
0.099696
1.87696e-09
0.0996779
7.62513e-09
0.099659
-2.04352e-08
0.0996407
-7.00002e-08
0.0996235
-9.29927e-08
0.0996078
-5.9364e-08
0.099593
6.66939e-09
0.0995786
4.84508e-08
0.0995641
2.97516e-08
0.0995492
-5.43828e-08
0.099534
-1.69687e-07
0.0995189
-2.70489e-07
0.0995038
-3.23982e-07
0.0994888
-3.15654e-07
0.0994734
-2.61136e-07
0.0994567
-1.87653e-07
0.0994377
-1.265e-07
0.099415
-1.03355e-07
0.099387
-1.25617e-07
0.099352
-1.92794e-07
0.0993074
-2.88888e-07
0.0992503
-3.98621e-07
0.0991765
-5.05435e-07
0.0990804
-5.98482e-07
0.0989546
-6.74462e-07
0.0987886
-7.34149e-07
0.0985687
-7.84642e-07
0.0982763
-8.33383e-07
0.0978865
-8.88393e-07
0.0973655
-9.56672e-07
0.096668
-1.04114e-06
0.0957323
-1.1464e-06
0.0944747
-1.27216e-06
0.0927797
-1.42609e-06
0.0904874
-1.60045e-06
0.0873743
-1.79561e-06
0.0831246
-2.02795e-06
0.0772896
-2.17857e-06
0.0692326
-2.35335e-06
0.0580663
-2.59733e-06
0.0425855
-2.23277e-06
0.0217565
1.72061e-06
1.21597e-08
0.0997472
2.7655e-06
0.0997393
7.95264e-06
0.0997273
1.22194e-05
0.0997127
1.49894e-05
0.099696
1.67292e-05
0.0996778
1.772e-05
0.099659
1.79453e-05
0.0996407
1.76083e-05
0.0996236
1.71048e-05
0.0996078
1.66821e-05
0.0995931
1.62971e-05
0.0995786
1.57701e-05
0.099564
1.502e-05
0.0995491
1.41707e-05
0.0995339
1.34747e-05
0.0995188
1.3185e-05
0.0995038
1.3457e-05
0.0994888
1.43337e-05
0.0994734
1.57973e-05
0.0994567
1.78383e-05
0.0994377
2.05256e-05
0.0994149
2.40532e-05
0.0993869
2.8761e-05
0.0993518
3.51539e-05
0.0993072
4.39071e-05
0.0992501
5.59015e-05
0.0991763
7.22702e-05
0.0990802
9.44886e-05
0.0989544
0.000124499
0.0987884
0.000164889
0.0985685
0.000219133
0.0982761
0.000291918
0.0978862
0.000389587
0.0973652
0.000520761
0.0966676
0.000697203
0.0957319
0.000935082
0.0944742
0.0012568
0.0927791
0.00169377
0.0904868
0.00229049
0.0873736
0.00311073
0.0831239
0.00424668
0.0772889
0.00583059
0.0692317
0.0080521
0.0580661
0.0111604
0.0425886
0.0154773
0.0217547
0.0208198
0.0217545
0.097747
5.74117e-06
0.0977384
1.66913e-05
0.0977256
2.53067e-05
0.0977101
3.06806e-05
0.0976929
3.39523e-05
0.0976743
3.57658e-05
0.0976554
3.61144e-05
0.0976372
3.53486e-05
0.0976202
3.42043e-05
0.0976047
3.31761e-05
0.0975902
3.22179e-05
0.097576
3.10337e-05
0.0975617
2.95077e-05
0.0975473
2.78773e-05
0.0975328
2.65987e-05
0.0975184
2.60971e-05
0.0975042
2.66173e-05
0.0974902
2.82144e-05
0.0974758
3.08552e-05
0.0974604
3.45522e-05
0.0974429
3.94742e-05
0.0974222
4.60217e-05
0.0973968
5.48597e-05
0.0973651
6.69407e-05
0.097325
8.35311e-05
0.0972738
0.000106271
0.0972079
0.00013728
0.0971222
0.000179324
0.0970101
0.000236063
0.0968624
0.000312375
0.0966668
0.000414814
0.0964069
0.000552207
0.0960606
0.000736481
0.0955982
0.000983788
0.0949799
0.0013161
0.094152
0.00176345
0.0930418
0.00236734
0.09155
0.00318559
0.0895402
0.00430006
0.0868222
0.00582818
0.0831264
0.00794131
0.0780637
0.0108916
0.0710562
0.0150577
0.061236
0.0209836
0.0471458
0.0295546
0.0263641
0.0416049
0.0481149
0.0937464
9.37318e-06
0.0937362
2.6914e-05
0.0937215
4.01945e-05
0.0937045
4.79529e-05
0.0936861
5.23312e-05
0.0936669
5.44785e-05
0.0936478
5.45091e-05
0.0936297
5.3006e-05
0.0936132
5.10187e-05
0.0935982
4.91892e-05
0.0935842
4.74312e-05
0.0935707
4.53578e-05
0.0935574
4.28844e-05
0.093544
4.03933e-05
0.0935308
3.85029e-05
0.093518
3.77401e-05
0.0935056
3.83603e-05
0.0934935
4.03857e-05
0.0934815
4.37581e-05
0.0934687
4.85142e-05
0.0934545
5.49308e-05
0.0934379
6.35898e-05
0.0934177
7.54285e-05
0.0933928
9.17454e-05
0.0933615
0.000114254
0.0933219
0.000145161
0.093271
0.000187322
0.0932053
0.000244476
0.0931194
0.000321574
0.0930065
0.000425233
0.0928572
0.000564332
0.092659
0.000750812
0.0923953
0.00100075
0.0920439
0.00133581
0.0915752
0.00178529
0.0909501
0.00238893
0.0901166
0.00320103
0.0890057
0.00429657
0.0875251
0.00578039
0.085551
0.00780192
0.0829118
0.0105794
0.0793611
0.0144415
0.0745064
0.0199126
0.067632
0.0278542
0.0571466
0.0400449
0.0390335
0.0597082
0.0871495
0.0877452
1.41508e-05
0.0877321
4.01845e-05
0.0877142
5.82744e-05
0.0876946
6.76473e-05
0.0876745
7.23197e-05
0.0876544
7.4126e-05
0.0876351
7.32348e-05
0.0876175
7.0431e-05
0.0876019
6.70834e-05
0.087588
6.39978e-05
0.0875753
6.10453e-05
0.0875634
5.77945e-05
0.0875518
5.42033e-05
0.0875407
5.07666e-05
0.08753
4.81952e-05
0.0875199
4.70153e-05
0.0875106
4.74394e-05
0.087502
4.94258e-05
0.0874937
5.28975e-05
0.0874853
5.7931e-05
0.0874762
6.48909e-05
0.0874658
7.45024e-05
0.0874535
8.78666e-05
0.0874384
0.000106487
0.0874198
0.000132319
0.0873965
0.000167873
0.0873668
0.000216413
0.0873287
0.000282215
0.0872792
0.000370972
0.0872143
0.000490284
0.0871287
0.000650358
0.087015
0.000864874
0.0868641
0.00115219
0.0866635
0.00153687
0.0863973
0.00205187
0.0860452
0.00274133
0.0855817
0.00366465
0.0849762
0.0049021
0.0841934
0.00656305
0.0831967
0.00879829
0.0819561
0.0118198
0.0804654
0.0159314
0.0787943
0.0215843
0.0772017
0.0294477
0.076785
0.0404588
0.0808643
0.0556323
0.0720302
0.0959818
0.0797428
2.136e-05
0.0797243
5.86927e-05
0.0797014
8.13481e-05
0.0796783
9.08315e-05
0.0796561
9.44208e-05
0.0796353
9.45625e-05
0.0796167
9.14765e-05
0.0796007
8.63693e-05
0.0795873
8.09316e-05
0.0795761
7.59829e-05
0.0795665
7.13113e-05
0.079558
6.64704e-05
0.0795503
6.15122e-05
0.0795434
5.70179e-05
0.0795373
5.36719e-05
0.0795321
5.19148e-05
0.0795278
5.18273e-05
0.0795245
5.3301e-05
0.0795219
5.62449e-05
0.0795198
6.07749e-05
0.0795179
6.73254e-05
0.0795158
7.66771e-05
0.0795136
8.99767e-05
0.0795109
0.000108748
0.0795078
0.000134951
0.0795042
0.000171112
0.0794998
0.000220513
0.0794944
0.000287496
0.0794877
0.000377839
0.079479
0.000499291
0.0794675
0.000662234
0.0794522
0.000880572
0.079432
0.00117286
0.0794053
0.00156381
0.0793713
0.00208618
0.0793294
0.00278329
0.079282
0.00371216
0.0792365
0.00494757
0.0792125
0.00658701
0.0792539
0.00875673
0.0794553
0.011618
0.0800143
0.0153725
0.0813491
0.0202485
0.0843067
0.026491
0.0906897
0.0340772
0.1033
0.0430193
0.0536891
0.121646
0.0697379
3.33771e-05
0.0697098
8.69147e-05
0.0696796
0.000111726
0.0696527
0.000117734
0.0696296
0.000117391
0.0696105
0.000113393
0.0695958
0.000106053
0.0695853
9.71271e-05
0.0695781
8.85272e-05
0.0695736
8.09898e-05
0.069571
7.4156e-05
0.0695698
6.75979e-05
0.0695695
6.13854e-05
0.0695701
5.60522e-05
0.0695714
5.21213e-05
0.0695736
4.98382e-05
0.0695767
4.91366e-05
0.0695807
4.98567e-05
0.0695856
5.18994e-05
0.0695913
5.54291e-05
0.0695979
6.08669e-05
0.0696055
6.897e-05
0.0696144
8.0763e-05
0.0696251
9.76147e-05
0.0696385
0.000121251
0.0696556
0.000153925
0.0696775
0.000198566
0.0697061
0.000259089
0.0697435
0.000340716
0.0697927
0.000450484
0.0698575
0.000597804
0.0699431
0.000795287
0.0700565
0.0010597
0.0702072
0.00141325
0.0704084
0.00188516
0.0706782
0.00251353
0.071043
0.00334745
0.0715413
0.00444919
0.0722324
0.00589586
0.0732095
0.0077796
0.0746236
0.0102036
0.0767238
0.013272
0.0799174
0.0170546
0.0848411
0.0215669
0.0923487
0.026569
0.103757
0.0316169
0.0367038
0.120746
0.0577275
5.59389e-05
0.057684
0.000130408
0.057647
0.000148814
0.0576211
0.000143704
0.0576044
0.000134009
0.0575959
0.00012172
0.0575944
0.000107581
0.057598
9.3821e-05
0.0576048
8.20559e-05
0.0576136
7.24065e-05
0.0576235
6.42215e-05
0.0576339
5.69292e-05
0.0576445
5.05382e-05
0.0576551
4.535e-05
0.0576657
4.16341e-05
0.0576766
3.93845e-05
0.0576877
3.84446e-05
0.0576994
3.86028e-05
0.0577118
3.98237e-05
0.057725
4.22343e-05
0.0577394
4.62359e-05
0.0577557
5.24006e-05
0.0577746
6.15511e-05
0.0577973
7.47003e-05
0.0578253
9.31867e-05
0.0578606
0.000118712
0.0579058
0.000153567
0.0579644
0.000200783
0.058041
0.000264482
0.0581416
0.000350178
0.0582743
0.000465323
0.05845
0.00061985
0.0586828
0.000827029
0.0589918
0.00110437
0.0594021
0.00147487
0.0599475
0.00196826
0.0606727
0.00262232
0.0616382
0.00348379
0.0629262
0.00460813
0.064649
0.00605694
0.0669621
0.00789073
0.0700788
0.0101555
0.074281
0.0128529
0.0799372
0.0159114
0.0874213
0.0190882
0.097223
0.0218208
0.0236659
0.110269
0.043703
0.000102923
0.0436491
0.000184478
0.0436242
0.000173872
0.0436216
0.000146336
0.0436331
0.000122438
0.0436535
0.000101167
0.0436788
8.2466e-05
0.0437056
6.73759e-05
0.0437319
5.59857e-05
0.0437568
4.74424e-05
0.0437801
4.06973e-05
0.0438016
3.51106e-05
0.0438215
3.05388e-05
0.0438399
2.70453e-05
0.0438574
2.46417e-05
0.0438741
2.31984e-05
0.0438904
2.25334e-05
0.0439067
2.25184e-05
0.0439233
2.31446e-05
0.0439407
2.45467e-05
0.0439596
2.69827e-05
0.0439809
3.08246e-05
0.0440057
3.65522e-05
0.0440356
4.4776e-05
0.0440727
5.62855e-05
0.0441195
7.21231e-05
0.0441797
9.36899e-05
0.044258
0.000122882
0.0443605
0.000162272
0.0444955
0.000215341
0.0446742
0.00028679
0.0449112
0.000382938
0.045226
0.000512249
0.0456445
0.000685978
0.0462005
0.000918965
0.0469385
0.00123049
0.047916
0.00164507
0.0492073
0.00219285
0.050907
0.00290898
0.0531337
0.00383097
0.0560331
0.00499233
0.0597789
0.006411
0.0645655
0.00806814
0.0705997
0.00987971
0.0780373
0.0116551
0.0868681
0.0129953
0.0135217
0.0970186
0.027677
0.000175989
0.0276793
0.00018237
0.0277276
0.000125725
0.0277875
8.6384e-05
0.0278473
6.25805e-05
0.0279025
4.59957e-05
0.0279511
3.39889e-05
0.0279929
2.57792e-05
0.0280286
2.0398e-05
0.0280591
1.67423e-05
0.0280856
1.39866e-05
0.0281088
1.17727e-05
0.0281293
1.00481e-05
0.0281478
8.83837e-06
0.0281648
8.08568e-06
0.0281807
7.67989e-06
0.0281959
7.50284e-06
0.0282109
7.5108e-06
0.0282262
7.71991e-06
0.0282422
8.22012e-06
0.0282598
9.12418e-06
0.0282798
1.05847e-05
0.0283036
1.27643e-05
0.0283326
1.58806e-05
0.0283689
2.02003e-05
0.0284152
2.61056e-05
0.028475
3.41041e-05
0.0285533
4.49147e-05
0.0286562
5.95049e-05
0.0287925
7.92136e-05
0.0289735
0.000105846
0.0292146
0.00014187
0.0295363
0.000190616
0.0299657
0.000256595
0.030539
0.000345854
0.0313033
0.000466415
0.0323201
0.000628694
0.0336677
0.000845781
0.0354441
0.00113323
0.0377681
0.00150781
0.0407772
0.00198433
0.0446204
0.0025694
0.0494401
0.00325065
0.0553418
0.00398064
0.0623371
0.004663
0.0702227
0.00511317
0.00514135
0.0786045
0.00992601
0.0101084
0.0102342
0.0103205
0.0103831
0.0104291
0.0104631
0.0104889
0.0105093
0.010526
0.01054
0.0105517
0.0105618
0.0105707
0.0105789
0.0105866
0.0105941
0.0106016
0.0106093
0.0106175
0.0106266
0.0106371
0.0106499
0.0106658
0.010686
0.0107122
0.0107463
0.0107913
0.0108508
0.0109301
0.0110359
0.0111778
0.0113684
0.011625
0.0119709
0.0124374
0.0130662
0.0139121
0.0150455
0.0165535
0.0185381
0.0211078
0.024359
0.0283405
0.033004
0.0381172
0.0432583
0.0477152
-0.00446346
0.050741
-0.00302847
0.052001
-0.00126205
0.0516094
0.000390412
0.0498698
0.00173994
0.0027443
0.047127
0.086558
-0.0124276
0.0930869
-0.00956225
0.097758
-0.00593478
0.100554
-0.00240491
0.101523
0.000773443
0.00350416
0.100767
0.106849
-0.0222632
0.11482
-0.0175295
0.120668
-0.0117803
0.124565
-0.00629788
0.126705
-0.00136444
0.00287714
0.127332
0.122444
-0.0344368
0.130839
-0.0259175
0.135966
-0.0169002
0.138627
-0.00895635
0.139517
-0.00225557
0.00312818
0.139265
0.132949
-0.0466308
0.137147
-0.0301046
0.137126
-0.0168754
0.135369
-0.00720038
0.133235
-0.0001216
0.00510116
0.131259
0.12067
-0.0456447
0.110406
-0.0198356
0.100476
-0.00694489
0.0937313
-0.000455204
0.0906026
0.00300515
0.00571845
0.0899873
0.0503401
0.030505
0.0235603
0.0231048
0.0261107
0.0318293
0.0503346
0.0456431
0.0305004
0.0198343
0.023556
0.0069468
0.0230994
0.000457984
0.0261043
-0.00300178
-0.00571524
0.0318213
0.120665
0.0466243
0.110398
0.0301042
0.100466
0.0168789
0.0937192
0.00720448
0.0905903
0.000126327
-0.00509872
0.0899722
0.132949
0.0344272
0.137143
0.025912
0.137119
0.0169
0.135361
0.00895847
0.133224
0.00225681
-0.00312689
0.131248
0.122448
0.0222541
0.130839
0.0175206
0.135962
0.0117732
0.13862
0.0062932
0.139509
0.00136182
-0.00287812
0.139256
0.106854
0.0124213
0.114821
0.0095523
0.120666
0.00592456
0.124559
0.00239671
0.126698
-0.000777937
-0.00350524
0.127326
0.0865634
0.00446198
0.0930907
0.00302431
0.097759
0.00125697
0.100553
-0.000394935
0.101519
-0.00174297
-0.00274527
0.100761
0.0477203
0.0507453
0.0520032
0.0516088
0.0498664
0.0471216
0.043732
0.00339706
0.0400168
0.00371697
0.0362544
0.00376312
0.0326346
0.00361972
0.0292721
0.00336222
0.0262296
0.00304222
0.0235357
0.00269394
0.0211937
0.00234227
0.0191893
0.00200471
0.0174981
0.00169155
0.0160907
0.0014076
0.0149363
0.00115429
0.014005
0.000931191
0.013268
0.00073683
0.0126987
0.000569257
0.0122723
0.00042632
0.0119664
0.000305869
0.0117607
0.000205764
0.0116369
0.000123906
0.0115786
5.82497e-05
0.0115718
6.81894e-06
0.011604
-3.22856e-05
0.0116647
-6.08858e-05
0.0117452
-8.0657e-05
0.0118381
-9.31e-05
0.0119375
-9.96026e-05
0.0120387
-0.000101369
0.0121379
-9.94236e-05
0.0122324
-9.46574e-05
0.0123201
-8.78518e-05
0.0123997
-7.96671e-05
0.0124702
-7.06476e-05
0.0125313
-6.12252e-05
0.0125829
-5.17372e-05
0.0126252
-4.24338e-05
0.0126586
-3.34972e-05
0.0126836
-2.50465e-05
0.0127007
-1.71589e-05
0.0127105
-9.86562e-06
0.0127136
-3.16553e-06
0.0127106
2.97201e-06
0.0127019
8.56837e-06
0.0126881
1.37937e-05
0.0126693
1.86396e-05
0.0126455
2.3818e-05
0.012617
2.84482e-05
5.14009e-05
0.0985096
0.00565756
0.0950503
0.007178
0.0907018
0.00811235
0.0857533
0.00856842
0.080463
0.00865238
0.0750592
0.00844584
0.0697357
0.00801738
0.0646469
0.00743121
0.0599067
0.00674514
0.0555909
0.00600775
0.0517406
0.00525819
0.0483682
0.00452688
0.0454634
0.00383593
0.0430002
0.00319991
0.0409423
0.00262703
0.039248
0.0021206
0.0378735
0.00168036
0.0367757
0.00130357
0.0359137
0.000985954
0.0352497
0.000722311
0.0347494
0.000507005
0.0343826
0.000334332
0.0341228
0.000198689
0.0339471
9.47583e-05
0.0338361
1.75842e-05
0.0337734
-3.72813e-05
0.0337455
-7.37565e-05
0.0337411
-9.53702e-05
0.0337514
-0.000105244
0.0337693
-0.000106067
0.0337895
-0.000100106
0.0338078
-8.92486e-05
0.0338214
-7.50371e-05
0.0338282
-5.87132e-05
0.0338268
-4.12541e-05
0.0338165
-2.34137e-05
0.0337971
-5.75606e-06
0.0337685
1.13175e-05
0.033731
2.75468e-05
0.033685
4.27745e-05
0.0336309
5.69309e-05
0.0335693
7.00132e-05
0.0335007
8.21556e-05
0.0334259
9.33477e-05
0.0333448
0.000104869
0.0332596
0.000113553
0.000146425
0.126672
0.00631779
0.124927
0.00892304
0.122266
0.0107743
0.118824
0.0120125
0.114736
0.0127411
0.110158
0.0130242
0.105254
0.0129213
0.100187
0.012498
0.0951096
0.0118215
0.0901596
0.0109576
0.0854485
0.00996944
0.0810604
0.00891533
0.0770511
0.00784564
0.0734502
0.00680113
0.0702649
0.00581235
0.0674852
0.00490025
0.0650881
0.00407735
0.0630422
0.00334925
0.0613118
0.00271625
0.0598592
0.0021748
0.0586473
0.00171876
0.0576411
0.00134047
0.0568082
0.0010315
0.0561196
0.000783239
0.0555496
0.000587328
0.0550762
0.000435897
0.0546805
0.00032171
0.0543466
0.000238288
0.0540612
0.000179905
0.0538133
0.000141574
0.053594
0.000119018
0.0533959
0.000108617
0.0532133
0.000107357
0.0530417
0.000112759
0.0528775
0.000122817
0.052718
0.000135937
0.0525613
0.000150874
0.0524059
0.000166683
0.0522507
0.000182665
0.052095
0.000198328
0.0519385
0.000213353
0.0517809
0.000227546
0.051622
0.000240896
0.051462
0.000253178
0.0513013
0.000265561
0.0511411
0.000273704
0.000303598
0.138279
0.00730224
0.136812
0.0103901
0.134966
0.0126224
0.132736
0.0142446
0.130113
0.0153661
0.127111
0.0160265
0.123768
0.0162632
0.120145
0.0161199
0.116321
0.0156441
0.112388
0.0148901
0.108439
0.0139188
0.104561
0.0127944
0.100827
0.0115796
0.0972983
0.0103308
0.094015
0.00909588
0.0910024
0.00791266
0.0882709
0.0068085
0.0858186
0.00580118
0.0836343
0.0049002
0.0817005
0.00410834
0.0799958
0.00342333
0.0784969
0.00283932
0.0771802
0.00234817
0.076023
0.00194049
0.0750038
0.0016064
0.0741034
0.00133614
0.0733045
0.00112039
0.072592
0.000950546
0.0719528
0.000818876
0.0713757
0.000718529
0.0708509
0.000643551
0.0703705
0.00058884
0.0699277
0.000550087
0.0695166
0.0005237
0.0691326
0.00050672
0.0687717
0.000496748
0.0684307
0.000491864
0.0681067
0.000490557
0.0677977
0.000491662
0.0675017
0.000494304
0.0672171
0.000497847
0.0669427
0.000501844
0.0666774
0.000506026
0.0664204
0.000510086
0.0661715
0.000514361
0.0659289
0.000516295
0.000528015
0.129597
0.00896521
0.128402
0.0115866
0.127513
0.013514
0.126703
0.0150561
0.125818
0.0162519
0.124757
0.0170867
0.12346
0.0175588
0.121904
0.017674
0.1201
0.0174481
0.118076
0.016913
0.11588
0.0161157
0.113563
0.0151123
0.11118
0.0139632
0.108784
0.0127277
0.106421
0.0114596
0.104128
0.010205
0.101935
0.00900061
0.0998628
0.00787311
0.0979223
0.00684013
0.0961191
0.00591124
0.0944527
0.00508954
0.0929189
0.00437307
0.0915107
0.00375637
0.0902196
0.00323163
0.0890363
0.00278975
0.0879512
0.00242112
0.0869552
0.00211621
0.0860397
0.00186589
0.0851966
0.00166179
0.0844186
0.00149632
0.0836991
0.00136282
0.0830323
0.00125549
0.0824129
0.00116938
0.0818362
0.00110029
0.0812981
0.00104476
0.0807949
0.000999898
0.0803233
0.000963385
0.0798805
0.000933347
0.0794638
0.0009083
0.079071
0.000887097
0.0786999
0.00086886
0.0783487
0.000852956
0.0780157
0.000838885
0.0776992
0.000826491
0.0773987
0.000814724
0.0771085
0.000806576
0.000786423
0.0907202
0.00823326
0.0928348
0.00947387
0.0954481
0.0109018
0.0980651
0.0124391
0.100453
0.013863
0.102491
0.0150479
0.104127
0.0159218
0.105356
0.0164442
0.106196
0.0166082
0.106673
0.0164354
0.106824
0.0159659
0.106686
0.0152516
0.1063
0.01435
0.105708
0.0133196
0.104953
0.0122151
0.104073
0.0110851
0.103103
0.00996975
0.102075
0.00890013
0.101016
0.00789862
0.0999475
0.00697956
0.0988865
0.0061505
0.0978461
0.0054135
0.096836
0.00476654
0.095863
0.00420468
0.0949317
0.00372111
0.0940447
0.00330807
0.0932034
0.00295738
0.0924081
0.00266102
0.0916584
0.00241136
0.0909531
0.0022014
0.0902909
0.00202487
0.08967
0.00187624
0.0890886
0.00175074
0.0885445
0.00164428
0.0880358
0.00155343
0.0875603
0.00147532
0.0871161
0.0014076
0.0867011
0.00134834
0.0863134
0.00129599
0.0859511
0.00124933
0.0856125
0.00120739
0.0852959
0.0011695
0.0849996
0.00113503
0.0847218
0.00110414
0.0844622
0.00107446
0.0842129
0.00105571
0.00100036
0.0383639
0.00169965
0.0455354
0.00230241
0.0521275
0.00430811
0.0580467
0.00651838
0.0633551
0.0085535
0.0680917
0.0103106
0.0723035
0.0117093
0.0760353
0.012712
0.0793195
0.0133242
0.0821801
0.0135755
0.0846384
0.0135086
0.0867163
0.0131748
0.0884375
0.0126297
0.0898283
0.0119292
0.090918
0.0111255
0.091738
0.0102648
0.0923211
0.00938626
0.0927001
0.0085208
0.0929067
0.00769177
0.0929709
0.00691536
0.0929199
0.00620159
0.0927781
0.00555543
0.092567
0.00497785
0.0923048
0.00446696
0.0920072
0.00401885
0.0916868
0.00362839
0.0913543
0.00328983
0.091018
0.00299722
0.0906845
0.00274476
0.0903588
0.002527
0.0900446
0.00233894
0.0897446
0.00217614
0.0894607
0.00203466
0.0891938
0.00191113
0.0889446
0.00180265
0.0887131
0.00170679
0.0884992
0.00162151
0.0883024
0.00154512
0.0881222
0.00147625
0.0879577
0.00141378
0.0878082
0.00135683
0.0876729
0.00130479
0.0875508
0.00125702
0.0874409
0.00121406
0.0873427
0.00117244
0.0872513
0.00114728
0.00106861
0.00678793
-0.00508847
0.013042
-0.00395479
0.018494
-0.00114662
0.0236948
0.00131547
0.0287728
0.00347399
0.0337442
0.00533823
0.0386016
0.00685167
0.0433144
0.00799955
0.0478388
0.00880072
0.0521298
0.00928558
0.0561484
0.00949114
0.0598636
0.00946047
0.0632548
0.00923912
0.0663123
0.00887205
0.0690367
0.00840117
0.0714378
0.00786372
0.0735328
0.00729128
0.0753443
0.00670946
0.0768982
0.00613804
0.0782224
0.00559142
0.079345
0.0050793
0.0802933
0.00460745
0.0810929
0.00417851
0.0817672
0.00379278
0.0823373
0.00344884
0.0828216
0.00314412
0.0832359
0.00287542
0.0835939
0.00263919
0.0839068
0.00243181
0.084184
0.00224977
0.0844332
0.00208979
0.0846605
0.00194887
0.0848708
0.00182434
0.0850682