/*--------------------------------*- C++ -*----------------------------------*\
| =========                 |                                                 |
| \\      /  F ield         | OpenFOAM: The Open Source CFD Toolbox           |
|  \\    /   O peration     | Version:  2406                                  |
|   \\  /    A nd           | Website:  www.openfoam.com                      |
|    \\/     M anipulation  |                                                 |
\*---------------------------------------------------------------------------*/
FoamFile
{
    version     2.0;
    format      ascii;
    arch        "LSB;label=32;scalar=64";
    class       surfaceScalarField;
    location    "38";
    object      phi;
}
// * * * * * * * * * * * * * * * * * * * * * * * * * * * * * * * * * * * * * //

dimensions      [0 3 -1 0 0 0 0];

oriented        oriented;

internalField   nonuniform List<scalar> 
3680
(
0.0193873
-0.000387302
0.019863
-0.000475681
0.0202967
-0.000433697
0.0207519
-0.000455203
0.0212905
-0.000538686
0.0219712
-0.000680613
0.0228899
-0.000918711
0.0242256
-0.00133576
0.0264048
-0.00217915
-0.00474102
0.0311457
0.0509371
-0.000324367
0.0511593
-0.000697965
0.0515988
-0.000873214
0.0521953
-0.00105168
0.0529612
-0.00130454
0.0539388
-0.00165823
0.0551922
-0.00217213
0.0568152
-0.00295884
0.0588561
-0.00422003
-0.00641165
0.0605267
0.0749639
-0.000288311
0.0750235
-0.000757563
0.0752617
-0.00111144
0.0756701
-0.00146002
0.0762435
-0.00187801
0.0769906
-0.00240535
0.0779163
-0.0030978
0.0789972
-0.00403971
0.0801108
-0.00533368
-0.00710856
0.0808077
0.090979
-0.000267341
0.0909682
-0.00074673
0.0910399
-0.00118319
0.091211
-0.00163116
0.0914755
-0.00214249
0.0918239
-0.00275378
0.0922329
-0.0035068
0.0926452
-0.00445195
0.0929446
-0.00563316
-0.00707054
0.0929067
0.098965
-0.000232327
0.0988866
-0.000668386
0.0988134
-0.00110994
0.0987627
-0.00158052
0.0987245
-0.00210428
0.0986793
-0.00270855
0.0985948
-0.00342231
0.098414
-0.00427115
0.0980484
-0.00526748
-0.00639678
0.0973747
0.0989365
-0.000168823
0.0987776
-0.000509473
0.0985688
-0.000901183
0.0983223
-0.00133394
0.0980218
-0.00180379
0.0976431
-0.00232979
0.0971525
-0.0029317
0.0965004
-0.00361907
0.095622
-0.00438895
-0.00521939
0.0944446
0.0908959
-6.46989e-05
0.0906516
-0.000265138
0.0903309
-0.00058051
0.089935
-0.000938013
0.08944
-0.00130877
0.0888197
-0.00170944
0.0880415
-0.00215347
0.0870637
-0.00264122
0.0858396
-0.00316477
-0.00370595
0.0843262
0.074836
9.92726e-05
0.0745399
3.106e-05
0.074182
-0.000222595
0.073732
-0.000487924
0.0731566
-0.000733344
0.0724301
-0.000982896
0.0715235
-0.00124684
0.0704052
-0.00152283
0.0690458
-0.00180534
-0.00208467
0.0674246
0.0507968
0.000302507
0.0506185
0.000209408
0.050392
3.94486e-06
0.0500411
-0.000137012
0.0495467
-0.000238893
0.0488975
-0.000333656
0.0480782
-0.000427456
0.0470741
-0.000518731
0.0458753
-0.000606455
-0.000688616
0.0444793
0.0193025
0.0195119
0.0195159
0.0193789
0.01914
0.0188063
0.0183789
0.0178602
0.0172537
0.0165651
-0.000116819
0.000116808
-0.000464527
0.000347687
-0.000933332
0.000468784
-0.00142451
0.000491163
-0.0018821
0.000457567
-0.00227776
0.000395653
-0.00259783
0.000320056
-0.00283578
0.000237938
-0.00298866
0.000152872
-0.00305568
6.701e-05
-0.00303779
-1.78843e-05
-0.00293767
-0.000100119
-0.00275977
-0.000177894
-0.00251025
-0.000249512
-0.00219678
-0.000313456
-0.00182828
-0.000368485
-0.00141455
-0.000413694
-0.000965947
-0.000448572
-0.000492894
-0.000473011
-5.5689e-06
-0.000487275
0.000486399
-0.000491911
0.000974208
-0.000487744
0.00145012
-0.000475839
0.0019076
-0.000457401
0.00234137
-0.00043368
0.0027474
-0.000405937
0.00312288
-0.000375376
0.0034661
-0.000343112
0.00377635
-0.000310131
0.00405375
-0.000277284
0.00429914
-0.000245267
0.00451389
-0.000214633
0.00469981
-0.000185791
0.00485896
-0.000159027
-0.000134511
0.00499359
-0.00038675
0.000503538
-0.00121612
0.001177
-0.00224005
0.00149266
-0.00327688
0.00152795
-0.00421552
0.00139617
-0.00499621
0.00117631
-0.00558999
0.000913806
-0.005985
0.000632921
-0.00617887
0.000346725
-0.00617508
6.32092e-05
-0.00598123
-0.000211728
-0.00560845
-0.000472893
-0.00507095
-0.000715376
-0.00438561
-0.000934818
-0.00357146
-0.00112756
-0.0026491
-0.00129078
-0.00164007
-0.00142264
-0.000566111
-0.00152243
0.000551305
-0.00159031
0.00169144
-0.00162727
0.00283508
-0.0016354
0.00396493
-0.00161743
0.00506583
-0.00157654
0.00612486
-0.00151623
0.00713155
-0.00144014
0.00807775
-0.0013519
0.00895763
-0.00125501
0.00976746
-0.00115268
0.0105054
-0.00104783
0.0111714
-0.000942964
0.0117666
-0.000840201
0.0122935
-0.000741241
0.0127554
-0.000647395
0.0131563
-0.000559612
-0.000478514
0.0135005
-0.000582201
0.00108571
-0.0017109
0.00230564
-0.00301357
0.00279528
-0.00426538
0.00277971
-0.00533898
0.00246973
-0.00616939
0.00200668
-0.00672886
0.00147326
-0.00701082
0.000914856
-0.00702061
0.000356499
-0.00677074
-0.000186661
-0.00627832
-0.000704148
-0.00556413
-0.00118707
-0.00465159
-0.00162788
-0.00356614
-0.00202024
-0.00233449
-0.00235915
-0.000984036
-0.00264118
0.000457775
-0.00286438
0.00196381
-0.00302837
0.00350813
-0.00313452
0.00506669
-0.00318571
0.00661742
-0.003186
0.00814059
-0.00314046
0.00961909
-0.00305488
0.0110385
-0.00293548
0.0123872
-0.00278863
0.0136561
-0.00262062
0.0148388
-0.00243749
0.0159311
-0.0022448
0.0169311
-0.00204758
0.0178385
-0.00185021
0.018655
-0.00165639
0.0193831
-0.00146915
0.0200268
-0.00129086
0.0205907
-0.00112328
-0.000967602
0.02108
-0.000684982
0.00177068
-0.00191879
0.00353939
-0.00323668
0.00411312
-0.00439898
0.00394196
-0.00529184
0.00336255
-0.00586889
0.00258369
-0.00611981
0.00172415
-0.0060533
0.00084832
-0.00568803
-8.78295e-06
-0.00504774
-0.000826953
-0.0041597
-0.00159219
-0.00305312
-0.00229363
-0.00175831
-0.00292267
-0.00030599
-0.00347252
0.00127313
-0.00393822
0.00294882
-0.00431681
0.00469204
-0.00460753
0.00647544
-0.00481169
0.00827359
-0.00493259
0.0100633
-0.00497535
0.011824
-0.00494658
0.0135377
-0.00485401
0.0151891
-0.0047062
0.0167658
-0.00451207
0.018258
-0.00428067
0.0196584
-0.00402081
0.0209619
-0.00374086
0.0221658
-0.00344852
0.023269
-0.00315068
0.0242723
-0.00285338
0.0251778
-0.0025617
0.0259887
-0.00227983
0.026709
-0.00201105
0.0273437
-0.00175783
-0.00152187
0.0278982
-0.000711416
0.00248206
-0.00185015
0.00467806
-0.00290402
0.00516694
-0.0036659
0.00470378
-0.00407105
0.00376764
-0.004114
0.00262659
-0.00381425
0.00142435
-0.00320164
0.000235677
-0.00230935
-0.000901096
-0.00117181
-0.00196451
0.000176128
-0.00294013
0.00170009
-0.00381759
0.00336646
-0.00458903
0.0051429
-0.00524893
0.00699861
-0.0057939
0.00890472
-0.00622289
0.0108345
-0.00653726
0.0127636
-0.00674073
0.0146703
-0.00683922
0.0165355
-0.00684054
0.0183431
-0.00675409
0.0200796
-0.00659036
0.021734
-0.00636056
0.0232982
-0.00607618
0.0247663
-0.00574861
0.0261344
-0.00538881
0.0274006
-0.00500703
0.0285648
-0.00461263
0.0296282
-0.00421393
0.0305931
-0.00381811
0.0314627
-0.00343123
0.0322412
-0.00305824
0.0329333
-0.00270298
0.0335439
-0.00236834
-0.00205629
0.0340785
-0.00066752
0.00314956
-0.00148415
0.00549464
-0.00195121
0.00563393
-0.00197397
0.00472646
-0.00158379
0.0033774
-0.000834972
0.00187771
0.000218277
0.000371042
0.0015269
-0.001073
0.00304698
-0.00242121
0.00473813
-0.00365568
0.00656322
-0.00476524
0.00848786
-0.00574224
0.0104803
-0.00658144
0.0125112
-0.00727984
0.014554
-0.00783667
0.0165847
-0.00825358
0.0185822
-0.00853473
0.0205282
-0.0086867
0.0224073
-0.00871829
0.024207
-0.00864018
0.0259174
-0.00846447
0.0275313
-0.00820426
0.029044
-0.00787314
0.0304526
-0.00748473
0.0317563
-0.00705227
0.0329558
-0.00658832
0.0340533
-0.00610444
0.0350518
-0.00561105
0.0359552
-0.00511725
0.036768
-0.00463085
0.0374951
-0.00415831
0.0381418
-0.00370483
0.0387133
-0.00327439
0.0392149
-0.0028699
-0.0024933
0.039652
-0.000511772
0.00366131
-0.00067371
0.0056565
-0.000129772
0.00508993
0.000970388
0.00362624
0.00245353
0.00189419
0.0042048
0.000126378
0.00614731
-0.00157153
0.00822491
-0.00315066
0.0103932
-0.00458956
0.012616
-0.00587848
0.0148624
-0.00701165
0.0171053
-0.00798521
0.0193209
-0.00879707
0.0214882
-0.0094471
0.0235889
-0.00993739
0.0256077
-0.0102724
0.0275323
-0.0104593
0.0293528
-0.0105072
0.0310623
-0.0104278
0.0326565
-0.0102343
0.0341332
-0.00994116
0.0354925
-0.00956353
0.0367361
-0.00911682
0.0378676
-0.00861615
0.0388913
-0.00807595
0.0398126
-0.00750967
0.0406377
-0.00692948
0.0413728
-0.00634617
0.0420246
-0.00576901
0.0425995
-0.00520578
0.043104
-0.00466281
0.0435442
-0.00414502
0.043926
-0.0036561
0.0442547
-0.0031986
-0.00277406
0.0445355
-8.41432e-05
0.00374542
0.00107147
0.00450082
0.00323251
0.00292882
0.00585065
0.00100802
0.0086415
-0.000896729
0.0114833
-0.00271553
0.0143131
-0.00440136
0.017092
-0.00592958
0.0197953
-0.00729299
0.0224059
-0.00848909
0.0249097
-0.00951552
0.027295
-0.0103705
0.0295515
-0.0110537
0.0316712
-0.0115668
0.033648
-0.0119142
0.0354778
-0.0121023
0.037159
-0.0121405
0.0386921
-0.0120404
0.0400798
-0.0118155
0.0413263
-0.0114809
0.0424377
-0.0110526
0.0434214
-0.0105473
0.0442858
-0.00998117
0.0450397
-0.00937007
0.0456925
-0.00872879
0.0462536
-0.00807084
0.0467324
-0.00740827
0.0471377
-0.0067515
0.047478
-0.00610933
0.0477611
-0.00548895
0.0479943
-0.00489601
0.048184
-0.00433477
0.0483361
-0.00380821
0.0484557
-0.00331821
-0.00286569
0.0485473
0.00138236
0.00236302
0.0052428
0.000640268
0.00965297
-0.00148145
0.0139391
-0.00327824
0.0179529
-0.00491053
0.0216741
-0.00643683
0.0251142
-0.00784154
0.0282908
-0.00910627
0.0312198
-0.010222
0.0339131
-0.0111825
0.0363798
-0.0119823
0.0386268
-0.0126176
0.0406602
-0.0130871
0.042486
-0.0133926
0.044111
-0.0135392
0.0455431
-0.0135344
0.0467915
-0.013389
0.0478667
-0.0131157
0.0487805
-0.0127292
0.0495453
-0.0122457
0.0501745
-0.0116819
0.0506816
-0.0110544
0.0510802
-0.0103799
0.0513837
-0.00967364
0.0516049
-0.00895003
0.0517558
-0.00822182
0.0518476
-0.00750016
0.0518905
-0.00679447
0.0518936
-0.00611249
0.0518649
-0.00546031
0.0518114
-0.00484255
0.051739
-0.00426245
0.0516528
-0.00372204
0.0515569
-0.00322235
-0.00276353
0.0514547
0.00861734
-0.00625441
0.0159094
-0.00665188
0.0218624
-0.00743461
0.0269374
-0.00835325
0.0313353
-0.00930851
0.0351836
-0.0102852
0.0385752
-0.0112333
0.0415743
-0.0121054
0.044224
-0.0128717
0.046555
-0.0135135
0.0485908
-0.0140182
0.0503509
-0.0143777
0.0518528
-0.014589
0.0531132
-0.014653
0.0541487
-0.0145747
0.0549766
-0.0143624
0.0556146
-0.0140271
0.0560811
-0.0135822
0.0563948
-0.0130429
0.0565742
-0.0124252
0.0566378
-0.0117455
0.0566034
-0.0110201
0.0564877
-0.0102642
0.0563064
-0.00949246
0.056074
-0.00871762
0.0558031
-0.00795104
0.0555052
-0.00720233
0.05519
-0.00647937
0.0548658
-0.00578841
0.0545396
-0.00513415
0.0542168
-0.0045199
0.053902
-0.00394771
0.0535985
-0.0034186
0.0533087
-0.00293267
-0.0024893
0.0530344
0.0338277
-0.00893654
0.0377262
-0.0105504
0.0415473
-0.0112558
0.0450975
-0.0119035
0.0483249
-0.0125359
0.0511881
-0.0131485
0.0536852
-0.0137304
0.0558337
-0.014254
0.0576536
-0.0146917
0.059164
-0.015024
0.0603838
-0.015238
0.0613322
-0.0153262
0.0620292
-0.0152861
0.0624954
-0.0151193
0.0627523
-0.0148316
0.062822
-0.0144321
0.0627271
-0.0139323
0.0624906
-0.0133457
0.0621349
-0.0126872
0.0616818
-0.0119722
0.061152
-0.0112158
0.0605649
-0.010433
0.0599379
-0.00963733
0.0592867
-0.00884136
0.058625
-0.008056
0.0579644
-0.00729054
0.0573146
-0.00655262
0.0566835
-0.00584827
0.056077
-0.00518202
0.0554998
-0.00455704
0.0549551
-0.00397526
0.0544448
-0.00343759
0.0539702
-0.00294404
0.0535314
-0.00249393
-0.00208597
0.0531279
0.0609228
-0.00933271
0.0617307
-0.0113584
0.0629767
-0.0125018
0.0643777
-0.0133045
0.065778
-0.0139363
0.067065
-0.0144355
0.0681648
-0.0148302
0.0690405
-0.0151297
0.069678
-0.0153291
0.0700753
-0.0154213
0.070239
-0.0154017
0.0701818
-0.015269
0.0699205
-0.0150249
0.0694756
-0.0146743
0.0688692
-0.0142252
0.068125
-0.013688
0.0672674
-0.0130747
0.0663205
-0.0123988
0.0653076
-0.0116744
0.0642507
-0.0109153
0.0631701
-0.0101352
0.0620838
-0.00934674
0.0610077
-0.00856126
0.0599551
-0.00778884
0.0589371
-0.007038
0.0579622
-0.00631575
0.0570371
-0.00562756
0.0561663
-0.00497754
0.0553527
-0.00436851
0.0545977
-0.00380216
0.0539016
-0.00327922
0.0532635
-0.00279958
0.0526818
-0.00236248
0.0521544
-0.00196662
-0.00161029
0.0516786
0.0807088
-0.0092338
0.0803799
-0.0110295
0.0801435
-0.0122654
0.0799791
-0.0131401
0.0798276
-0.0137848
0.0796323
-0.0142403
0.079339
-0.0145369
0.0789086
-0.0146993
0.0783197
-0.0147402
0.0775647
-0.0146663
0.076646
-0.014483
0.0755738
-0.0141968
0.074364
-0.013815
0.0730365
-0.0133468
0.0716138
-0.0128025
0.0701195
-0.0121936
0.0685775
-0.0115327
0.0670111
-0.0108324
0.065442
-0.0101052
0.0638898
-0.00936315
0.062372
-0.00861739
0.0609031
-0.00787792
0.0594953
-0.00715348
0.0581579
-0.00645147
0.0568978
-0.00577788
0.0557194
-0.00513739
0.0546253
-0.00453346
0.0536161
-0.00396841
0.0526911
-0.00344358
0.0518483
-0.00295945
0.0510849
-0.00251582
0.0503971
-0.00211186
0.0497808
-0.00174632
0.0492317
-0.00141758
-0.00112375
0.048745
0.0923361
-0.00866315
0.0914071
-0.0101005
0.090339
-0.0111972
0.0891918
-0.0119929
0.0879665
-0.0125595
0.0866567
-0.0129305
0.08525
-0.0131302
0.083734
-0.0131832
0.0821034
-0.0131096
0.080361
-0.0129239
0.0785164
-0.0126383
0.0765844
-0.0122647
0.0745841
-0.0118147
0.0725371
-0.0112998
0.0704665
-0.0107318
0.0683952
-0.0101223
0.0663453
-0.00948281
0.0643372
-0.00882429
0.0623891
-0.008157
0.0605162
-0.00749031
0.0587314
-0.00683251
0.0570442
-0.00619072
0.0554617
-0.00557093
0.0539881
-0.0049779
0.0526256
-0.00441533
0.0513741
-0.00388587
0.0502318
-0.00339125
0.0491958
-0.00293241
0.0482618
-0.00250959
0.0474247
-0.00212246
0.0466791
-0.00177022
0.0460189
-0.00145171
0.045438
-0.00116548
0.0449302
-0.000909871
-0.000683079
0.0444894
0.0962948
-0.00758323
0.0948629
-0.0086686
0.0931967
-0.00953097
0.0913614
-0.0101574
0.089383
-0.010581
0.0872802
-0.0108277
0.0850682
-0.010918
0.0827594
-0.0108744
0.0803679
-0.010718
0.0779105
-0.0104665
0.0754074
-0.0101351
0.0728803
-0.00973756
0.0703522
-0.00928658
0.0678464
-0.00879388
0.065385
-0.00827033
0.0629887
-0.00772596
0.0606759
-0.00716993
0.0584622
-0.00661054
0.0563604
-0.00605511
0.0543801
-0.00550999
0.0525282
-0.00498054
0.0508087
-0.00447115
0.0492231
-0.00398527
0.0477707
-0.00352552
0.0464491
-0.0030937
0.0452542
-0.00269096
0.0441808
-0.00231781
0.0432227
-0.00197428
0.042373
-0.00165999
0.0416248
-0.00137419
0.0409704
-0.0011159
0.0404026
-0.000883915
0.0399139
-0.000676877
0.0394973
-0.000493333
-0.000331753
0.0391459
0.0929183
-0.00605687
0.0910631
-0.00681336
0.0889458
-0.00741353
0.0866242
-0.00783579
0.0841379
-0.00809469
0.0815207
-0.00821039
0.0788045
-0.00820178
0.0760189
-0.00808873
0.0731918
-0.00789081
0.0703506
-0.00762514
0.0675217
-0.00730617
0.0647306
-0.00694636
0.0620007
-0.00655656
0.0593531
-0.00614624
0.0568064
-0.00572355
0.0543761
-0.00529557
0.0520746
-0.00486834
0.0499112
-0.00444704
0.0478921
-0.004036
0.046021
-0.00363876
0.0442987
-0.00325817
0.042724
-0.00289639
0.0412938
-0.002555
0.0400034
-0.00223506
0.0388468
-0.00193715
0.0378174
-0.00166149
0.0369076
-0.00140794
0.0361094
-0.0011761
0.0354148
-0.00096538
0.0348156
-0.000774992
0.0343037
-0.000604039
0.0338712
-0.000451522
0.0335107
-0.00031638
0.0332148
-0.000197505
-9.37685e-05
0.0329767
0.0825
-0.0042306
0.0803764
-0.00468965
0.0780032
-0.00504033
0.075435
-0.00526753
0.0727202
-0.00537981
0.0699032
-0.00539327
0.0670257
-0.00532423
0.0641259
-0.00518883
0.0612375
-0.00500238
0.0583905
-0.00477804
0.055611
-0.00452653
0.0529212
-0.00425653
0.0503399
-0.00397519
0.0478821
-0.00368833
0.0455593
-0.00340071
0.0433799
-0.00311613
0.0413494
-0.00283767
0.0394702
-0.00256781
0.0377427
-0.00230848
0.0361652
-0.00206117
0.0347341
-0.00182699
0.0334444
-0.00160669
0.0322902
-0.00140072
0.0312644
-0.00120928
0.0303597
-0.00103236
0.029568
-0.000869779
0.0288812
-0.000721205
0.0282913
-0.000586199
0.0277902
-0.000464236
0.0273699
-0.000354726
0.0270228
-0.000257032
0.0267417
-0.000170482
0.0265197
-9.43867e-05
0.0263501
-2.80394e-05
2.92647e-05
0.026227
0.0655374
-0.00234341
0.0634058
-0.00255795
0.061074
-0.00270847
0.0585956
-0.00278905
0.0560225
-0.00280657
0.0534018
-0.00277252
0.0507757
-0.00269806
0.0481802
-0.00259328
0.045645
-0.0024671
0.0431938
-0.00232677
0.0408452
-0.00217786
0.0386133
-0.00202456
0.0365083
-0.00187011
0.034537
-0.00171699
0.0327034
-0.00156704
0.031009
-0.00142166
0.0294532
-0.00128187
0.0280339
-0.00114843
0.0267474
-0.00102189
0.0255889
-0.000902604
0.0245527
-0.000790798
0.0236326
-0.000686566
0.0228218
-0.000589904
0.0221133
-0.000500719
0.0214997
-0.000418855
0.0209741
-0.000344098
0.020529
-0.000276196
0.0201577
-0.000214864
0.0198532
-0.000159799
0.0196091
-0.000110675
0.0194191
-6.71616e-05
0.0192775
-2.89182e-05
0.0191786
4.39796e-06
0.0191173
3.31292e-05
5.76172e-05
0.0190889
0.0428962
-0.000760276
0.0411527
-0.000814408
0.0392899
-0.0008456
0.0373544
-0.000853442
0.0353897
-0.000841821
0.033433
-0.000815777
0.0315146
-0.000779584
0.029658
-0.000736659
0.0278807
-0.000689729
0.0261949
-0.000640849
0.0246085
-0.000591441
0.0231265
-0.0005425
0.0217512
-0.000494721
0.0204828
-0.000448601
0.0193203
-0.000404458
0.0182612
-0.000362502
0.0173022
-0.000322842
0.0164394
-0.000285549
0.0156681
-0.000250637
0.0149837
-0.000218109
0.0143808
-0.000187927
0.0138543
-0.000160054
0.0133989
-0.000134418
0.0130091
-0.000110953
0.0126798
-8.95682e-05
0.0124059
-7.0183e-05
0.0121823
-5.26962e-05
0.0120045
-3.70207e-05
0.0118677
-2.30523e-05
0.0117676
-1.07024e-05
0.0117003
1.32803e-07
0.0116617
9.54299e-06
0.0116484
1.76333e-05
0.011657
2.44929e-05
3.02219e-05
0.0116843
0.0158048
0.0149904
0.0141449
0.0132914
0.0124496
0.0116339
0.0108543
0.0101176
0.0094279
0.00878706
0.00819563
0.00765314
0.00715843
0.00670983
0.00630538
0.00594289
0.00562005
0.0053345
0.00508387
0.00486576
0.00467784
0.00451779
0.00438337
0.00427242
0.00418285
0.00411266
0.00405996
0.00402294
0.00399988
0.00398917
0.00398929
0.00399883
0.00401645
0.00404093
0.00407114
0.00510603
-0.000112324
0.00519861
-9.24652e-05
0.0052736
-7.4878e-05
0.00533316
-5.94573e-05
0.00537932
-4.60687e-05
0.00541396
-3.45552e-05
0.00543879
-2.47506e-05
0.00545535
-1.64832e-05
0.00546499
-9.58507e-06
-3.89252e-06
0.00546893
0.0137929
-0.000404446
0.0140382
-0.000337512
0.0142412
-0.00027763
0.0144066
-0.000224567
0.0145387
-0.000177977
0.0146418
-0.000137441
0.0147197
-0.000102488
0.014776
-7.26219e-05
0.0148139
-4.73421e-05
-2.61555e-05
0.0148363
0.0215003
-0.000824549
0.0218574
-0.000694419
0.0221572
-0.00057717
0.0224053
-0.000472484
0.0226073
-0.000379831
0.0227686
-0.000298528
0.0228941
-0.000227789
0.0229884
-0.000166763
0.0230557
-0.000114575
-7.03466e-05
0.0231
0.028378
-0.00130424
0.0287892
-0.0011054
0.0291375
-0.000925364
0.029429
-0.000763745
0.0296692
-0.000619859
0.0298636
-0.000492794
0.0300174
-0.00038148
0.0301355
-0.000284744
0.0302224
-0.000201361
-0.000130093
0.0302823
0.0345424
-0.00176806
0.0349413
-0.00150415
0.0352806
-0.00126453
0.0355657
-0.00104871
0.0358018
-0.000855832
0.0359939
-0.000684765
0.0361467
-0.000534183
0.0362647
-0.000402631
0.036352
-0.000288588
-0.000190505
0.0364125
0.0400297
-0.00214566
0.040353
-0.00182736
0.0406268
-0.00153818
0.0408555
-0.00127739
0.0410437
-0.00104391
0.0411954
-0.000836366
0.0413145
-0.000653176
0.0414046
-0.000492635
0.041469
-0.000352965
-0.000232367
0.041511
0.0447731
-0.0023832
0.0449718
-0.002026
0.0451355
-0.0017019
0.045268
-0.00140984
0.0453726
-0.00114843
0.0454523
-0.000916002
0.0455099
-0.000710723
0.045548
-0.000530647
0.0455688
-0.000373775
-0.000238109
0.0455746
0.0486149
-0.00245077
0.0486618
-0.00207293
0.048691
-0.00173111
0.048705
-0.00142386
0.048706
-0.00114942
0.0486959
-0.00090584
0.0486762
-0.000691018
0.0486483
-0.000502793
0.0486136
-0.000338986
-0.000197444
0.0485729
0.0513489
-0.00234503
0.0512417
-0.00196572
0.0511346
-0.00162408
0.0510289
-0.00131821
0.0509255
-0.00104604
0.050825
-0.000805328
0.0507277
-0.000593757
0.0506339
-0.000409
0.0505436
-0.000248751
-0.000110768
0.0504569
0.0527766
-0.0020873
0.0525358
-0.00172501
0.0523122
-0.00140047
0.0521053
-0.00111145
0.0519148
-0.000855612
0.05174
-0.000630525
0.0515799
-0.000433745
0.0514337
-0.000262857
0.0513004
-0.000115509
1.05572e-05
0.051179
0.052759
-0.00171846
0.0524232
-0.00138936
0.0521191
-0.0010964
0.0518447
-0.000837191
0.0515983
-0.000609248
0.0513777
-0.000410085
0.0511811
-0.000237245
0.0510065
-8.83346e-05
0.050852
3.89449e-05
0.000146774
0.0507157
0.0512515
-0.00129149
0.05087
-0.00100798
0.0505309
-0.000757418
0.050231
-0.000537385
0.0499671
-0.000345447
0.0497361
-0.000179202
0.0495351
-3.63087e-05
0.0493612
8.54789e-05
0.0492117
0.000188288
0.00027413
0.0490843
0.0483162
-0.000862754
0.0479405
-0.000632422
0.0476135
-0.000430505
0.0473308
-0.000254749
0.0470881
-0.000102925
0.0468816
2.71453e-05
0.0467077
0.000137542
0.0465628
0.000230246
0.0464438
0.00030714
0.000369986
0.0463479
0.0441098
-0.000483203
0.0437855
-0.000308296
0.0435113
-0.000156395
0.043282
-2.55575e-05
0.0430928
8.61075e-05
0.0429394
0.000180411
0.0428178
0.000259103
0.0427241
0.000323838
0.0426549
0.000376178
0.000417574
0.0426072
0.0388532
-0.000190579
0.038613
-6.82325e-05
0.0384197
3.68437e-05
0.0382678
0.000126167
0.0381526
0.000201206
0.0380695
0.000263389
0.0380144
0.000314066
0.0379836
0.000354521
0.0379738
0.000385947
0.000409462
0.0379818
0.0327901
-4.02967e-06
0.0326489
7.28334e-05
0.0325478
0.00013792
0.0324815
0.000192314
0.0324455
0.000237061
0.0324357
0.000273163
0.0324481
0.000301567
0.0324793
0.000323172
0.0325263
0.000338813
0.000349268
0.0325864
0.0261446
7.82264e-05
0.0260978
0.000119539
0.0260818
0.00015389
0.026092
0.000181934
0.0261247
0.000204319
0.0261761
0.000221647
0.026243
0.000234507
0.0263227
0.000243436
0.0264124
0.000248953
0.000251523
0.0265101
0.0190888
7.82035e-05
0.019113
9.52241e-05
0.0191578
0.000109006
0.0192197
0.000119869
0.0192958
0.000128118
0.0193833
0.00013405
0.0194798
0.000137942
0.0195831
0.00014006
0.0196913
0.000140646
0.000139934
0.0198028
0.0117275
3.4907e-05
0.011784
3.86479e-05
0.0118514
4.15285e-05
0.0119275
4.36438e-05
0.0120104
4.50725e-05
0.0120985
4.5903e-05
0.0121902
4.62064e-05
0.0122841
4.60625e-05
0.0123791
4.55335e-05
4.46888e-05
0.0124743
0.00410604
0.00414467
0.00418619
0.00422982
0.00427488
0.00432077
0.00436697
0.00441303
0.00445855
0.00450323
0.00546822
7.46741e-07
0.00546377
4.47391e-06
0.00545637
7.41583e-06
0.00544668
9.69029e-06
0.00543528
1.14003e-05
0.00542262
1.26387e-05
0.00540911
1.3485e-05
0.00539507
1.40098e-05
0.00538075
1.42716e-05
0.00536637
1.43226e-05
0.00535211
1.42041e-05
0.00533809
1.39531e-05
0.00532442
1.3598e-05
0.00531118
1.31642e-05
0.00529843
1.26704e-05
0.00528622
1.21337e-05
0.00527457
1.15657e-05
0.00526351
1.09778e-05
0.00525304
1.0377e-05
0.00524319
9.77056e-06
0.00523395
9.16283e-06
0.00522532
8.55849e-06
0.00521728
7.96023e-06
0.00520984
7.37125e-06
0.00520299
6.79342e-06
0.0051967
6.22916e-06
0.00519096
5.67998e-06
0.00518577
5.14796e-06
0.00518109
4.63454e-06
0.00517692
4.14165e-06
0.00517322
3.67074e-06
0.00516997
3.22372e-06
0.00516715
2.80202e-06
0.00516472
2.40754e-06
2.04157e-06
0.00516267
0.0148457
-8.58815e-06
0.0148444
5.80593e-06
0.0148344
1.74397e-05
0.0148174
2.66893e-05
0.0147949
3.38966e-05
0.0147682
3.93678e-05
0.0147382
4.33752e-05
0.014706
4.61575e-05
0.0146722
4.79227e-05
0.0146376
4.88499e-05
0.0146026
4.90925e-05
0.0145676
4.87803e-05
0.014533
4.80231e-05
0.0144991
4.69123e-05
0.014466
4.5524e-05
0.0144341
4.39209e-05
0.0144033
4.21545e-05
0.0143738
4.02669e-05
0.0143457
3.82925e-05
0.014319
3.62592e-05
0.0142938
3.41897e-05
0.0142701
3.21031e-05
0.0142479
3.00146e-05
0.0142271
2.79377e-05
0.0142079
2.58833e-05
0.0141901
2.38619e-05
0.0141738
2.18819e-05
0.0141589
1.99522e-05
0.0141453
1.808e-05
0.0141331
1.62733e-05
0.0141222
1.45388e-05
0.0141125
1.28838e-05
0.0141039
1.13147e-05
0.0140964
9.83832e-06
8.46056e-06
0.01409
0.0231247
-3.32255e-05
0.023133
-2.39458e-06
0.0231276
2.29104e-05
0.0231109
4.3395e-05
0.0230851
5.97056e-05
0.0230521
7.24295e-05
0.0230133
8.20927e-05
0.0229703
8.91625e-05
0.0229241
9.4049e-05
0.0228758
9.71102e-05
0.0228261
9.8655e-05
0.0227758
9.89494e-05
0.0227255
9.82191e-05
0.0226756
9.66561e-05
0.0226266
9.44216e-05
0.0225787
9.16509e-05
0.0225323
8.84565e-05
0.0224874
8.49325e-05
0.0224444
8.11567e-05
0.0224033
7.7194e-05
0.0223643
7.30982e-05
0.0223273
6.89151e-05
0.0222925
6.46829e-05
0.0222598
6.04348e-05
0.0222294
5.61995e-05
0.0222011
5.20027e-05
0.022175
4.78672e-05
0.0221511
4.38143e-05
0.0221292
3.98637e-05
0.0221093
3.60338e-05
0.0220915
3.2342e-05
0.0220755
2.88051e-05
0.0220613
2.54389e-05
0.0220488
2.22583e-05
1.92775e-05
0.022038
0.0303189
-6.97211e-05
0.0303356
-1.90691e-05
0.0303356
2.29778e-05
0.0303216
5.74578e-05
0.030296
8.533e-05
0.030261
0.000107473
0.0302184
0.000124681
0.0301699
0.000137664
0.0301169
0.000147052
0.0300605
0.000153401
0.0300019
0.000157192
0.029942
0.000158845
0.0298814
0.000158722
0.0298208
0.000157129
0.0297608
0.000154332
0.0297018
0.000150551
0.0296442
0.000145975
0.0295882
0.000140764
0.0295342
0.00013505
0.0294823
0.000128947
0.0294327
0.00012255
0.0293855
0.000115941
0.0293409
0.00010919
0.0292989
0.000102357
0.0292594
9.54972e-05
0.0292227
8.86573e-05
0.0291885
8.18809e-05
0.0291571
7.52077e-05
0.0291282
6.86745e-05
0.0291018
6.23154e-05
0.0290779
5.61628e-05
0.0290564
5.02469e-05
0.0290372
4.45963e-05
0.0290201
3.92376e-05
3.4196e-05
0.0290052
0.0364498
-0.000106854
0.0364669
-3.61492e-05
0.0364669
2.30245e-05
0.0364525
7.19961e-05
0.0364258
0.000112002
0.0363892
0.000144178
0.0363443
0.000169559
0.0362929
0.000189077
0.0362364
0.000203564
0.036176
0.000213755
0.0361128
0.0002203
0.0360479
0.000223763
0.0359819
0.000224636
0.0359156
0.000223343
0.0358496
0.000220248
0.0357844
0.000215662
0.0357204
0.000209851
0.0356581
0.000203042
0.0355976
0.000195429
0.0355392
0.000187175
0.0354832
0.000178423
0.0354298
0.000169294
0.035379
0.000159893
0.0353309
0.000150315
0.0352856
0.000140641
0.0352432
0.000130945
0.0352037
0.000121296
0.0351671
0.000111754
0.0351333
0.000102377
0.0351023
9.32176e-05
0.0350741
8.43266e-05
0.0350485
7.57504e-05
0.0350255
6.75326e-05
0.035005
5.9714e-05
5.23324e-05
0.0349868
0.0415333
-0.000129063
0.0415385
-4.1331e-05
0.0415291
3.24786e-05
0.0415072
9.39198e-05
0.0414748
0.000144443
0.0414337
0.000185383
0.0413853
0.000217961
0.0413311
0.000243279
0.0412723
0.000262326
0.0412101
0.000275985
0.0411453
0.000285034
0.0410789
0.000290158
0.0410115
0.000291955
0.0409439
0.000290945
0.0408765
0.000287576
0.0408098
0.000282237
0.0407443
0.00027526
0.0406804
0.000266932
0.0406182
0.000257499
0.0405581
0.000247172
0.0405003
0.000236136
0.040445
0.000224549
0.0403922
0.000212552
0.0403421
0.000200269
0.0402949
0.00018781
0.0402505
0.000175276
0.0402089
0.000162758
0.0401702
0.00015034
0.0401344
0.000138101
0.0401015
0.000126114
0.0400713
0.000114446
0.0400438
0.000103163
0.040019
9.23219e-05
0.0399967
8.19799e-05
7.21877e-05
0.0399768
0.0455673
-0.000121683
0.0455486
-2.26027e-05
0.0455202
6.09426e-05
0.0454835
0.000130661
0.0454398
0.000188142
0.0453904
0.000234851
0.0453362
0.000272125
0.0452783
0.000301178
0.0452175
0.000323099
0.0451547
0.000338864
0.0450903
0.000349336
0.0450252
0.000355277
0.0449598
0.000357356
0.0448945
0.000356155
0.0448299
0.000352182
0.0447662
0.000345876
0.0447038
0.000337616
0.0446429
0.00032773
0.0445838
0.000316503
0.0445267
0.000304181
0.0444718
0.000290978
0.0444192
0.000277082
0.044369
0.00026266
0.0443214
0.00024786
0.0442763
0.000232817
0.0442338
0.000217651
0.044194
0.000202474
0.0441569
0.000187391
0.0441225
0.000172497
0.0440906
0.000157882
0.0440614
0.000143632
0.0440347
0.000129825
0.0440104
0.000116535
0.0439886
0.00010383
9.17755e-05
0.0439689
0.0485273
-7.60769e-05
0.0484776
2.71211e-05
0.0484246
0.000114055
0.0483687
0.000186513
0.0483107
0.000246151
0.0482511
0.000294493
0.0481903
0.000332931
0.0481288
0.000362722
0.0480668
0.000385
0.0480049
0.000400778
0.0479433
0.000410953
0.0478822
0.000416321
0.047822
0.000417577
0.0477628
0.00041533
0.0477048
0.000410112
0.0476483
0.000402383
0.0475933
0.000392543
0.0475401
0.00038094
0.0474887
0.000367873
0.0474392
0.000353607
0.0473917
0.00033837
0.0473464
0.000322366
0.0473032
0.000305776
0.0472623
0.000288761
0.0472236
0.000271469
0.0471872
0.000254034
0.047153
0.000236583
0.0471211
0.00021923
0.0470915
0.000202084
0.0470641
0.000185249
0.0470389
0.000168819
0.0470158
0.000152885
0.0469947
0.000137532
0.0469757
0.000122839
0.000108878
0.0469586
0.0503737
7.10527e-06
0.0502939
0.000106921
0.0502174
0.000190611
0.0501439
0.000259969
0.0500734
0.000316654
0.0500057
0.000362186
0.0499407
0.000397948
0.0498782
0.00042519
0.0498182
0.000445033
0.0497605
0.000458475
0.049705
0.000466405
0.0496517
0.000469603
0.0496005
0.000468754
0.0495514
0.000464459
0.0495043
0.000457238
0.0494591
0.000447545
0.0494158
0.000435772
0.0493745
0.000422261
0.049335
0.000407308
0.0492975
0.000391174
0.0492617
0.000374086
0.0492278
0.000356245
0.0491957
0.000337834
0.0491655
0.000319014
0.049137
0.000299936
0.0491103
0.000280737
0.0490853
0.000261545
0.049062
0.000242481
0.0490404
0.000223658
0.0490204
0.000205183
0.0490021
0.000187158
0.0489853
0.000169678
0.04897
0.000152834
0.0489561
0.000136708
0.000121379
0.0489436
0.0510686
0.000117492
0.0509682
0.000207316
0.0508769
0.000281911
0.0507938
0.000343021
0.0507182
0.000392248
0.0506493
0.000431054
0.0505865
0.000460761
0.0505291
0.000482559
0.0504766
0.000497511
0.0504285
0.000506561
0.0503844
0.000510545
0.0503438
0.000510196
0.0503064
0.000506153
0.0502719
0.000498976
0.05024
0.000489149
0.0502104
0.000477091
0.050183
0.000463165
0.0501576
0.000447686
0.050134
0.000430926
0.0501121
0.000413125
0.0500917
0.000394493
0.0500727
0.000375215
0.0500551
0.00035546
0.0500387
0.000335379
0.0500236
0.000315112
0.0500095
0.00029479
0.0499965
0.000274535
0.0499846
0.000254462
0.0499735
0.000234681
0.0499634
0.000215296
0.0499542
0.000196408
0.0499458