/*--------------------------------*- C++ -*----------------------------------*\
| =========                 |                                                 |
| \\      /  F ield         | OpenFOAM: The Open Source CFD Toolbox           |
|  \\    /   O peration     | Version:  2406                                  |
|   \\  /    A nd           | Website:  www.openfoam.com                      |
|    \\/     M anipulation  |                                                 |
\*---------------------------------------------------------------------------*/
FoamFile
{
    version     2.0;
    format      ascii;
    arch        "LSB;label=32;scalar=64";
    class       volScalarField;
    location    "919";
    object      p;
}
// * * * * * * * * * * * * * * * * * * * * * * * * * * * * * * * * * * * * * //

dimensions      [0 2 -2 0 0 0 0];

internalField   nonuniform List<scalar> 
190000
(
-0.0586931
-0.0570663
-0.0564294
-0.0563635
-0.0565133
-0.0567698
-0.05709
-0.057449
-0.0578323
-0.0582323
-0.0586442
-0.0590653
-0.0594937
-0.0599283
-0.0603683
-0.0608129
-0.0612619
-0.0617147
-0.0621713
-0.0626314
-0.0630947
-0.0635613
-0.0640311
-0.0645038
-0.0649796
-0.0654583
-0.0659399
-0.0664245
-0.0669119
-0.0674022
-0.0678954
-0.0683915
-0.0688906
-0.0693925
-0.0698974
-0.0704053
-0.0709161
-0.0714301
-0.0719471
-0.0724672
-0.0729904
-0.0735169
-0.0740466
-0.0745797
-0.0751161
-0.0756559
-0.0761992
-0.0767461
-0.0772966
-0.0778508
-0.0784088
-0.0789706
-0.0795364
-0.0801062
-0.0806801
-0.0812583
-0.0818408
-0.0824278
-0.0830194
-0.0836156
-0.0842167
-0.0848227
-0.0854339
-0.0860503
-0.0866722
-0.0872997
-0.087933
-0.0885723
-0.0892179
-0.0898698
-0.0905285
-0.0911942
-0.0918671
-0.0925476
-0.093236
-0.0939326
-0.0946379
-0.0953522
-0.0960761
-0.0968101
-0.0975547
-0.0983104
-0.0990781
-0.0998584
-0.100652
-0.10146
-0.102283
-0.103122
-0.103978
-0.104851
-0.105744
-0.106655
-0.107588
-0.108546
-0.10954
-0.110605
-0.111808
-0.113147
-0.114634
-0.119607
-0.0567952
-0.0564566
-0.0563096
-0.0563748
-0.0565635
-0.0568289
-0.0571464
-0.0574993
-0.0578765
-0.0582712
-0.058679
-0.0590968
-0.0595227
-0.0599554
-0.0603938
-0.0608373
-0.0612854
-0.0617376
-0.0621937
-0.0626535
-0.0631166
-0.0635831
-0.0640528
-0.0645256
-0.0650014
-0.0654803
-0.0659621
-0.0664469
-0.0669346
-0.0674252
-0.0679187
-0.0684152
-0.0689146
-0.0694169
-0.0699222
-0.0704305
-0.0709419
-0.0714563
-0.0719738
-0.0724944
-0.0730182
-0.0735453
-0.0740756
-0.0746092
-0.0751463
-0.0756868
-0.0762308
-0.0767783
-0.0773296
-0.0778845
-0.0784433
-0.0790059
-0.0795726
-0.0801433
-0.0807181
-0.0812973
-0.0818808
-0.0824688
-0.0830615
-0.0836588
-0.0842611
-0.0848684
-0.0854809
-0.0860987
-0.086722
-0.087351
-0.0879859
-0.088627
-0.0892743
-0.0899282
-0.090589
-0.0912568
-0.0919321
-0.0926151
-0.0933062
-0.0940057
-0.0947142
-0.095432
-0.0961597
-0.0968979
-0.0976471
-0.0984081
-0.0991816
-0.0999686
-0.10077
-0.101587
-0.10242
-0.103272
-0.104144
-0.105039
-0.105958
-0.106906
-0.10789
-0.10892
-0.110014
-0.111212
-0.112573
-0.114185
-0.116415
-0.12067
-0.0557558
-0.0559915
-0.0561569
-0.0563373
-0.0565731
-0.0568587
-0.0571828
-0.0575361
-0.0579116
-0.0583039
-0.0587093
-0.0591251
-0.0595493
-0.0599806
-0.0604179
-0.0608606
-0.061308
-0.0617597
-0.0622155
-0.062675
-0.063138
-0.0636044
-0.0640742
-0.064547
-0.065023
-0.0655021
-0.0659841
-0.0664691
-0.0669571
-0.067448
-0.0679419
-0.0684387
-0.0689385
-0.0694413
-0.069947
-0.0704558
-0.0709676
-0.0714825
-0.0720005
-0.0725217
-0.0730461
-0.0735737
-0.0741046
-0.0746389
-0.0751766
-0.0757177
-0.0762624
-0.0768107
-0.0773627
-0.0779184
-0.078478
-0.0790415
-0.0796089
-0.0801805
-0.0807563
-0.0813364
-0.0819209
-0.08251
-0.0831037
-0.0837022
-0.0843057
-0.0849142
-0.085528
-0.0861472
-0.0867719
-0.0874024
-0.0880389
-0.0886816
-0.0893308
-0.0899865
-0.0906493
-0.0913193
-0.0919968
-0.0926822
-0.093376
-0.0940783
-0.0947899
-0.0955111
-0.0962424
-0.0969846
-0.0977383
-0.0985042
-0.0992833
-0.100077
-0.100885
-0.101711
-0.102554
-0.103418
-0.104305
-0.105218
-0.106161
-0.107141
-0.108165
-0.109248
-0.110408
-0.111675
-0.113091
-0.114707
-0.116644
-0.119123
-0.0552667
-0.0556841
-0.0559932
-0.056255
-0.056538
-0.0568509
-0.0571896
-0.0575502
-0.057929
-0.0583226
-0.0587283
-0.0591439
-0.0595677
-0.0599986
-0.0604355
-0.0608779
-0.061325
-0.0617766
-0.0622322
-0.0626917
-0.0631547
-0.0636212
-0.064091
-0.064564
-0.0650401
-0.0655193
-0.0660016
-0.0664869
-0.0669751
-0.0674663
-0.0679605
-0.0684577
-0.0689578
-0.0694609
-0.0699671
-0.0704762
-0.0709885
-0.0715038
-0.0720222
-0.0725439
-0.0730687
-0.0735968
-0.0741283
-0.074663
-0.0752013
-0.075743
-0.0762882
-0.0768371
-0.0773897
-0.077946
-0.0785063
-0.0790704
-0.0796386
-0.0802109
-0.0807874
-0.0813683
-0.0819536
-0.0825435
-0.0831381
-0.0837375
-0.0843419
-0.0849514
-0.0855662
-0.0861864
-0.0868123
-0.087444
-0.0880817
-0.0887257
-0.0893762
-0.0900334
-0.0906977
-0.0913693
-0.0920485
-0.0927357
-0.0934314
-0.0941359
-0.0948497
-0.0955732
-0.0963072
-0.0970523
-0.097809
-0.0985784
-0.0993614
-0.100159
-0.100972
-0.101803
-0.102654
-0.103525
-0.104421
-0.105344
-0.1063
-0.107293
-0.108332
-0.109426
-0.110589
-0.111834
-0.113174
-0.114606
-0.11611
-0.117617
-0.0549694
-0.0554619
-0.0558473
-0.0561655
-0.0564877
-0.0568264
-0.0571809
-0.057551
-0.0579353
-0.0583321
-0.0587395
-0.059156
-0.0595803
-0.0600114
-0.0604484
-0.0608908
-0.061338
-0.0617895
-0.0622452
-0.0627047
-0.0631678
-0.0636344
-0.0641043
-0.0645775
-0.0650538
-0.0655333
-0.0660157
-0.0665012
-0.0669897
-0.0674812
-0.0679757
-0.0684731
-0.0689736
-0.069477
-0.0699835
-0.070493
-0.0710056
-0.0715213
-0.0720401
-0.0725621
-0.0730874
-0.0736159
-0.0741478
-0.074683
-0.0752217
-0.0757638
-0.0763096
-0.0768589
-0.077412
-0.0779689
-0.0785296
-0.0790943
-0.0796631
-0.080236
-0.0808131
-0.0813946
-0.0819805
-0.0825711
-0.0831664
-0.0837665
-0.0843716
-0.0849819
-0.0855974
-0.0862185
-0.0868452
-0.0874778
-0.0881164
-0.0887614
-0.0894128
-0.0900711
-0.0907364
-0.0914092
-0.0920896
-0.0927781
-0.0934751
-0.094181
-0.0948962
-0.0956213
-0.096357
-0.0971037
-0.0978624
-0.0986337
-0.0994188
-0.100219
-0.101034
-0.101868
-0.102721
-0.103595
-0.104493
-0.105418
-0.106374
-0.107365
-0.108396
-0.109472
-0.110597
-0.11177
-0.112982
-0.114203
-0.115369
-0.116366
-0.0547664
-0.0552945
-0.0557246
-0.0560817
-0.0564341
-0.0567944
-0.0571637
-0.0575435
-0.057934
-0.0583348
-0.0587447
-0.0591628
-0.0595881
-0.0600198
-0.0604573
-0.0608999
-0.0613473
-0.061799
-0.0622548
-0.0627144
-0.0631777
-0.0636444
-0.0641145
-0.0645878
-0.0650643
-0.065544
-0.0660267
-0.0665124
-0.0670011
-0.0674928
-0.0679875
-0.0684852
-0.068986
-0.0694897
-0.0699964
-0.0705062
-0.0710191
-0.0715351
-0.0720543
-0.0725766
-0.0731022
-0.0736311
-0.0741633
-0.0746988
-0.0752379
-0.0757804
-0.0763265
-0.0768763
-0.0774298
-0.077987
-0.0785482
-0.0791133
-0.0796825
-0.0802558
-0.0808334
-0.0814154
-0.0820018
-0.0825928
-0.0831886
-0.0837892
-0.0843948
-0.0850056
-0.0856217
-0.0862433
-0.0868706
-0.0875038
-0.088143
-0.0887886
-0.0894406
-0.0900995
-0.0907655
-0.0914389
-0.09212
-0.0928091
-0.0935067
-0.0942132
-0.0949291
-0.0956548
-0.096391
-0.0971383
-0.0978974
-0.0986691
-0.0994543
-0.100254
-0.10107
-0.101902
-0.102753
-0.103625
-0.104519
-0.105438
-0.106383
-0.107358
-0.108364
-0.1094
-0.110464
-0.111544
-0.11262
-0.11365
-0.114565
-0.115265
-0.0546212
-0.0551649
-0.0556215
-0.0560049
-0.0563801
-0.0567584
-0.0571408
-0.0575298
-0.0579268
-0.0583319
-0.0587448
-0.0591648
-0.0595915
-0.0600241
-0.0604622
-0.0609052
-0.0613529
-0.0618049
-0.0622609
-0.0627207
-0.0631842
-0.0636511
-0.0641213
-0.0645948
-0.0650715
-0.0655513
-0.0660341
-0.06652
-0.067009
-0.0675009
-0.0679958
-0.0684937
-0.0689946
-0.0694986
-0.0700056
-0.0705156
-0.0710287
-0.071545
-0.0720644
-0.072587
-0.0731128
-0.0736419
-0.0741744
-0.0747102
-0.0752495
-0.0757923
-0.0763387
-0.0768887
-0.0774425
-0.078
-0.0785615
-0.0791269
-0.0796963
-0.0802699
-0.0808478
-0.08143
-0.0820168
-0.0826081
-0.0832041
-0.083805
-0.0844109
-0.085022
-0.0856384
-0.0862602
-0.0868878
-0.0875212
-0.0881606
-0.0888064
-0.0894586
-0.0901177
-0.0907838
-0.0914572
-0.0921383
-0.0928274
-0.0935249
-0.0942312
-0.0949468
-0.095672
-0.0964076
-0.097154
-0.0979119
-0.0986821
-0.0994653
-0.100263
-0.101075
-0.101903
-0.102748
-0.103612
-0.104496
-0.1054
-0.106326
-0.107274
-0.108241
-0.109225
-0.110216
-0.111199
-0.112146
-0.113016
-0.113749
-0.114267
-0.05451
-0.0550601
-0.0555325
-0.055934
-0.0563264
-0.0567195
-0.0571134
-0.057511
-0.0579143
-0.058324
-0.05874
-0.0591623
-0.0595905
-0.0600243
-0.0604631
-0.0609068
-0.0613549
-0.0618072
-0.0622635
-0.0627235
-0.0631871
-0.0636542
-0.0641246
-0.0645982
-0.065075
-0.065555
-0.066038
-0.066524
-0.0670131
-0.0675052
-0.0680002
-0.0684983
-0.0689994
-0.0695035
-0.0700106
-0.0705208
-0.0710341
-0.0715505
-0.0720701
-0.0725928
-0.0731188
-0.0736481
-0.0741807
-0.0747167
-0.0752562
-0.0757991
-0.0763457
-0.0768958
-0.0774497
-0.0780074
-0.078569
-0.0791345
-0.0797041
-0.0802778
-0.0808558
-0.0814381
-0.0820249
-0.0826163
-0.0832124
-0.0838133
-0.0844192
-0.0850303
-0.0856466
-0.0862684
-0.0868959
-0.0875291
-0.0881684
-0.0888139
-0.0894659
-0.0901245
-0.0907902
-0.0914631
-0.0921435
-0.0928319
-0.0935284
-0.0942336
-0.0949478
-0.0956714
-0.096405
-0.0971491
-0.0979042
-0.0986709
-0.09945
-0.100242
-0.101048
-0.101868
-0.102703
-0.103555
-0.104422
-0.105306
-0.106205
-0.107117
-0.108039
-0.108964
-0.109879
-0.110767
-0.111601
-0.112342
-0.112943
-0.113347
-0.0544181
-0.0549706
-0.0554531
-0.0558673
-0.0562729
-0.056678
-0.057082
-0.0574875
-0.0578969
-0.058311
-0.0587305
-0.0591552
-0.0595852
-0.0600202
-0.06046
-0.0609044
-0.061353
-0.0618057
-0.0622622
-0.0627225
-0.0631863
-0.0636535
-0.064124
-0.0645978
-0.0650747
-0.0655548
-0.0660379
-0.0665241
-0.0670132
-0.0675054
-0.0680006
-0.0684987
-0.0689999
-0.0695041
-0.0700113
-0.0705216
-0.071035
-0.0715514
-0.0720711
-0.0725939
-0.07312
-0.0736493
-0.074182
-0.074718
-0.0752575
-0.0758005
-0.076347
-0.0768972
-0.0774511
-0.0780088
-0.0785703
-0.0791358
-0.0797053
-0.0802789
-0.0808568
-0.081439
-0.0820257
-0.0826169
-0.0832128
-0.0838135
-0.0844191
-0.0850299
-0.0856458
-0.0862672
-0.0868942
-0.0875269
-0.0881655
-0.0888103
-0.0894615
-0.0901193
-0.0907839
-0.0914556
-0.0921346
-0.0928214
-0.0935161
-0.0942192
-0.0949309
-0.0956518
-0.0963821
-0.0971223
-0.0978729
-0.0986342
-0.0994069
-0.100191
-0.100988
-0.101797
-0.102619
-0.103453
-0.1043
-0.105158
-0.106024
-0.106897
-0.107769
-0.108633
-0.109475
-0.110276
-0.111013
-0.111652
-0.112157
-0.112488
-0.0543371
-0.0548905
-0.0553798
-0.055803
-0.0562187
-0.0566338
-0.0570465
-0.0574593
-0.0578744
-0.0582931
-0.0587159
-0.0591433
-0.0595752
-0.0600117
-0.0604526
-0.0608977
-0.0613469
-0.0618001
-0.062257
-0.0627175
-0.0631815
-0.0636488
-0.0641195
-0.0645934
-0.0650704
-0.0655505
-0.0660337
-0.0665199
-0.0670091
-0.0675013
-0.0679965
-0.0684947
-0.0689959
-0.0695001
-0.0700073
-0.0705176
-0.071031
-0.0715474
-0.072067
-0.0725898
-0.0731158
-0.0736451
-0.0741777
-0.0747137
-0.0752531
-0.075796
-0.0763424
-0.0768924
-0.0774462
-0.0780036
-0.078565
-0.0791302
-0.0796995
-0.0802729
-0.0808504
-0.0814323
-0.0820185
-0.0826093
-0.0832047
-0.0838049
-0.08441
-0.0850201
-0.0856354
-0.0862559
-0.086882
-0.0875138
-0.0881513
-0.0887949
-0.0894447
-0.090101
-0.0907639
-0.0914337
-0.0921107
-0.092795
-0.093487
-0.094187
-0.0948952
-0.095612
-0.0963377
-0.0970725
-0.0978169
-0.0985711
-0.0993352
-0.10011
-0.100894
-0.101689
-0.102494
-0.103309
-0.104131
-0.10496
-0.105791
-0.106621
-0.107443
-0.108247
-0.10902
-0.109745
-0.1104
-0.110959
-0.111393
-0.111675
-0.0542621
-0.0548157
-0.05531
-0.0557398
-0.0561633
-0.0565866
-0.0570069
-0.0574261
-0.0578467
-0.0582697
-0.0586961
-0.0591262
-0.0595602
-0.0599983
-0.0604404
-0.0608864
-0.0613363
-0.06179
-0.0622473
-0.0627081
-0.0631723
-0.0636398
-0.0641106
-0.0645845
-0.0650616
-0.0655418
-0.066025
-0.0665112
-0.0670004
-0.0674926
-0.0679877
-0.0684859
-0.068987
-0.0694911
-0.0699983
-0.0705085
-0.0710217
-0.0715381
-0.0720576
-0.0725802
-0.0731061
-0.0736352
-0.0741676
-0.0747034
-0.0752425
-0.0757852
-0.0763313
-0.0768811
-0.0774345
-0.0779916
-0.0785525
-0.0791174
-0.0796862
-0.0802591
-0.0808361
-0.0814174
-0.082003
-0.0825931
-0.0831877
-0.0837871
-0.0843912
-0.0850004
-0.0856145
-0.086234
-0.0868587
-0.0874891
-0.0881251
-0.0887669
-0.0894149
-0.090069
-0.0907296
-0.0913968
-0.0920708
-0.0927519
-0.0934403
-0.0941362
-0.0948398
-0.0955514
-0.0962711
-0.0969992
-0.0977357
-0.0984809
-0.0992347
-0.0999971
-0.100768
-0.101546
-0.102332
-0.103124
-0.103919
-0.104716
-0.105511
-0.106298
-0.10707
-0.107818
-0.108529
-0.109187
-0.109775
-0.11027
-0.110652
-0.1109
-0.0541897
-0.0547436
-0.0552417
-0.0556763
-0.056106
-0.056536
-0.0569628
-0.0573879
-0.0578135
-0.0582408
-0.0586707
-0.0591035
-0.0595398
-0.0599796
-0.060423
-0.0608701
-0.0613208
-0.061775
-0.0622328
-0.0626939
-0.0631583
-0.063626
-0.0640969
-0.064571
-0.0650481
-0.0655282
-0.0660114
-0.0664976
-0.0669867
-0.0674788
-0.0679739
-0.0684719
-0.0689729
-0.0694769
-0.0699839
-0.0704939
-0.071007
-0.0715231
-0.0720424
-0.0725648
-0.0730903
-0.0736192
-0.0741512
-0.0746867
-0.0752255
-0.0757677
-0.0763134
-0.0768627
-0.0774156
-0.0779722
-0.0785326
-0.0790968
-0.0796649
-0.0802371
-0.0808133
-0.0813937
-0.0819785
-0.0825676
-0.0831612
-0.0837594
-0.0843623
-0.0849701
-0.0855828
-0.0862007
-0.0868237
-0.0874521
-0.0880861
-0.0887257
-0.0893712
-0.0900226
-0.0906802
-0.0913441
-0.0920145
-0.0926915
-0.0933753
-0.0940662
-0.0947641
-0.0954693
-0.0961818
-0.0969017
-0.097629
-0.0983637
-0.0991055
-0.0998541
-0.100609
-0.101369
-0.102134
-0.102901
-0.103668
-0.104433
-0.105191
-0.105935
-0.10666
-0.107356
-0.108011
-0.108612
-0.109144
-0.109589
-0.109931
-0.110156
-0.054118
-0.0546721
-0.0551734
-0.0556117
-0.0560461
-0.0564818
-0.0569142
-0.0573445
-0.0577747
-0.0582061
-0.0586393
-0.059075
-0.0595135
-0.0599551
-0.0604
-0.0608483
-0.0612999
-0.0617548
-0.062213
-0.0626746
-0.0631393
-0.0636072
-0.0640782
-0.0645523
-0.0650294
-0.0655095
-0.0659926
-0.0664787
-0.0669677
-0.0674597
-0.0679546
-0.0684525
-0.0689533
-0.069457
-0.0699638
-0.0704735
-0.0709863
-0.0715021
-0.072021
-0.072543
-0.0730682
-0.0735966
-0.0741283
-0.0746632
-0.0752015
-0.0757431
-0.0762883
-0.0768369
-0.0773891
-0.077945
-0.0785046
-0.079068
-0.0796352
-0.0802064
-0.0807816
-0.081361
-0.0819445
-0.0825324
-0.0831246
-0.0837214
-0.0843227
-0.0849288
-0.0855397
-0.0861555
-0.0867764
-0.0874025
-0.0880339
-0.0886707
-0.0893131
-0.0899612
-0.0906151
-0.091275
-0.091941
-0.0926131
-0.0932916
-0.0939764
-0.0946677
-0.0953654
-0.0960696
-0.0967801
-0.0974969
-0.0982197
-0.098948
-0.0996813
-0.100419
-0.101159
-0.101902
-0.102643
-0.103382
-0.104114
-0.104835
-0.10554
-0.10622
-0.106869
-0.107475
-0.108027
-0.108512
-0.108916
-0.109228
-0.109437
-0.0540454
-0.0545999
-0.0551039
-0.055545
-0.0559833
-0.0564236
-0.0568609
-0.0572958
-0.0577302
-0.0581654
-0.0586018
-0.0590403
-0.0594811
-0.0599247
-0.0603711
-0.0608206
-0.0612731
-0.0617288
-0.0621877
-0.0626496
-0.0631147
-0.0635828
-0.0640539
-0.0645281
-0.0650052
-0.0654853
-0.0659683
-0.0664543
-0.0669431
-0.0674349
-0.0679296
-0.0684272
-0.0689277
-0.0694312
-0.0699376
-0.0704469
-0.0709593
-0.0714747
-0.0719932
-0.0725147
-0.0730394
-0.0735672
-0.0740983
-0.0746326
-0.0751702
-0.0757111
-0.0762555
-0.0768033
-0.0773547
-0.0779096
-0.0784682
-0.0790306
-0.0795967
-0.0801667
-0.0807406
-0.0813186
-0.0819007
-0.082487
-0.0830776
-0.0836725
-0.0842719
-0.0848759
-0.0854846
-0.086098
-0.0867163
-0.0873396
-0.0879679
-0.0886014
-0.0892402
-0.0898844
-0.090534
-0.0911892
-0.09185
-0.0925165
-0.0931888
-0.0938667
-0.0945504
-0.0952397
-0.0959345
-0.0966346
-0.0973397
-0.0980495
-0.0987632
-0.0994801
-0.100199
-0.100919
-0.101638
-0.102354
-0.103064
-0.103764
-0.10445
-0.105116
-0.105756
-0.106362
-0.106925
-0.107435
-0.107881
-0.108253
-0.108541
-0.108738
-0.053971
-0.054526
-0.0550323
-0.0554757
-0.055917
-0.0563613
-0.0568026
-0.0572416
-0.0576798
-0.0581185
-0.0585581
-0.0589992
-0.0594423
-0.0598878
-0.0603358
-0.0607866
-0.0612402
-0.0616968
-0.0621563
-0.0626187
-0.0630841
-0.0635525
-0.0640238
-0.064498
-0.0649751
-0.0654552
-0.0659381
-0.0664239
-0.0669125
-0.067404
-0.0678984
-0.0683957
-0.0688959
-0.0693989
-0.0699049
-0.0704138
-0.0709257
-0.0714406
-0.0719585
-0.0724794
-0.0730034
-0.0735306
-0.0740609
-0.0745944
-0.0751312
-0.0756713
-0.0762147
-0.0767615
-0.0773119
-0.0778657
-0.0784231
-0.0789842
-0.0795489
-0.0801175
-0.0806899
-0.0812663
-0.0818466
-0.082431
-0.0830196
-0.0836124
-0.0842096
-0.0848111
-0.0854172
-0.0860278
-0.086643
-0.087263
-0.0878878
-0.0885175
-0.0891521
-0.0897918
-0.0904365
-0.0910864
-0.0917414
-0.0924015
-0.0930667
-0.093737
-0.0944122
-0.0950922
-0.0957768
-0.0964655
-0.0971581
-0.0978538
-0.0985521
-0.0992518
-0.0999519
-0.100651
-0.101346
-0.102036
-0.102718
-0.103387
-0.104039
-0.10467
-0.105273
-0.105841
-0.106366
-0.106839
-0.107253
-0.107599
-0.107869
-0.108057
-0.0538939
-0.0544494
-0.0549579
-0.0554031
-0.0558469
-0.0562944
-0.0567394
-0.0571818
-0.0576235
-0.0580653
-0.0585078
-0.0589516
-0.0593969
-0.0598443
-0.060294
-0.0607461
-0.0612008
-0.0616583
-0.0621185
-0.0625814
-0.0630472
-0.0635159
-0.0639874
-0.0644617
-0.0649388
-0.0654188
-0.0659015
-0.0663871
-0.0668755
-0.0673668
-0.0678608
-0.0683577
-0.0688575
-0.0693601
-0.0698655
-0.0703739
-0.0708852
-0.0713994
-0.0719166
-0.0724368
-0.0729601
-0.0734864
-0.0740158
-0.0745484
-0.0750842
-0.0756233
-0.0761656
-0.0767112
-0.0772603
-0.0778128
-0.0783688
-0.0789284
-0.0794916
-0.0800585
-0.0806291
-0.0812036
-0.0817819
-0.0823641
-0.0829504
-0.0835408
-0.0841353
-0.084734
-0.0853371
-0.0859444
-0.0865562
-0.0871725
-0.0877933
-0.0884186
-0.0890486
-0.0896832
-0.0903224
-0.0909663
-0.0916149
-0.0922679
-0.0929255
-0.0935874
-0.0942534
-0.0949234
-0.0955969
-0.0962735
-0.0969527
-0.0976338
-0.0983159
-0.0989979
-0.0996785
-0.100356
-0.101028
-0.101693
-0.102347
-0.102986
-0.103608
-0.104205
-0.104774
-0.105308
-0.1058
-0.106243
-0.10663
-0.106953
-0.107209
-0.107391
-0.0538136
-0.0543697
-0.0548801
-0.0553268
-0.0557726
-0.0562229
-0.0566709
-0.0571164
-0.0575612
-0.0580059
-0.0584511
-0.0588973
-0.0593448
-0.0597941
-0.0602453
-0.0606988
-0.0611547
-0.061613
-0.062074
-0.0625375
-0.0630038
-0.0634727
-0.0639444
-0.0644187
-0.0648959
-0.0653758
-0.0658584
-0.0663437
-0.0668319
-0.0673228
-0.0678164
-0.0683129
-0.0688121
-0.0693142
-0.069819
-0.0703268
-0.0708374
-0.0713509
-0.0718673
-0.0723866
-0.072909
-0.0734343
-0.0739628
-0.0744943
-0.0750289
-0.0755668
-0.0761078
-0.0766521
-0.0771997
-0.0777507
-0.0783051
-0.078863
-0.0794244
-0.0799893
-0.0805579
-0.0811302
-0.0817062
-0.082286
-0.0828697
-0.0834573
-0.0840488
-0.0846444
-0.085244
-0.0858478
-0.0864557
-0.0870678
-0.0876841
-0.0883046
-0.0889294
-0.0895584
-0.0901917
-0.0908291
-0.0914705
-0.092116
-0.0927652
-0.0934181
-0.0940743
-0.0947335
-0.0953954
-0.0960593
-0.0967246
-0.0973905
-0.0980561
-0.0987201
-0.099381
-0.100037
-0.100686
-0.101326
-0.101954
-0.102565
-0.103157
-0.103725
-0.104263
-0.104767
-0.10523
-0.105646
-0.10601
-0.106316
-0.10656
-0.106738
-0.0537296
-0.0542863
-0.0547984
-0.0552464
-0.0556938
-0.0561464
-0.0565971
-0.0570453
-0.0574928
-0.0579401
-0.0583878
-0.0588362
-0.0592858
-0.0597369
-0.0601897
-0.0606446
-0.0611016
-0.0615609
-0.0620225
-0.0624867
-0.0629534
-0.0634226
-0.0638945
-0.064369
-0.0648461
-0.0653259
-0.0658083
-0.0662934
-0.0667812
-0.0672717
-0.067765
-0.0682609
-0.0687596
-0.069261
-0.0697652
-0.0702722
-0.070782
-0.0712946
-0.0718102
-0.0723286
-0.0728499
-0.0733741
-0.0739014
-0.0744317
-0.074965
-0.0755015
-0.0760411
-0.0765839
-0.0771298
-0.0776791
-0.0782317
-0.0787876
-0.079347
-0.0799098
-0.080476
-0.0810459
-0.0816193
-0.0821964
-0.0827771
-0.0833616
-0.0839499
-0.0845419
-0.0851378
-0.0857375
-0.0863412
-0.0869487
-0.0875601
-0.0881754
-0.0887946
-0.0894175
-0.0900442
-0.0906746
-0.0913085
-0.0919457
-0.0925861
-0.0932294
-0.0938753
-0.0945233
-0.095173
-0.0958237
-0.0964748
-0.0971252
-0.0977741
-0.0984199
-0.0990614
-0.0996966
-0.100323
-0.100939
-0.101542
-0.102127
-0.102692
-0.103232
-0.103742
-0.104219
-0.104657
-0.10505
-0.105395
-0.105686
-0.10592
-0.106095
-0.0536414
-0.0541987
-0.0547125
-0.0551615
-0.0556103
-0.0560649
-0.0565178
-0.0569685
-0.0574183
-0.057868
-0.0583179
-0.0587684
-0.0592199
-0.0596727
-0.0601271
-0.0605832
-0.0610413
-0.0615016
-0.061964
-0.0624287
-0.0628959
-0.0633654
-0.0638375
-0.0643121
-0.0647892
-0.0652688
-0.0657511
-0.0662359
-0.0667234
-0.0672134
-0.0677062
-0.0682015
-0.0686996
-0.0692003
-0.0697037
-0.0702099
-0.0707188
-0.0712305
-0.071745
-0.0722623
-0.0727825
-0.0733056
-0.0738315
-0.0743604
-0.0748923
-0.0754272
-0.0759652
-0.0765062
-0.0770504
-0.0775978
-0.0781483
-0.0787021
-0.0792592
-0.0798196
-0.0803833
-0.0809505
-0.081521
-0.0820951
-0.0826726
-0.0832537
-0.0838383
-0.0844265
-0.0850183
-0.0856137
-0.0862127
-0.0868152
-0.0874213
-0.088031
-0.0886441
-0.0892605
-0.0898803
-0.0905031
-0.091129
-0.0917576
-0.0923887
-0.093022
-0.0936571
-0.0942935
-0.0949306
-0.0955678
-0.0962044
-0.0968392
-0.0974712
-0.0980991
-0.0987213
-0.0993361
-0.0999412
-0.100534
-0.101113
-0.101674
-0.102213
-0.102728
-0.103214
-0.103666
-0.104082
-0.104455
-0.104783
-0.105062
-0.105289
-0.105462
-0.0535488
-0.0541066
-0.054622
-0.0550719
-0.0555218
-0.0559781
-0.056433
-0.0568857
-0.0573376
-0.0577894
-0.0582414
-0.0586938
-0.0591471
-0.0596015
-0.0600573
-0.0605147
-0.0609739
-0.061435
-0.0618982
-0.0623635
-0.0628311
-0.063301
-0.0637732
-0.0642478
-0.0647249
-0.0652044
-0.0656865
-0.066171
-0.066658
-0.0671476
-0.0676398
-0.0681345
-0.0686319
-0.0691318
-0.0696344
-0.0701397
-0.0706476
-0.0711583
-0.0716716
-0.0721878
-0.0727067
-0.0732284
-0.0737529
-0.0742803
-0.0748106
-0.0753438
-0.0758799
-0.0764191
-0.0769613
-0.0775065
-0.0780548
-0.0786062
-0.0791608
-0.0797186
-0.0802795
-0.0808437
-0.0814112
-0.081982
-0.082556
-0.0831334
-0.0837141
-0.0842981
-0.0848855
-0.0854762
-0.0860702
-0.0866674
-0.0872678
-0.0878714
-0.088478
-0.0890876
-0.0897
-0.090315
-0.0909324
-0.091552
-0.0921734
-0.0927963
-0.0934202
-0.0940447
-0.0946691
-0.0952926
-0.0959145
-0.0965337
-0.097149
-0.0977592
-0.0983626
-0.0989575
-0.0995418
-0.100113
-0.100669
-0.101207
-0.101724
-0.102215
-0.102679
-0.10311
-0.103506
-0.103862
-0.104176
-0.104445
-0.104665
-0.104837
-0.0534514
-0.0540098
-0.0545266
-0.0549773
-0.0554282
-0.055886
-0.0563426
-0.056797
-0.0572508
-0.0577045
-0.0581582
-0.0586124
-0.0590673
-0.0595232
-0.0599803
-0.0604389
-0.0608991
-0.0613611
-0.061825
-0.0622909
-0.0627589
-0.0632291
-0.0637015
-0.0641762
-0.0646532
-0.0651325
-0.0656143
-0.0660985
-0.0665851
-0.0670742
-0.0675657
-0.0680598
-0.0685563
-0.0690555
-0.0695571
-0.0700614
-0.0705683
-0.0710777
-0.0715899
-0.0721047
-0.0726222
-0.0731424
-0.0736653
-0.0741911
-0.0747196
-0.075251
-0.0757852
-0.0763223
-0.0768622
-0.0774052
-0.077951
-0.0784999
-0.0790518
-0.0796067
-0.0801646
-0.0807257
-0.0812898
-0.081857
-0.0824272
-0.0830006
-0.0835771
-0.0841567
-0.0847394
-0.085325
-0.0859137
-0.0865053
-0.0870997
-0.0876969
-0.0882967
-0.088899
-0.0895037
-0.0901105
-0.0907191
-0.0913293
-0.0919408
-0.092553
-0.0931656
-0.0937779
-0.0943894
-0.0949992
-0.0956064
-0.09621
-0.0968089
-0.0974017
-0.0979869
-0.0985626
-0.0991271
-0.099678
-0.100213
-0.100729
-0.101224
-0.101695
-0.102138
-0.102551
-0.102929
-0.103271
-0.103573
-0.103832
-0.104048
-0.104219
-0.0533491
-0.0539081
-0.0544262
-0.0548776
-0.0553292
-0.0557883
-0.0562463
-0.0567024
-0.0571578
-0.0576131
-0.0580685
-0.0585242
-0.0589806
-0.0594378
-0.0598962
-0.0603559
-0.060817
-0.0612798
-0.0617444
-0.0622108
-0.0626792
-0.0631496
-0.0636222
-0.0640969
-0.0645738
-0.065053
-0.0655345
-0.0660182
-0.0665044
-0.0669929
-0.0674837
-0.067977
-0.0684728
-0.068971
-0.0694717
-0.0699748
-0.0704805
-0.0709888
-0.0714995
-0.0720129
-0.0725289
-0.0730475
-0.0735688
-0.0740927
-0.0746193
-0.0751487
-0.0756808
-0.0762156
-0.0767532
-0.0772937
-0.0778369
-0.078383
-0.078932
-0.0794838
-0.0800385
-0.0805962
-0.0811567
-0.0817201
-0.0822863
-0.0828555
-0.0834275
-0.0840024
-0.08458
-0.0851603
-0.0857434
-0.086329
-0.0869171
-0.0875076
-0.0881003
-0.0886951
-0.0892918
-0.08989
-0.0904896
-0.0910902
-0.0916915
-0.0922929
-0.0928939
-0.093494
-0.0940925
-0.0946885
-0.0952812
-0.0958696
-0.0964523
-0.0970282
-0.0975957
-0.0981531
-0.0986986
-0.0992301
-0.0997454
-0.100242
-0.100717
-0.101169
-0.101594
-0.101989
-0.102353
-0.102681
-0.102972
-0.103225
-0.103437
-0.103607
-0.0532416
-0.0538011
-0.0543206
-0.0547725
-0.0552248
-0.055685
-0.0561443
-0.0566017
-0.0570586
-0.0575153
-0.0579722
-0.0584293
-0.058887
-0.0593455
-0.059805
-0.0602656
-0.0607277
-0.0611912
-0.0616564
-0.0621233
-0.062592
-0.0630627
-0.0635353
-0.06401
-0.0644868
-0.0649657
-0.0654469
-0.0659302
-0.0664158
-0.0669037
-0.0673938
-0.0678863
-0.0683811
-0.0688783
-0.0693779
-0.0698799
-0.0703844
-0.0708912
-0.0714006
-0.0719124
-0.0724268
-0.0729437
-0.0734631
-0.0739851
-0.0745097
-0.0750369
-0.0755667
-0.0760991
-0.0766342
-0.077172
-0.0777124
-0.0782556
-0.0788015
-0.07935
-0.0799013
-0.0804553
-0.0810119
-0.0815713
-0.0821333
-0.082698
-0.0832653
-0.0838352
-0.0844075
-0.0849823
-0.0855595
-0.0861389
-0.0867204
-0.087304
-0.0878893
-0.0884763
-0.0890647
-0.0896542
-0.0902446
-0.0908354
-0.0914262
-0.0920166
-0.0926061
-0.0931939
-0.0937794
-0.0943618
-0.0949402
-0.0955135
-0.0960805
-0.09664
-0.0971905
-0.0977304
-0.0982579
-0.0987711
-0.099268
-0.0997463
-0.100204
-0.100638
-0.101046
-0.101426
-0.101776
-0.102093
-0.102376
-0.102622
-0.10283
-0.103001
-0.0531289
-0.0536889
-0.0542096
-0.054662
-0.0551149
-0.055576
-0.0560365
-0.0564951
-0.0569532
-0.0574112
-0.0578693
-0.0583277
-0.0587866
-0.0592462
-0.0597066
-0.0601682
-0.060631
-0.0610952
-0.0615609
-0.0620283
-0.0624973
-0.0629681
-0.0634408
-0.0639155
-0.0643921
-0.0648708
-0.0653515
-0.0658343
-0.0663193
-0.0668065
-0.0672959
-0.0677875
-0.0682813
-0.0687775
-0.0692759
-0.0697766
-0.0702797
-0.0707852
-0.071293
-0.0718032
-0.0723158
-0.0728308
-0.0733483
-0.0738682
-0.0743906
-0.0749155
-0.0754429
-0.0759728
-0.0765052
-0.0770401
-0.0775776
-0.0781176
-0.0786602
-0.0792053
-0.0797529
-0.0803031
-0.0808557
-0.0814108
-0.0819684
-0.0825284
-0.0830907
-0.0836553
-0.0842222
-0.0847912
-0.0853622
-0.0859352
-0.0865099
-0.0870863
-0.087664
-0.088243
-0.088823
-0.0894036
-0.0899845
-0.0905654
-0.0911457
-0.0917251
-0.0923029
-0.0928785
-0.0934512
-0.0940201
-0.0945844
-0.095143
-0.0956948
-0.0962384
-0.0967726
-0.0972958
-0.0978063
-0.0983024
-0.0987821
-0.0992434
-0.0996843
-0.100103
-0.100496
-0.100863
-0.1012
-0.101507
-0.101782
-0.102023
-0.102229
-0.102399
-0.0530108
-0.0535714
-0.0540931
-0.054546
-0.0549994
-0.0554613
-0.0559228
-0.0563824
-0.0568416
-0.0573008
-0.05776
-0.0582195
-0.0586794
-0.05914
-0.0596013
-0.0600637
-0.0605272
-0.060992
-0.0614582
-0.0619259
-0.0623951
-0.0628661
-0.0633388
-0.0638133
-0.0642897
-0.064768
-0.0652483
-0.0657306
-0.066215
-0.0667014
-0.0671899
-0.0676806
-0.0681734
-0.0686684
-0.0691656
-0.069665
-0.0701666
-0.0706705
-0.0711766
-0.0716851
-0.0721958
-0.0727089
-0.0732243
-0.073742
-0.0742621
-0.0747846
-0.0753094
-0.0758366
-0.0763661
-0.0768981
-0.0774325
-0.0779692
-0.0785083
-0.0790497
-0.0795935
-0.0801397
-0.0806881
-0.0812388
-0.0817917
-0.0823467
-0.0829039
-0.0834631
-0.0840242
-0.0845872
-0.085152
-0.0857183
-0.086286
-0.086855
-0.087425
-0.0879958
-0.0885671
-0.0891387
-0.0897101
-0.0902809
-0.0908508
-0.0914191
-0.0919854
-0.0925488
-0.0931088
-0.0936646
-0.0942151
-0.0947594
-0.0952964
-0.0958248
-0.0963434
-0.0968507
-0.0973452
-0.0978252
-0.0982889
-0.0987345
-0.0991601
-0.0995639
-0.0999439
-0.100298
-0.100625
-0.100923
-0.101191
-0.101427
-0.101631
-0.101802
-0.0528874
-0.0534484
-0.0539712
-0.0544245
-0.0548782
-0.0553409
-0.0558033
-0.0562638
-0.0567239
-0.0571841
-0.0576443
-0.0581047
-0.0585655
-0.059027
-0.0594891
-0.0599522
-0.0604163
-0.0608816
-0.0613482
-0.0618161
-0.0622855
-0.0627565
-0.0632292
-0.0637035
-0.0641797
-0.0646576
-0.0651374
-0.0656191
-0.0661027
-0.0665883
-0.067076
-0.0675656
-0.0680573
-0.0685511
-0.0690469
-0.0695449
-0.070045
-0.0705473
-0.0710517
-0.0715583
-0.0720671
-0.072578
-0.0730912
-0.0736067
-0.0741243
-0.0746442
-0.0751663
-0.0756907
-0.0762172
-0.0767461
-0.0772771
-0.0778104
-0.0783459
-0.0788835
-0.0794233
-0.0799652
-0.0805093
-0.0810553
-0.0816034
-0.0821533
-0.0827052
-0.0832588
-0.083814
-0.0843708
-0.0849291
-0.0854885
-0.0860491
-0.0866106
-0.0871727
-0.0877352
-0.0882978
-0.0888602
-0.0894221
-0.0899829
-0.0905422
-0.0910996
-0.0916543
-0.0922058
-0.0927534
-0.0932961
-0.0938332
-0.0943637
-0.0948864
-0.0954003
-0.0959041
-0.0963963
-0.0968757
-0.0973405
-0.0977893
-0.0982204
-0.0986321
-0.0990226
-0.0993904
-0.0997337
-0.100051
-0.100341
-0.100603
-0.100835
-0.101037
-0.101209
-0.0527586
-0.05332
-0.0538438
-0.0542975
-0.0547515
-0.0552148
-0.0556779
-0.0561393
-0.0566002
-0.0570612
-0.0575222
-0.0579835
-0.0584451
-0.0589073
-0.0593701
-0.0598338
-0.0602984
-0.0607641
-0.061231
-0.0616991
-0.0621687
-0.0626397
-0.0631122
-0.0635863
-0.0640621
-0.0645396
-0.0650188
-0.0654998
-0.0659827
-0.0664675
-0.0669541
-0.0674426
-0.0679331
-0.0684256
-0.0689201
-0.0694165
-0.069915
-0.0704156
-0.0709181
-0.0714228
-0.0719295
-0.0724383
-0.0729492
-0.0734622
-0.0739773
-0.0744945
-0.0750138
-0.0755351
-0.0760586
-0.0765842
-0.0771118
-0.0776414
-0.0781731
-0.0787068
-0.0792425
-0.07978
-0.0803195
-0.0808608
-0.0814038
-0.0819485
-0.0824949
-0.0830427
-0.0835919
-0.0841424
-0.0846939
-0.0852465
-0.0857997
-0.0863536
-0.0869077
-0.0874618
-0.0880157
-0.0885689
-0.0891212
-0.089672
-0.0902208
-0.0907673
-0.0913107
-0.0918504
-0.0923858
-0.0929159
-0.09344
-0.0939571
-0.0944661
-0.0949661
-0.0954557
-0.0959337
-0.0963988
-0.0968495
-0.0972844
-0.097702
-0.0981008
-0.0984793
-0.0988359
-0.0991693
-0.0994781
-0.0997611
-0.100017
-0.100246
-0.100447
-0.100619
-0.0526244
-0.0531863
-0.053711
-0.0541649
-0.0546192
-0.055083
-0.0555468
-0.0560089
-0.0564705