/*--------------------------------*- C++ -*----------------------------------*\
| =========                 |                                                 |
| \\      /  F ield         | OpenFOAM: The Open Source CFD Toolbox           |
|  \\    /   O peration     | Version:  2406                                  |
|   \\  /    A nd           | Website:  www.openfoam.com                      |
|    \\/     M anipulation  |                                                 |
\*---------------------------------------------------------------------------*/
FoamFile
{
    version     2.0;
    format      ascii;
    arch        "LSB;label=32;scalar=64";
    class       volScalarField;
    location    "85";
    object      p;
}
// * * * * * * * * * * * * * * * * * * * * * * * * * * * * * * * * * * * * * //

dimensions      [0 2 -2 0 0 0 0];

internalField   nonuniform List<scalar> 
2000
(
0.406154
0.405148
0.403033
0.400265
0.397134
0.393738
0.390149
0.386435
0.382635
0.378772
0.408907
0.406127
0.403142
0.400227
0.397082
0.39366
0.39006
0.386354
0.382567
0.378717
0.410755
0.406691
0.402966
0.400004
0.396945
0.393538
0.389933
0.386239
0.382475
0.378641
0.412046
0.407429
0.40314
0.399974
0.396886
0.393446
0.389804
0.386102
0.38235
0.378532
0.413069
0.408198
0.40349
0.400058
0.396877
0.393389
0.389703
0.385976
0.382223
0.378413
0.413876
0.408864
0.403874
0.400216
0.396927
0.393382
0.389646
0.385884
0.382116
0.378305
0.414494
0.409401
0.404232
0.400405
0.397013
0.393406
0.389621
0.385822
0.382035
0.378217
0.414944
0.409804
0.404524
0.400579
0.397104
0.393442
0.389615
0.385785
0.381979
0.378151
0.415239
0.410072
0.404728
0.40071
0.397178
0.393476
0.389619
0.385766
0.381944
0.378108
0.415385
0.410207
0.404832
0.400779
0.397219
0.393496
0.389623
0.385758
0.381928
0.378087
0.415385
0.410207
0.404832
0.400779
0.397219
0.393496
0.389623
0.385758
0.381928
0.378087
0.415239
0.410072
0.404728
0.40071
0.397178
0.393476
0.389619
0.385766
0.381944
0.378108
0.414944
0.409804
0.404524
0.400579
0.397104
0.393442
0.389615
0.385785
0.381978
0.378151
0.414494
0.409401
0.404232
0.400405
0.397013
0.393406
0.389621
0.385822
0.382035
0.378217
0.413876
0.408864
0.403873
0.400216
0.396927
0.393382
0.389646
0.385884
0.382116
0.378305
0.413069
0.408198
0.40349
0.400058
0.396877
0.393389
0.389703
0.385976
0.382223
0.378413
0.412045
0.407429
0.40314
0.399974
0.396886
0.393446
0.389804
0.386102
0.38235
0.378532
0.410754
0.406691
0.402966
0.400004
0.396945
0.393538
0.389933
0.386239
0.382475
0.378641
0.408907
0.406127
0.403142
0.400227
0.397082
0.39366
0.39006
0.386354
0.382567
0.378717
0.406154
0.405148
0.403033
0.400265
0.397134
0.393738
0.390149
0.386435
0.382635
0.378772
0.374861
0.370914
0.366937
0.362935
0.358914
0.354875
0.350821
0.346754
0.342676
0.338587
0.33449
0.330384
0.326271
0.322151
0.318024
0.313891
0.309754
0.305611
0.301463
0.297311
0.293155
0.288995
0.284831
0.280664
0.276494
0.27232
0.268144
0.263964
0.259782
0.255598
0.251411
0.247222
0.243031
0.238837
0.234642
0.374815
0.370874
0.366903
0.362906
0.358888
0.354852
0.350801
0.346736
0.34266
0.338573
0.334476
0.330372
0.326259
0.32214
0.318014
0.313882
0.309745
0.305602
0.301455
0.297304
0.293148
0.288988
0.284825
0.280658
0.276488
0.272315
0.268138
0.263959
0.259778
0.255593
0.251407
0.247218
0.243026
0.238833
0.234638
0.37475
0.370819
0.366856
0.362866
0.358853
0.354822
0.350774
0.346713
0.342639
0.338554
0.33446
0.330357
0.326246
0.322128
0.318003
0.313872
0.309735
0.305593
0.301447
0.297296
0.293141
0.288982
0.284819
0.280652
0.276482
0.272309
0.268133
0.263954
0.259773
0.255589
0.251402
0.247214
0.243023
0.238829
0.234634
0.374655
0.370736
0.366784
0.362805
0.358801
0.354776
0.350734
0.346677
0.342608
0.338527
0.334436
0.330336
0.326227
0.322111
0.317987
0.313858
0.309722
0.305582
0.301436
0.297286
0.293132
0.288973
0.284811
0.280645
0.276476
0.272303
0.268127
0.263949
0.259768
0.255584
0.251398
0.247209
0.243018
0.238825
0.23463
0.374545
0.370636
0.366695
0.362726
0.358732
0.354715
0.350679
0.346628
0.342565
0.33849
0.334404
0.330307
0.326201
0.322087
0.317966
0.313838
0.309704
0.305566
0.301422
0.297273
0.29312
0.288962
0.284801
0.280635
0.276466
0.272294
0.268119
0.263941
0.25976
0.255577
0.251391
0.247203
0.243013
0.23882
0.234625
0.374441
0.370537
0.366605
0.362645
0.358659
0.354649
0.35062
0.346575
0.342518
0.338448
0.334367
0.330275
0.326172
0.32206
0.317941
0.313815
0.309683
0.305547
0.301405
0.297258
0.293106
0.288949
0.284789
0.280624
0.276456
0.272284
0.268109
0.263932
0.259752
0.255569
0.251384
0.247196
0.243006
0.238814
0.23462
0.374352
0.37045
0.366523
0.362571
0.358592
0.354588
0.350564
0.346524
0.342472
0.338408
0.334332
0.330244
0.326144
0.322034
0.317917
0.313792
0.309663
0.305528
0.301388
0.297243
0.293092
0.288937
0.284777
0.280613
0.276445
0.272274
0.2681
0.263923
0.259743
0.255561
0.251377
0.247189
0.243
0.238808
0.234614
0.374282
0.370381
0.366457
0.36251
0.358537
0.354537
0.350517
0.346481
0.342433
0.338373
0.334302
0.330217
0.32612
0.322012
0.317896
0.313773
0.309645
0.305511
0.301373
0.29723
0.293081
0.288926
0.284767
0.280603
0.276436
0.272265
0.268091
0.263915
0.259736
0.255554
0.25137
0.247183
0.242994
0.238802
0.234609
0.374235
0.370333
0.36641
0.362467
0.358497
0.354501
0.350483
0.346449
0.342404
0.338348
0.33428
0.330198
0.326103
0.321997
0.317881
0.313759
0.309632
0.305499
0.301362
0.29722
0.293072
0.288918
0.28476
0.280596
0.276429
0.272258
0.268085
0.263909
0.25973
0.255549
0.251365
0.247179
0.24299
0.238799
0.234605
0.374211
0.370308
0.366387
0.362445
0.358477
0.354482
0.350466
0.346433
0.342389
0.338335
0.334268
0.330188
0.326094
0.321989
0.317874
0.313752
0.309625
0.305493
0.301357
0.297215
0.293067
0.288914
0.284756
0.280593
0.276425
0.272255
0.268081
0.263905
0.259727
0.255546
0.251363
0.247176
0.242988
0.238796
0.234603
0.374211
0.370308
0.366387
0.362445
0.358477
0.354482
0.350466
0.346433
0.342389
0.338335
0.334268
0.330188
0.326094
0.321988
0.317874
0.313752
0.309625
0.305493
0.301357
0.297215
0.293067
0.288914
0.284756
0.280593
0.276425
0.272255
0.268081
0.263905
0.259727
0.255546
0.251363
0.247176
0.242988
0.238796
0.234603
0.374235
0.370333
0.36641
0.362467
0.358497
0.354501
0.350483
0.34645
0.342404
0.338348
0.33428
0.330198
0.326103
0.321997
0.317881
0.313759
0.309632
0.3055
0.301362
0.29722
0.293072
0.288918
0.284759
0.280596
0.276429
0.272258
0.268085
0.263909
0.25973
0.255549
0.251365
0.247179
0.24299
0.238798
0.234605
0.374282
0.370381
0.366457
0.36251
0.358536
0.354537
0.350517
0.346481
0.342433
0.338373
0.334301
0.330217
0.32612
0.322012
0.317896
0.313773
0.309645
0.305512
0.301373
0.297229
0.29308
0.288926
0.284767
0.280603
0.276436
0.272265
0.268091
0.263915
0.259736
0.255554
0.25137
0.247183
0.242994
0.238802
0.234608
0.374352
0.37045
0.366523
0.36257
0.358592
0.354588
0.350564
0.346524
0.342472
0.338408
0.334332
0.330243
0.326144
0.322034
0.317917
0.313793
0.309663
0.305528
0.301388
0.297242
0.293092
0.288937
0.284777
0.280613
0.276445
0.272274
0.2681
0.263923
0.259743
0.255561
0.251376
0.247189
0.243
0.238808
0.234613
0.374441
0.370537
0.366604
0.362645
0.358659
0.354649
0.35062
0.346575
0.342518
0.338448
0.334367
0.330275
0.326172
0.32206
0.317941
0.313815
0.309684
0.305547
0.301405
0.297258
0.293106
0.288949
0.284789
0.280624
0.276456
0.272284
0.268109
0.263932
0.259752
0.255569
0.251384
0.247196
0.243006
0.238814
0.234619
0.374546
0.370636
0.366695
0.362726
0.358732
0.354715
0.350679
0.346629
0.342565
0.33849
0.334403
0.330307
0.326201
0.322087
0.317966
0.313838
0.309704
0.305566
0.301422
0.297273
0.29312
0.288962
0.284801
0.280635
0.276466
0.272294
0.268119
0.263941
0.25976
0.255577
0.251391
0.247203
0.243013
0.23882
0.234625
0.374655
0.370736
0.366784
0.362804
0.358801
0.354776
0.350734
0.346677
0.342608
0.338527
0.334436
0.330336
0.326227
0.322111
0.317987
0.313858
0.309722
0.305582
0.301436
0.297286
0.293132
0.288973
0.284811
0.280645
0.276476
0.272303
0.268127
0.263949
0.259768
0.255584
0.251398
0.247209
0.243018
0.238825
0.23463
0.37475
0.370819
0.366856
0.362866
0.358853
0.354822
0.350774
0.346713
0.342639
0.338554
0.33446
0.330357
0.326246
0.322128
0.318003
0.313872
0.309735
0.305593
0.301447
0.297296
0.293141
0.288982
0.284819
0.280652
0.276482
0.272309
0.268133
0.263954
0.259773
0.255589
0.251402
0.247213
0.243022
0.238829
0.234634
0.374815
0.370874
0.366903
0.362906
0.358888
0.354852
0.350801
0.346736
0.34266
0.338573
0.334476
0.330372
0.326259
0.32214
0.318014
0.313882
0.309745
0.305602
0.301455
0.297304
0.293148
0.288988
0.284825
0.280658
0.276488
0.272315
0.268138
0.263959
0.259778
0.255593
0.251407
0.247218
0.243026
0.238833
0.234638
0.374861
0.370914
0.366937
0.362935
0.358914
0.354875
0.350821
0.346754
0.342676
0.338587
0.33449
0.330384
0.326271
0.322151
0.318024
0.313891
0.309754
0.305611
0.301463
0.297311
0.293155
0.288995
0.284831
0.280664
0.276494
0.27232
0.268144
0.263964
0.259782
0.255598
0.251411
0.247222
0.24303
0.238837
0.234641
0.230444
0.226245
0.222044
0.217841
0.213636
0.20943
0.205223
0.201014
0.196803
0.192591
0.23044
0.226241
0.22204
0.217838
0.213633
0.209427
0.20522
0.201011
0.1968
0.192588
0.230437
0.226238
0.222037
0.217834
0.21363
0.209424
0.205217
0.201008
0.196798
0.192586
0.230433
0.226235
0.222034
0.217831
0.213627
0.209421
0.205214
0.201005
0.196795
0.192583
0.230429
0.22623
0.222029
0.217827
0.213623
0.209418
0.20521
0.201002
0.196792
0.19258
0.230423
0.226225
0.222024
0.217822
0.213618
0.209413
0.205206
0.200998
0.196788
0.192576
0.230417
0.226219
0.222019
0.217817
0.213613
0.209408
0.205201
0.200993
0.196783
0.192572
0.230412
0.226214
0.222014
0.217812
0.213609
0.209404
0.205197
0.200989
0.19678
0.192569
0.230409
0.226211
0.222011
0.217809
0.213605
0.209401
0.205194
0.200986
0.196777
0.192566
0.230407
0.226209
0.222009
0.217807
0.213604
0.209399
0.205193
0.200985
0.196776
0.192565
0.230407
0.226209
0.222009
0.217807
0.213604
0.209399
0.205193
0.200985
0.196776
0.192565
0.230409
0.226211
0.222011
0.217809
0.213605
0.209401
0.205194
0.200986
0.196777
0.192566
0.230412
0.226214
0.222014
0.217812
0.213609
0.209404
0.205197
0.200989
0.19678
0.192569
0.230417
0.226219
0.222019
0.217817
0.213613
0.209408
0.205201
0.200993
0.196783
0.192572
0.230423
0.226224
0.222024
0.217822
0.213618
0.209413
0.205206
0.200997
0.196787
0.192576
0.230429
0.22623
0.222029
0.217827
0.213623
0.209417
0.20521
0.201001
0.196791
0.19258
0.230433
0.226234
0.222034
0.217831
0.213627
0.209421
0.205214
0.201005
0.196795
0.192583
0.230437
0.226238
0.222037
0.217834
0.21363
0.209424
0.205217
0.201008
0.196797
0.192586
0.23044
0.226241
0.22204
0.217837
0.213633
0.209427
0.205219
0.20101
0.1968
0.192588
0.230444
0.226245
0.222044
0.217841
0.213636
0.20943
0.205223
0.201013
0.196803
0.192591
0.188378
0.184163
0.179948
0.175731
0.171513
0.167293
0.163073
0.158852
0.154629
0.150406
0.146181
0.141956
0.13773
0.133503
0.129275
0.125046
0.120816
0.116586
0.112355
0.108123
0.10389
0.0996566
0.0954225
0.0911877
0.0869523
0.0827162
0.0784795
0.0742421
0.0700042
0.0657656
0.0615265
0.0572868
0.0530466
0.0488058
0.0445645
0.188375
0.184161
0.179945
0.175728
0.17151
0.167291
0.163071
0.15885
0.154627
0.150404
0.146179
0.141954
0.137728
0.133501
0.129273
0.125044
0.120815
0.116584
0.112353
0.108121
0.103888
0.099655
0.095421
0.0911862
0.0869508
0.0827147
0.078478
0.0742407
0.0700028
0.0657643
0.0615252
0.0572856
0.0530453
0.0488046
0.0445633
0.188373
0.184158
0.179943
0.175726
0.171508
0.167289
0.163069
0.158848
0.154625
0.150402
0.146178
0.141952
0.137726
0.133499
0.129271
0.125043
0.120813
0.116583
0.112351
0.10812
0.103887
0.0996536
0.0954196
0.0911849
0.0869495
0.0827135
0.0784768
0.0742395
0.0700016
0.0657631
0.0615241
0.0572844
0.0530443
0.0488035
0.0445623
0.18837
0.184156
0.179941
0.175724
0.171506
0.167287
0.163067
0.158846
0.154623
0.1504
0.146176
0.141951
0.137725
0.133498
0.12927
0.125041
0.120812
0.116581
0.11235
0.108118
0.103886
0.0996524
0.0954184
0.0911837
0.0869484
0.0827123
0.0784757
0.0742384
0.0700006
0.0657621
0.0615231
0.0572835
0.0530433
0.0488026
0.0445614
0.188367
0.184153
0.179938
0.175721
0.171503
0.167284
0.163064
0.158843
0.154621
0.150398
0.146174
0.141949
0.137723
0.133496
0.129268
0.125039
0.12081
0.116579
0.112348
0.108117
0.103884
0.0996509
0.0954169
0.0911823
0.086947
0.082711
0.0784744
0.0742372
0.0699993
0.0657609
0.0615219
0.0572823
0.0530422
0.0488016
0.0445604
0.188364
0.18415
0.179934
0.175718
0.1715
0.167281
0.163062
0.15884
0.154618
0.150395
0.146171
0.141946
0.13772
0.133493
0.129266
0.125037
0.120808
0.116577
0.112347
0.108115
0.103882
0.0996491
0.0954152
0.0911806
0.0869453
0.0827094
0.0784728
0.0742357
0.0699979
0.0657595
0.0615205
0.057281
0.053041
0.0488004
0.0445592
0.18836
0.184146
0.179931
0.175715
0.171497
0.167278
0.163058
0.158837
0.154615
0.150392
0.146168
0.141944
0.137718
0.133491
0.129263
0.125035
0.120805
0.116575
0.112344
0.108113
0.10388
0.0996472
0.0954133
0.0911788
0.0869436
0.0827077
0.0784712
0.074234
0.0699963
0.065758
0.0615191
0.0572796
0.0530396
0.048799
0.044558
0.188357
0.184143
0.179928
0.175712
0.171494
0.167275
0.163056
0.158835
0.154613
0.15039
0.146166
0.141941
0.137715
0.133489
0.129261
0.125033
0.120803
0.116573
0.112343
0.108111
0.103879
0.0996455
0.0954116
0.0911771
0.0869419
0.0827061
0.0784696
0.0742325
0.0699948
0.0657565
0.0615177
0.0572783
0.0530383
0.0487978
0.0445568
0.188354
0.184141
0.179926
0.175709
0.171492
0.167273
0.163054
0.158833
0.154611
0.150388
0.146164
0.141939
0.137714
0.133487
0.129259
0.125031
0.120802
0.116572
0.112341
0.10811
0.103877
0.0996441
0.0954103
0.0911758
0.0869407
0.0827048
0.0784684
0.0742313
0.0699937
0.0657554
0.0615166
0.0572772
0.0530373
0.0487968
0.0445559
0.188353
0.184139
0.179924
0.175708
0.171491
0.167272
0.163052
0.158832
0.15461
0.150387
0.146163
0.141938
0.137713
0.133486
0.129259
0.12503
0.120801
0.116571
0.11234
0.108109
0.103876
0.0996434
0.0954096
0.0911751
0.0869399
0.0827041
0.0784677
0.0742307
0.069993
0.0657548
0.061516
0.0572766
0.0530367
0.0487963
0.0445553
0.188353
0.184139
0.179924
0.175708
0.171491
0.167272
0.163052
0.158832
0.15461
0.150387
0.146163
0.141938
0.137713
0.133486
0.129259
0.12503
0.120801
0.116571
0.11234
0.108109
0.103876
0.0996433
0.0954095
0.091175
0.0869399
0.0827041
0.0784677
0.0742306
0.069993
0.0657547
0.0615159
0.0572765
0.0530366
0.0487962
0.0445553
0.188354
0.18414
0.179926
0.175709
0.171492
0.167273
0.163053
0.158833
0.154611
0.150388
0.146164
0.141939
0.137713
0.133487
0.129259
0.125031
0.120802
0.116572
0.112341
0.108109
0.103877
0.0996439
0.0954101
0.0911757
0.0869405
0.0827047
0.0784682
0.0742312
0.0699935
0.0657552
0.0615164
0.057277
0.0530371
0.0487967
0.0445557
0.188356
0.184143
0.179928
0.175712
0.171494
0.167275
0.163056
0.158835
0.154613
0.15039
0.146166
0.141941
0.137715
0.133488
0.129261
0.125033
0.120803
0.116573
0.112342
0.108111
0.103878
0.0996452
0.0954114
0.0911769
0.0869417
0.0827058
0.0784693
0.0742323
0.0699945
0.0657563
0.0615174
0.057278
0.053038
0.0487975
0.0445565
0.18836
0.184146
0.179931
0.175714
0.171497
0.167278
0.163058
0.158837
0.154615
0.150392
0.146168
0.141943
0.137717
0.133491
0.129263
0.125035
0.120805
0.116575
0.112344
0.108112
0.10388
0.0996469
0.095413
0.0911785
0.0869432
0.0827073
0.0784708
0.0742337
0.0699959
0.0657576
0.0615187
0.0572792
0.0530392
0.0487987
0.0445576
0.188363
0.184149
0.179934
0.175718
0.1715
0.167281
0.163061
0.15884
0.154618
0.150395
0.146171
0.141946
0.13772
0.133493
0.129265
0.125037
0.120807
0.116577
0.112346
0.108114
0.103882
0.0996487
0.0954148
0.0911802
0.0869449
0.082709
0.0784724
0.0742353
0.0699975
0.0657591
0.0615201
0.0572806
0.0530405
0.0487999
0.0445588
0.188367
0.184153
0.179938
0.175721
0.171503
0.167284
0.163064
0.158843
0.154621
0.150398
0.146173
0.141948
0.137722
0.133495
0.129268
0.125039
0.120809
0.116579
0.112348
0.108116
0.103884
0.0996505
0.0954165
0.0911819
0.0869465
0.0827106
0.0784739
0.0742367
0.0699989
0.0657605
0.0615214
0.0572819
0.0530418
0.0488011
0.04456
0.18837
0.184156
0.17994
0.175724
0.171506
0.167287
0.163067
0.158845
0.154623
0.1504
0.146176
0.14195
0.137724
0.133497
0.129269
0.125041
0.120811
0.116581
0.11235
0.108118
0.103885
0.099652
0.095418
0.0911833
0.0869479
0.0827119
0.0784752
0.074238
0.0700001
0.0657616
0.0615226
0.057283
0.0530429
0.0488022
0.044561
0.188373
0.184158
0.179943
0.175726
0.171508
0.167289
0.163069
0.158847
0.154625
0.150402
0.146177
0.141952
0.137726
0.133499
0.129271
0.125042
0.120813
0.116582
0.112351
0.108119
0.103887
0.0996532
0.0954192
0.0911844
0.086949
0.082713
0.0784763
0.074239
0.0700011
0.0657626
0.0615236
0.057284
0.0530438
0.0488031
0.0445618
0.188375
0.184161
0.179945
0.175728
0.17151
0.167291
0.163071
0.158849
0.154627
0.150403
0.146179
0.141954
0.137728
0.133501
0.129273
0.125044
0.120814
0.116584
0.112353
0.108121
0.103888
0.0996546
0.0954205
0.0911858
0.0869504
0.0827143
0.0784776
0.0742403
0.0700023
0.0657638
0.0615247
0.0572851
0.0530449
0.0488041
0.0445629
0.188378
0.184163
0.179947
0.175731
0.171512
0.167293
0.163073
0.158851
0.154629
0.150406
0.146181
0.141956
0.13773
0.133502
0.129274
0.125046
0.120816
0.116586
0.112354
0.108122
0.10389
0.0996562
0.0954221
0.0911873
0.0869518
0.0827157
0.078479
0.0742417
0.0700037
0.0657652
0.061526
0.0572864
0.0530461
0.0488054
0.0445641
0.0403227
0.0360804
0.0318375
0.0275942
0.0233504
0.0191061
0.0148614
0.0106162
0.00637036
0.00212468
0.0403215
0.0360792
0.0318364
0.0275931
0.0233493
0.0191051
0.0148603
0.0106153
0.00636922
0.0021248
0.0403205
0.0360782
0.0318355
0.0275922
0.0233485
0.0191042
0.0148595
0.0106146
0.00636808
0.00212541
0.0403197
0.0360775
0.0318347
0.0275915
0.0233478
0.0191037
0.014859
0.0106142
0.00636748
0.00212565
0.0403187
0.0360765
0.0318339
0.0275907
0.0233471
0.0191031
0.0148585
0.0106138
0.00636732
0.0021249
0.0403176
0.0360755
0.0318329
0.0275899
0.0233464
0.0191025
0.0148581
0.0106135
0.00636764
0.00212316
0.0403164
0.0360744
0.0318319
0.027589
0.0233456
0.0191019
0.0148577
0.0106132
0.00636839
0.00212074
0.0403153
0.0360733
0.0318309
0.0275881
0.0233449
0.0191013
0.0148574
0.0106131
0.00636931
0.00211822
0.0403144
0.0360725
0.0318302
0.0275874
0.0233443
0.0191008
0.0148572
0.0106129
0.00637011
0.0021162
0.0403139
0.036072
0.0318297
0.027587
0.023344
0.0191006
0.0148571
0.0106129
0.00637058
0.00211511
0.0403139
0.036072
0.0318297
0.027587
0.0233439
0.0191005
0.0148571
0.0106128
0.00637053
0.00211517
0.0403143
0.0360723
0.03183
0.0275873
0.0233442
0.0191007
0.0148571
0.0106128
0.00637005
0.00211638
0.040315
0.0360731
0.0318307
0.0275878
0.0233446
0.0191011
0.0148573
0.010613
0.00636917
0.00211849
0.0403161
0.036074
0.0318315
0.0275886
0.0233453
0.0191016
0.0148575
0.0106131
0.00636823
0.00212106
0.0403172
0.0360751
0.0318325
0.0275895
0.023346
0.0191022
0.0148578
0.0106133
0.00636748
0.00212348
0.0403183
0.0360761
0.0318335
0.0275903
0.0233468
0.0191028
0.0148582
0.0106136
0.00636713
0.00212517
0.0403192
0.036077
0.0318343
0.0275911
0.0233475
0.0191034
0.0148587
0.010614
0.00636734
0.00212584
0.0403201
0.0360778
0.0318351
0.0275918
0.0233481
0.019104
0.0148592
0.0106145
0.00636794
0.00212551
0.0403211
0.0360788
0.031836
0.0275928
0.023349
0.0191048
0.0148601
0.0106151
0.0063691
0.00212482
0.0403223
0.03608
0.0318372
0.0275939
0.0233501
0.0191059
0.0148612
0.010616
0.00637026
0.00212466
)
;

boundaryField
{
    inlet
    {
        type            zeroGradient;
    }
    outlet
    {
        type            fixedValue;
        value           uniform 0;
    }
    upperWall
    {
        type            zeroGradient;
    }
    lowerWall
    {
        type            zeroGradient;
    }
    frontAndBack
    {
        type            empty;
    }
}


// ************************************************************************* //
