/*--------------------------------*- C++ -*----------------------------------*\
| =========                 |                                                 |
| \\      /  F ield         | OpenFOAM: The Open Source CFD Toolbox           |
|  \\    /   O peration     | Version:  2406                                  |
|   \\  /    A nd           | Website:  www.openfoam.com                      |
|    \\/     M anipulation  |                                                 |
\*---------------------------------------------------------------------------*/
FoamFile
{
    version     2.0;
    format      ascii;
    arch        "LSB;label=32;scalar=64";
    class       surfaceScalarField;
    location    "85";
    object      phi;
}
// * * * * * * * * * * * * * * * * * * * * * * * * * * * * * * * * * * * * * //

dimensions      [0 3 -1 0 0 0 0];

oriented        oriented;

internalField   nonuniform List<scalar> 
3880
(
0.0197684
-0.000268436
0.0200725
-0.00030407
0.0203031
-0.000230633
0.0204729
-0.000169753
0.0206019
-0.000128982
0.0207006
-9.87136e-05
0.0207761
-7.5506e-05
0.0208347
-5.86044e-05
0.0208814
-4.66984e-05
-3.81725e-05
0.0209196
0.0553675
-0.000135976
0.0553275
-0.000264023
0.0553648
-0.000267968
0.0554355
-0.000240436
0.0555189
-0.000212388
0.0556047
-0.000184426
0.0556863
-0.000157187
0.055761
-0.000133237
0.0558279
-0.000113581
-9.76736e-05
0.0558874
0.0874356
-7.16034e-05
0.0873481
-0.000176524
0.087291
-0.000210802
0.0872617
-0.000211176
0.0872528
-0.000203418
0.0872599
-0.000191533
0.0872785
-0.00017587
0.0873043
-0.000158938
0.0873336
-0.000142931
-0.000128556
0.0873645
0.115472
-4.33426e-05
0.115412
-0.000116681
0.115356
-0.000154868
0.115312
-0.000167177
0.115278
-0.000169209
0.115253
-0.000166284
0.115236
-0.000159027
0.115226
-0.000149005
0.115221
-0.000138215
-0.000127743
0.11522
0.139485
-2.8202e-05
0.139447
-7.92853e-05
0.139405
-0.000112647
0.139367
-0.00012849
0.139332
-0.000134657
0.139302
-0.000135788
0.139275
-0.000132988
0.139254
-0.000127275
0.139236
-0.000120146
-0.000112679
0.139221
0.159491
-1.89854e-05
0.159466
-5.46209e-05
0.159434
-8.08194e-05
0.159402
-9.58618e-05
0.15937
-0.000103242
0.159341
-0.000106116
0.159313
-0.000105649
0.159289
-0.00010259
0.159266
-9.79854e-05
-9.27353e-05
0.159246
0.175494
-1.26729e-05
0.175476
-3.68617e-05
0.175451
-5.58517e-05
0.175423
-6.80249e-05
0.175395
-7.47907e-05
0.175367
-7.79995e-05
0.17534
-7.8581e-05
0.175314
-7.71044e-05
0.17529
-7.42753e-05
-7.07556e-05
0.175268
0.187495
-7.83613e-06
0.187481
-2.29143e-05
0.187461
-3.51953e-05
0.187436
-4.35877e-05
0.18741
-4.86067e-05
0.187383
-5.12159e-05
0.187357
-5.20172e-05
0.187331
-5.14024e-05
0.187306
-4.98128e-05
-4.76736e-05
0.187283
0.195496
-3.75555e-06
0.195484
-1.10091e-05
0.195466
-1.70293e-05
0.195444
-2.12832e-05
0.195419
-2.39282e-05
0.195393
-2.53665e-05
0.195367
-2.58863e-05
0.195341
-2.56872e-05
0.195316
-2.4982e-05
-2.39764e-05
0.195293
0.199496
2.1775e-10
0.199485
6.38264e-10
0.199468
5.81968e-10
0.199447
9.28841e-10
0.199423
1.67408e-09
0.199398
1.73637e-09
0.199372
1.10525e-09
0.199346
8.04783e-10
0.199321
1.34961e-09
2.12923e-09
0.199297
0.199496
3.75577e-06
0.199485
1.10094e-05
0.199468
1.70314e-05
0.199447
2.1286e-05
0.199423
2.39302e-05
0.199398
2.53686e-05
0.199372
2.58893e-05
0.199346
2.56906e-05
0.199321
2.49852e-05
2.39795e-05
0.199297
0.195496
7.83666e-06
0.195484
2.29155e-05
0.195466
3.51965e-05
0.195444
4.35895e-05
0.195419
4.86094e-05
0.195393
5.12187e-05
0.195367
5.20197e-05
0.195341
5.14048e-05
0.195316
4.98156e-05
4.76775e-05
0.195293
0.187495
1.26732e-05
0.187481
3.68625e-05
0.187461
5.58535e-05
0.187436
6.80266e-05
0.18741
7.47926e-05
0.187383
7.80023e-05
0.187357
7.85842e-05
0.187331
7.71073e-05
0.187306
7.42777e-05
7.0758e-05
0.187283
0.175494
1.89857e-05
0.175476
5.46215e-05
0.175451
8.08206e-05
0.175423
9.58638e-05
0.175395
0.000103244
0.175367
0.000106119
0.17534
0.000105653
0.175314
0.000102593
0.17529
9.7987e-05
9.27371e-05
0.175268
0.159491
2.82024e-05
0.159466
7.92865e-05
0.159434
0.000112648
0.159402
0.000128491
0.15937
0.000134659
0.159341
0.000135792
0.159313
0.000132991
0.159289
0.000127278
0.159266
0.000120148
0.000112681
0.159246
0.139485
4.33429e-05
0.139447
0.000116682
0.139405
0.00015487
0.139367
0.000167179
0.139332
0.000169211
0.139302
0.000166286
0.139275
0.00015903
0.139254
0.000149008
0.139236
0.000138217
0.000127745
0.139221
0.115472
7.16039e-05
0.115412
0.000176525
0.115356
0.000210803
0.115312
0.000211178
0.115278
0.00020342
0.115253
0.000191535
0.115236
0.000175872
0.115226
0.00015894
0.115221
0.000142934
0.000128558
0.11522
0.0874356
0.000135976
0.0873481
0.000264024
0.087291
0.00026797
0.0872617
0.000240438
0.0872527
0.000212389
0.0872599
0.000184428
0.0872785
0.000157189
0.0873042
0.00013324
0.0873336
0.000113584
9.76754e-05
0.0873645
0.0553675
0.000268437
0.0553275
0.00030407
0.0553648
0.000230633
0.0554355
0.000169755
0.0555189
0.000128984
0.0556047
9.8715e-05
0.0556863
7.5508e-05
0.055761
5.86064e-05
0.0558279
4.66998e-05
3.81742e-05
0.0558874
0.0197684
0.0200725
0.0203031
0.0204729
0.0206019
0.0207006
0.0207761
0.0208347
0.0208814
0.0209196
0.0209514
-3.18338e-05
0.0209784
-2.69847e-05
0.0210016
-2.32107e-05
0.0210219
-2.02293e-05
0.0210397
-1.78326e-05
0.0210556
-1.58667e-05
0.0210698
-1.42232e-05
0.0210826
-1.28307e-05
0.0210943
-1.16438e-05
0.0211049
-1.06308e-05
0.0211146
-9.76405e-06
0.0211237
-9.01678e-06
0.021132
-8.36446e-06
0.0211398
-7.78686e-06
0.0211471
-7.26965e-06
0.0211539
-6.80363e-06
0.0211603
-6.38306e-06
0.0211663
-6.00415e-06
0.0211719
-5.66324e-06
0.0211773
-5.35633e-06
0.0211824
-5.07912e-06
0.0211872
-4.82697e-06
0.0211918
-4.59577e-06
0.0211962
-4.38194e-06
0.0212004
-4.18279e-06
0.0212044
-3.99647e-06
0.0212082
-3.82179e-06
0.0212118
-3.65805e-06
0.0212154
-3.50485e-06
0.0212187
-3.36174e-06
0.0212219
-3.22834e-06
0.021225
-3.10396e-06
0.021228
-2.98793e-06
0.0212309
-2.87935e-06
-2.77736e-06
0.0212337
0.0559402
-8.46658e-05
0.0559871
-7.39344e-05
0.056029
-6.5057e-05
0.0560665
-5.76979e-05
0.0561002
-5.1561e-05
0.0561307
-4.63886e-05
0.0561585
-4.19753e-05
0.0561838
-3.81741e-05
0.0562071
-3.48865e-05
0.0562285
-3.20406e-05
0.0562483
-2.95735e-05
0.0562667
-2.74239e-05
0.0562839
-2.5533e-05
0.0562999
-2.38513e-05
0.056315
-2.23413e-05
0.0563292
-2.0977e-05
0.0563425
-1.97414e-05
0.0563552
-1.86223e-05
0.0563671
-1.7609e-05
0.0563784
-1.66908e-05
0.0563892
-1.58561e-05
0.0563995
-1.50937e-05
0.0564093
-1.43929e-05
0.0564186
-1.37444e-05
0.0564276
-1.3141e-05
0.0564362
-1.25772e-05
0.0564444
-1.20491e-05
0.0564523
-1.1554e-05
0.0564599
-1.10898e-05
0.0564672
-1.06547e-05
0.0564742
-1.02471e-05
0.056481
-9.86529e-06
0.0564875
-9.50722e-06
0.0564938
-9.17086e-06
-8.85408e-06
0.0564998
0.0873956
-0.000115764
0.0874261
-0.000104424
0.0874555
-9.44524e-05
0.0874835
-8.57569e-05
0.0875102
-7.81953e-05
0.0875354
-7.15936e-05
0.0875592
-6.57852e-05
0.0875817
-6.06432e-05
0.0876029
-5.60847e-05
0.0876229
-5.20523e-05
0.0876418
-4.84919e-05
0.0876597
-4.53419e-05
0.0876767
-4.25351e-05
0.0876929
-4.00087e-05
0.0877082
-3.77145e-05
0.0877229
-3.56189e-05
0.0877368
-3.37007e-05
0.0877502
-3.19465e-05
0.0877629
-3.03446e-05
0.0877751
-2.88823e-05
0.0877868
-2.75448e-05
0.087798
-2.6316e-05
0.0878088
-2.51802e-05
0.0878192
-2.41236e-05
0.0878292
-2.31351e-05
0.0878388
-2.22069e-05
0.0878481
-2.13334e-05
0.087857
-2.05113e-05
0.0878657
-1.97378e-05
0.087874
-1.90106e-05
0.0878821
-1.83271e-05
0.0878899
-1.76843e-05
0.0878975
-1.70792e-05
0.0879048
-1.65082e-05
-1.59681e-05
0.087912
0.115222
-0.00011789
0.115227
-0.000108732
0.115233
-0.000100349
0.11524
-9.27972e-05
0.115247
-8.6056e-05
0.115256
-8.00354e-05
0.115265
-7.46208e-05
0.115274
-6.9721e-05
0.115283
-6.52859e-05
0.115292
-6.12907e-05
0.115301
-5.77099e-05
0.115311
-5.45026e-05
0.11532
-5.16127e-05
0.115329
-4.89811e-05
0.115338
-4.65597e-05
0.115346
-4.43166e-05
0.115355
-4.22347e-05
0.115363
-4.03064e-05
0.115371
-3.85267e-05
0.115379
-3.68876e-05
0.115387
-3.53776e-05
0.115395
-3.39812e-05
0.115402
-3.26816e-05
0.11541
-3.14634e-05
0.115417
-3.0314e-05
0.115424
-2.92248e-05
0.115431
-2.81908e-05
0.115437
-2.72095e-05
0.115444
-2.62799e-05
0.11545
-2.5401e-05
0.115457
-2.45711e-05
0.115463
-2.37876e-05
0.115469
-2.30468e-05
0.115474
-2.23447e-05
-2.16771e-05
0.11548
0.139208
-0.000105327
0.139198
-9.82693e-05
0.139189
-9.16454e-05
0.139182
-8.55714e-05
0.139176
-8.00874e-05
0.139171
-7.51522e-05
0.139167
-7.06834e-05
0.139164
-6.66069e-05
0.139161
-6.2885e-05
0.13916
-5.95082e-05
0.139158
-5.64678e-05
0.139158
-5.37395e-05
0.139157
-5.12792e-05
0.139157
-4.90331e-05
0.139158
-4.6954e-05
0.139158
-4.50107e-05
0.139159
-4.31885e-05
0.139161
-4.14843e-05
0.139162
-3.98991e-05
0.139163
-3.84312e-05
0.139165
-3.70734e-05
0.139167
-3.58136e-05
0.139169
-3.46361e-05
0.139171
-3.35256e-05
0.139173
-3.24695e-05
0.139175
-3.14592e-05
0.139178
-3.04904e-05
0.13918
-2.95622e-05
0.139182
-2.86754e-05
0.139185
-2.78311e-05
0.139187
-2.70295e-05
0.13919
-2.62695e-05
0.139192
-2.55481e-05
0.139195
-2.48617e-05
-2.42059e-05
0.139197
0.159228
-8.73176e-05
0.159212
-8.1955e-05
0.159197
-7.68107e-05
0.159184
-7.20239e-05
0.159171
-6.76686e-05
0.15916
-6.37376e-05
0.159149
-6.01733e-05
0.15914
-5.69156e-05
0.159131
-5.39335e-05
0.159122
-5.1224e-05
0.159115
-4.87891e-05
0.159108
-4.66157e-05
0.159101
-4.46703e-05
0.159095
-4.29053e-05
0.159089
-4.1276e-05
0.159084
-3.97512e-05
0.159079
-3.8316e-05
0.159075
-3.69688e-05
0.15907
-3.57135e-05
0.159067
-3.45516e-05
0.159063
-3.34796e-05
0.15906
-3.24876e-05
0.159057
-3.15619e-05
0.159054
-3.06881e-05
0.159051
-2.9854e-05
0.159049
-2.90512e-05
0.159047
-2.8276e-05
0.159044
-2.75278e-05
0.159043
-2.68082e-05
0.159041
-2.61194e-05
0.159039
-2.54629e-05
0.159038
-2.48386e-05
0.159037
-2.42448e-05
0.159035
-2.36784e-05
-2.31357e-05
0.159034
0.175248
-6.69522e-05
0.175229
-6.30784e-05
0.175212
-5.92875e-05
0.175195
-5.57111e-05
0.17518
-5.24288e-05
0.175166
-4.94538e-05
0.175152
-4.67513e-05
0.17514
-4.42763e-05
0.175128
-4.20051e-05
0.175116
-3.99392e-05
0.175106
-3.80851e-05
0.175096
-3.64373e-05
0.175086
-3.49728e-05
0.175077
-3.36547e-05
0.175068
-3.24451e-05
0.175059
-3.13167e-05
0.175051
-3.02553e-05
0.175044
-2.92589e-05
0.175036
-2.83317e-05
0.175029
-2.74764e-05
0.175022
-2.66917e-05
0.175016
-2.59706e-05
0.17501
-2.53017e-05
0.175004
-2.4673e-05
0.174998
-2.40738e-05
0.174992
-2.34967e-05
0.174987
-2.29379e-05
0.174982
-2.2397e-05
0.174977
-2.18753e-05
0.174972
-2.13749e-05
0.174968
-2.08973e-05
0.174963
-2.04429e-05
0.174959
-2.00107e-05
0.174955
-1.95987e-05
-1.92039e-05
0.174951
0.187262
-4.52694e-05
0.187241
-4.27615e-05
0.187222
-4.02669e-05
0.187205
-3.78861e-05
0.187188
-3.56852e-05
0.187172
-3.36821e-05
0.187157
-3.18586e-05
0.187143
-3.01854e-05
0.18713
-2.86456e-05
0.187117
-2.72411e-05
0.187105
-2.5979e-05
0.187093
-2.48586e-05
0.187082
-2.3867e-05
0.187072
-2.298e-05
0.187061
-2.21707e-05
0.187051
-2.14185e-05
0.187042
-2.07119e-05
0.187033
-2.00486e-05
0.187024
-1.94315e-05
0.187015
-1.88634e-05
0.187007
-1.83445e-05
0.186999
-1.78705e-05
0.186991
-1.74339e-05
0.186983
-1.7026e-05
0.186976
-1.6639e-05
0.186968
-1.62671e-05
0.186961
-1.59074e-05
0.186955
-1.55593e-05
0.186948
-1.52234e-05
0.186941
-1.49013e-05
0.186935
-1.4594e-05
0.186929
-1.4302e-05
0.186923
-1.40246e-05
0.186917
-1.37607e-05
-1.35082e-05
0.186911
0.19527
-2.28149e-05
0.195249
-2.15842e-05
0.195229
-2.03477e-05
0.19521
-1.91594e-05
0.195193
-1.80553e-05
0.195176
-1.70469e-05
0.19516
-1.61275e-05
0.195145
-1.52838e-05
0.195131
-1.45063e-05
0.195118
-1.37947e-05
0.195105
-1.31536e-05
0.195093
-1.25839e-05
0.195081
-1.20801e-05
0.19507
-1.16313e-05
0.195059
-1.12239e-05
0.195048
-1.08466e-05
0.195038
-1.04928e-05
0.195028
-1.01606e-05
0.195018
-9.85105e-06
0.195009
-9.56571e-06
0.195
-9.30507e-06
0.194991
-9.06752e-06
0.194983
-8.84964e-06
0.194974
-8.6472e-06
0.194966
-8.45608e-06
0.194958
-8.27324e-06
0.19495
-8.09687e-06
0.194943
-7.92639e-06
0.194935
-7.76206e-06
0.194928
-7.6044e-06
0.194921
-7.45396e-06
0.194914
-7.31092e-06
0.194907
-7.17509e-06
0.1949
-7.04591e-06
-6.92254e-06
0.194894
0.199274
2.05938e-09
0.199253
8.04897e-10
0.199232
-5.43409e-10
0.199213
-3.36528e-10
0.199195
1.79399e-09
0.199178
4.1496e-09
0.199162
4.6217e-09
0.199147
2.9347e-09
0.199132
3.86889e-10
0.199118
-1.42909e-09
0.199105
-1.1333e-09
0.199093
1.24647e-09
0.199081
4.20821e-09
0.199069
6.31591e-09
0.199058
6.71925e-09
0.199047
5.45498e-09
0.199036
3.39696e-09
0.199026
1.58097e-09
0.199016
8.26779e-10
0.199007
1.36033e-09
0.198997
2.93001e-09
0.198988
4.96797e-09
0.19898
6.84199e-09
0.198971
8.15988e-09
0.198962
8.72689e-09
0.198954
8.65593e-09
0.198946
8.19781e-09
0.198938
7.64427e-09
0.19893
7.28849e-09
0.198923
7.28927e-09
0.198915
7.74429e-09
0.198908
8.62581e-09
0.198901
9.85514e-09
0.198894
1.13119e-08
1.28484e-08
0.198887
0.199274
2.28176e-05
0.199253
2.15856e-05
0.199232
2.03478e-05
0.199213
1.91601e-05
0.199195
1.80589e-05
0.199178
1.70538e-05
0.199162
1.61356e-05
0.199147
1.52893e-05
0.199132
1.45071e-05
0.199118
1.37929e-05
0.199105
1.31528e-05
0.199093
1.25871e-05
0.199081
1.20882e-05
0.199069
1.16427e-05
0.199058
1.12358e-05
0.199047
1.08564e-05
0.199036
1.04994e-05
0.199026
1.01644e-05
0.199016
9.85376e-06
0.199007
9.56946e-06
0.198997
9.31151e-06
0.198988
9.07739e-06
0.19898
8.8627e-06
0.198971
8.66248e-06
0.198962
8.47241e-06
0.198954
8.28956e-06
0.198946
8.11257e-06
0.198938
7.94136e-06
0.19893
7.77663e-06
0.198923
7.61922e-06
0.198915
7.46979e-06
0.198908
7.32848e-06
0.198901
7.19495e-06
0.198894
7.06842e-06
6.94781e-06
0.198887
0.19527
4.52732e-05
0.195249
4.27633e-05
0.195229
4.02663e-05
0.19521
3.78858e-05
0.195193
3.56883e-05
0.195176
3.36889e-05
0.19516
3.18659e-05
0.195145
3.019e-05
0.195131
2.86468e-05
0.195118
2.72405e-05
0.195105
2.59795e-05
0.195093
2.48626e-05
0.195081
2.38747e-05
0.19507
2.29899e-05
0.195059
2.21806e-05
0.195048
2.14265e-05
0.195038
2.07177e-05
0.195028
2.00529e-05
0.195018
1.94357e-05
0.195009
1.8869e-05
0.195
1.83522e-05
0.194991
1.78805e-05
0.194983
1.74459e-05
0.194974
1.70393e-05
0.194966
1.66528e-05
0.194958
1.6281e-05
0.19495
1.59213e-05
0.194943
1.55731e-05
0.194935
1.52376e-05
0.194928
1.49164e-05
0.194921
1.46104e-05
0.194914
1.432e-05
0.194907
1.40446e-05
0.1949
1.37827e-05
1.35323e-05
0.194894
0.187262
6.69549e-05
0.187241
6.30807e-05
0.187222
5.92892e-05
0.187205
5.57128e-05
0.187188
5.24318e-05
0.187172
4.94578e-05
0.187157
4.67553e-05
0.187143
4.42791e-05
0.18713
4.20069e-05
0.187117
3.99415e-05
0.187105
3.80889e-05
0.187093
3.64429e-05
0.187082
3.49796e-05
0.187072
3.36614e-05
0.187061
3.2451e-05
0.187051
3.13217e-05
0.187042
3.02601e-05
0.187033
2.92644e-05
0.187024
2.83383e-05
0.187015
2.74844e-05
0.187007
2.67008e-05
0.186999
2.59804e-05
0.186991
2.5312e-05
0.186983
2.46834e-05
0.186976
2.40843e-05
0.186968
2.35075e-05
0.186961
2.29493e-05
0.186955
2.24093e-05
0.186948
2.18888e-05
0.186941
2.13898e-05
0.186935
2.09138e-05
0.186929
2.04609e-05
0.186923
2.00301e-05
0.186917
1.96193e-05
1.92256e-05
0.186912
0.175248
8.73202e-05
0.175229
8.19576e-05
0.175212
7.68132e-05
0.175195
7.20267e-05
0.17518
6.76715e-05
0.175166
6.37398e-05
0.175152
6.01745e-05
0.17514
5.69167e-05
0.175128
5.39361e-05
0.175116
5.12289e-05
0.175106
4.87957e-05
0.175096
4.66223e-05
0.175086
4.46754e-05
0.175077
4.29086e-05
0.175068
4.12781e-05
0.175059
3.97537e-05
0.175051
3.83202e-05
0.175044
3.69755e-05
0.175036
3.57222e-05
0.175029
3.45614e-05
0.175022
3.34895e-05
0.175016
3.24967e-05
0.17501
3.157e-05
0.175004
3.06954e-05
0.174998
2.9861e-05
0.174992
2.90589e-05
0.174987
2.82848e-05
0.174982
2.75383e-05
0.174977
2.68207e-05
0.174972
2.61338e-05
0.174968
2.54788e-05
0.174963
2.48556e-05
0.174959
2.42625e-05
0.174955
2.36965e-05
2.31541e-05
0.174951
0.159228
0.000105329
0.159212
9.82721e-05
0.159197
9.16492e-05
0.159184
8.55752e-05
0.159171
8.00895e-05
0.15916
7.5152e-05
0.159149
7.06823e-05
0.15914
6.66077e-05
0.159131
6.28897e-05
0.159122
5.95158e-05
0.159115
5.64756e-05
0.159108
5.3745e-05
0.159101
5.12813e-05
0.159095
4.90328e-05
0.159089
4.69536e-05
0.159084
4.50124e-05
0.159079
4.31934e-05
0.159075
4.14923e-05
0.15907
3.99089e-05
0.159067
3.84411e-05
0.159063
3.70823e-05
0.15906
3.58206e-05
0.159057
3.46414e-05
0.159054
3.353e-05
0.159051
3.24739e-05
0.159049
3.14646e-05
0.159047
3.04976e-05
0.159044
2.95714e-05
0.159043
2.86866e-05
0.159041
2.78439e-05
0.159039
2.70434e-05
0.159038
2.62839e-05
0.159037
2.55626e-05
0.159035
2.4876e-05
2.42201e-05
0.159034
0.139208
0.000117891
0.139198
0.000108735
0.139189
0.000100354
0.139182
9.28021e-05
0.139176
8.60573e-05
0.139171
8.00328e-05
0.139167
7.4618e-05
0.139164
6.97222e-05
0.139161
6.52925e-05
0.13916
6.13e-05
0.139158
5.77176e-05
0.139158
5.45058e-05
0.139157
5.16114e-05
0.139157
4.89779e-05
0.139158
4.6558e-05
0.139158
4.43187e-05
0.139159
4.22409e-05
0.139161
4.03155e-05
0.139162
3.85364e-05
0.139163
3.68961e-05
0.139165
3.53838e-05
0.139167
3.3985e-05
0.139169
3.26838e-05
0.139171
3.14652e-05
0.139173
3.03166e-05
0.139175
2.92291e-05
0.139178
2.81971e-05
0.13918
2.72177e-05
0.139182
2.62895e-05
0.139185
2.54114e-05
0.139187
2.45817e-05
0.13919
2.37979e-05
0.139192
2.30568e-05
0.139195
2.23544e-05
2.16869e-05
0.139197
0.115222
0.000115767
0.115227
0.000104428
0.115233
9.44575e-05
0.11524
8.57602e-05
0.115247
7.81944e-05
0.115256
7.15899e-05
0.115265
6.57833e-05
0.115274
6.06462e-05
0.115283
5.60922e-05
0.115292
5.20606e-05
0.115301
4.84969e-05
0.115311
4.5342e-05
0.11532
4.25316e-05
0.115329
4.0005e-05
0.115338
3.77134e-05
0.115346
3.56218e-05
0.115355
3.37071e-05
0.115363
3.19546e-05
0.115371
3.03523e-05
0.115379
2.88879e-05
0.115387
2.75479e-05
0.115395
2.63171e-05
0.115402
2.51804e-05
0.11541
2.4124e-05
0.115417
2.31368e-05
0.115424
2.22103e-05
0.115431
2.13385e-05
0.115437
2.05176e-05
0.115444
1.97447e-05
0.11545
1.90175e-05
0.115457
1.83336e-05
0.115463
1.76905e-05
0.115469
1.7085e-05
0.115475
1.65139e-05
1.59739e-05
0.11548
0.0873956
8.46674e-05
0.0874261
7.39386e-05
0.0874555
6.50625e-05
0.0874835
5.77004e-05
0.0875102
5.15586e-05
0.0875354
4.63844e-05
0.0875592
4.1974e-05
0.0875817
3.8178e-05
0.0876029
3.48934e-05
0.0876229
3.20464e-05
0.0876418
2.95754e-05
0.0876597
2.74219e-05
0.0876767
2.55293e-05
0.0876929
2.38487e-05
0.0877082
2.23416e-05
0.0877229
2.09804e-05
0.0877368
1.97467e-05
0.0877502
1.86278e-05
0.0877629
1.76133e-05
0.0877751
1.66932e-05
0.0877868
1.58569e-05
0.087798
1.50935e-05
0.0878088
1.43925e-05
0.0878192
1.37447e-05
0.0878292
1.31423e-05
0.0878388
1.25796e-05
0.0878481
1.20522e-05
0.0878571
1.15574e-05
0.0878657
1.10932e-05
0.0878741
1.06579e-05
0.0878822
1.025e-05
0.08789
9.86798e-06
0.0878976
9.5098e-06
0.0879049
9.1735e-06
8.85687e-06
0.087912
0.0559402
3.18366e-05
0.0559871
2.69878e-05
0.056029
2.32124e-05
0.0560665
2.02287e-05
0.0561002
1.78305e-05
0.0561307
1.58653e-05
0.0561585
1.42241e-05
0.0561838
1.28336e-05
0.0562071
1.16471e-05
0.0562285
1.06326e-05
0.0562483
9.76373e-06
0.0562667
9.0151e-06
0.0562839
8.36275e-06
0.0562999
7.78635e-06
0.056315
7.27072e-06
0.0563292
6.80582e-06
0.0563425
6.38561e-06
0.0563552
6.00625e-06
0.0563671
5.66446e-06
0.0563784
5.35672e-06
0.0563892
5.07892e-06
0.0563995
4.82667e-06
0.0564093
4.59569e-06
0.0564186
4.38227e-06
0.0564276
4.18351e-06
0.0564362
3.99744e-06
0.0564444
3.82283e-06
0.0564523
3.65903e-06
0.0564599
3.50566e-06
0.0564672
3.36242e-06
0.0564742
3.22889e-06
0.056481
3.10452e-06
0.0564875
2.98852e-06
0.0564938
2.88003e-06
2.77811e-06
0.0564999
0.0209514
0.0209784
0.0210016
0.0210219
0.0210397
0.0210556
0.0210698
0.0210826
0.0210943
0.0211049
0.0211147
0.0211237
0.021132
0.0211398
0.0211471
0.0211539
0.0211603
0.0211663
0.021172
0.0211773
0.0211824
0.0211872
0.0211918
0.0211962
0.0212004
0.0212044
0.0212082
0.0212119
0.0212154
0.0212187
0.021222
0.0212251
0.021228
0.0212309
0.0212337
0.0212364
-2.6811e-06
0.021239
-2.58985e-06
0.0212415
-2.503e-06
0.0212439
-2.42012e-06
0.0212462
-2.34089e-06
0.0212485
-2.26518e-06
0.0212507
-2.19283e-06
0.0212528
-2.12383e-06
0.0212549
-2.05806e-06
-1.99551e-06
0.0212569
0.0565057
-8.55487e-06
0.0565114
-8.27132e-06
0.0565169
-8.00183e-06
0.0565222
-7.74508e-06
0.0565274
-7.5e-06
0.0565324
-7.26587e-06
0.0565372
-7.04206e-06
0.0565419
-6.82818e-06
0.0565465
-6.62384e-06
-6.42873e-06
0.0565509
0.0879189
-1.54558e-05
0.0879256
-1.49686e-05
0.0879321
-1.45044e-05
0.0879384
-1.40611e-05
0.0879445
-1.36375e-05
0.0879505
-1.32322e-05
0.0879563
-1.28444e-05
0.0879619
-1.24732e-05
0.0879674
-1.21179e-05
-1.17778e-05
0.0879728
0.115486
-2.10403e-05
0.115491
-2.04311e-05
0.115497
-1.98471e-05
0.115502
-1.92865e-05
0.115507
-1.87482e-05
0.115512
-1.82313e-05
0.115517
-1.7735e-05
0.115522
-1.72587e-05
0.115526
-1.68017e-05
-1.63631e-05
0.115531
0.1392
-2.35767e-05
0.139202
-2.29707e-05
0.139205
-2.23854e-05
0.139207
-2.18195e-05
0.13921
-2.12722e-05
0.139213
-2.07434e-05
0.139215
-2.0233e-05
0.139218
-1.9741e-05
0.13922
-1.92672e-05
-1.88111e-05
0.139222
0.159033
-2.2613e-05
0.159033
-2.21068e-05
0.159032
-2.16149e-05
0.159031
-2.11358e-05
0.15903
-2.06691e-05
0.15903
-2.0215e-05
0.159029
-1.97739e-05
0.159029
-1.93466e-05
0.159029
-1.89333e-05
-1.85341e-05
0.159028
0.174947
-1.88232e-05
0.174943
-1.84539e-05
0.17494
-1.80937e-05
0.174937
-1.77414e-05
0.174933
-1.73962e-05
0.17493
-1.70585e-05
0.174927
-1.67288e-05
0.174924
-1.64077e-05
0.174921
-1.6096e-05
-1.5794e-05
0.174919
0.186906
-1.32652e-05
0.186901
-1.30297e-05
0.186895
-1.28e-05
0.18689
-1.2575e-05
0.186885
-1.23541e-05
0.18688
-1.21373e-05
0.186875
-1.1925e-05
0.186871
-1.17175e-05
0.186866
-1.15154e-05
-1.13192e-05
0.186862
0.194887
-6.80403e-06
0.194881
-6.68942e-06
0.194875
-6.5779e-06
0.194869
-6.46882e-06
0.194863
-6.36182e-06
0.194857
-6.25676e-06
0.194851
-6.15368e-06
0.194845
-6.05278e-06
0.19484
-5.95428e-06
-5.85843e-06
0.194834
0.19888
1.43428e-08
0.198873
1.56813e-08
0.198867
1.68161e-08
0.19886
1.77345e-08
0.198854
1.84813e-08
0.198847
1.91381e-08
0.198841
1.97954e-08
0.198835
2.0556e-08
0.198829
2.14847e-08
2.26313e-08
0.198823
0.19888
6.83197e-06
0.198873
6.71978e-06
0.198867
6.61036e-06
0.19886
6.50308e-06
0.198854
6.39764e-06
0.198847
6.29403e-06
0.198841
6.19245e-06
0.198835
6.09324e-06
0.198829
5.99673e-06
5.90321e-06
0.198823
0.194887
1.32912e-05
0.194881
1.30574e-05
0.194875
1.28294e-05
0.194869
1.2606e-05
0.194863
1.23868e-05
0.194857
1.21718e-05
0.194851
1.19613e-05
0.194845
1.17559e-05
0.19484
1.15561e-05
1.13623e-05
0.194834
0.186906
1.8846e-05
0.186901
1.84777e-05
0.186895
1.81188e-05
0.18689
1.7768e-05
0.186885
1.74247e-05
0.18688
1.7089e-05
0.186875
1.67615e-05
0.186871
1.64428e-05
0.186866
1.61335e-05
1.58338e-05
0.186862
0.174947
2.26316e-05
0.174943
2.21261e-05
0.17494
2.16352e-05
0.174937
2.11576e-05
0.174933
2.06927e-05
0.17493
2.02407e-05
0.174927
1.9802e-05
0.174924
1.9377e-05
0.174921
1.89659e-05
1.85687e-05
0.174919
0.159033
2.3591e-05
0.159033
2.29855e-05
0.159032
2.24011e-05
0.159031
2.18366e-05
0.159031
2.12909e-05
0.15903
2.07639e-05
0.15903
2.02554e-05
0.159029
1.97653e-05
0.159029
1.92933e-05
1.88388e-05
0.159029
0.1392
2.10503e-05
0.139202
2.04417e-05
0.139205
1.98586e-05
0.139208
1.92991e-05
0.13921
1.87619e-05
0.139213
1.82462e-05
0.139215
1.77512e-05
0.139218
1.72761e-05
0.13922
1.68203e-05
1.63828e-05
0.139223
0.115486
1.5462e-05
0.115491
1.49753e-05
0.115497
1.45117e-05
0.115502
1.40691e-05
0.115507
1.36461e-05
0.115512
1.32415e-05
0.115517
1.28544e-05
0.115522
1.24839e-05
0.115526
1.21293e-05
1.17899e-05
0.115531
0.0879189
8.55789e-06
0.0879256
8.27456e-06
0.0879321
8.00532e-06
0.0879384
7.74876e-06
0.0879446
7.50395e-06
0.0879506
7.27004e-06
0.0879564
7.04657e-06
0.087962
6.83301e-06
0.0879675
6.6291e-06
6.43438e-06
0.0879729
0.0565058
2.68192e-06
0.0565114
2.59068e-06
0.0565169
2.50384e-06
0.0565223
2.42093e-06
0.0565274
2.34172e-06
0.0565324
2.26603e-06
0.0565373
2.19377e-06
0.056542
2.12487e-06
0.0565466
2.05928e-06
1.99687e-06
0.056551
0.0212364
0.021239
0.0212415
0.0212439
0.0212462
0.0212485
0.0212507
0.0212528
0.0212549
0.0212569
0.0212588
-1.936e-06
0.0212607
-1.87944e-06
0.0212625
-1.82558e-06
0.0212643
-1.77427e-06
0.021266
-1.72525e-06
0.0212677
-1.67834e-06
0.0212693
-1.63331e-06
0.0212709
-1.59002e-06
0.0212724
-1.54829e-06
0.0212739
-1.50804e-06
0.0212754
-1.46914e-06
0.0212768
-1.43157e-06
0.0212782
-1.39526e-06
0.0212796
-1.36021e-06
0.0212809
-1.32637e-06
0.0212822
-1.29377e-06
0.0212835
-1.26233e-06
0.0212847
-1.23208e-06
0.0212859
-1.20293e-06
0.0212871
-1.17487e-06
0.0212882
-1.14782e-06
0.0212894
-1.12175e-06
0.0212905
-1.09657e-06
0.0212915
-1.07224e-06
0.0212926
-1.04867e-06
0.0212936
-1.02585e-06
0.0212946
-1.0037e-06
0.0212956
-9.82242e-07
0.0212966
-9.61395e-07
0.0212975
-9.41203e-07
0.0212984
-9.21612e-07
0.0212993
-9.02681e-07
0.0213002
-8.84373e-07
0.0213011
-8.66764e-07
-8.49834e-07
0.0213019
0.0565552
-6.24247e-06
0.0565594
-6.0647e-06
0.0565635
-5.89495e-06
0.0565674
-5.73277e-06
0.0565713
-5.57762e-06
0.056575
-5.429e-06
0.0565787
-5.28639e-06
0.0565823
-5.14933e-06
0.0565857
-5.01736e-06
0.0565891
-4.89013e-06
0.0565924
-4.7673e-06
0.0565956
-4.64864e-06
0.0565988
-4.53394e-06
0.0566018
-4.42306e-06
0.0566048
-4.31589e-06
0.0566077
-4.21235e-06
0.0566106
-4.11236e-06
0.0566134
-4.01583e-06
0.0566161
-3.92266e-06
0.0566187
-3.83276e-06
0.0566213
-3.74597e-06
0.0566239
-3.66217e-06
0.0566264
-3.58118e-06
0.0566288
-3.50284e-06
0.0566312
-3.42697e-06
0.0566335
-3.35346e-06
0.0566358
-3.28214e-06
0.056638
-3.21294e-06
0.0566402
-3.14574e-06
0.0566423
-3.08053e-06
0.0566444
-3.01725e-06
0.0566465
-2.95593e-06
0.0566485
-2.89658e-06
0.0566505
-2.8393e-06
-2.78415e-06
0.0566524
0.087978
-1.14522e-05
0.0879831
-1.11404e-05
0.087988
-1.08417e-05
0.0879928
-1.05554e-05
0.0879975
-1.02807e-05
0.0880021
-1.0017e-05
0.0880066
-9.76336e-06
0.088011
-9.51924e-06
0.0880152
-9.28394e-06
0.0880194
-9.05686e-06
0.0880235
-8.8375e-06
0.0880274
-8.6254e-06
0.0880313
-8.42022e-06
0.0880351
-8.22166e-06
0.0880388
-8.0295e-06
0.0880425
-7.84355e-06
0.088046
-7.66366e-06
0.0880495
-7.48966e-06
0.0880529
-7.3214e-06
0.0880562
-7.15868e-06
0.0880595
-7.00129e-06
0.0880627
-6.849e-06
0.0880658
-6.70156e-06
0.0880688
-6.55871e-06
0.0880718
-6.4202e-06
0.0880748
-6.2858e-06
0.0880776
-6.15528e-06
0.0880804
-6.02849e-06
0.0880832
-5.90528e-06
0.0880859
-5.78556e-06
0.0880886
-5.66928e-06
0.0880912
-5.55645e-06
0.0880937
-5.4471e-06
0.0880962
-5.34133e-06
-5.2393e-06
0.0880987
0.115535
-1.5942e-05
0.11554
-1.55376e-05
0.115544
-1.51487e-05
0.115548
-1.47745e-05
0.115552
-1.44141e-05
0.115556
-1.40666e-05
0.11556
-1.37312e-05
0.115564
-1.34072e-05
0.115568
-1.30939e-05
0.115572
-1.27908e-05
0.115576
-1.24973e-05
0.115579
-1.22131e-05
0.115583
-1.19376e-05
0.115586
-1.16707e-05
0.115589
-1.1412e-05
0.115593
-1.11612e-05
0.115596
-1.09181e-05
0.115599
-1.06824e-05
0.115602
-1.04539e-05
0.115605
-1.02324e-05
0.115608
-1.00176e-05
0.115611
-9.80916e-06
0.115614
-9.60681e-06
0.115617
-9.41026e-06
0.11562
-9.21924e-06
0.115623
-9.03349e-06
0.115625
-8.85279e-06
0.115628
-8.67695e-06
0.115631
-8.50582e-06
0.115633
-8.33931e-06
0.115636
-8.17737e-06
0.115638
-8.02e-06
0.115641
-7.86724e-06
0.115643
-7.71921e-06
-7.5761e-06
0.115645
0.139225
-1.8372e-05
0.139227
-1.79489e-05
0.13923
-1.75406e-05
0.139232
-1.71461e-05
0.139234
-1.67644e-05
0.139237
-1.63944e-05
0.139239
-1.60356e-05
0.139241
-1.56872e-05
0.139244
-1.53487e-05
0.139246
-1.50198e-05
0.139248
-1.47002e-05
0.13925
-1.43897e-05
0.139252
-1.4088e-05
0.139254
-1.37949e-05
0.139257
-1.35101e-05
0.139259
-1.32336e-05
0.139261
-1.29648e-05
0.139263
-1.27037e-05
0.139265
-1.24498e-05
0.139267
-1.22029e-05
0.139269
-1.19627e-05
0.13927
-1.17288e-05
0.139272
-1.15009e-05
0.139274
-1.12788e-05
0.139276
-1.10623e-05
0.139278
-1.08511e-05
0.13928
-1.06452e-05
0.139281
-1.04442e-05
0.139283
-1.02483e-05
0.139285
-1.00572e-05
0.139287
-9.87103e-06
0.139288
-9.68977e-06
0.13929
-9.51351e-06
0.139292
-9.34236e-06
-9.17654e-06
0.139293
0.159028
-1.81486e-05
0.159028
-1.77761e-05
0.159028
-1.74155e-05
0.159028
-1.70659e-05
0.159028
-1.67262e-05
0.159028
-1.63953e-05
0.159028
-1.60726e-05
0.159028
-1.57575e-05
0.159028
-1.54497e-05
0.159028
-1.5149e-05
0.159028
-1.48553e-05
0.159028
-1.45688e-05
0.159029
-1.42894e-05
0.159029
-1.40171e-05
0.159029
-1.37518e-05
0.159029
-1.34935e-05
0.15903
-1.32419e-05
0.15903
-1.29967e-05
0.15903
-1.27577e-05
0.159031
-1.25244e-05
0.159031
-1.22967e-05
0.159031
-1.20741e-05
0.159032
-1.18564e-05
0.159032
-1.16433e-05
0.159032
-1.14349e-05
0.159033
-1.12308e-05
0.159033
-1.1031e-05
0.159034
-1.08355e-05
0.159034
-1.06443e-05
0.159034
-1.04574e-05
0.159035
-1.02749e-05
0.159035
-1.00968e-05
0.159036
-9.92327e-06
0.159036
-9.75438e-06
-9.5904e-06
0.159036
0.174916
-1.55016e-05
0.174913
-1.52186e-05
0.174911
-1.49441e-05
0.174908
-1.46774e-05
0.174906
-1.44174e-05
0.174904
-1.41632e-05
0.174902
-1.39142e-05
0.1749
-1.36698e-05
0.174898
-1.34297e-05
0.174896
-1.31939e-05
0.174894
-1.29625e-05
0.174892
-1.27356e-05
0.17489
-1.25134e-05
0.174888
-1.22961e-05
0.174887
-1.20839e-05
0.174885
-1.18767e-05
0.174884
-1.16743e-05
0.174882
-1.14767e-05
0.174881
-1.12834e-05
0.174879
-1.10943e-05
0.174878
-1.09089e-05
0.174876
-1.07271e-05
0.174875
-1.05486e-05
0.174874
-1.03732e-05
0.174873
-1.02009e-05
0.174871
-1.00314e-05
0.17487
-9.86499e-06
0.174869
-9.70154e-06
0.174868
-9.54117e-06
0.174867
-9.38396e-06
0.174866
-9.23002e-06
0.174865
-9.07945e-06
0.174864
-8.93238e-06
0.174863
-8.78898e-06
-8.64945e-06
0.174862
0.186857
-1.1129e-05
0.186853
-1.09447e-05
0.186849
-1.07658e-05
0.186845
-1.05918e-05
0.186841
-1.04219e-05
0.186837
-1.02556e-05
0.186833
-1.00921e-05
0.186829
-9.93107e-06
0.186825
-9.77221e-06
0.186822
-9.61548e-06
0.186818
-9.46096e-06
0.186815
-9.30884e-06
0.186812
-9.15937e-06
0.186808
-9.01274e-06
0.186805
-8.86911e-06
0.186802
-8.72855e-06
0.186799
-8.59102e-06
0.186796
-8.4564e-06
0.186793
-8.3245e-06
0.18679
-8.19507e-06
0.186787
-8.06788e-06
0.186784
-7.94271e-06
0.186782
-7.81936e-06
0.186779
-7.69771e-06
0.186776
-7.5777e-06
0.186774
-7.4593e-06
0.186771
-7.34255e-06
0.186769