/*--------------------------------*- C++ -*----------------------------------*\
| =========                 |                                                 |
| \\      /  F ield         | OpenFOAM: The Open Source CFD Toolbox           |
|  \\    /   O peration     | Version:  2406                                  |
|   \\  /    A nd           | Website:  www.openfoam.com                      |
|    \\/     M anipulation  |                                                 |
\*---------------------------------------------------------------------------*/
FoamFile
{
    version     2.0;
    format      ascii;
    arch        "LSB;label=32;scalar=64";
    class       volScalarField;
    location    "99";
    object      p;
}
// * * * * * * * * * * * * * * * * * * * * * * * * * * * * * * * * * * * * * //

dimensions      [0 2 -2 0 0 0 0];

internalField   nonuniform List<scalar> 
1964
(
0.493767
0.494947
0.49579
0.496156
0.496316
0.496381
0.49636
0.496259
0.4961
0.495897
0.49566
0.495395
0.495106
0.494798
0.494473
0.494134
0.493781
0.493417
0.493041
0.492655
0.492257
0.491848
0.491427
0.490993
0.490542
0.490072
0.489579
0.489056
0.488496
0.487887
0.487213
0.486454
0.48558
0.48455
0.483306
0.481763
0.479801
0.47724
0.473817
0.469135
0.462614
0.453404
0.440311
0.421737
0.395767
0.360398
0.314313
0.494826
0.495339
0.495869
0.496172
0.496307
0.496351
0.49632
0.49622
0.496064
0.495865
0.495631
0.495369
0.495084
0.494778
0.494456
0.494119
0.493768
0.493406
0.493032
0.492647
0.492252
0.491846
0.491427
0.490996
0.490549
0.490084
0.489597
0.489083
0.488533
0.487939
0.487285
0.486551
0.485712
0.484728
0.483546
0.482085
0.480228
0.477802
0.474541
0.470044
0.463707
0.454629
0.441516
0.422574
0.395597
0.358116
0.308693
0.495736
0.495681
0.495867
0.496105
0.496242
0.496278
0.496244
0.496151
0.496005
0.495815
0.495589
0.495333
0.495054
0.494754
0.494436
0.494103
0.493757
0.4934
0.493031
0.492652
0.492264
0.491867
0.49146
0.491043
0.490615
0.490175
0.489721
0.48925
0.488757
0.488237
0.487682
0.487079
0.486411
0.485652
0.484762
0.48368
0.482305
0.48048
0.477945
0.474282
0.468825
0.460539
0.447881
0.428609
0.399871
0.357717
0.299896
0.496443
0.496118
0.496043
0.496166
0.496256
0.496253
0.496189
0.496084
0.495936
0.49575
0.495528
0.495279
0.495007
0.494714
0.494404
0.494079
0.493742
0.493393
0.493035
0.492669
0.492297
0.491918
0.491536
0.491151
0.490764
0.490377
0.489992
0.489612
0.489238
0.488876
0.488527
0.488195
0.487883
0.487587
0.487299
0.48699
0.486602
0.486013
0.484987
0.483099
0.479587
0.47319
0.46187
0.442648
0.411694
0.362966
0.294437
0.497023
0.496567
0.496298
0.49628
0.496298
0.496249
0.496151
0.496025
0.495871
0.495684
0.495467
0.495222
0.494957
0.494672
0.494371
0.494056
0.493729
0.493393
0.49305
0.492703
0.492353
0.492003
0.491657
0.49132
0.490995
0.490689
0.490409
0.490168
0.489977
0.489853
0.489818
0.489898
0.490124
0.490533
0.491161
0.492042
0.493185
0.494549
0.495981
0.497112
0.497146
0.494584
0.48649
0.468389
0.43229
0.369644
0.278604
0.497492
0.496963
0.496562
0.496426
0.496371
0.496276
0.496142
0.495992
0.495824
0.495632
0.495414
0.495172
0.494911
0.494634
0.494341
0.494036
0.493722
0.493401
0.493076
0.492751
0.492429
0.492114
0.491815
0.491536
0.491289
0.491084
0.490938
0.49087
0.490907
0.491083
0.491443
0.49204
0.492946
0.494245
0.49604
0.498448
0.501587
0.505554
0.510369
0.515875
0.521489
0.525871
0.525604
0.51475
0.47579
0.391732
0.206931
0.497861
0.497288
0.496802
0.496579
0.496458
0.496318
0.49615
0.495974
0.495791
0.495591
0.49537
0.49513
0.494873
0.494602
0.494317
0.494022
0.493721
0.493415
0.493109
0.492807
0.492514
0.492238
0.491987
0.491773
0.491609
0.491513
0.491509
0.491628
0.491911
0.492411
0.493195
0.494352
0.495994
0.498263
0.501337
0.505434
0.51081
0.517752
0.526544
0.537402
0.550297
0.564712
0.578532
0.587632
0.574516
0.514721
0.21196
0.498134
0.497535
0.496997
0.496712
0.496539
0.496362
0.496166
0.495968
0.495771
0.495563
0.495339
0.495099
0.494845
0.494578
0.4943
0.494014
0.493723
0.493432
0.493143
0.492862
0.492597
0.492355
0.49215
0.491994
0.491907
0.491912
0.492041
0.492333
0.492844
0.493644
0.494823
0.4965
0.49883
0.502008
0.506289
0.511991
0.519516
0.529353
0.542082
0.558356
0.578825
0.604014
0.633822
0.667357
0.699113
0.723584
0.674716
0.498316
0.497702
0.497132
0.496809
0.496602
0.496398
0.496181
0.495969
0.49576
0.495546
0.495319
0.495079
0.494826
0.494563
0.49429
0.49401
0.493727
0.493446
0.49317
0.492906
0.492661
0.492446
0.492276
0.492165
0.492138
0.49222
0.49245
0.492876
0.493563
0.494593
0.496077
0.498156
0.501018
0.504902
0.510121
0.517081
0.526298
0.538433
0.554312
0.57495
0.601537
0.635371
0.677537
0.728373
0.785355
0.841401
0.875389
0.498407
0.497786
0.497201
0.49686
0.496636
0.496418
0.496191
0.49597
0.495756
0.495538
0.495309
0.495069
0.494817
0.494556
0.494285
0.494009
0.493731
0.493455
0.493186
0.49293
0.492697
0.492497
0.492345
0.492259
0.492264
0.492388
0.492674
0.493172
0.493954
0.49511
0.496759
0.499057
0.502208
0.506477
0.51221
0.519858
0.530004
0.543402
0.561014
0.584046
0.613962
0.652422
0.700978
0.760403
0.828562
0.897515
0.94443
0.498407
0.497786
0.497201
0.49686
0.496636
0.496419
0.496192
0.495971
0.495756
0.495539
0.49531
0.49507
0.494818
0.494556
0.494286
0.49401
0.493731
0.493455
0.493187
0.492931
0.492698
0.492498
0.492346
0.49226
0.492265
0.49239
0.492675
0.493174
0.493955
0.495111
0.496761
0.499059
0.50221
0.506479
0.512213
0.51986
0.530007
0.543405
0.561016
0.584049
0.613964
0.652423
0.700979
0.760402
0.828561
0.897513
0.944428
0.498317
0.497703
0.497133
0.49681
0.496603
0.496399
0.496183
0.49597
0.495762
0.495547
0.495321
0.49508
0.494828
0.494565
0.494292
0.494012
0.49373
0.493448
0.493173
0.492908
0.492664
0.49245
0.492279
0.492169
0.492141
0.492224
0.492455
0.492881
0.493568
0.494598
0.496083
0.498163
0.501024
0.504909
0.510129
0.517088
0.526306
0.538441
0.55432
0.574958
0.601544
0.635376
0.67754
0.728374
0.785353
0.841396
0.875379
0.498137
0.497538
0.496999
0.496714
0.496542
0.496364
0.496168
0.495971
0.495773
0.495565
0.495342
0.495102
0.494848
0.494581
0.494304
0.494018
0.493727
0.493435
0.493147
0.492866
0.492601
0.49236
0.492155
0.492
0.491913
0.491919
0.492048
0.492341
0.492852
0.493652
0.494832
0.496511
0.498841
0.50202
0.506301
0.512004
0.519529
0.529366
0.542096
0.55837
0.578838
0.604025
0.633831
0.667363
0.699114
0.72358
0.674691
0.497864
0.497291
0.496805
0.496582
0.496461
0.496321
0.496153
0.495977
0.495794
0.495594
0.495374
0.495134
0.494877
0.494606
0.494321
0.494027
0.493725
0.49342
0.493114
0.492813
0.492521
0.492245
0.491995
0.491781
0.491617
0.491522
0.491519
0.491639
0.491922
0.492423
0.493208
0.494366
0.496008
0.498278
0.501354
0.505452
0.510829
0.517772
0.526565
0.537423
0.550318
0.564733
0.578551
0.587649
0.574527
0.514714
0.211866
0.497496
0.496967
0.496566
0.49643
0.496374
0.49628
0.496146
0.495996
0.495828
0.495636
0.495418
0.495177
0.494916
0.494638
0.494346
0.494042
0.493728
0.493407
0.493083
0.492758
0.492436
0.492123
0.491823
0.491546
0.491299
0.491095
0.490949
0.490882
0.490921
0.491098
0.491458
0.492057
0.492964
0.494264
0.496061
0.498471
0.501611
0.505579
0.510397
0.515905
0.52152
0.525905
0.525641
0.514789
0.475832
0.391775
0.206966
0.497027
0.496572
0.496303
0.496285
0.496302
0.496253
0.496155
0.49603
0.495876
0.495689
0.495471
0.495228
0.494962
0.494677
0.494376
0.494062
0.493736
0.4934
0.493058
0.492711
0.492361
0.492012
0.491667
0.49133
0.491006
0.490701
0.490423
0.490182
0.489992
0.48987
0.489836
0.489917
0.490145
0.490556
0.491186
0.492069
0.493214
0.494581
0.496017
0.497151
0.497189
0.494633
0.486548
0.468459
0.432381
0.369763
0.278771
0.496448
0.496123
0.496048
0.49617
0.496261
0.496258
0.496194
0.496088
0.495941
0.495755
0.495534
0.495285
0.495012
0.49472
0.49441
0.494086
0.493749
0.493401
0.493043
0.492678
0.492306
0.491928
0.491546
0.491162
0.490776
0.49039
0.490006
0.489627
0.489255
0.488894
0.488547
0.488217
0.487906
0.487612
0.487326
0.487021
0.486636
0.48605
0.485029
0.483146
0.479642
0.473255
0.461949
0.442749
0.411827
0.363146
0.29469
0.495741
0.495686
0.495872
0.49611
0.496247
0.496283
0.496249
0.496156
0.49601
0.49582
0.495594
0.495339
0.49506
0.49476
0.494443
0.49411
0.493765
0.493407
0.493039
0.492661
0.492274
0.491877
0.491471
0.491055
0.490628
0.490189
0.489736
0.489266
0.488775
0.488256
0.487703
0.487102
0.486436
0.485679
0.484792
0.483713
0.482342
0.480521
0.477992
0.474336
0.468888
0.460615
0.447976
0.428731
0.400033
0.35794
0.300207
0.494831
0.495344
0.495874
0.496177
0.496312
0.496356
0.496325
0.496225
0.496069
0.49587
0.495637
0.495375
0.49509
0.494785
0.494463
0.494126
0.493776
0.493414
0.493041
0.492657
0.492262
0.491856
0.491438
0.491008
0.490562
0.490098
0.489612
0.489099
0.488551
0.487958
0.487306
0.486574
0.485737
0.484756
0.483576
0.482119
0.480267
0.477845
0.474591
0.470102
0.463776
0.454713
0.441621
0.42271
0.395777
0.358361
0.309034
0.493772
0.494952
0.495795
0.496161
0.496321
0.496386
0.496365
0.496264
0.496105
0.495902
0.495665
0.4954
0.495112
0.494804
0.49448
0.494141
0.493789
0.493425
0.49305
0.492664
0.492267
0.491859
0.491439
0.491005
0.490555
0.490086
0.489594
0.489073
0.488514
0.487906
0.487234
0.486477
0.485606
0.484578
0.483337
0.481798
0.47984
0.477284
0.473867
0.469195
0.462685
0.45349
0.440419
0.421877
0.395952
0.36065
0.314663
0.257751
0.193704
0.128441
0.0682741
0.0162348
-0.0272712
0.247622
0.179199
0.11195
0.0522356
0.00153807
-0.0405647
0.225141
0.14356
0.0718754
0.0142208
-0.0327645
-0.0706492
0.192906
0.0818498
0.00115243
-0.0528291
-0.0933835
-0.122885
0.11865
-0.0377689
-0.124708
-0.165858
-0.188611
-0.197651
-0.12009
-0.253909
-0.283967
-0.277071
-0.258485
-0.233043
-0.425769
-0.36585
-0.31332
-0.297786
-0.276736
-0.249625
-0.426129
-0.366159
-0.313544
-0.29797
-0.276868
-0.24965
-0.120107
-0.253963
-0.284109
-0.277267
-0.258673
-0.233153
0.118881
-0.0374651
-0.124361
-0.165464
-0.18815
-0.197123
0.193266
0.082357
0.00183113
-0.0519498
-0.0922695
-0.121503
0.22558
0.144178
0.0727218
0.0153533
-0.0312812
-0.0687433
0.248103
0.179874
0.11289
0.0535191
0.00326147
-0.0382947
0.258244
0.194401
0.129419
0.0696293
0.0180864
-0.0247769
-0.0624874
-0.0902838
-0.112487
-0.130615
-0.145249
-0.156685
-0.165308
-0.171518
-0.175636
-0.177905
-0.178539
-0.177743
-0.175709
-0.172619
-0.168633
-0.163882
-0.158459
-0.15242
-0.145801
-0.138641
-0.131009
-0.123027
-0.114859
-0.106702
-0.0987395
-0.0911195
-0.0839268
-0.0771845
-0.0708661
-0.0649178
-0.0592775
-0.0538886
-0.0487122
-0.0437158
-0.0388731
-0.0341798
-0.0296509
-0.0253126
-0.0211971
-0.0173399
-0.0137779
-0.0105477
-0.00768107
-0.00521587
-0.00314417
-0.00160402
-1.67146e-06
-0.0747789
-0.102262
-0.124133
-0.141272
-0.154473
-0.164458
-0.171862
-0.177133
-0.180531
-0.182225
-0.182348
-0.181035
-0.178426
-0.17468
-0.169967
-0.164454
-0.158283
-0.151566
-0.144381
-0.136799
-0.128902
-0.120814
-0.11269
-0.104703
-0.0970054
-0.0896997
-0.0828294
-0.0763823
-0.0703112
-0.0645551
-0.0590564
-0.0537719
-0.0486812
-0.0437569
-0.0389647
-0.0343026
-0.0297922
-0.0254677
-0.0213663
-0.0175255
-0.0139812
-0.0107704
-0.00792138
-0.00548596
-0.00341761
-0.00202466
1.87708e-05
-0.100037
-0.122924
-0.141416
-0.156432
-0.168301
-0.177493
-0.184553
-0.189837
-0.193512
-0.195635
-0.196214
-0.195224
-0.192652
-0.188514
-0.182883
-0.175897
-0.167759
-0.158727
-0.149096
-0.139173
-0.129252
-0.119589
-0.110385
-0.101771
-0.0938062
-0.0864833
-0.079748
-0.073517
-0.0676984
-0.062206
-0.0569671
-0.0519269
-0.0470424
-0.0423022
-0.0377177
-0.0332729
-0.0289564
-0.0247954
-0.0208359
-0.017125
-0.0137035
-0.0106098
-0.00787097
-0.00554586
-0.0035579
-0.0023106
8.08015e-05
-0.142445
-0.156625
-0.168462
-0.17842
-0.186716
-0.193749
-0.199708
-0.204605
-0.20842
-0.211087
-0.212454
-0.212308
-0.210435
-0.206658
-0.200867
-0.193051
-0.183324
-0.171948
-0.159327
-0.145976
-0.132461
-0.119322
-0.107011
-0.0958372
-0.0859527
-0.0773628
-0.069958
-0.063558
-0.0579556
-0.0529496
-0.0483667
-0.0440698
-0.0399605
-0.0359718
-0.0320805
-0.0283021
-0.0246509
-0.0211353
-0.0177825
-0.0146323
-0.0117244
-0.00909583
-0.00677385
-0.00480207
-0.0031267
-0.00200505
-6.27684e-05
-0.199122
-0.201902
-0.205771
-0.20878
-0.211462
-0.214637
-0.218291
-0.222038
-0.225578
-0.228633
-0.23082
-0.231672
-0.230718
-0.22754
-0.221807
-0.213313
-0.202031
-0.18816
-0.172149
-0.154671
-0.136543
-0.118618
-0.10167
-0.0863025
-0.0728967
-0.0615998
-0.0523517
-0.0449399
-0.0390662
-0.0344048
-0.0306408
-0.0274998
-0.0247616
-0.0222636
-0.0198948
-0.0175996
-0.0153748
-0.0132307
-0.0111769
-0.00922605
-0.00739967
-0.00572499
-0.00423306
-0.00294038
-0.00187392
-0.000963284
-0.00035326
-0.212405
-0.208908
-0.212256
-0.215799
-0.21872
-0.221916
-0.225637
-0.229736
-0.233995
-0.238124
-0.241678
-0.244081
-0.244696
-0.242897
-0.238127
-0.229949
-0.218109
-0.202646
-0.183962
-0.162822
-0.140268
-0.117464
-0.0955328
-0.075414
-0.0577828
-0.0430082
-0.0311612
-0.0220739
-0.0154228
-0.010797
-0.00775101
-0.00585765
-0.00474583
-0.00411645
-0.00374311
-0.00346495
-0.00318764
-0.0028814
-0.00254035
-0.00215891
-0.00174096
-0.00130304
-0.000881275
-0.000471367
-0.000188972
0.000332422
-0.00053906
-0.221038
-0.212545
-0.212692
-0.215067
-0.217959
-0.221408
-0.225419
-0.229902
-0.234707
-0.239553
-0.243994
-0.247452
-0.249266
-0.248712
-0.245098
-0.237805
-0.226348
-0.210536
-0.190611
-0.167299
-0.141749
-0.115354
-0.0895194
-0.0654872
-0.0442211
-0.0263254
-0.0120288
-0.00124859
0.00630211
0.0110642
0.0135791
0.0144049
0.0140496
0.0129433
0.0114313
0.00977744
0.00816504
0.00669421
0.00540677
0.00432244
0.00343932
0.00273629
0.00216969
0.00173549
0.00129458
0.00124449
-0.000319305
-0.212199
-0.211358
-0.212679
-0.21523
-0.218376
-0.221982
-0.226059
-0.230593
-0.235473
-0.240434
-0.245022
-0.248627
-0.25062
-0.250303
-0.24699
-0.23998
-0.228681
-0.212758
-0.192319
-0.168001
-0.140948
-0.112633
-0.0845876
-0.0582405
-0.0347592
-0.0149298
0.000908351
0.0127793
0.0209175
0.0257569
0.0278947
0.0279712
0.0265846
0.0242511
0.0213957
0.0183661
0.01541
0.0126827
0.0102828
0.00824355
0.00654593
0.0051445
0.00398017
0.00300516
0.00214079
0.00144979
0.000391829
-0.206998
-0.208237
-0.210645
-0.213725
-0.217213
-0.22104
-0.225224
-0.229786
-0.234653
-0.239591
-0.244172
-0.247803
-0.249799
-0.249428
-0.246005
-0.238855
-0.227382
-0.211229
-0.190481
-0.165761
-0.13824
-0.10942
-0.080761
-0.0537211
-0.0295288
-0.00904249
0.00734479
0.0195776
0.0278173
0.0325301
0.0343622
0.0339958
0.0320752
0.0291505
0.0256623
0.0219454
0.0182749
0.0148915
0.0119427
0.00946444
0.00742033
0.00574115
0.00435649
0.00316355
0.00217512
0.000971398
0.00104805
-0.204195
-0.205755
-0.208464
-0.211821
-0.215547
-0.219538
-0.22377
-0.228225
-0.23282
-0.237355
-0.241478
-0.244704
-0.246433
-0.245974
-0.242559
-0.235455
-0.22408
-0.208107
-0.187611
-0.163164
-0.13585
-0.107141
-0.078644
-0.0518776
-0.028062
-0.00801662
0.00818766
0.0204887
0.0287158
0.0333396
0.0350394
0.0345024
0.0323823
0.0292712
0.0256548
0.0218899
0.0182378
0.0148932
0.01197
0.00949728
0.00744598
0.0057529
0.00435599
0.00312599
0.00213513
0.000660063
0.00145878
-0.204258
-0.205814
-0.208532
-0.211917
-0.215685
-0.219704
-0.223916
-0.22827
-0.232674
-0.236951
-0.240819
-0.243895
-0.245676
-0.245516
-0.242624
-0.236138
-0.225296
-0.20967
-0.189433
-0.165252
-0.13818
-0.109643
-0.0812997
-0.0547225
-0.0307926
-0.0102727
0.00610464
0.0182766
0.0264761
0.0311657
0.0329715
0.0325659
0.0305955
0.0276395
0.0241727
0.0205498
0.0170262
0.0137819
0.0109271
0.00850507
0.00650635
0.00488348
0.00357776
0.00246812
0.00160174
0.000326173
0.00119758
-0.207128
-0.208345
-0.210765
-0.213912
-0.217496
-0.221378
-0.225491
-0.229788
-0.234181
-0.238508
-0.242517
-0.245852
-0.248011
-0.24827
-0.245737
-0.239447
-0.228687
-0.213042
-0.192968
-0.169161
-0.142477
-0.114289
-0.0861885
-0.0597192
-0.0360984
-0.0161175
-0.000175819
0.0117
0.0197341
0.0243562
0.0261775
0.0258747
0.024094
0.021403
0.0182635
0.0150233
0.0119284
0.00914263
0.00676073
0.0048182
0.00330332
0.00217229
0.00136178
0.000794372
0.000411005
2.97617e-05
0.000254834
-0.212274
-0.211394
-0.212742
-0.21539
-0.218663
-0.222348
-0.226356
-0.230598
-0.23496
-0.239261
-0.24323
-0.246523
-0.248666
-0.248945
-0.246492
-0.240379
-0.22988
-0.214658
-0.194972
-0.17156
-0.145504
-0.118206
-0.0912355
-0.0660725
-0.0438447
-0.0252211
-0.0105079
0.00029798
0.0074894
0.0115781
0.013205
0.0130341
0.011674
0.00963749
0.00732689
0.00503427
0.00295514
0.00120731
-0.000151709
-0.00111001
-0.00168996
-0.0019299
-0.00189183
-0.00158651
-0.0012019
-0.000314257
-0.000975528
-0.221019
-0.212496
-0.212696
-0.215175
-0.218186
-0.221703
-0.225655
-0.229876
-0.234193
-0.238407
-0.242244
-0.245319
-0.247082
-0.246802
-0.243642
-0.236803
-0.22572
-0.210239
-0.190743
-0.168104
-0.143495
-0.11827
-0.0938406
-0.0714658
-0.0520647
-0.0361434
-0.0238379
-0.0149752
-0.00914112
-0.00577528
-0.00426543
-0.0040271
-0.00455627
-0.0054537
-0.00642623
-0.0072771
-0.0078877
-0.0081992
-0.00819439
-0.00788417
-0.00729786
-0.00646613
-0.00544283
-0.00418863
-0.00296379
-0.000966139
-0.0018815
-0.212369
-0.208817
-0.212256
-0.215891
-0.218876
-0.222067
-0.225654
-0.229394
-0.233048
-0.236395
-0.23912
-0.240778
-0.240819
-0.238614
-0.233523
-0.225022
-0.212841
-0.197091
-0.178307
-0.157384
-0.135431
-0.113632
-0.0931235
-0.0748408
-0.0593952
-0.0470277
-0.0376518
-0.0309376
-0.0264094
-0.0235353
-0.0218047
-0.0207768
-0.0201078
-0.0195503
-0.0189438
-0.0181942
-0.0172584
-0.0161256
-0.0148067
-0.013322
-0.0116989
-0.00995682
-0.00813365
-0.00617893
-0.00432061
-0.00180468
-0.00201879
-0.198525
-0.201207
-0.204959
-0.20787
-0.210401
-0.213302
-0.216477
-0.219502
-0.222083
-0.223989
-0.224923
-0.224512
-0.222349
-0.218034
-0.211214
-0.201665
-0.18938
-0.174634
-0.157986
-0.140227
-0.122265
-0.105011
-0.0892628
-0.0756003
-0.0643158
-0.0554055
-0.0486239
-0.0435782
-0.0398261
-0.0369528
-0.0346173
-0.0325692
-0.0306422
-0.0287356
-0.026795
-0.0247959
-0.0227332
-0.020612
-0.0184435
-0.0162396
-0.0140136
-0.0117711
-0.00953029
-0.00725414
-0.00507892
-0.00256154
-0.00163293
-0.140759
-0.154579
-0.166001
-0.175492
-0.183243
-0.189573
-0.194623
-0.198395
-0.200879
-0.202044
-0.201795
-0.199983
-0.196446
-0.191036
-0.183652
-0.174293
-0.163107
-0.150423
-0.136745
-0.122697
-0.108945
-0.0961049
-0.0846483
-0.0748495
-0.0667572
-0.0602217
-0.0549605
-0.0506501
-0.04699
-0.043743
-0.0407428
-0.0378921
-0.035138
-0.0324556
-0.0298293
-0.0272498
-0.0247075
-0.0221981
-0.0197172
-0.0172646
-0.0148392
-0.0124398
-0.0100695
-0.00771144
-0.00541987
-0.00302956
-0.00127107
-0.0976415
-0.119952
-0.137783
-0.152019
-0.162925
-0.170966
-0.176682
-0.180425
-0.18237
-0.182606
-0.181191
-0.178166
-0.173576
-0.167492
-0.160025
-0.151343
-0.14168
-0.131326
-0.120623
-0.10994
-0.0996479
-0.0900826
-0.0814922
-0.0740006
-0.0676007
-0.0621508
-0.0574325
-0.0532428
-0.0494322
-0.0458961
-0.042567
-0.0394008
-0.0363701
-0.0334529
-0.0306339
-0.0278967
-0.0252284
-0.022618
-0.020059
-0.0175456
-0.0150746
-0.0126416
-0.0102449
-0.00787666
-0.00555137
-0.00324203
-0.00115521
-0.0718916
-0.0986391
-0.119579
-0.135596
-0.147466
-0.155917
-0.161596
-0.164965
-0.16632
-0.165885
-0.16387
-0.160495
-0.155978
-0.150539
-0.144371
-0.137629
-0.130412
-0.122774
-0.114759
-0.106461
-0.0980653
-0.089845
-0.0820975
-0.0750527
-0.0688556
-0.0634854
-0.0587548
-0.0544624
-0.0504742
-0.0467256
-0.0431913
-0.0398565
-0.0367012
-0.0336995
-0.030825
-0.0280535
-0.0253633
-0.0227389
-0.0201695
-0.0176484
-0.0151706
-0.0127328
-0.0103324
-0.00796703
-0.00563811
-0.00334783
-0.00117045
-0.0591425
-0.0859703
-0.107168
-0.124141
-0.137399
-0.147246
-0.154099
-0.158398
-0.160511
-0.160747
-0.159394
-0.156726
-0.152998
-0.148428
-0.143181
-0.137357
-0.130992
-0.124085
-0.116643
-0.10873
-0.100512
-0.0922568
-0.0842834
-0.0768863
-0.0702597
-0.0644589
-0.0593871
-0.0548792
-0.0507794
-0.0469793
-0.0434178
-0.0400605
-0.0368817
-0.0338555
-0.0309575
-0.0281644
-0.0254562
-0.0228175
-0.0202371
-0.0177075
-0.0152233
-0.0127808
-0.0103774
-0.00801196
-0.00568964
-0.00342741
-0.00120313
)
;

boundaryField
{
    inlet
    {
        type            zeroGradient;
    }
    outlet
    {
        type            fixedValue;
        value           uniform 0;
    }
    upperWall
    {
        type            zeroGradient;
    }
    lowerWall
    {
        type            zeroGradient;
    }
    frontAndBack
    {
        type            empty;
    }
}


// ************************************************************************* //
