/*--------------------------------*- C++ -*----------------------------------*\
| =========                 |                                                 |
| \\      /  F ield         | OpenFOAM: The Open Source CFD Toolbox           |
|  \\    /   O peration     | Version:  2406                                  |
|   \\  /    A nd           | Website:  www.openfoam.com                      |
|    \\/     M anipulation  |                                                 |
\*---------------------------------------------------------------------------*/
FoamFile
{
    version     2.0;
    format      ascii;
    arch        "LSB;label=32;scalar=64";
    class       surfaceScalarField;
    location    "99";
    object      phi;
}
// * * * * * * * * * * * * * * * * * * * * * * * * * * * * * * * * * * * * * //

dimensions      [0 3 -1 0 0 0 0];

oriented        oriented;

internalField   nonuniform List<scalar> 
3796
(
0.010039
-0.000288991
0.0104068
-0.000367845
0.0107385
-0.000331752
0.0110213
-0.000282825
0.0112584
-0.000237097
0.011455
-0.000196644
0.0116178
-0.000162849
0.0117535
-0.000135727
0.0118678
-0.000114261
0.011965
-9.7275e-05
0.0120488
-8.37957e-05
0.0121218
-7.30497e-05
0.0121862
-6.44537e-05
0.0122438
-5.75627e-05
0.0122958
-5.20613e-05
0.0123435
-4.77148e-05
0.0123878
-4.43779e-05
0.0124298
-4.19592e-05
0.0124702
-4.04386e-05
0.01251
-3.98392e-05
0.0125502
-4.02566e-05
0.012592
-4.18415e-05
0.0126368
-4.48396e-05
0.0126864
-4.9585e-05
0.0127429
-5.65545e-05
0.0128092
-6.638e-05
0.0128891
-7.99282e-05
0.0129875
-9.83449e-05
0.0131106
-0.000123178
0.0132671
-0.000156478
0.013468
-0.000200993
0.0137284
-0.000260355
0.0140677
-0.000339397
0.0145122
-0.000444452
0.0150959
-0.000583789
0.0158639
-0.000767972
0.0168741
-0.00101021
0.0182005
-0.00132638
0.019935
-0.00173449
0.0221881
-0.00225309
0.0250862
-0.00289811
0.028763
-0.00367679
0.0333437
-0.00458068
0.0389091
-0.00556533
0.0454662
-0.00655707
0.0528617
-0.00739545
-0.00790633
0.0607682
0.0276017
-0.000140661
0.0275189
-0.000285146
0.0275063
-0.000319166
0.02754
-0.000316537
0.0276051
-0.000302211
0.0276884
-0.000280075
0.0277799
-0.000254306
0.0278731
-0.000228994
0.0279648
-0.000205951
0.028053
-0.000185515
0.0281367
-0.000167607
0.0282157
-0.000152088
0.02829
-0.000138772
0.0283599
-0.000127467
0.0284258
-0.000117992
0.0284883
-0.000110221
0.0285479
-0.000104079
0.0286055
-9.95666e-05
0.0286618
-9.67498e-05
0.0287177
-9.57909e-05
0.0287743
-9.69478e-05
0.0288331
-0.000100621
0.0288956
-0.000107369
0.0289639
-0.000117976
0.0290408
-0.000133493
0.0291297
-0.000155346
0.0292352
-0.000185426
0.0293631
-0.000226262
0.0295211
-0.000281196
0.0297192
-0.000354659
0.0299707
-0.000452488
0.0302927
-0.000582362
0.0307076
-0.000754308
0.0312444
-0.000981347
0.0319408
-0.00128017
0.0328447
-0.00167189
0.034017
-0.00218251
0.0355337
-0.00284313
0.0374882
-0.00368894
0.0399921
-0.00475701
0.0431744
-0.00608045
0.0471778
-0.00768013
0.0521462
-0.0095491
0.0581997
-0.0116187
0.0654118
-0.0137691
0.0736538
-0.0156373
-0.0168876
0.0826351
0.0436854
-7.60874e-05
0.0435925
-0.00019223
0.0435175
-0.000244218
0.0434624
-0.000261483
0.0434251
-0.000264964
0.0434047
-0.000259673
0.0433984
-0.000248029
0.0434028
-0.000233357
0.0434149
-0.00021809
0.0434327
-0.000203319
0.0434545
-0.000189492
0.0434793
-0.000176865
0.0435061
-0.000165602
0.0435344
-0.000155782
0.0435638
-0.000147446
0.0435942
-0.00014064
0.0436255
-0.000135448
0.0436579
-0.000132012
0.0436917
-0.000130557
0.0437273
-0.000131408
0.0437654
-0.000135029
0.0438068
-0.000142058
0.0438527
-0.000153373
0.0439049
-0.000170153
0.0439653
-0.000193977
0.0440369
-0.000226943
0.0441233
-0.000271834
0.0442293
-0.000332331
0.0443614
-0.000413296
0.0445279
-0.000521125
0.0447396
-0.000664227
0.0450108
-0.000853597
0.04536
-0.00110357
0.0458113
-0.00143269
0.0463959
-0.00186477
0.047154
-0.00242999
0.0481375
-0.00316596
0.0494128
-0.0041185
0.0510651
-0.00534121
0.0532021
-0.00689403
0.0559575
-0.0088358
0.0594957
-0.0112183
0.0640011
-0.0140545
0.0696841
-0.0173017
0.0767562
-0.0208412
0.0851735
-0.0240545
-0.0267241
0.0950102
0.0577218
-4.7914e-05
0.0576607
-0.000131094
0.0575982
-0.000181792
0.0575432
-0.000206488
0.0574957
-0.000217445
0.057456
-0.00022004
0.0574242
-0.00021626
0.0573992
-0.000208371
0.0573797
-0.000198578
0.0573646
-0.000188252
0.0573532
-0.000178095
0.0573448
-0.000168526
0.057339
-0.000159851
0.0573355
-0.000152282
0.057334
-0.000145976
0.0573344
-0.000141073
0.0573367
-0.000137746
0.0573409
-0.000136226
0.0573472
-0.000136831
0.0573557
-0.000139996
0.057367
-0.000146314
0.0573815
-0.000156588
0.0574
-0.000171903
0.0574235
-0.000193708
0.0574535
-0.000223928
0.0574916
-0.000265116
0.0575404
-0.000320645
0.057603
-0.000394967
0.0576837
-0.00049395
0.0577878
-0.000625309
0.0579227
-0.000799171
0.0580979
-0.0010288
0.0583258
-0.00133149
0.0586229
-0.00172975
0.0590108
-0.00225267
0.0595184
-0.00293765
0.0601847
-0.00383229
0.0610627
-0.00499648
0.0622255
-0.00650397
0.0637753
-0.00844385
0.0658546
-0.0109151
0.0686634
-0.0140271
0.0724563
-0.0178474
0.0775805
-0.0224258
0.0844058
-0.0276665
0.0931186
-0.0327672
-0.0390425
0.105437
0.0697344
-3.23623e-05
0.0696951
-9.17235e-05
0.0696478
-0.000134594
0.0696014
-0.000160019
0.0695575
-0.000173609
0.0695171
-0.00017964
0.0694808
-0.000180029
0.0694488
-0.000176357
0.0694205
-0.000170314
0.0693954
-0.000163196
0.0693731
-0.000155789
0.0693532
-0.000148585
0.0693352
-0.000141945
0.0693191
-0.000136151
0.0693045
-0.000131426
0.0692914
-0.000127974
0.0692797
-0.000126015
0.0692692
-0.000125833
0.0692602
-0.000127792
0.0692526
-0.00013238
0.0692465
-0.000140247
0.0692421
-0.000152266
0.0692398
-0.000169607
0.0692399
-0.000193826
0.0692429
-0.000226988
0.0692496
-0.000271824
0.0692609
-0.000331937
0.069278
-0.000412086
0.0693026
-0.000518532
0.0693368
-0.000659521
0.0693835
-0.000845887
0.0694465
-0.00109185
0.0695311
-0.00141606
0.0696442
-0.00184293
0.069796
-0.00240438
0.0700004
-0.00314213
0.0702787
-0.00411056
0.0706628
-0.0053806
0.0712033
-0.00704443
0.0719815
-0.00922212
0.0731332
-0.0120668
0.0748827
-0.0157766
0.0776036
-0.0205682
0.0818673
-0.0266895
0.0884425
-0.0342416
0.0980404
-0.0423651
-0.0557418
0.11474
0.0797401
-2.2428e-05
0.079713
-6.47102e-05
0.0796766
-9.81334e-05
0.079637
-0.000120459
0.0795971
-0.000133775
0.0795583
-0.000140821
0.0795215
-0.000143217
0.0794872
-0.00014211
0.0794556
-0.000138693
0.0794264
-0.000134016
0.0793994
-0.000128816
0.0793744
-0.000123578
0.0793511
-0.000118666
0.0793293
-0.00011437
0.0793088
-0.000110936
0.0792894
-0.000108585
0.0792709
-0.000107557
0.0792532
-0.000108141
0.0792361
-0.000110706
0.0792194
-0.000115731
0.079203
-0.000123854
0.0791866
-0.00013592
0.0791701
-0.000153059
0.079153
-0.000176768
0.079135
-0.000209035
0.0791157
-0.000252482
0.0790943
-0.000310572
0.0790701
-0.00038787
0.0790419
-0.000490395
0.0790084
-0.000626079
0.0789679
-0.000805365
0.0789181
-0.00104201
0.0788561
-0.00135415
0.0787789
-0.0017657
0.0786828
-0.0023083
0.0785646
-0.00302391
0.0784225
-0.00396844
0.0782588
-0.00521699
0.0780859
-0.00687145
0.0779354
-0.00907165
0.0778836
-0.0120151
0.0780884
-0.0159814
0.0789239
-0.0214037
0.0810997
-0.0288652
0.0863002
-0.0394421
0.0967263
-0.0527912
-0.0748208
0.115805
0.0877428
-1.52812e-05
0.0877226
-4.44704e-05
0.0876932
-6.87162e-05
0.0876589
-8.61615e-05
0.0876224
-9.7371e-05
0.0875855
-0.000103855
0.087549
-0.000106778
0.0875138
-0.000106972
0.0874804
-0.000105245
0.0874487
-0.000102363
0.0874188
-9.89217e-05
0.0873906
-9.53384e-05
0.0873638
-9.19262e-05
0.0873384
-8.89404e-05
0.087314
-8.66007e-05
0.0872905
-8.51121e-05
0.0872676
-8.46919e-05
0.0872451
-8.55981e-05
0.0872225
-8.81546e-05
0.0871996
-9.27798e-05
0.0871757
-0.000100024
0.0871504
-0.000110615
0.0871228
-0.000125522
0.0870921
-0.000146031
0.0870569
-0.000173841
0.0870156
-0.000211198
0.086966
-0.000261063
0.0869055
-0.000327345
0.0868303
-0.000415201
0.0867356
-0.000531432
0.0866153
-0.000685019
0.0864611
-0.000887829
0.0862625
-0.00115558
0.0860059
-0.00150914
0.085674
-0.00197636
0.0852447
-0.00259464
0.0846909
-0.00341463
0.0839795
-0.00450565
0.0830723
-0.00596418
0.0819267
-0.00792611
0.0805025
-0.0105908
0.0787672
-0.0142461
0.0767429
-0.0193794
0.074553
-0.0266753
0.0730899
-0.037979
0.075772
-0.0554733
-0.0922319
0.0931831
0.0937443
-9.58279e-06
0.0937278
-2.8008e-05
0.0937028
-4.37422e-05
0.0936722
-5.55824e-05
0.0936384
-6.35649e-05
0.093603
-6.84272e-05
0.0935671
-7.08877e-05
0.0935316
-7.14929e-05
0.0934971
-7.07497e-05
0.0934639
-6.91493e-05
0.093432
-6.7099e-05
0.0934016
-6.49008e-05
0.0933724
-6.27825e-05
0.0933444
-6.09313e-05
0.0933173
-5.95111e-05
0.0932908
-5.86769e-05
0.0932647
-5.85931e-05
0.0932386
-5.94523e-05
0.0932119
-6.14945e-05
0.0931841
-6.50282e-05
0.0931545
-7.04569e-05
0.0931222
-7.8314e-05
0.093086
-8.93072e-05
0.0930443
-0.000104374
0.0929952
-0.000124755
0.0929361
-0.000152086
0.0928635
-0.000188527
0.0927731
-0.00023693
0.092659
-0.000301058
0.0925134
-0.000385883
0.0923263
-0.000497978
0.0920846
-0.000646056
0.0917707
-0.000841694
0.0913619
-0.00110035
0.0908283
-0.00144277
0.0901307
-0.00189704
0.0892176
-0.00250158
0.0880215
-0.00330952
0.0864529
-0.00439559
0.0843927
-0.00586597
0.0816779
-0.00787597
0.0780796
-0.0106478
0.0732274
-0.0145272
0.0664981
-0.019946
0.0562416
-0.0277224
0.0392093
-0.0384411
-0.0530225
0.0977451
-4.63919e-06
0.0977306
-1.35912e-05
0.0977082
-2.13454e-05
0.0976799
-2.73242e-05
0.0976478
-3.14697e-05
0.0976135
-3.40735e-05
0.097578
-3.5471e-05
0.0975425
-3.59328e-05
0.0975074
-3.57042e-05
0.0974733
-3.50232e-05
0.0974403
-3.40954e-05
0.0974084
-3.30783e-05
0.0973777
-3.20917e-05
0.097348
-3.12345e-05
0.0973191
-3.05942e-05
0.0972906
-3.02541e-05
0.0972623
-3.03025e-05
0.0972337
-3.08423e-05
0.0972042
-3.20011e-05
0.0971731
-3.39424e-05
0.0971395
-3.68799e-05
0.0971023
-4.10952e-05
0.0970599
-4.69617e-05
0.0970105
-5.49736e-05
0.0969515
-6.57842e-05
0.0968797
-8.02559e-05
0.0967907
-9.95268e-05
0.0966788
-0.000125099
0.0965367
-0.000158957
0.0963545
-0.000203722
0.0961194
-0.000262868
0.0958143
-0.000341003
0.0954169
-0.000444263
0.0948974
-0.000580866
0.0942165
-0.000761881
0.0933218
-0.00100235
0.0921432
-0.00132295
0.0905861
-0.00175239
0.0885216
-0.00233113
0.0857723
-0.00311669
0.0820885
-0.00419215
0.0771164
-0.00567565
0.0703294
-0.00774024
0.0609929
-0.0106095
0.0478653
-0.0145948
0.0292685
-0.0198443
-0.023754
0.0997454
-2.37153e-08
0.0997319
-7.65216e-08
0.0997106
-1.2519e-07
0.0996835
-1.72998e-07
0.0996522
-2.20808e-07
0.0996184
-2.68943e-07
0.0995832
-3.17629e-07
0.0995476
-3.67098e-07
0.0995123
-4.17515e-07
0.0994778
-4.69196e-07
0.0994442
-5.22514e-07
0.0994117
-5.778e-07
0.0993802
-6.3521e-07
0.0993497
-6.95073e-07
0.0993198
-7.57888e-07
0.0992904
-8.24234e-07
0.0992609
-8.9445e-07
0.0992311
-9.68853e-07
0.0992001
-1.04782e-06
0.0991673
-1.13198e-06
0.0991316
-1.22198e-06
0.0990918
-1.31843e-06
0.0990462
-1.42185e-06
0.0989928
-1.53281e-06
0.0989286
-1.65184e-06
0.0988502
-1.77967e-06
0.0987525
-1.91692e-06
0.0986295
-2.06427e-06
0.0984727
-2.22219e-06
0.0982714
-2.39112e-06
0.0980111
-2.5712e-06
0.0976728
-2.76235e-06
0.0972315
-2.96396e-06
0.0966538
-3.1748e-06
0.0958953
-3.39255e-06
0.0948966
-3.61343e-06
0.0935775
-3.8314e-06
0.0918291
-4.03725e-06
0.0895022
-4.21709e-06
0.0863898
-4.35041e-06
0.0822021
-4.40742e-06
0.0765308
-4.34616e-06
0.0687947
-4.10952e-06
0.0581888
-3.62453e-06
0.0435968
-2.80577e-06
0.0237541
-1.56603e-06
4.7947e-08
0.0997454
4.59229e-06
0.0997319
1.34398e-05
0.0997106
2.10977e-05
0.0996834
2.6982e-05
0.0996522
3.10329e-05
0.0996184
3.35416e-05
0.0995832
3.48429e-05
0.0995476
3.5207e-05
0.0995123
3.48787e-05
0.0994777
3.40957e-05
0.0994441
3.30626e-05
0.0994116
3.19362e-05
0.0993801
3.08363e-05
0.0993495
2.9861e-05
0.0993197
2.90967e-05
0.0992902
2.86256e-05
0.0992608
2.85354e-05
0.0992309
2.89283e-05
0.0991999
2.99311e-05
0.099167
3.17062e-05
0.0991313
3.4466e-05
0.0990915
3.84908e-05
0.0990459
4.41531e-05
0.0989924
5.19459e-05
0.0989282
6.25213e-05
0.0988497
7.67404e-05
0.098752
9.57399e-05
0.0986289
0.000121021
0.0984721
0.000154566
0.0982707
0.000198997
0.0980103
0.000257786
0.097672
0.000335541
0.0972307
0.0004384
0.0966529
0.000574582
0.0958943
0.000755162
0.0948955
0.000995191
0.0935763
0.00131535
0.0918279
0.00174436
0.089501
0.00232273
0.0863887
0.00310798
0.082201
0.00418328
0.0765298
0.00566685
0.0687938
0.00773184
0.0581883
0.010602
0.0435966
0.0145889
0.0237541
0.0198409
0.0237541
0.0977451
9.53736e-06
0.0977306
2.78616e-05
0.0977082
4.35028e-05
0.0976799
5.52516e-05
0.0976478
6.31428e-05
0.0976134
6.79134e-05
0.097578
7.02811e-05
0.0975424
7.07921e-05
0.0975073
6.9953e-05
0.0974731
6.82543e-05
0.0974401
6.61026e-05
0.0974082
6.37995e-05
0.0973774
6.15723e-05
0.0973477
5.96075e-05
0.0973187
5.8068e-05
0.0972902
5.71081e-05
0.0972618
5.68911e-05
0.0972331
5.76091e-05
0.0972035
5.95014e-05
0.0971724
6.28753e-05
0.0971387
6.8133e-05
0.0971013
7.58069e-05
0.0970589
8.66036e-05
0.0970094
0.00010146
0.0969502
0.000121614
0.0968783
0.000148701
0.0967891
0.000184881
0.0966771
0.000233002
0.0965348
0.000296828
0.0963525
0.000381328
0.0961172
0.000493076
0.0958119
0.000640783
0.0954143
0.000836028
0.0948946
0.00109427
0.0942135
0.00143625
0.0933186
0.00189008
0.0921398
0.00249416
0.0905825
0.00330164
0.088518
0.00438727
0.0857687
0.00585726
0.082085
0.00786698
0.0771132
0.0106387
0.0703268
0.0145183
0.0609912
0.0199376
0.0478647
0.0277154
0.0292693
0.0384363
0.0530234
0.0937443
1.52383e-05
0.0937278
4.43324e-05
0.0937028
6.84904e-05
0.0936722
8.58496e-05
0.0936384
9.69732e-05
0.0936029
0.000103371
0.0935669
0.000106207
0.0935314
0.000106312
0.0934969
0.000104496
0.0934636
0.000101522
0.0934317
9.79861e-05
0.0934012
9.43048e-05
0.0933719
9.07908e-05
0.0933438
8.7699e-05
0.0933166
8.5248e-05
0.0932901
8.3642e-05
0.0932639
8.30977e-05
0.0932376
8.38724e-05
0.0932108
8.62889e-05
0.0931829
9.0765e-05
0.0931531
9.78491e-05
0.0931207
0.000108269
0.0930843
0.000122993
0.0930424
0.000143305
0.0929931
0.000170903
0.0929338
0.000208031
0.092861
0.00025765
0.0927703
0.000323667
0.0926559
0.000411237
0.09251
0.000527161
0.0923227
0.000680418
0.0920806
0.000882873
0.0917663
0.00115024
0.0913572
0.0015034
0.0908233
0.00197019
0.0901253
0.00258801
0.0892119
0.00340752
0.0880156
0.00449803
0.0864468
0.00595605
0.0843866
0.00791746
0.0816719
0.0105816
0.078074
0.0142365
0.0732228
0.0193695
0.0664951
0.0266654
0.0562406
0.0379698
0.0392107
0.0554663
0.0922341
0.0877428
2.23886e-05
0.0877226
6.45838e-05
0.0876931
9.79265e-05
0.0876588
0.000120173
0.0876223
0.000133411
0.0875853
0.000140379
0.0875488
0.000142696
0.0875136
0.000141509
0.0874801
0.00013801
0.0874483
0.00013325
0.0874183
0.000127964
0.08739
0.000122638
0.0873631
0.000117635
0.0873376
0.000113244
0.0873131
0.000109709
0.0872895
0.000107252
0.0872664
0.000106113
0.0872437
0.000106578
0.087221
0.000109017
0.0871978
0.000113908
0.0871738
0.000121887
0.0871482
0.000133799
0.0871204
0.000150772
0.0870894
0.000174304
0.0870539
0.000206379
0.0870123
0.000249619
0.0869625
0.000307485
0.0869016
0.000384541
0.086826
0.000486806
0.0867309
0.000622206
0.0866102
0.000801187
0.0864555
0.0010375
0.0862565
0.00134928
0.0859994
0.00176045
0.085667
0.00230262
0.0852372
0.00301777
0.0846829
0.00396181
0.0839711
0.00520981
0.0830635
0.00686366
0.0819178
0.00906319
0.0804936
0.0120059
0.0787588
0.0159713
0.0767356
0.0213927
0.074548
0.0288531
0.0730892
0.0394286
0.07578
0.0527755
0.0748031
0.093211
0.0797401
3.23274e-05
0.079713
9.16118e-05
0.0796765
0.000134411
0.0796369
0.000159767
0.079597
0.000173288
0.0795581
0.00017925
0.0795212
0.00017957
0.0794869
0.000175829
0.0794552
0.000169716
0.0794259
0.000162526
0.0793988
0.000155045
0.0793737
0.000147765
0.0793502
0.000141046
0.0793283
0.00013517
0.0793076
0.00013036
0.079288
0.000126816
0.0792694
0.000124762
0.0792515
0.000124478
0.0792341
0.000126329
0.0792172
0.000130801
0.0792005
0.000138544
0.0791839
0.000150431
0.079167
0.000167629
0.0791496
0.000191694
0.0791313
0.00022469
0.0791115
0.000269346
0.0790897
0.000329265
0.0790651
0.000409202
0.0790364
0.000515419
0.0790025
0.000656158
0.0789614
0.000842251
0.078911
0.00108792
0.0788484
0.0014118
0.0787706
0.00183831
0.0786738
0.00239936
0.0785549
0.00313666
0.0784121
0.00410459
0.0782479
0.00537405
0.0780743
0.00703721
0.0779234
0.00921411
0.0778714
0.0120578
0.0780764
0.0157664
0.0789128
0.0205563
0.0810906
0.0266753
0.0862952
0.034224
0.0967288
0.0423419
0.0557103
0.115822
0.0697344
4.78844e-05
0.069695
0.000131
0.0696478
0.000181638
0.0696013
0.000206276
0.0695574
0.000217175
0.0695169
0.000219715
0.0694806
0.000215878
0.0694484
0.000207932
0.06942
0.000198082
0.0693949
0.000187698
0.0693724
0.000177481
0.0693523
0.000167852
0.0693342
0.000159112
0.0693179
0.000151478
0.0693031
0.000145101
0.0692898
0.000140127
0.0692778
0.000136722
0.0692672
0.000135121
0.0692578
0.000135638
0.0692499
0.000138711
0.0692435
0.000144928
0.0692388
0.000155096
0.0692361
0.000170295
0.0692358
0.000191975
0.0692384
0.00022206
0.0692447
0.000263101
0.0692555
0.00031847
0.069272
0.000392619
0.069296
0.000491411
0.0693296
0.000622561
0.0693756
0.000796192
0.069438
0.00102556
0.0695218
0.00132797
0.0696342
0.00172591
0.0697851
0.00224847
0.0699887
0.00293304
0.0702661
0.00382719
0.0706493
0.00499081
0.0711889
0.00649761
0.0719664
0.00843665
0.0731174
0.0109068
0.0748664
0.0140173
0.0775871
0.0178356
0.0818513
0.0224111
0.0884277
0.0276476
0.0980277
0.0327418
0.0390075
0.114731
0.0577218
7.60643e-05
0.0576606
0.000192156
0.0575982
0.000244097
0.0575431
0.000261318
0.0574955
0.000264756
0.0574558
0.000259422
0.0574239
0.000247735
0.0573988
0.000233022
0.0573791
0.000217713
0.0573639
0.000202899
0.0573523
0.000189029
0.0573438
0.000176358
0.0573379
0.000165049
0.0573341
0.00015518
0.0573324
0.000146794
0.0573326
0.000139935
0.0573346
0.000134688
0.0573385
0.000131192
0.0573445
0.000129675
0.0573527
0.000130458
0.0573636
0.000134006
0.0573777
0.000140957
0.0573958
0.000152188
0.0574189
0.000168876
0.0574483
0.0001926
0.0574859
0.000225457
0.0575342
0.000270229
0.0575962
0.000330595
0.0576761
0.000411416
0.0577796
0.000519084
0.0579138
0.000662006
0.0580881
0.000851175
0.0583152
0.00110092
0.0586113
0.00142978
0.0589982
0.00186155
0.0595048
0.00242641
0.06017
0.00316196
0.0610469
0.00411398
0.0622084
0.00533606
0.063757
0.00688807
0.0658351
0.00882877
0.0686425
0.0112099
0.072434
0.0140441
0.0775567
0.0172884
0.0843804
0.020824
0.0930909
0.0240313
0.0266924
0.105406
0.0436854
0.000140645
0.0435924
0.000285095
0.0435174
0.000319083
0.0434623
0.000316424
0.043425
0.00030207
0.0434045
0.000279907
0.0433981
0.000254112
0.0434023
0.000228773
0.0434143
0.000205706
0.0434319
0.000185243
0.0434536
0.00016731
0.0434782
0.000151764
0.0435048
0.000138421
0.0435328
0.000127086
0.043562
0.000117582
0.0435922
0.000109779
0.0436232
0.000103604
0.0436553
9.90552e-05
0.0436888
9.62012e-05
0.043724
9.52005e-05
0.0437617
9.63145e-05
0.0438027
9.99391e-05
0.0438482
0.000106636
0.0438999
0.000117185
0.0439598
0.000132642
0.0440308
0.000154426
0.0441166
0.000184433
0.044222
0.000225185
0.0443533
0.000280026
0.044519
0.000353383
0.0447299
0.000451093
0.0450002
0.000580829
0.0453485
0.000752615
0.0457988
0.000979464
0.0463823
0.00127807
0.0471391
0.00166951
0.0481213
0.00217981
0.0493952
0.00284002
0.051046
0.00368532
0.0531813
0.00475274
0.0559348
0.00607532
0.0594708
0.00767385
0.0639737
0.00954124
0.0696534
0.0116087
0.0767215
0.0137559
0.0851333
0.0156195
0.0168635
0.0949623
0.0276016
0.000288984
0.0275189
0.000367821
0.0275062
0.000331711
0.0275399
0.000282772
0.0276049
0.00023703
0.0276882
0.000196566
0.0277795
0.00016276
0.0278726
0.000135629
0.0279642
0.000114151
0.0280522
9.71571e-05
0.0281358
8.36668e-05
0.0282147
7.29122e-05
0.0282888
6.43039e-05
0.0283584
5.74035e-05
0.0284241
5.1889e-05
0.0284863
4.75323e-05
0.0285457
4.41809e-05
0.028603
4.17502e-05
0.0286589
4.0213e-05
0.0287145
3.95997e-05
0.0287708
3.99981e-05
0.0288291
4.1566e-05
0.0288912
4.45415e-05
0.0289591
4.92659e-05
0.0290355
5.62085e-05
0.0291239
6.60082e-05
0.0292288
7.95235e-05
0.029356
9.79069e-05
0.0295133
0.000122698
0.0297107
0.000155953
0.0299614
0.000200411
0.0302825
0.00025971
0.0306964
0.000338672
0.0312322
0.000443635
0.0319274
0.000582853
0.03283
0.000766894
0.0340009
0.00100895
0.035516
0.0013249
0.0374686
0.0017327
0.0399704
0.00225093
0.0431502
0.00289545
0.0471506
0.00367348
0.0521154
0.00457647
0.0581642
0.00555986
0.0653702
0.00654985
0.0736041
0.00738575
0.00789313
0.0825743
0.010039
0.0104068
0.0107385
0.0110213
0.0112583
0.0114548
0.0116176
0.0117532
0.0118673
0.0119645
0.0120481
0.012121
0.0121853
0.0122427
0.0122946
0.0123421
0.0123863
0.012428
0.0124682
0.0125078
0.0125478
0.0125894
0.0126339
0.0126832
0.0127394
0.0128054
0.0128849
0.0129828
0.0131055
0.0132614
0.0134618
0.0137215
0.0140602
0.0145038
0.0150867
0.0158535
0.0168625
0.0181874
0.0199201
0.022171
0.0250665
0.02874
0.0333164
0.0388763
0.0454261
0.0528119
0.060705
0.0686202
-0.0078519
0.0756655
-0.00704515
0.0813894
-0.00572374
0.0856752
-0.0042857
0.0885942
-0.00291886
-0.00166582
0.0902602
0.0917151
-0.0169317
0.100044
-0.015374
0.107166
-0.0128458
0.113008
-0.0101277
0.117606
-0.00751678
-0.00511936
0.12106
0.105306
-0.0272269
0.114705
-0.0247731
0.122719
-0.0208605
0.129179
-0.016587
0.134047
-0.0123847
-0.00859611
0.137524
0.118944
-0.0407335
0.130105
-0.0359347
0.138264
-0.0290186
0.143441
-0.0217642
0.146203
-0.0151463
-0.00984071
0.147447
0.129831
-0.0558248
0.136679
-0.0427826
0.136995
-0.0293344
0.133793
-0.0185626
0.129421
-0.0107739
-0.00584511
0.125425
0.116115
-0.0561346
0.1026
-0.0292672
0.0849868
-0.0117213
0.07099
-0.00456585
0.0606902
-0.000473998
0.000965559
0.0538795
0.0370485
0.0077813
-0.00393998
-0.00850578
-0.00897985
-0.00801434
0.0370976
0.0561135
0.00783604
0.0292617
-0.00387889
0.011715
-0.00843616
0.00455729
-0.00889524
0.000459248
-0.000996758
-0.0078986
0.116155
0.0557798
0.102688
0.0427292
0.0851309
0.0292721
0.0711999
0.0184883
0.0609773
0.0106817
0.00572897
0.0542516
0.129828
0.0406822
0.136695
0.0358627
0.137044
0.028923
0.13389
0.0216415
0.129582
0.0149905
0.00964289
0.125668
0.118906
0.0271823
0.130058
0.0247102
0.138207
0.0207737
0.143378
0.0164705
0.146137
0.012232
0.00839904
0.14738
0.105246
0.0168987
0.114627
0.0153287
0.122617
0.0127839
0.129043
0.0100439
0.13387
0.007405
0.00497176
0.137297
0.0916392
0.0078339
0.0999471
0.00702055
0.107041
0.00569029
0.112844
0.00424035
0.117392
0.00285705
0.00158125
0.120782
0.0685388
0.0755593
0.0812495
0.0854897
0.0883466
0.0899277
0.0907875
-0.000527192
0.0902763
0.000511342
0.0888477
0.00142865
0.0866493
0.00219853
0.083822
0.00282751
0.0804831
0.00333904
0.0767239
0.00375959
0.0726124
0.00411185
0.0682005
0.0044124
0.0635293
0.00467181
0.0586356
0.00489433
0.0535589
0.00507744
0.0483477
0.00521203
0.0430645
0.00528396
0.0377888
0.0052766
0.0326154
0.0051742
0.0276504
0.00496567
0.0230027
0.00464824
0.0187729
0.00423028
0.0150412
0.00373202
0.0118573
0.00318397
0.00923469
0.00262256
0.00715027
0.00208425
0.00555067
0.00159932
0.00436306
0.00118728
0.00350816
0.000854537
0.00291236
0.00059548
0.00251619
0.000395857
0.00227793
0.000238006
0.00217226
0.000105436
0.00218613
-1.40943e-05
0.0023124
-0.000126491
0.00254253
-0.000230359
0.00287308
-0.000330781
0.00330639
-0.000433618
0.00384295
-0.000536859
0.00447981
-0.000637253
0.00521194
-0.000732479
0.00603247
-0.000820914
0.00693321
-0.000901058
0.00790493
-0.000972055
0.00893719
-0.0010326
0.0100207
-0.00108397
0.0111387
-0.0011183
0.0122975
-0.00115915
0.0134104
-0.00111307
-0.00130771
0.123577
-0.00304366
0.125402
-0.00131381
0.126676
0.000155104
0.127436
0.00143842
0.127699
0.00256476
0.127475
0.0035629
0.126765
0.00447028
0.125557
0.00531954
0.123836
0.0061345
0.121577
0.0069309
0.118757
0.00771565
0.11535
0.00848476
0.11134
0.00922237
0.106724
0.00990112
0.101517
0.0104844
0.0957613
0.0109304
0.0895305
0.0111971
0.0829299
0.0112493
0.0760952
0.0110653
0.0691855
0.0106419
0.0623728
0.0099968
0.0558284
0.00916688
0.0497097
0.00820286
0.0441471
0.00716169
0.0392354
0.0060986
0.0350289
0.00506065
0.0315412
0.00408274
0.0287503
0.00318637
0.0266071
0.00238075
0.0250464
0.00166567
0.0239972
0.00103463
0.0233916
0.000478623
0.0231785
-1.77608e-05
0.0233065
-0.000459262
0.0237171
-0.000844751
0.0243622
-0.00118251
0.0252058
-0.00148139
0.0262187
-0.00174593
0.0273751
-0.00197786
0.0286517
-0.00217809
0.0300268
-0.0023475
0.0314809
-0.00248715
0.0329955
-0.00259894
0.0345592
-0.0026825
0.0361485
-0.00274881
0.037804
-0.00276875
-0.00288777
0.13995
-0.00547013
0.141611
-0.0029745
0.142707
-0.000940632
0.143405
0.000739997
0.143821
0.00214888
0.144016
0.00336795
0.144019
0.00446797
0.143835
0.00550372
0.143452
0.0065178
0.14284
0.00754267
0.141958
0.00859903
0.140749
0.00969363
0.139154
0.0108178
0.137109
0.011947
0.134552
0.0130415
0.131435
0.0140488
0.127724
0.0149077
0.123419
0.0155546
0.118552
0.0159321
0.113197
0.0159974
0.107465
0.0157292
0.101499
0.0151322
0.0954654
0.0142362
0.089535
0.0130916
0.0838709
0.0117622
0.078614
0.0103169
0.0738743
0.00882176
0.0697258
0.00733417
0.0662063
0.00589941
0.0633216
0.00454961
0.0610506
0.00330471
0.0593542
0.00217419
0.0581753
0.00116032
0.0574585
0.00025673
0.0571572
-0.000544218
0.0572185
-0.00124451
0.0575852
-0.00184882
0.0582033
-0.00236466
0.0590245
-0.00279963
0.0600067
-0.00316066
0.0611131
-0.00345435
0.0623133
-0.00368761
0.0635803
-0.00386631
0.0648983
-0.00400084
0.0662389
-0.00408957
0.0676408
-0.0041708
-0.00418874
0.147964
-0.00598704
0.148159
-0.0031696
0.148208
-0.000989539
0.148206
0.000742555
0.148187
0.00216728
0.148162
0.00339288
0.148132
0.00449821
0.148094
0.00554229
0.148037
0.00657501
0.147943
0.0076374
0.147783
0.00875868
0.147524
0.00995366
0.147121
0.0112212
0.146524
0.0125435
0.14568
0.0138859
0.144531
0.0151981
0.143023
0.0164162
0.14111
0.0174678
0.138763
0.0182787
0.135978
0.0187825
0.132778
0.0189295
0.129216
0.0186935
0.125376
0.0180757
0.121363
0.0171038
0.117297
0.015828
0.113299
0.0143141
0.109484
0.0126359
0.10595
0.0108672
0.102773
0.00907578
0.100003
0.00731906
0.0976645
0.00564222
0.0957603
0.00407743
0.0942749
0.00264494
0.0931748
0.00135598
0.0924181
0.000211796
0.091965
-0.000792099
0.091776
-0.00166039
0.0918097
-0.00239897
0.0920262
-0.00301649
0.0923884
-0.00352322
0.0928637
-0.00392993
0.093424
-0.00424817
0.094045
-0.0044876
0.0947092
-0.00466511
0.0953942
-0.00477483
0.0961086
-0.00488522
-0.00484347
0.122584
-0.00314591
0.120758
-0.0013435
0.119755
1.31834e-05
0.11942
0.00107813
0.119624
0.00196238
0.120263
0.00275473
0.121246
0.00351521
0.122501
0.00428698
0.123963
0.00511326
0.12557
0.00603056
0.127262
0.0070663
0.12898
0.00823566
0.130662
0.00953884
0.132247
0.0109592
0.13367
0.0124623
0.134873
0.0139958
0.135798
0.0154906
0.136401
0.0168646
0.136649
0.0180305
0.136525
0.0189062
0.13603
0.0194249
0.13518
0.0195432
0.134009
0.0192455
0.132569
0.018544
0.13092
0.0174761
0.129134
0.0160995
0.127284
0.0144851
0.125441
0.0127088
0.12367
0.010846
0.122022
0.00896615
0.120535
0.0071289
0.11923
0.00538118
0.118117
0.00375714
0.117193
0.00227922
0.116444
0.000960086
0.115849
-0.000197262
0.115385
-0.00119693
0.115031
-0.00204594
0.114768
-0.00275326
0.114575
-0.00333044
0.114435
-0.00379035
0.114334
-0.00414672
0.114258
-0.00441171
0.114195
-0.00460274
0.114139
-0.00471855
0.114071
-0.00481747
-0.00476577
0.051337
-0.000603486
0.0509201
-0.000926699
0.0520692
-0.00113597
0.0542577
-0.00111052
0.0570868
-0.000866994
0.060325
-0.000483713
0.0638666
-2.65839e-05
0.0676448
0.000508483
0.0716137
0.00114401
0.0757355
0.00190835
0.0799736
0.00282781
0.0842869
0.00392203
0.0886277
0.00519767
0.0929402
0.00664636
0.0971601
0.00824208
0.101216
0.00993948
0.105037
0.011669
0.108561
0.0133405
0.111739
0.0148524
0.11454
0.0161049
0.11695
0.0170141
0.118971
0.0175224
0.120613
0.0176027
0.121899
0.0172572
0.122858
0.0165163
0.123525
0.0154323
0.123937
0.0140724
0.124135
0.01251
0.124159
0.0108205
0.124048
0.00907664
0.123833
0.00734298
0.123541
0.00567224
0.123192
0.00410483
0.122802
0.00266918
0.122378
0.00138289
0.121926
0.00025411
0.121446
-0.00071722
0.120937
-0.00153757
0.1204
-0.00221674
0.119837
-0.00276689
0.119248
-0.0032015
0.118635
-0.0035343
0.118002
-0.00377889
0.117347
-0.00394768
0.116681
-0.00405253
0.115968
-0.00410445
-0.00409746
0.0010913
-0.00970935
0.00701757
-0.00685341
0.0110934
-0.00521238
0.0144162
-0.00443402
0.0173854
-0.00383698
0.0202469
-0.00334616
0.023161
-0.00294155
0.0262146
-0.00254605
0.0294521
-0.00209424
0.0328951
-0.00153544
0.0365556
-0.000833372
0.0404532
2.38771e-05
0.0446006
0.00104986
0.0489826
0.00226399
0.0535665
0.00365794
0.0582984
0.00520731
0.0631087
0.00685853
0.0679199
0.00852903
0.0726557
0.0101165
0.0772467
0.0115138
0.0816346
0.012626
0.0857692
0.0133875
0.0896095
0.013762
0.0931254
0.0137409
0.0962955
0.0133457
0.0991058
0.0126217
0.10155
0.0116273
0.103635
0.0104254
0.10537
0.00908426
0.106773
0.00767321
0.107863
0.00625306
0.108661
0.00487352
0.109192
0.00357346
0.109479
0.00238094
0.109548
0.00131378
0.109422
0.000379805
0.109122
-0.000417768
0.108668
-0.00108362
0.108081
-0.00162995
0.107385
-0.0020701
0.1066
-0.00241735
0.10575
-0.00268405
0.104855
-0.00288383
0.103928
-0.00302053
0.102998
-0.00312288
0.10202
-0.00312654
-0.00324007
-0.00277354
-0.00693613
-0.00255588
-0.0070717
-0.00185359
-0.00591563
-0.0011798
-0.00510902
-0.000445805
-0.00457253
0.000417527
-0.00421107
0.00142775
-0.00395341
0.00260427
-0.00372403
0.00395948
-0.00345085
0.00549462
-0.00307181
0.00720767
-0.00254754
0.00909568
-0.00186495
0.011186
-0.00104116
0.0135513
-0.000101606
0.016257
0.000951781
0.0193433
0.00212089
0.0228214
0.00338024
0.026674
0.00467649
0.0308568
0.00593403
0.0353051
0.00706589
0.0399407
0.0079909
0.0446671
0.0086615
0.0493842
0.00904516
0.0539962
0.00912909
0.0584143
0.00892793
0.0625575
0.00847886
0.0663582
0.00782701
0.0697749
0.00700896
0.0727835
0.00607599
0.0753703
0.00508656
0.077536
0.00408756
0.0792936
0.00311606
0.0806656
0.00220162
0.081681
0.00136565
0.0823742
0.000620671
0.0827758
-2.16789e-05
0.0829238