/*--------------------------------*- C++ -*----------------------------------*\
| =========                 |                                                 |
| \\      /  F ield         | OpenFOAM: The Open Source CFD Toolbox           |
|  \\    /   O peration     | Version:  2406                                  |
|   \\  /    A nd           | Website:  www.openfoam.com                      |
|    \\/     M anipulation  |                                                 |
\*---------------------------------------------------------------------------*/
FoamFile
{
    version     2.0;
    format      ascii;
    arch        "LSB;label=32;scalar=64";
    class       volScalarField;
    location    "41";
    object      p;
}
// * * * * * * * * * * * * * * * * * * * * * * * * * * * * * * * * * * * * * //

dimensions      [0 2 -2 0 0 0 0];

internalField   nonuniform List<scalar> 
1964
(
0.561979
0.561932
0.561344
0.56041
0.55931
0.558104
0.556823
0.555492
0.554128
0.55274
0.551333
0.549912
0.548479
0.547036
0.545584
0.544125
0.54266
0.541187
0.539708
0.538222
0.536728
0.535225
0.533712
0.532187
0.530645
0.529082
0.527493
0.525869
0.524199
0.522468
0.520655
0.518731
0.51666
0.514386
0.511836
0.508906
0.50545
0.501258
0.496032
0.489343
0.480578
0.468874
0.453056
0.431609
0.402797
0.364933
0.317256
0.563226
0.562354
0.561391
0.560393
0.559284
0.558069
0.556785
0.55546
0.554103
0.552719
0.551313
0.549893
0.548462
0.547025
0.545577
0.544121
0.542655
0.541181
0.5397
0.538213
0.53672
0.535219
0.533708
0.532184
0.530644
0.529084
0.527495
0.525873
0.524204
0.522475
0.520665
0.518749
0.516686
0.514428
0.5119
0.509002
0.505593
0.501467
0.496328
0.489746
0.481089
0.46945
0.453552
0.43168
0.401772
0.361653
0.310407
0.564013
0.562601
0.561346
0.560326
0.559239
0.558023
0.556734
0.555414
0.55407
0.552696
0.551292
0.549868
0.548437
0.547003
0.545565
0.544116
0.542656
0.541184
0.539704
0.538217
0.536725
0.535229
0.533726
0.532214
0.53069
0.529149
0.527586
0.525995
0.524369
0.522695
0.520961
0.519144
0.517217
0.515138
0.51285
0.51027
0.507274
0.503673
0.499182
0.493355
0.485499
0.474564
0.458981
0.436541
0.404396
0.358851
0.29806
0.564534
0.562886
0.561406
0.560316
0.559216
0.557984
0.556678
0.555359
0.554031
0.552673
0.551272
0.549841
0.548403
0.546971
0.545544
0.544112
0.542666
0.541204
0.539728
0.538243
0.536756
0.535269
0.533783
0.532297
0.530809
0.529316
0.527816
0.526306
0.524785
0.523251
0.5217
0.520128
0.518526
0.516879
0.515161
0.513325
0.511289
0.508908
0.505919
0.501863
0.495947
0.48684
0.472422
0.449604
0.414226
0.360657
0.286208
0.564942
0.563189
0.56154
0.560356
0.55922
0.557959
0.556627
0.555301
0.553988
0.552648
0.551252
0.549812
0.548361
0.546927
0.545511
0.544099
0.542676
0.541233
0.539769
0.538292
0.536813
0.53534
0.533878
0.53243
0.530997
0.52958
0.528179
0.526799
0.525447
0.524135
0.522877
0.521693
0.520605
0.519638
0.518817
0.518158
0.517654
0.51724
0.516738
0.515736
0.513383
0.508044
0.496643
0.474196
0.432276
0.361965
0.257535
0.565262
0.563453
0.561686
0.56042
0.559245
0.557953
0.556592
0.555255
0.553953
0.55263
0.55124
0.549789
0.548322
0.54688
0.545473
0.544083
0.542688
0.541269
0.539824
0.538361
0.536894
0.535438
0.534006
0.532605
0.53124
0.529917
0.528642
0.527429
0.526295
0.525269
0.524388
0.523701
0.523273
0.523182
0.52352
0.524395
0.525912
0.528156
0.531123
0.534619
0.53799
0.539707
0.536121
0.52018
0.473851
0.374274
0.158745
0.565507
0.563665
0.56182
0.560497
0.559288
0.557964
0.556572
0.555219
0.553924
0.552618
0.551234
0.549774
0.548291
0.546839
0.545436
0.544065
0.542697
0.541306
0.539884
0.538438
0.536988
0.535552
0.534151
0.532799
0.531506
0.530284
0.529146
0.528113
0.527218
0.526505
0.526036
0.525895
0.526192
0.527064
0.528687
0.531276
0.535084
0.540398
0.547499
0.556593
0.56762
0.579925
0.591227
0.596254
0.576838
0.497407
0.146794
0.565685
0.563824
0.56193
0.560569
0.559333
0.557981
0.556559
0.555191
0.5539
0.552609
0.551233
0.549767
0.548271
0.546808
0.545406
0.544049
0.542704
0.541338
0.539938
0.538511
0.537078
0.535663
0.534291
0.532983
0.531757
0.530627
0.529616
0.528753
0.52808
0.52766
0.527579
0.527952
0.528931
0.530715
0.533558
0.537788
0.543814
0.552143
0.56338
0.578211
0.597335
0.62131
0.650097
0.682636
0.713295
0.732844
0.668308
0.565801
0.56393
0.562006
0.560621
0.55937
0.557997
0.556553
0.555172
0.553885
0.552604
0.551235
0.549766
0.54826
0.546788
0.545385
0.544038
0.542708
0.541361
0.539979
0.538568
0.537148
0.53575
0.534402
0.533128
0.531952
0.530894
0.52998
0.529247
0.528746
0.528554
0.528773
0.529545
0.531055
0.53355
0.53735
0.542872
0.550655
0.561392
0.575958
0.595443
0.62114
0.654488
0.696743
0.748429
0.806872
0.86449
0.88937
0.565859
0.563984
0.562044
0.560648
0.55939
0.558007
0.556551
0.555164
0.553877
0.552601
0.551236
0.549766
0.548255
0.546779
0.545375
0.544031
0.54271
0.541372
0.54
0.538598
0.537187
0.535798
0.534463
0.533209
0.53206
0.53104
0.530179
0.529516
0.529109
0.529041
0.529424
0.530413
0.532214
0.535098
0.539423
0.545655
0.554407
0.566472
0.582878
0.604926
0.634216
0.672588
0.721814
0.782857
0.8535
0.925211
0.969037
0.565859
0.563984
0.562044
0.560648
0.55939
0.558007
0.556552
0.555165
0.553877
0.5526
0.551235
0.549766
0.548256
0.54678
0.545376
0.544032
0.54271
0.541372
0.539999
0.538597
0.537186
0.535798
0.534463
0.533209
0.532061
0.531041
0.53018
0.529517
0.52911
0.529041
0.529424
0.530413
0.532214
0.535099
0.539423
0.545656
0.554407
0.566473
0.582879
0.604928
0.634217
0.67259
0.721811
0.78287
0.853499
0.925199
0.969035
0.565801
0.56393
0.562006
0.560621
0.559369
0.557997
0.556555
0.555174
0.553885
0.552601
0.551232
0.549765
0.548261
0.546792
0.545389
0.54404
0.542708
0.541359
0.539976
0.538565
0.537146
0.535749
0.534402
0.53313
0.531955
0.530897
0.529983
0.529249
0.528747
0.528554
0.528773
0.529545
0.531055
0.53355
0.537351
0.542873
0.550657
0.561394
0.57596
0.595445
0.62114
0.654488
0.696745
0.74843
0.806862
0.864506
0.889364
0.565685
0.563824
0.561931
0.560568
0.559332
0.557981
0.556562
0.555194
0.5539
0.552605
0.551229
0.549766
0.548274
0.546813
0.545411
0.544053
0.542704
0.541335
0.539934
0.538508
0.537075
0.535662
0.534292
0.532986
0.53176
0.530631
0.52962
0.528755
0.528082
0.527661
0.527579
0.527952
0.528931
0.530715
0.53356
0.53779
0.543816
0.552145
0.563383
0.578214
0.597336
0.621312
0.650098
0.682629
0.713293
0.732833
0.668307
0.565507
0.563665
0.561821
0.560497
0.559286
0.557964
0.556575
0.555222
0.553923
0.552613
0.55123
0.549773
0.548295
0.546845
0.545442
0.544068
0.542697
0.541303
0.53988
0.538435
0.536986
0.535552
0.534153
0.532802
0.53151
0.530288
0.529149
0.528116
0.52722
0.526506
0.526037
0.525896
0.526193
0.527066
0.528689
0.531278
0.535088
0.540402
0.547504
0.556596
0.567622
0.579927
0.591224
0.596258
0.57683
0.497358
0.146821
0.565262
0.563452
0.561687
0.56042
0.559243
0.557953
0.556596
0.555258
0.553952
0.552626
0.551236
0.549789
0.548327
0.546887
0.545478
0.544085
0.542687
0.541266
0.539821
0.538358
0.536893
0.53544
0.534009
0.532608
0.531244
0.52992
0.528646
0.527431
0.526297
0.52527
0.524389
0.523703
0.523275
0.523184
0.523523
0.524398
0.525916
0.52816
0.531128
0.534622
0.537993
0.539704
0.536124
0.520169
0.473851
0.374303
0.158716
0.564942
0.563189
0.561542
0.560356
0.559218
0.557959
0.556631
0.555304
0.553987
0.552645
0.55125
0.549813
0.548366
0.546932
0.545514
0.5441
0.542675
0.541231
0.539767
0.538291
0.536814
0.535342
0.533881
0.532434
0.531001
0.529583
0.528182
0.526801
0.52545
0.524137
0.52288
0.521696
0.520608
0.519641
0.518821
0.518162
0.517658
0.517245
0.516744
0.515743
0.513388
0.508052
0.496649
0.474219
0.432298
0.361966
0.257562
0.564534
0.562886
0.561407
0.560316
0.559215
0.557984
0.556681
0.555361
0.55403
0.552671
0.551271
0.549843
0.548407
0.546975
0.545546
0.544112
0.542665
0.541203
0.539727
0.538244
0.536757
0.535271
0.533785
0.5323
0.530812
0.529319
0.527818
0.526309
0.524788
0.523253
0.521703
0.520131
0.518529
0.516882
0.515164
0.513329
0.511294
0.508913
0.505925
0.501871
0.495954
0.486851
0.472438
0.449619
0.414245
0.360678
0.286165
0.564013
0.5626
0.561346
0.560327
0.559239
0.558023
0.556736
0.555415
0.55407
0.552696
0.551293
0.54987
0.54844
0.547005
0.545565
0.544116
0.542656
0.541185
0.539705
0.538218
0.536727
0.535231
0.533728
0.532216
0.530692
0.529151
0.527589
0.525998
0.524372
0.522698
0.520964
0.519147
0.51722
0.515141
0.512854
0.510274
0.507278
0.503678
0.499188
0.493361
0.485507
0.47457
0.458989
0.436549
0.404396
0.358835
0.298043
0.563226
0.562354
0.561391
0.560393
0.559284
0.558069
0.556786
0.55546
0.554103
0.552719
0.551314
0.549894
0.548464
0.547025
0.545578
0.544121
0.542655
0.541182
0.539701
0.538214
0.536721
0.53522
0.533709
0.532186
0.530646
0.529086
0.527498
0.525875
0.524207
0.522478
0.520669
0.518752
0.51669
0.514431
0.511903
0.509007
0.505598
0.501472
0.496335
0.489752
0.481096
0.469456
0.453556
0.43168
0.40177
0.361645
0.310391
0.561979
0.561932
0.561344
0.56041
0.559311
0.558105
0.556823
0.555492
0.554128
0.552741
0.551334
0.549913
0.54848
0.547037
0.545585
0.544126
0.54266
0.541188
0.539709
0.538223
0.536729
0.535227
0.533714
0.532189
0.530647
0.529085
0.527496
0.525872
0.524202
0.52247
0.520657
0.518734
0.516663
0.514389
0.51184
0.50891
0.505454
0.501263
0.496037
0.489348
0.480583
0.468879
0.453059
0.43161
0.402794
0.364929
0.317249
0.260619
0.198714
0.137882
0.0834973
0.0370902
-0.00185083
0.24889
0.182662
0.120428
0.0668055
0.0220083
-0.0144839
0.221031
0.141194
0.0758094
0.0262247
-0.013164
-0.0445548
0.17768
0.0695753
-0.000729699
-0.0431641
-0.0733964
-0.0947474
0.085064
-0.0581828
-0.122227
-0.148787
-0.162737
-0.166241
-0.186322
-0.293899
-0.284094
-0.265557
-0.246586
-0.224726
-0.565621
-0.478519
-0.355315
-0.309038
-0.276326
-0.240876
-0.565565
-0.478479
-0.355278
-0.309002
-0.2763
-0.240859
-0.186269
-0.293841
-0.284076
-0.265523
-0.246553
-0.224688
0.0850393
-0.0582275
-0.122274
-0.148839
-0.162714
-0.166207
0.177632
0.0695286
-0.00074089
-0.0431517
-0.0733875
-0.0947422
0.220994
0.141181
0.0758284
0.0262407
-0.0131985
-0.0446165
0.248874
0.182643
0.120402
0.0667579
0.0219349
-0.0145458
0.260609
0.198694
0.137853
0.0834607
0.037054
-0.00187915
-0.0335143
-0.058055
-0.0760951
-0.0885079
-0.0961208
-0.0996781
-0.0998984
-0.0974795
-0.0930663
-0.0872271
-0.0804454
-0.073117
-0.0655531
-0.0579871
-0.0505866
-0.0434675
-0.0367064
-0.030352
-0.0244337
-0.0189675
-0.0139601
-0.00941183
-0.00531778
-0.0016694
0.00154484
0.00433946
0.00673173
0.00874112
0.0103879
0.0116926
0.0126763
0.0133606
0.0137678
0.0139197
0.0138373
0.013541
0.01305
0.0123827
0.011556
0.0105857
0.00948668
0.00827226
0.00695466
0.00554526
0.00405376
0.00249185
0.000853261
-0.0430751
-0.0644301
-0.0796746
-0.0898793
-0.0958133
-0.0981191
-0.0974599
-0.0944939
-0.0898143
-0.083927
-0.0772543
-0.0701376
-0.0628431
-0.0555697
-0.048462
-0.0416218
-0.0351185
-0.0289977
-0.0232878
-0.0180054
-0.0131585
-0.00874899
-0.00477451
-0.00122859
0.00189839
0.00461897
0.0069485
0.00890546
0.010509
0.0117781
0.0127327
0.0133938
0.0137828
0.0139208
0.0138283
0.0135249
0.0130293
0.0123595
0.0115319
0.0105622
0.00946471
0.00825267
0.00693781
0.00553088
0.00404444
0.00248013
0.000827097
-0.0678523
-0.0838997
-0.0945356
-0.101046
-0.103944
-0.103641
-0.100741
-0.0959077
-0.0897206
-0.0826594
-0.0751163
-0.0673985
-0.0597319
-0.0522737
-0.0451298
-0.0383681
-0.0320281
-0.026129
-0.0206761
-0.0156665
-0.0110929
-0.00694635
-0.00321708
0.000105533
0.0030328
0.00557743
0.00775369
0.0095765
0.0110623
0.0122292
0.013096
0.0136827
0.0140101
0.0140975
0.0139637
0.0136269
0.0131047
0.012414
0.0115704
0.0105886
0.00948227
0.00826415
0.00694532
0.00553698
0.00404702
0.00249274
0.000758057
-0.107599
-0.114561
-0.118542
-0.120327
-0.119473
-0.115855
-0.109898
-0.102206
-0.0933567
-0.0838841
-0.0742566
-0.0648343
-0.0558569
-0.0474652
-0.0397302
-0.032675
-0.0262892
-0.0205396
-0.0153807
-0.0107624
-0.00663715
-0.00296296
0.000295027
0.00316504
0.00566974
0.00782828
0.00965751
0.011173
0.0123902
0.0133249
0.0139936
0.014412
0.014596
0.0145622
0.0143272
0.0139069
0.0133168
0.0125714
0.0116843
0.0106685
0.009536
0.00829856
0.00696584
0.00555166
0.00405232
0.00252985
0.000627103
-0.161467
-0.154573
-0.14974
-0.14553
-0.1398
-0.131991
-0.122372
-0.111298
-0.0991882
-0.086599
-0.0741087
-0.0621824
-0.0511247
-0.0411059
-0.0321983
-0.0244037
-0.01767
-0.0119077
-0.007006
-0.00284768
0.000679166
0.00367305
0.00621586
0.00837207
0.0101909
0.0117091
0.0129537
0.0139454
0.0147003
0.015232
0.0155531
0.0156748
0.0156083
0.0153652
0.0149568
0.0143943
0.0136883
0.0128494
0.0118876
0.0108127
0.00963412
0.00836152
0.0070027
0.00557363
0.00406032
0.0025731
0.000499234
-0.2015
-0.182845
-0.173065
-0.166054
-0.15747
-0.146774
-0.134404
-0.120562
-0.105548
-0.0899729
-0.0745585
-0.0599148
-0.0464626
-0.0344542
-0.0240097
-0.0151432
-0.00778331
-0.00179626
0.00298946
0.00676035
0.00969872
0.0119696
0.013713
0.0150416
0.0160421
0.0167782
0.0172953
0.0176247
0.0177874
0.0177979
0.017666
0.017399
0.0170028
0.0164827
0.0158435
0.0150905
0.0142286
0.0132631
0.0121993
0.0110428
0.00979938
0.00847572
0.00707701
0.00561844
0.00408399
0.00259219
0.000486681
-0.208671
-0.188394
-0.17911
-0.172866
-0.164653
-0.15383
-0.140832
-0.125876
-0.109332
-0.0919166
-0.0744798
-0.0577715
-0.0423565
-0.0286132
-0.0167525
-0.00683583
0.0011996
0.00750867
0.012304
0.0158246
0.0183104
0.0199833
0.0210358
0.021626
0.0218775
0.0218829
0.021708
0.021398
0.0209817
0.0204768
0.0198929
0.0192349
0.0185043
0.0177012
0.016825
0.0158751
0.014851
0.0137528
0.0125812
0.0113373
0.0100231
0.0086414
0.00719532
0.00569286
0.00413087
0.00256618
0.000656762
-0.194875
-0.183604
-0.177347
-0.172482
-0.165437
-0.155469
-0.142722
-0.1275
-0.110354
-0.0920908
-0.0736084
-0.0557324
-0.0391298
-0.0242809
-0.011478
-0.000832708
0.00769825
0.0142726
0.0191218
0.0225141
0.0247237
0.0260086
0.0265959
0.0266753
0.0263973
0.0258764
0.025195
0.0244101
0.0235582
0.0226611
0.0217297
0.0207681
0.0197756
0.0187491
0.0176842
0.0165763
0.0154209
0.0142143
0.0129534
0.0116361
0.0102611
0.0088278
0.00733737
0.00578727
0.00419765
0.00251019
0.000967943
-0.180152
-0.177324
-0.174567
-0.170338
-0.163587
-0.153922
-0.141358
-0.126185
-0.108977
-0.0905444
-0.0717784
-0.053531
-0.0365161
-0.0212642
-0.00810945
0.00281177
0.0115287
0.0181948
0.0230447
0.0263556
0.028414
0.0294924
0.0298327
0.0296392
0.0290754
0.0282667
0.027305
0.0262538
0.0251547
0.0240322
0.0228988
0.0217587
0.0206106
0.0194499
0.0182706
0.0170658
0.015829
0.0145542
0.0132364
0.0118714
0.0104561
0.00898724
0.00746513
0.00587744
0.00426691
0.00246103
0.00128979
-0.172062
-0.171861
-0.170657
-0.167149
-0.160876
-0.151574
-0.139261
-0.124254
-0.107176
-0.0888465
-0.0701576
-0.0519516
-0.0349186
-0.0196213
-0.00643123
0.0045103
0.0132301
0.0198791
0.0246917
0.027946
0.0299311
0.0309219
0.031164
0.0308648
0.0301915
0.0292727
0.028203
0.0270483
0.0258519
0.0246396
0.0234246
0.0222115
0.0209988
0.0197818
0.0185537
0.0173071
0.0160347
0.0147298
0.0133864
0.0119996
0.0105654
0.00907949
0.00754184
0.00593437
0.00431345
0.00243938
0.00148755
-0.172063
-0.171865
-0.170663
-0.16715
-0.160874
-0.15157
-0.139258
-0.124252
-0.107176
-0.088846
-0.0701571
-0.0519506
-0.0349172
-0.0196191
-0.00642854
0.00451339
0.0132332
0.0198817
0.0246936
0.027947
0.0299313
0.0309216
0.0311634
0.0308642
0.0301911
0.0292727
0.0282033
0.0270489
0.0258526
0.0246402
0.0234251
0.0222117
0.0209988
0.0197814
0.0185531
0.0173063
0.0160339
0.0147289
0.0133857
0.011999
0.0105649
0.00907921
0.0075416
0.00593439
0.00431348
0.00243949
0.00148718
-0.180154
-0.177328
-0.174575
-0.17035
-0.163598
-0.153929
-0.14136
-0.126185
-0.108977
-0.0905436
-0.0717774
-0.0535295
-0.0365137
-0.0212604
-0.00810373
0.00281892
0.0115364
0.0182019
0.0230502
0.0263589
0.0284153
0.029492
0.0298315
0.0296377
0.0290743
0.0282664
0.0273055
0.026255
0.0251562
0.0240337
0.0229
0.0217593
0.0206104
0.0194491
0.0182691
0.0170639
0.0158269
0.0145522
0.0132346
0.0118699
0.0104549
0.00898643
0.00746472
0.00587727
0.00426697
0.00246143
0.00128897
-0.194877
-0.183605
-0.177353
-0.172497
-0.165448
-0.155474
-0.14272
-0.127495
-0.110348
-0.0920863
-0.0736067
-0.0557332
-0.0391315
-0.024281
-0.0114751
-0.000826699
0.00770618
0.014281
0.0191291
0.0225194
0.0247267
0.0260096
0.0265955
0.0266744
0.0263966
0.0258763
0.0251957
0.0244116
0.0235601
0.022663
0.0217313
0.0207691
0.0197757
0.0187484
0.0176828
0.0165745
0.0154188
0.0142123
0.0129515
0.0116346
0.01026
0.00882715
0.00733708
0.00578733
0.00419792
0.00251058
0.000967402
-0.208671
-0.188395
-0.179115
-0.172878
-0.164667
-0.153841
-0.140835
-0.125871
-0.109323
-0.0919088
-0.0744761
-0.057772
-0.0423594
-0.0286157
-0.0167528
-0.00683315
0.00120473
0.00751532
0.0123109
0.0158309
0.0183154
0.019987
0.0210383
0.0216278
0.0218791
0.0218846
0.0217101
0.0214004
0.0209842
0.0204793
0.019895
0.0192364
0.0185051
0.0177013
0.0168245
0.0158742
0.0148498
0.0137516
0.0125801
0.0113365
0.0100226
0.00864128
0.00719542
0.00569326
0.00413134
0.00256646
0.000656744
-0.201488
-0.182846
-0.173063
-0.16606
-0.15749
-0.146798
-0.134417
-0.120561
-0.105537
-0.0899598
-0.0745477
-0.059908
-0.0464584
-0.0344514
-0.0240065
-0.0151393
-0.00777784
-0.00178981
0.00299705
0.00676817
0.00970677
0.0119771
0.0137201
0.0150479
0.0160479
0.0167834
0.0173003
0.0176291
0.0177917
0.0178015
0.0176692
0.0174015
0.0170048
0.0164839
0.0158444
0.0150908
0.0142288
0.013263
0.0121993
0.0110429
0.00979972
0.00847608
0.00707769
0.00561895
0.00408455
0.00259263
0.000486739
-0.161425
-0.154545
-0.14972
-0.145522
-0.139809
-0.132009
-0.122386
-0.111302
-0.0991852
-0.0865916
-0.0740994
-0.0621719
-0.0511142
-0.0410958
-0.0321892
-0.0243952
-0.0176617
-0.011899
-0.00699659
-0.00283732
0.000690166
0.00368438
0.00622698
0.00838267
0.0102007
0.0117179
0.0129615
0.0139522
0.0147062
0.0152371
0.0155574
0.0156784
0.0156112
0.0153675
0.0149587
0.0143957
0.0136894
0.0128503
0.0118884
0.0108135
0.00963492
0.00836239
0.00700347
0.00557442
0.00406099
0.00257364
0.000498906
-0.107599
-0.114548
-0.118512
-0.120298
-0.119461
-0.115859
-0.10991
-0.102216
-0.0933617
-0.0838813
-0.0742473
-0.0648202
-0.0558416
-0.0474502
-0.0397173
-0.0326634
-0.0262789
-0.0205288
-0.0153695
-0.0107498
-0.00662409
-0.00294917
0.000308279
0.00317795
0.00568129
0.00783894
0.0096666
0.0111812
0.012397
0.013331
0.0139985
0.0144165
0.0145996
0.0145654
0.0143296
0.0139091
0.0133184
0.0125729
0.0116854
0.0106696
0.00953689
0.00829953
0.00696659
0.00555238
0.0040529
0.00253062
0.000626343
-0.0678876
-0.0838868
-0.0944943
-0.101009
-0.103929
-0.103646
-0.100756
-0.0959216
-0.089726
-0.0826554
-0.0751046
-0.0673835
-0.0597161
-0.0522597
-0.0451172
-0.0383569
-0.0320167
-0.0261172
-0.0206629
-0.0156525
-0.011078
-0.00693164
-0.00320253
0.000118944
0.00304533
0.00558846
0.00776366
0.00958501
0.0110699
0.0122356
0.0131017
0.0136875
0.0140143
0.0141009
0.0139666
0.0136292
0.0131068
0.0124155
0.0115718
0.0105897
0.00948334
0.00826499
0.0069461
0.00553761
0.00404752
0.00249346
0.000757254
-0.0430919
-0.0644054
-0.0796372
-0.0898547
-0.0958088
-0.0981286
-0.0974724
-0.0945016
-0.0898138
-0.0839196
-0.0772426
-0.0701247
-0.0628305
-0.0555581
-0.0484511
-0.0416109
-0.0351071
-0.0289854
-0.0232746
-0.0179915
-0.0131442
-0.00873492
-0.00476092
-0.00121585
0.00191017
0.00462964
0.00695812
0.00891399
0.0105165
0.0117847
0.0127384
0.0133987
0.013787
0.0139243
0.0138311
0.0135272
0.0130312
0.012361
0.0115332
0.0105632
0.00946557
0.00825336
0.00693832
0.00553127
0.00404478
0.00248048
0.000826528
-0.0335302
-0.0580604
-0.0760948
-0.0885057
-0.0961185
-0.0996761
-0.0998966
-0.0974771
-0.0930625
-0.0872215
-0.0804378
-0.0731078
-0.0655426
-0.0579757
-0.0505746
-0.043455
-0.0366933
-0.0303385
-0.0244199
-0.0189534
-0.0139461
-0.00939795
-0.00530435
-0.00165662
0.00155679
0.00435046
0.00674169
0.00875001
0.0103957
0.0116994
0.0126821
0.0133656
0.013772
0.0139231
0.0138401
0.0135432
0.0130519
0.0123842
0.0115571
0.0105867
0.00948743
0.00827284
0.00695507
0.00554553
0.0040538
0.00249186
0.000853007
)
;

boundaryField
{
    inlet
    {
        type            zeroGradient;
    }
    outlet
    {
        type            fixedValue;
        value           uniform 0;
    }
    upperWall
    {
        type            zeroGradient;
    }
    lowerWall
    {
        type            zeroGradient;
    }
    frontAndBack
    {
        type            empty;
    }
}


// ************************************************************************* //
