/*--------------------------------*- C++ -*----------------------------------*\
| =========                 |                                                 |
| \\      /  F ield         | OpenFOAM: The Open Source CFD Toolbox           |
|  \\    /   O peration     | Version:  2406                                  |
|   \\  /    A nd           | Website:  www.openfoam.com                      |
|    \\/     M anipulation  |                                                 |
\*---------------------------------------------------------------------------*/
FoamFile
{
    version     2.0;
    format      ascii;
    arch        "LSB;label=32;scalar=64";
    class       volScalarField;
    location    "206";
    object      p;
}
// * * * * * * * * * * * * * * * * * * * * * * * * * * * * * * * * * * * * * //

dimensions      [0 2 -2 0 0 0 0];

internalField   nonuniform List<scalar> 
1916
(
376.776
376.775
376.771
376.764
376.756
376.747
376.736
376.723
376.71
376.696
376.681
376.666
376.65
376.634
376.618
376.601
376.584
376.567
376.55
376.533
376.516
376.499
376.482
376.466
376.45
376.435
376.42
376.407
376.395
376.385
376.378
376.373
376.373
376.376
376.386
376.401
376.425
376.456
376.496
376.544
376.601
376.666
376.736
376.807
376.875
376.935
376.971
376.789
376.781
376.772
376.765
376.757
376.747
376.736
376.723
376.71
376.696
376.681
376.666
376.65
376.634
376.617
376.6
376.584
376.566
376.549
376.532
376.515
376.498
376.481
376.464
376.448
376.433
376.418
376.404
376.391
376.38
376.371
376.365
376.363
376.365
376.372
376.386
376.408
376.44
376.482
376.536
376.601
376.676
376.757
376.836
376.905
376.973
377.026
376.803
376.787
376.773
376.764
376.756
376.745
376.734
376.721
376.708
376.694
376.679
376.664
376.648
376.632
376.616
376.599
376.582
376.565
376.547
376.53
376.512
376.494
376.476
376.459
376.441
376.423
376.405
376.388
376.371
376.354
376.337
376.322
376.308
376.295
376.286
376.28
376.281
376.29
376.311
376.35
376.41
376.496
376.607
376.737
376.871
377.017
377.136
376.814
376.794
376.776
376.765
376.756
376.745
376.733
376.72
376.707
376.693
376.678
376.662
376.647
376.63
376.614
376.597
376.579
376.561
376.543
376.525
376.506
376.487
376.467
376.446
376.425
376.402
376.379
376.353
376.326
376.296
376.263
376.226
376.185
376.138
376.085
376.026
375.961
375.894
375.827
375.77
375.736
375.745
375.819
375.986
376.251
376.615
376.894
376.823
376.801
376.78
376.767
376.757
376.745
376.732
376.718
376.705
376.69
376.675
376.66
376.644
376.627
376.61
376.593
376.575
376.556
376.537
376.517
376.497
376.475
376.452
376.427
376.401
376.371
376.338
376.301
376.258
376.208
376.148
376.077
375.991
375.887
375.76
375.607
375.422
375.202
374.945
374.656
374.346
374.044
373.791
373.674
373.739
374.088
374.18
376.831
376.807
376.784
376.769
376.758
376.745
376.731
376.717
376.703
376.688
376.673
376.657
376.641
376.624
376.607
376.589
376.57
376.55
376.53
376.508
376.485
376.461
376.434
376.404
376.37
376.332
376.287
376.235
376.172
376.096
376.002
375.886
375.742
375.56
375.332
375.044
374.682
374.228
373.661
372.961
372.108
371.094
369.905
368.595
367.03
365.243
361.216
376.836
376.812
376.788
376.771
376.759
376.745
376.731
376.716
376.701
376.686
376.671
376.655
376.638
376.621
376.603
376.584
376.565
376.544
376.522
376.499
376.473
376.445
376.414
376.378
376.337
376.29
376.233
376.164
376.079
375.974
375.843
375.677
375.467
375.197
374.85
374.402
373.822
373.069
372.086
370.803
369.112
366.885
363.851
359.854
353.539
346.415
318.519
376.84
376.816
376.79
376.773
376.759
376.745
376.73
376.715
376.699
376.684
376.668
376.652
376.635
376.617
376.599
376.58
376.559
376.538
376.515
376.489
376.461
376.43
376.395
376.355
376.307
376.25
376.181
376.097
375.992
375.86
375.694
375.48
375.205
374.849
374.385
373.776
372.97
371.899
370.459
368.504
365.795
361.989
356.29
347.684
330.776
299.421
188.823
376.842
376.818
376.792
376.774
376.759
376.745
376.729
376.713
376.698
376.682
376.666
376.65
376.632
376.615
376.596
376.576
376.555
376.533
376.508
376.482
376.452
376.419
376.38
376.336
376.283
376.219
376.141
376.045
375.924
375.771
375.576
375.326
375
374.575
374.015
373.273
372.28
370.938
369.1
366.545
362.908
357.608
349.476
336.582
313.83
274.248
204.78
376.843
376.818
376.792
376.774
376.759
376.744
376.728
376.712
376.697
376.681
376.665
376.648
376.631
376.612
376.593
376.573
376.552
376.529
376.504
376.477
376.446
376.411
376.371
376.324
376.269
376.201
376.118
376.015
375.886
375.721
375.511
375.239
374.885
374.421
373.808
372.991
371.89
370.392
368.321
365.412
361.235
355.094
345.817
331.478
309.172
274.192
225.408
376.842
376.817
376.791
376.773
376.758
376.743
376.727
376.711
376.696
376.68
376.663
376.647
376.629
376.611
376.592
376.572
376.551
376.528
376.503
376.475
376.444
376.41
376.369
376.322
376.266
376.199
376.115
376.012
375.883
375.718
375.507
375.235
374.881
374.416
373.802
372.983
371.881
370.379
368.304
365.388
361.199
355.036
345.72
331.305
308.873
273.655
224.602
376.839
376.815
376.789
376.771
376.756
376.741
376.726
376.71
376.695
376.679
376.663
376.646
376.629
376.611
376.592
376.572
376.551
376.528
376.504
376.477
376.447
376.413
376.374
376.329
376.276
376.212
376.133
376.036
375.915
375.762
375.566
375.313
374.986
374.559
373.997
373.251
372.253
370.903
369.053
366.479
362.81
357.455
349.221
336.124
312.944
272.408
201.217
376.835
376.811
376.785
376.768
376.754
376.74
376.725
376.709
376.694
376.679
376.663
376.646
376.629
376.611
376.593
376.573
376.552
376.53
376.507
376.481
376.453
376.421
376.386
376.344
376.296
376.239
376.169
376.084
375.978
375.845
375.676
375.461
375.184
374.825
374.357
373.742
372.929
371.847
370.391
368.412
365.664
361.795
355.982
347.174
329.756
297.264
181.811
376.83
376.806
376.781
376.765
376.752
376.738
376.724
376.709
376.694
376.679
376.663
376.647
376.63
376.612
376.594
376.575
376.555
376.534
376.512
376.488
376.462
376.433
376.401
376.365
376.323
376.274
376.216
376.146
376.06
375.954
375.821
375.653
375.439
375.166
374.814
374.361
373.773
373.008
372.01
370.704
368.98
366.702
363.586
359.467
352.92
345.526
316.441
376.823
376.799
376.776
376.761
376.75
376.737
376.723
376.709
376.694
376.679
376.664
376.648
376.631
376.614
376.596
376.578
376.559
376.539
376.518
376.495
376.472
376.446
376.418
376.387
376.353
376.313
376.268
376.214
376.149
376.071
375.976
375.857
375.71
375.525
375.292
374.999
374.629
374.166
373.586
372.87
371.993
370.947
369.716
368.349
366.702
364.808
360.557
376.814
376.792
376.771
376.758
376.747
376.736
376.722
376.709
376.695
376.68
376.665
376.649
376.633
376.616
376.599
376.581
376.562
376.543
376.523
376.503
376.481
376.459
376.435
376.409
376.381
376.35
376.316
376.277
376.232
376.18
376.119
376.045
375.957
375.849
375.719
375.56
375.37
375.142
374.877
374.578
374.255
373.937
373.667
373.532
373.582
373.924
374.002
376.804
376.784
376.766
376.755
376.746
376.735
376.723
376.71
376.696
376.682
376.667
376.651
376.635
376.618
376.601
376.583
376.565
376.547
376.528
376.509
376.489
376.469
376.448
376.426
376.404
376.38
376.355
376.328
376.299
376.267
376.232
376.193
376.149
376.099
376.043
375.981
375.912
375.84
375.768
375.706
375.666
375.67
375.74
375.906
376.175
376.546
376.833
376.792
376.776
376.762
376.753
376.745
376.735
376.723
376.71
376.697
376.683
376.668
376.652
376.636
376.62
376.603
376.585
376.568
376.55
376.531
376.513
376.494
376.476
376.457
376.438
376.419
376.4
376.381
376.361
376.343
376.324
376.306
376.288
376.272
376.257
376.245
376.237
376.235
376.241
376.26
376.296
376.355
376.44
376.552
376.684
376.822
376.973
377.095
376.778
376.77
376.762
376.754
376.746
376.736
376.725
376.712
376.698
376.684
376.669
376.653
376.637
376.621
376.604
376.586
376.569
376.551
376.533
376.515
376.497
376.479
376.461
376.443
376.426
376.409
376.393
376.377
376.363
376.35
376.339
376.332
376.327
376.327
376.332
376.344
376.365
376.395
376.436
376.488
376.553
376.628
376.709
376.79
376.861
376.93
376.983
376.765
376.764
376.76
376.754
376.745
376.736
376.724
376.712
376.699
376.684
376.669
376.654
376.638
376.621
376.604
376.587
376.569
376.552
376.534
376.516
376.498
376.48
376.462
376.445
376.428
376.411
376.395
376.381
376.367
376.356
376.346
376.34
376.337
376.339
376.347
376.361
376.382
376.412
376.451
376.498
376.555
376.619
376.689
376.761
376.83
376.891
376.927
-65.9567
-57.3717
-1.59613
12.862
5.08565
-0.48395
88.2136
41.0926
38.4361
30.8224
15.235
4.49379
148.052
74.3998
39.1627
25.8558
14.4775
4.28239
146.468
71.9066
36.1869
22.5028
10.3281
-0.923365
80.977
32.0969
29.9031
22.6548
5.7162
-7.50346
-86.9338
-80.6467
-20.1473
-3.22995
-13.095
-21.5691
0.0188442
0.0149192
0.00993846
0.00717921
0.0118552
0.0296353
0.0580912
0.0821741
0.0843566
0.0659243
0.0439411
0.0297238
0.0219125
0.016323
0.0114365
0.00706898
0.00359323
0.00131443
1.14963e-05
-0.000886622
-0.0017811
-0.00268335
-0.00332925
-0.00340442
-0.0027816
-0.00159985
-0.000104367
0.00153096
0.00322123
0.00489078
0.00643455
0.00775005
0.00877623
0.00948551
0.00986021
0.00989136
0.00959104
0.00899498
0.00815127
0.00710606
0.00589862
0.00456255
0.0031355
0.00165093
0.000156498
-0.00108794
-0.000952435
0.0247226
0.0208154
0.0145225
0.00686257
0.00320018
0.0139717
0.0414915
0.070484
0.0768255
0.0582013
0.0366475
0.0260114
0.0217795
0.0178761
0.0134265
0.00876517
0.00462753
0.00173854
0.000148763
-0.000737136
-0.00149135
-0.00231071
-0.0030488
-0.00334156
-0.0029182
-0.00185037
-0.000420361
0.00115018
0.00277656
0.00440945
0.00595006
0.00728005
0.00832908
0.00907314
0.00949728
0.00958709
0.00934624
0.00880489
0.00800925
0.00700601
0.00583329
0.00452968
0.00314263
0.00169777
0.000128744
-0.00147956
-0.00170934
0.0223953
0.0172817
0.00520646
-0.015422
-0.0381807
-0.0441649
-0.0194553
0.0261268
0.0558023
0.0479983
0.0279651
0.0198792
0.0191702
0.0171123
0.0128804
0.00720386
0.00165933
-0.0017978
-0.0025455
-0.00184666
-0.00127256
-0.00163974
-0.00289113
-0.00410849
-0.00426139
-0.0031962
-0.00152557
0.000195981
0.00185665
0.00355041
0.00524033
0.00673752
0.00791603
0.00877559
0.00932972
0.00954989
0.00940691
0.00891644
0.00813429
0.00712729
0.00594925
0.004639
0.0032539
0.00183507
0.0001911
-0.00177686
-0.00227853
-0.00169394
-0.00850589
-0.0296963
-0.0702881
-0.123547
-0.160685
-0.150889
-0.0863477
-0.00457274
0.0305472
0.0236885
0.0162268
0.0159355
0.0130398
0.00676077
-0.00251821
-0.0118883
-0.0160186
-0.0125408
-0.00550635
-0.000271625
0.000690982
-0.00229627
-0.00651079
-0.00844013
-0.00712253
-0.00430676
-0.00180818
5.68767e-05
0.00191594
0.00404874
0.00606373
0.00761306
0.00875867
0.00962882
0.0101742
0.0102533
0.00982607
0.00898135
0.00787068
0.0066081
0.0052179
0.00374066
0.0023052
0.000686233
-0.00165072
-0.00291337
-0.0522665
-0.0530263
-0.07526
-0.131457
-0.215093
-0.288842
-0.302948
-0.231507
-0.0786495
0.030936
0.037833
0.0203001
0.0151818
0.00595983
-0.00835838
-0.028253
-0.0474471
-0.0517672
-0.0351213
-0.010503
0.00562183
0.00869733
0.000825999
-0.0117847
-0.0187729
-0.0163596
-0.00965021
-0.00474673
-0.00272531
-0.00109409
0.00179582
0.00506204
0.00748526
0.00915085
0.0106008
0.0118394
0.0124248
0.0121051
0.0110344
0.00958639
0.00804443
0.00642805
0.00475447
0.00331923
0.00184423
-0.00104242
-0.00369007
-0.13709
-0.100214
-0.0993399
-0.155464
-0.254307
-0.346105
-0.347234
-0.225031
0.0245616
0.190312
0.117044
0.032706
0.00465803
-0.0176491
-0.0450802
-0.0809933
-0.117334
-0.126439
-0.0876738
-0.0236711
0.0203486
0.0296685
0.010527
-0.023328
-0.0425174
-0.0353826
-0.017132
-0.00675235
-0.00615255
-0.00683699
-0.00270288
0.00392807
0.00828207
0.0103741
0.0124637
0.0150652
0.0168222
0.0167253
0.0150378
0.0127081
0.0104619
0.00838963
0.00648089
0.00509742
0.00362555
-0.000267237
-0.00467499
-0.305845
-0.0949908
-0.0366946
-0.0918405
-0.192045
-0.281541
-0.26167
-0.0464921
0.293622
0.451606
0.278195
0.0820012
-0.00148793
-0.0343913
-0.0854286
-0.169389
-0.280956
-0.346579
-0.271009
-0.0927691
0.0455645
0.0838876
0.0357581
-0.0457742
-0.0918237
-0.0744071
-0.0289116
-0.00540914
-0.00875454
-0.0165832
-0.010145
0.0044063
0.0116009
0.0124858
0.0146522
0.0201386
0.0247393
0.0250506
0.0217387
0.017295
0.01359
0.0108673
0.00885908
0.00759356
0.00570819
0.000116386
-0.00595168
-0.398748
-0.0467197
-0.0928055
-0.203148
-0.272889
-0.30039
-0.238152
-0.0614633
0.177712
0.341853
0.325487
0.102626
-0.157191
-0.252731
-0.301335
-0.397204
-0.542419
-0.606955
-0.439079
-0.101487
0.186787
0.238405
0.100538
-0.0988333
-0.226222
-0.193537
-0.0704254
0.0132423
0.00782308
-0.0260407
-0.0239091
0.00448429
0.0177088
0.0153212
0.0162061
0.0273759
0.0379957
0.0388009
0.0316395
0.0226476
0.016394
0.013195
0.011679
0.0107252
0.00795519
0.000170062
-0.00737426
1.14105
0.369135
-0.128186
-0.44871
-0.531284
-0.487555
-0.379673
-0.198262
0.0533077
0.266577
0.32255
0.355118
0.549104
0.585213
0.465855
0.213231
-0.128305
-0.371428
-0.30013
0.0642014
0.427972
0.376641
0.0203338
-0.372228
-0.520079
-0.373857
-0.0748369
0.126467
0.0824706
-0.0635271
-0.0962496
-0.0203164
0.0388565
0.0307182
0.0169602
0.0337576
0.0571771
0.0605329
0.045609
0.0270797
0.0164733
0.0137839
0.0143537
0.014339
0.0105333
0.000193776
-0.00910516
-1.15172
-3.07369
-3.94984
-4.55686
-4.79952
-4.68793
-4.35969
-3.89917
-3.35034
-2.78836
-2.28057
-1.73604
-1.152
-0.782002
-0.629454
-0.610893
-0.649321
-0.62065
-0.413572
-0.0616545
0.245164
0.311062
0.287095
0.0531655
-0.223827
-0.163005
0.175979
0.298709
0.0055927
-0.29747
-0.272012
-0.0219286
0.135042
0.0723334
-0.016167
0.0113795
0.0816469
0.100205
0.0665518
0.0256063
0.00761811
0.00948798
0.0170588
0.0198947
0.0147428
0.00172945
-0.00996963
-7.1566
-9.41517
-10.4463
-11.1962
-11.5366
-11.4612
-11.1444
-10.6951
-10.1414
-9.50734
-8.82441
-8.10307
-7.37686
-6.70276
-6.07831
-5.46368
-4.82437
-4.12394
-3.34333
-2.53103
-1.80754
-1.23214
-0.733255
-0.488392
-0.434666
-0.263869
0.0177523
0.149883
0.0503324
-0.0756701
-0.013657
0.255856
0.229409
-0.0565729
-0.187298
-0.0404038
0.140023
0.17397
0.0841571
-0.00323829
-0.0233035
-0.00126616
0.0237653
0.0307746
0.0203582
0.00311077
-0.0126663
-12.9117
-14.5869
-15.6606
-16.4661
-16.7679
-16.688
-16.4385
-16.1034
-15.6877
-15.1962
-14.6475
-14.0614
-13.4514
-12.8246
-12.1739
-11.47
-10.6845
-9.80011
-8.81409
-7.75338
-6.67896
-5.65519
-4.73686
-3.97388
-3.32126
-2.67532
-2.04405
-1.4976
-0.99285
-0.525136
-0.157873
0.112137
0.147973
0.0610169
0.0475256
0.181427
0.261836
0.133585
-0.0251668
-0.0837981
-0.0569273
-0.000964887
0.040921
0.0492004
0.025781
0.00726377
-0.00582497
-22.7034
-22.2926
-22.5113
-22.8227
-22.8695
-22.7432
-22.5531
-22.313
-22.013
-21.6469
-21.2085
-20.7158
-20.2013
-19.6794
-19.1266
-18.493
-17.7416
-16.8621
-15.8653
-14.7782
-13.6285
-12.4351
-11.2349
-10.0901
-9.06713
-8.18764
-7.39515
-6.56021
-5.52665
-4.23746
-2.80518
-1.48304
-0.498802
0.120516
0.373011
0.376329
0.294255
0.206193
0.147257
0.0619086
0.0145989
0.0147627
0.018227
0.00876428
-0.0333787
-0.0177602
-0.0316249
-22.8689
-22.5884
-22.5348
-22.5798
-22.6043
-22.621
-22.6419
-22.652
-22.6493
-22.6399
-22.5914
-22.5127
-22.4549
-22.4452
-22.4385
-22.341
-22.0942
-21.6806
-21.1276
-20.4842
-19.7438
-18.8478
-17.8036
-16.7494
-15.9178
-15.499
-15.4126
-15.2173
-14.3
-12.2212
-9.05112
-5.41777
-2.11859
0.30425
1.6805
2.15745
2.05233
1.68399
1.22764
0.745016
0.372826
0.176464
0.0900725
0.0777603
0.0150976
0.160761
-0.147175
-22.2153
-22.3039
-22.3707
-22.4142
-22.4545
-22.493
-22.5252
-22.5469
-22.5638
-22.5727
-22.5669
-22.5719
-22.6488
-22.8367
-23.0834
-23.2832
-23.3761
-23.3341
-23.1995
-23.0659
-22.897
-22.5079
-21.8441
-21.1191
-20.8209
-21.4831
-23.0916
-24.7893
-25.1723
-22.9575
-17.9235
-11.1411
-4.17135
1.76083
5.99648
8.37002
9.09324
8.59918
7.36919
5.84038
4.35598
3.11232
2.12692
1.43627
0.825438
0.917502
-0.564299
-22.2062
-22.2621
-22.3245
-22.3688
-22.4029
-22.4354
-22.4691
-22.5014
-22.5298
-22.5453
-22.5395
-22.5376
-22.603
-22.7801
-23.0177
-23.2174
-23.3303
-23.3383
-23.3229
-23.4216
-23.5933
-23.5538
-23.1116
-22.4524
-22.4136
-24.1799
-28.0143
-32.6747
-35.6717
-34.242
-27.6077
-17.3676
-5.88259
4.90832
13.6249
19.4916
22.4054
22.7958
21.3463
18.7679
15.6721
12.5153
9.54508
6.96087
4.60859
3.23804
-0.16226
-22.272
-22.3049
-22.3465
-22.3766
-22.3987
-22.4199
-22.445
-22.476
-22.5131
-22.5504
-22.5789
-22.6017
-22.649
-22.7638
-22.9524
-23.1527
-23.2732
-23.2673
-23.2278
-23.3158
-23.4902
-23.4791
-23.0409
-22.1459
-21.8135
-23.9171
-29.2391
-36.6961
-42.7436
-42.4777
-34.5326
-21.319
-5.77753
9.75313
23.2364
33.2258
39.1949
41.4162
40.5516
37.4009
32.8067
27.5052
22.0045
16.6413
11.5004
6.89533
1.78319
-22.3176
-22.3369
-22.3642
-22.3879
-22.408
-22.4289
-22.4536
-22.4832
-22.5183
-22.5586
-22.602
-22.6462
-22.6924
-22.7532
-22.8499
-22.9882
-23.1335
-23.2292
-23.2689
-23.3182
-23.4143
-23.4496
-23.1851
-22.5306
-22.4251
-24.9352
-30.9879
-40.3421
-48.5549
-48.8886
-39.3792
-23.4367
-4.33476
15.2134
32.6322
46.0689
54.7171
58.7902
58.8696
55.66
50.1005
43.098
35.3461
27.2517
19.2122
10.7884
4.40523
-22.3338
-22.3444
-22.3658
-22.3889
-22.4107
-22.4338
-22.4607
-22.4925
-22.5297
-22.5729
-22.6218
-22.6753
-22.7319
-22.7933
-22.8676
-22.9654
-23.0894
-23.2293
-23.3672
-23.4843
-23.5722
-23.6341
-23.6255
-23.4879
-23.6511
-25.6417
-31.3481
-40.8949
-49.1615
-48.8998
-38.7281
-22.1429
-1.4294
20.3092
39.881
55.356
65.7463
70.9803
71.5835
68.3536
62.318
54.3777
45.2629
35.4023
25.4013
14.2661
6.51276
-22.3353
-22.3417
-22.3609
-22.3858
-22.4107
-22.4361
-22.4644
-22.497
-22.5347
-22.5777
-22.6261
-22.6804
-22.7423
-22.8147
-22.9016
-23.007
-23.1314
-23.2689
-23.4074
-23.5344
-23.6385
-23.7046
-23.7169
-23.7247
-23.9839
-25.0976
-28.0256
-33.5232
-40.0877
-42.3004
-35.0749
-18.8165
2.47708
24.6042
44.1234
59.1042
69.983
76.1391
76.8751
73.423
67.0911
58.749
49.0874
38.5665
27.8126
15.974
6.99737
)
;

boundaryField
{
    inlet
    {
        type            zeroGradient;
    }
    outlet
    {
        type            fixedValue;
        value           uniform 0;
    }
    upperWall
    {
        type            zeroGradient;
    }
    lowerWall
    {
        type            zeroGradient;
    }
    frontAndBack
    {
        type            empty;
    }
}


// ************************************************************************* //
