/*--------------------------------*- C++ -*----------------------------------*\
| =========                 |                                                 |
| \\      /  F ield         | OpenFOAM: The Open Source CFD Toolbox           |
|  \\    /   O peration     | Version:  2406                                  |
|   \\  /    A nd           | Website:  www.openfoam.com                      |
|    \\/     M anipulation  |                                                 |
\*---------------------------------------------------------------------------*/
FoamFile
{
    version     2.0;
    format      ascii;
    arch        "LSB;label=32;scalar=64";
    class       surfaceScalarField;
    location    "206";
    object      phi;
}
// * * * * * * * * * * * * * * * * * * * * * * * * * * * * * * * * * * * * * //

dimensions      [0 3 -1 0 0 0 0];

oriented        oriented;

internalField   nonuniform List<scalar> 
3698
(
0.0979734
-0.000473179
0.0986201
-0.00064609
0.0992496
-0.000628913
0.0998307
-0.000580523
0.100361
-0.000530005
0.100837
-0.000475067
0.101255
-0.000417771
0.101619
-0.000363183
0.101934
-0.000314008
0.102204
-0.000270388
0.102437
-0.000231589
0.102634
-0.000196891
0.1028
-0.000165624
0.102938
-0.000137049
0.103049
-0.000110332
0.103134
-8.45741e-05
0.103194
-5.87875e-05
0.103226
-3.18541e-05
0.103229
-2.36078e-06
0.103199
3.12368e-05
0.103129
7.0628e-05
0.103012
0.000118006
0.102836
0.000176222
0.102588
0.000248893
0.102248
0.000340608
0.101792
0.000457166
0.101187
0.000605893
0.100392
0.000795946
0.0993539
0.00103868
0.0980069
0.00134793
0.0962675
0.00174019
0.094034
0.00223442
0.0911834
0.00285141
0.0875723
0.00361192
0.0830398
0.0045333
0.0774171
0.00562342
0.0705468
0.00687101
0.0623165
0.00823097
0.052712
0.00960515
0.0418927
0.0108199
0.0302776
0.0116157
0.0186089
0.0116693
0.00790517
0.0107042
-0.000686026
0.00859166
-0.00600403
0.00531828
-0.00526578
-0.0007372
-0.00526572
0.277249
-0.000222362
0.277062
-0.000458227
0.276965
-0.000531164
0.276928
-0.000543417
0.276937
-0.000537743
0.27698
-0.000517597
0.277047
-0.000484779
0.27713
-0.000445477
0.277221
-0.000404681
0.277316
-0.000364358
0.27741
-0.000324899
0.2775
-0.000286305
0.277583
-0.000248393
0.277657
-0.000210676
0.27772
-0.000172343
0.277768
-0.000132282
0.277799
-8.90813e-05
0.277809
-4.09564e-05
0.277793
1.43112e-05
0.277745
7.95626e-05
0.277658
0.000158431
0.277521
0.000255544
0.277322
0.000376844
0.277041
0.000530004
0.276658
0.000724892
0.276142
0.000974213
0.275454
0.00129426
0.274545
0.00170587
0.273349
0.00223552
0.271781
0.00291665
0.269731
0.00379098
0.267056
0.00490987
0.263573
0.00633523
0.259047
0.00813949
0.253177
0.0104036
0.24559
0.0132112
0.235825
0.0166369
0.223332
0.0207241
0.20749
0.025448
0.187652
0.0306583
0.163268
0.0360007
0.13413
0.0408078
0.100829
0.0440053
0.0655114
0.0439097
0.0325925
0.0382381
0.00860588
0.0232495
0.00334094
0.437399
-0.00012099
0.43725
-0.000309077
0.43712
-0.000400707
0.437012
-0.00043476
0.43692
-0.000445421
0.436844
-0.00044119
0.436783
-0.000423476
0.436734
-0.000396335
0.436694
-0.000364318
0.43666
-0.00032997
0.43663
-0.000294168
0.436601
-0.000257129
0.436572
-0.000218755
0.43654
-0.000178578
0.436504
-0.00013569
0.436461
-8.87459e-05
0.436408
-3.5942e-05
0.436342
2.50752e-05
0.43626
9.73597e-05
0.436155
0.000184851
0.436021
0.000292629
0.43585
0.000427257
0.43563
0.000597242
0.435347
0.000813606
0.434982
0.00109063
0.43451
0.00144682
0.433899
0.0019061
0.433106
0.00249934
0.432076
0.00326634
0.430735
0.00425811
0.428986
0.00553978
0.426703
0.00719387
0.423715
0.00932405
0.419796
0.0120588
0.414646
0.0155545
0.407861
0.0199963
0.398904
0.0255945
0.387057
0.0325714
0.371375
0.0411308
0.350639
0.051394
0.323351
0.0632888
0.287837
0.0763228
0.242571
0.0892713
0.186981
0.0995
0.122709
0.10251
0.0552073
0.0907527
0.0585478
0.577455
-7.61798e-05
0.577357
-0.000210218
0.577251
-0.000294335
0.577152
-0.000335861
0.577061
-0.000353748
0.576977
-0.000356933
0.576901
-0.00034757
0.576833
-0.000328174
0.576771
-0.000302176
0.576714
-0.000272075
0.576659
-0.000239004
0.576606
-0.000203301
0.576552
-0.000164891
0.576497
-0.000123296
0.576439
-7.75569e-05
0.576377
-2.61932e-05
0.576309
3.28413e-05
0.576232
0.000102269
0.576144
0.000185653
0.576041
0.000287632
0.57592
0.000414232
0.575775
0.000573288
0.575597
0.000774979
0.575379
0.00103255
0.575107
0.00136323
0.574764
0.00178944
0.574331
0.00234036
0.573776
0.0030539
0.573064
0.00397938
0.572142
0.00518079
0.570941
0.00674107
0.569368
0.00876747
0.567294
0.0113983
0.564542
0.0148109
0.560865
0.0192319
0.555915
0.0249473
0.549195
0.0323141
0.539999
0.0417677
0.527308
0.0538219
0.509664
0.0690391
0.484984
0.0879686
0.450391
0.110916
0.40201
0.137652
0.335235
0.166275
0.245436
0.192309
0.13124
0.204949
0.189789
0.697475
-5.07423e-05
0.697409
-0.000144424
0.697327
-0.00021235
0.697244
-0.000251846
0.697161
-0.000271002
0.697081
-0.000276524
0.697005
-0.000271033
0.696933
-0.000256321
0.696866
-0.000234721
0.696802
-0.000208268
0.696742
-0.000178076
0.696683
-0.000144508
0.696626
-0.000107474
0.69657
-6.64739e-05
0.696513
-2.05417e-05
0.696455
3.18269e-05
0.696395
9.27405e-05
0.696333
0.000165028
0.696267
0.000252416
0.696195
0.000359783
0.696116
0.000493492
0.696028
0.000661836
0.695927
0.000875626
0.695811
0.00114896
0.695675
0.00150026
0.695511
0.00195357
0.695311
0.00254033
0.695064
0.00330169
0.694752
0.00429154
0.694353
0.00558054
0.693833
0.00726142
0.693145
0.00945605
0.692218
0.0123248
0.690951
0.016079
0.689186
0.0209974
0.686685
0.0274483
0.683081
0.035918
0.677802
0.0470469
0.669946
0.0616784
0.658091
0.0808945
0.639957
0.106103
0.61197
0.138904
0.568267
0.181355
0.500077
0.234466
0.39236
0.300025
0.22675
0.370562
0.41654
0.797483
-3.39251e-05
0.797437
-9.80207e-05
0.797373
-0.000148022
0.797301
-0.000179822
0.797227
-0.000196082
0.797151
-0.000200897
0.797077
-0.00019659
0.797005
-0.000184528
0.796937
-0.000166221
0.796872
-0.000143124
0.79681
-0.000116154
0.796752
-8.56361e-05
0.796696
-5.14591e-05
0.796643
-1.31347e-05
0.796592
3.02476e-05
0.796544
8.00945e-05
0.796499
0.000138388
0.796457
0.0002078
0.796417
0.000291866
0.796382
0.000395224
0.796352
0.000523938
0.796328
0.000685933
0.796313
0.000891556
0.796308
0.00115434
0.796316
0.001492
0.796342
0.00192775
0.796391
0.00249207
0.796468
0.00322506
0.79658
0.00417959
0.796736
0.00542555
0.796942
0.00705566
0.797205
0.0091934
0.797526
0.012004
0.797895
0.0157097
0.798281
0.0206119
0.798608
0.0271214
0.798722
0.0358043
0.798325
0.0474448
0.796852
0.0631517
0.79328
0.0844662
0.785681
0.113701
0.77073
0.153855
0.741656
0.210429
0.688598
0.287523
0.586348
0.402278
0.416007
0.540902
0.832547
0.877488
-2.15079e-05
0.877452
-6.25851e-05
0.8774
-9.56174e-05
0.877338
-0.000117368
0.87727
-0.000128301
0.8772
-0.000130538
0.87713
-0.00012573
0.87706
-0.000114887
0.876993
-9.89678e-05
0.876929
-7.89239e-05
0.876869
-5.54178e-05
0.876812
-2.86953e-05
0.876759
1.35975e-06
0.876711
3.51816e-05
0.876668
7.35516e-05
0.876631
0.000117663
0.8766
0.000169197
0.876578
0.000230425
0.876566
0.000304356
0.876566
0.000394943
0.876583
0.000507362
0.876621
0.000648383
0.876686
0.000826859
0.876786
0.00105439
0.876932
0.00134618
0.877138
0.00172224
0.877422
0.00220888
0.877806
0.0028409
0.878322
0.00366442
0.879007
0.00474082
0.87991
0.00615222
0.881095
0.00800915
0.882638
0.0104615
0.884634
0.0137143
0.887195
0.0180509
0.890449
0.0238676
0.894526
0.0317273
0.899534
0.0424377
0.905491
0.0571946
0.91221
0.0777471
0.918991
0.106921
0.92417
0.148676
0.923145
0.211454
0.906419
0.304249
0.838312
0.470384
0.649372
0.729844
1.48192
0.93749
-1.14868e-05
0.937461
-3.3519e-05
0.937417
-5.10677e-05
0.937362
-6.20749e-05
0.9373
-6.63322e-05
0.937234
-6.47888e-05
0.937167
-5.84263e-05
0.937101
-4.79085e-05
0.937036
-3.38032e-05
0.936974
-1.6665e-05
0.936915
3.1021e-06
0.936861
2.53505e-05
0.936813
5.01865e-05
0.93677
7.79471e-05
0.936735
0.000109217
0.936708
0.000144876
0.936691
0.000186157
0.936687
0.000234723
0.936699
0.000292777
0.936731
0.000363209
0.936789
0.000449807
0.93688
0.000557521
0.937014
0.000692833
0.937205
0.000864236
0.937468
0.00108289
0.937827
0.00136347
0.938311
0.00172538
0.938958
0.0021943
0.939818
0.00280443
0.940958
0.00360151
0.942463
0.00464711
0.944448
0.00602476
0.947061
0.00784882
0.950498
0.0102776
0.955016
0.0135329
0.960953
0.0179308
0.968753
0.0239281
0.978991
0.0321994
0.992427
0.0437587
1.01
0.0601697
1.03303
0.0838952
1.06281
0.118895
1.10231
0.171955
1.15399
0.252572
1.24179
0.382579
1.43569
0.535948
0.866108
2.0515
0.977491
-2.79472e-06
0.977466
-8.1164e-06
0.977427
-1.13783e-05
0.977376
-1.1617e-05
0.977319
-8.6022e-06
0.977257
-2.66137e-06
0.977193
5.76983e-06
0.977129
1.63776e-05
0.977066
2.89111e-05
0.977007
4.31343e-05
0.976951
5.88767e-05
0.976901
7.60893e-05
0.976856
9.48537e-05
0.976819
0.000115374
0.97679
0.000137985
0.976772
0.000163175
0.976767
0.000191622
0.976778
0.00022423
0.976809
0.00026219
0.976865
0.000307059
0.976954
0.000360869
0.977086
0.000426273
0.977272
0.000506733
0.97753
0.000606788
0.977881
0.000732389
0.978353
0.000891377
0.978985
0.00109411
0.979825
0.00135434
0.980939
0.00169038
0.982414
0.00212684
0.984365
0.00269694
0.986944
0.00344597
0.990357
0.00443631
0.994879
0.00575491
1.00089
0.00752472
1.0089
0.00992269
1.01962
0.0132072
1.03405
0.0177668
1.05362
0.0241845
1.0804
0.0333915
1.11755
0.0467431
1.1699
0.0665529
1.24646
0.0953953
1.362
0.137032
1.55009
0.19449
1.83997
0.246062
0.378391
2.32769
0.997492
5.24605e-06
0.997469
1.54626e-05
0.997432
2.57602e-05
0.997384
3.60943e-05
0.997329
4.64866e-05
0.99727
5.69753e-05
0.997208
6.75842e-05
0.997146
7.8344e-05
0.997086
8.9291e-05
0.997029
0.000100464
0.996976
0.000111904
0.996929
0.000123656
0.996888
0.000135768
0.996856
0.00014829
0.996832
0.000161278
0.996821
0.000174789
0.996824
0.000188887
0.996845
0.000203638
0.996888
0.000219114
0.99696
0.000235394
0.997069
0.000252564
0.997224
0.000270718
0.997441
0.000289964
0.997738
0.000310425
0.998139
0.000332241
0.998675
0.000355583
0.999388
0.000380654
1.00034
0.000407709
1.00159
0.000437072
1.00325
0.000469167
1.00544
0.000504562
1.00834
0.000544031
1.01219
0.000588659
1.0173
0.000639994
1.02413
0.000700291
1.03328
0.000772907
1.04562
0.000862948
1.06241
0.000978403
1.08547
0.00113204
1.11751
0.00134529
1.1626
0.00165358
1.22703
0.00212385
1.31957
0.00285498
1.45252
0.00408551
1.64103
0.00597275
1.87765
0.00944604
0.0141297
2.24191
0.997492
1.31731e-05
0.997469
3.87003e-05
0.997433
6.23319e-05
0.997386
8.30101e-05
0.997332
0.000100547
0.997274
0.000115345
0.997214
0.000127888
0.997154
0.00013855
0.997096
0.000147654
0.997041
0.000155512
0.996991
0.000162377
0.996946
0.000168385
0.996908
0.000173551
0.996879
0.00017777
0.99686
0.000180816
0.996853
0.000182316
0.99686
0.000181716
0.996886
0.000178242
0.996934
0.000170847
0.997012
0.000158125
0.997126
0.000138214
0.997289
0.000108648
0.997513
6.61707e-05
0.997817
6.48313e-06
0.998225
-7.60942e-05
0.99877
-0.000189077
0.999494
-0.000342433
1.00045
-0.000549427
1.00172
-0.000827776
1.00339
-0.00120128
1.00559
-0.00170211
1.00851
-0.00237414
1.01238
-0.00327775
1.01752
-0.0044971
1.02437
-0.00615111
1.03355
-0.00841078
1.04594
-0.0115256
1.06279
-0.0158706
1.08593
-0.0220073
1.11811
-0.0308332
1.16341
-0.0436454
1.22819
-0.062662
1.32133
-0.0902793
1.45528
-0.129871
1.64531
-0.184058
1.88337
-0.228611
-0.353168
2.25066
0.977492
2.15221e-05
0.977468
6.30852e-05
0.97743
0.000100324
0.977382
0.000131086
0.977327
0.000155198
0.977269
0.000173681
0.97721
0.000187562
0.977151
0.000197566
0.977095
0.000204329
0.977042
0.00020848
0.976994
0.000210502
0.976952
0.000210629
0.976917
0.000208845
0.97689
0.000204911
0.976872
0.000198346
0.976867
0.000188382
0.976875
0.000173904
0.9769
0.000153373
0.976946
0.000124724
0.977019
8.52079e-05
0.977127
3.11978e-05
0.977278
-4.20861e-05
0.977485
-0.000140932
0.977765
-0.00027362
0.978141
-0.000451056
0.978639
-0.000687643
0.9793
-0.00100243
0.980171
-0.00142071
0.98132
-0.00197617
0.982833
-0.00271391
0.984826
-0.00369467
0.987453
-0.0050009
0.990921
-0.0067455
0.995509
-0.00908474
1.0016
-0.0122378
1.0097
-0.0165166
1.02055
-0.0223729
1.03515
-0.0304734
1.05497
-0.0418213
1.0821
-0.0579664
1.1198
-0.0813501
1.17306
-0.115914
1.25119
-0.168415
1.36963
-0.248311
1.5631
-0.377525
1.86242
-0.527935
-0.857191
2.36644
0.937491
3.0975e-05
0.937463
9.04601e-05
0.937422
0.00014206
0.937371
0.000182429
0.937314
0.000212058
0.937255
0.000233138
0.937195
0.000247362
0.937137
0.000255799
0.937082
0.000259471
0.937032
0.000259402
0.936986
0.000256328
0.936946
0.000250577
0.936913
0.000242119
0.936888
0.000230611
0.936871
0.000215369
0.936864
0.000195305
0.93687
0.000168845
0.936889
0.000133835
0.936927
8.73887e-05
0.936987
2.56843e-05
0.937075
-5.63141e-05
0.937198
-0.000165223
0.937367
-0.000309731
0.937595
-0.000501252
0.937899
-0.000754796
0.938302
-0.00109012
0.938833
-0.00153332
0.939531
-0.00211887
0.940448
-0.00289254
0.94165
-0.00391532
0.943224
-0.00526882
0.945287
-0.00706298
0.947988
-0.00944693
0.951529
-0.0126248
0.95617
-0.0168789
0.962258
-0.0226043
0.970248
-0.0303628
0.980736
-0.0409613
0.994512
-0.0555971
1.01257
-0.0760238
1.03631
-0.105086
1.06717
-0.146774
1.10842
-0.209673
1.16299
-0.302877
1.25651
-0.47105
1.46288
-0.734303
-1.50639
2.11207
0.877488
4.25989e-05
0.877456
0.000123546
0.877407
0.000190553
0.877351
0.000239391
0.87729
0.000272736
0.877229
0.000294745
0.877168
0.000307784
0.877111
0.000313273
0.877058
0.000312782
0.87701
0.000307832
0.876967
0.000299407
0.87693
0.000287911
0.876899
0.000273309
0.876875
0.000255199
0.876858
0.000232756
0.876848
0.000204671
0.876848
0.000169056
0.876859
0.000123346
0.876883
6.41092e-05
0.876922
-1.31754e-05
0.87698
-0.000114459
0.877063
-0.000247534
0.877176
-0.000422619
0.877328
-0.0006531
0.87753
-0.000956543
0.877797
-0.001356
0.878145
-0.00188181
0.878601
-0.00257388
0.879193
-0.00348494
0.879963
-0.00468471
0.88096
-0.0062658
0.882249
-0.00835158
0.88391
-0.0111073
0.886041
-0.0147556
0.888761
-0.0195982
0.892204
-0.0260473
0.896513
-0.0346717
0.901812
-0.0462604
0.908147
-0.0619319
0.915368
-0.0832448
0.922831
-0.112549
0.928955
-0.152898
0.929229
-0.209947
0.914264
-0.287912
0.84787
-0.404657
0.659606
-0.546039
-0.84678
0.797484
5.84033e-05
0.797441
0.000166954
0.797382
0.000249903
0.797317
0.000304426
0.797252
0.00033861
0.797187
0.000359222
0.797126
0.000368926
0.79707
0.00036956
0.79702
0.000363513
0.796975
0.000352878
0.796936
0.00033883
0.796902
0.000321802
0.796874
0.000301772
0.796851
0.000278316
0.796834
0.000250545
0.796822
0.000217035
0.796815
0.000175765
0.796815
0.00012399
0.796821
5.80748e-05
0.796835
-2.67721e-05
0.796858
-0.000136817
0.796891
-0.000280261
0.796936
-0.000467813
0.796997
-0.00071348
0.797076
-0.00103557
0.797179
-0.00145807
0.79731
-0.00201233
0.797476
-0.00273949
0.797684
-0.00369345
0.797945
-0.00494495
0.798267
-0.00658696
0.798657
-0.00874174
0.79912
-0.0115703
0.79965
-0.0152853
0.80022
-0.0201672
0.80076
-0.0265875
0.801126
-0.0350375
0.801032
-0.0461656
0.799928
-0.0608285
0.796813
-0.0801297
0.789777
-0.105513
0.775512
-0.138633
0.747214
-0.181649
0.694986
-0.235684
0.593127
-0.302798
0.422693
-0.375605
-0.424086
0.697476
8.26094e-05
0.697414
0.000229137
0.697338
0.000325888
0.697263
0.000380008
0.697191
0.000410433
0.697125
0.000426161
0.697064
0.00042939
0.697012
0.000422674
0.696966
0.000409495
0.696927
0.000392399
0.696893
0.000372576
0.696865
0.00035042
0.696841
0.00032592
0.696821
0.000298655
0.696804
0.000267735
0.69679
0.000231743
0.696777
0.000188705
0.696765
0.000135964
0.696754
7.00338e-05
0.696741
-1.367e-05
0.696726
-0.000121103
0.696706
-0.000260043
0.696679
-0.000440596
0.696642
-0.000675961
0.69659
-0.000983314
0.696517
-0.00138508
0.696416
-0.00191043
0.696274
-0.0025974
0.696077
-0.00349544
0.695801
-0.00466888
0.695415
-0.00620111
0.694874
-0.00820018
0.69411
-0.0108055
0.693021
-0.0141965
0.691456
-0.018602
0.689182
-0.0243125
0.685835
-0.0316908
0.680851
-0.0411812
0.673334
-0.053311
0.661866
-0.0686616
0.644163
-0.0878107
0.616631
-0.111101
0.573336
-0.138354
0.50536
-0.167708
0.397271
-0.194708
0.230065
-0.208398
-0.194021
0.577457
0.000125969
0.577362
0.000323803
0.577263
0.000425294
0.577174
0.000469101
0.577096
0.000489388
0.577028
0.000494728
0.576971
0.000486568
0.576925
0.000469004
0.576888
0.00044662
0.576859
0.00042201
0.576835
0.000396091
0.576817
0.000369133
0.576802
0.00034108
0.57679
0.00031152
0.576778
0.000279586
0.576766
0.000243995
0.576752
0.000202982
0.576734
0.00015425
0.57671
9.47822e-05
0.576676
2.06995e-05
0.576628
-7.30591e-05
0.576562
-0.000193014
0.576469
-0.000347663
0.576342
-0.000547984
0.576167
-0.00080829
0.57593
-0.00114709
0.575608
-0.00158844
0.575175
-0.00216336
0.574592
-0.00291196
0.573809
-0.00388563
0.572758
-0.00515022
0.571348
-0.00678919
0.56945
-0.00890771
0.566891
-0.0116363
0.563423
-0.0151343
0.558702
-0.0195911
0.552235
-0.025223
0.543313
-0.03226
0.530919
-0.0409169
0.513586
-0.0513282
0.489213
-0.0634375
0.454879
-0.076767
0.406625
-0.0901001
0.339702
-0.100786
0.249249
-0.104255
0.133646
-0.0927945
-0.0603747
0.4374
0.000225657
0.437256
0.000468254
0.437134
0.000547916
0.437037
0.000566685
0.436959
0.000567331
0.436901
0.000553386
0.436861
0.000526692
0.436837
0.000493465
0.436826
0.000458726
0.436824
0.000424479
0.436829
0.00039115
0.43684
0.000358774
0.436854
0.000327203
0.43687
0.000295985
0.436886
0.000264342
0.436899
0.000231201
0.436907
0.000195187
0.436907
0.000154551
0.436896
0.000107071
0.436867
4.99177e-05
0.436815
-2.05036e-05
0.436731
-0.000108822
0.436605
-0.000221
0.436422
-0.000364713
0.436164
-0.000549867
0.435807
-0.000789243
0.435319
-0.00109927
0.434657
-0.001501
0.433767
-0.00202124
0.432576
-0.00269391
0.430987
-0.00356142
0.428875
-0.00467614
0.426069
-0.00610137
0.422345
-0.00791151
0.417401
-0.0101901
0.410835
-0.0130244
0.402105
-0.0164933
0.390491
-0.0206454
0.375036
-0.0254619
0.354505
-0.0307969
0.327365
-0.0362979
0.29189
-0.0412915
0.246475
-0.0446853
0.190446
-0.0447575
0.125352
-0.0391617
0.0566234
-0.0240649
-0.00375099
0.277251
0.000474639
0.277069
0.000651042
0.27698
0.000637115
0.276956
0.000591685
0.27698
0.000543904
0.277042
0.000491556
0.277132
0.000436753
0.277242
0.000384579
0.277363
0.00033777
0.277492
0.000296485
0.277624
0.000260019
0.277755
0.000227667
0.277884
0.000198781
0.278008
0.000172634
0.278125
0.000148416
0.278231
0.000125238
0.278325
0.000102148
0.278402
7.80548e-05
0.278458
5.16928e-05
0.278487
2.14579e-05
0.278482
-1.46269e-05
0.278433
-5.88328e-05
0.278326
-0.000113863
0.278146
-0.000183316
0.277868
-0.000271797
0.277465
-0.000385212
0.276897
-0.000530975
0.276116
-0.000718452
0.275054
-0.000959216
0.273629
-0.00126749
0.271728
-0.0016602
0.26921
-0.00215703
0.265888
-0.00277957
0.261527
-0.00354974
0.255824
-0.00448621
0.248398
-0.00559849
0.238782
-0.00687689
0.226415
-0.00827774
0.210656
-0.00970316
0.190837
-0.0109776
0.166374
-0.0118351
0.137022
-0.011939
0.10333
-0.0109939
0.0674222
-0.00884986
0.0337664
-0.00550566
0.00904384
0.000658532
0.00529301
0.0979748
0.0986261
0.0992634
0.0998554
0.1004
0.100891
0.101328
0.101713
0.102051
0.102348
0.102608
0.102836
0.103035
0.103208
0.103357
0.103482
0.103585
0.103663
0.103715
0.103737
0.103723
0.103664
0.103551
0.103368
0.103096
0.102711
0.102181
0.101463
0.100504
0.0992367
0.0975768
0.0954201
0.0926408
0.0890914
0.0846053
0.079007
0.0721302
0.0638526
0.0541494
0.0431719
0.0313368
0.0193977
0.00840372
-0.000446187
-0.00595169
-0.00529301
1.50881
0.542684
1.2269
0.281913
1.0395
0.187393
0.903842
0.135657
0.805157
0.0986721
0.0770183
0.728135
2.53682
0.333545
2.6091
0.209633
2.63117
0.165327
2.6205
0.146323
2.59078
0.128392
0.120702
2.54709
2.55194
0.0235126
2.72365
0.0379229
2.83566
0.0533114
2.91449
0.0674964
2.96136
0.0815138
0.0971296
2.98493
2.56035
-0.28618
2.7269
-0.128627
2.83295
-0.0527407
2.90894
-0.00849588
2.95708
0.0333764
0.0686758
2.98553
2.5865
-0.506238
2.67956
-0.221684
2.74351
-0.116697
2.79047
-0.0554495
2.82518
-0.00134259
0.0416146
2.85224
1.60583
1.38415
1.26745
1.212
1.21066
1.25227
-0.00114688
0.00111564
-0.00411042
0.00289337
-0.00863691
0.00446376
-0.0141981
0.00550721
-0.0191521
0.00489903
-0.0208602
0.00165725
-0.0174753
-0.00343374
-0.00967924
-0.00783083
-0.00114761
-0.00856191
0.003759
-0.00496698
0.00426446
-0.000586606
0.00279052
0.00139936
0.00112963
0.00160142
-0.000428621
0.00152144
-0.00199392
0.00154916
-0.00357748
0.00157897
-0.00500598
0.00142943
-0.00605742
0.00105396
-0.00666413
0.000609837
-0.00697358
0.000311651
-0.0072124
0.000240852
-0.00753226
0.000321898
-0.00795113
0.000421771
-0.0083778
0.000430861
-0.00869707
0.00032485
-0.00885613
0.000165567
-0.0088733
2.41987e-05
-0.00878718
-7.89929e-05
-0.0086179
-0.000162148
-0.00837173
-0.000239423
-0.00806126
-0.000304286
-0.00770976
-0.00034598
-0.00733967
-0.000365123
-0.00696673
-0.000368531
-0.0066044
-0.000358456
-0.00626772
-0.000333428
-0.00597036
-0.000294614
-0.00572002
-0.000248077
-0.00551709
-0.000201009
-0.00535796
-0.000157734
-0.00523855
-0.000117902
-0.00515855
-7.95692e-05
-0.00512231
-3.85236e-05
-0.00514781
1.6925e-05
-0.00527998
0.000120562
-0.00558839
0.00029529
0.000314037
-0.00505836
0.00610271
-0.0137288
0.0114126
-0.0241049
0.014717
-0.0343792
0.0156689
-0.041821
0.0122376
-0.0436577
0.00339281
-0.0382374
-0.00893498
-0.026135
-0.0200173
-0.011024
-0.0237951
0.000857987
-0.0169745
0.00483686
-0.00470853
0.00285017
0.00322884
-0.00090614
0.00527118
-0.00498183
0.00555807
-0.00902819
0.00558655
-0.012822
0.00537715
-0.0159752
0.00459231
-0.0181388
0.0032263
-0.0193284
0.0018054
-0.0199592
0.000948306
-0.0205239
0.00080962
-0.0212803
0.0010828
-0.0222045
0.00135264
-0.0230792
0.0013157
-0.0236722
0.000930894
-0.0238996
0.000408067
-0.0238273
-3.21806e-05
-0.023554
-0.000336373
-0.0231303
-0.000570562
-0.0225718
-0.00078327
-0.0219052
-0.000957518
-0.0211779
-0.00106144
-0.020434
-0.00109878
-0.0197015
-0.00109187
-0.0190038
-0.00104793
-0.0183684
-0.000961787
-0.0178205
-0.000836566
-0.0173733
-0.000690439
-0.0170249
-0.000545448
-0.0167648
-0.000414442
-0.0165825
-0.000297874
-0.0164729
-0.000188939
-0.01644
-7.90701e-05
-0.0164959
5.31269e-05
-0.016642
0.000240899
-0.0167915
0.000427033
0.000343822
-0.00840818
0.0144454
-0.0205174
0.023395
-0.0332265
0.0273146
-0.0449273
0.0272672
-0.0537749
0.0209871
-0.057788
0.00730899
-0.0548774
-0.0119706
-0.0438264
-0.0311944
-0.0265366
-0.0411619
-0.0100808
-0.0335218
-0.00259409
-0.0122964
-0.0040906
0.00471056
-0.00838734
0.00956864
-0.0137705
0.0109675
-0.019572
0.011414
-0.0250902
0.0109186
-0.0295238
0.00904072
-0.0322882
0.00600006
-0.0334568
0.00298222
-0.033808
0.00130349
-0.0342025
0.00120779
-0.0350309
0.00191669
-0.0362097
0.00253969
-0.0373548
0.00247248
-0.0380633
0.00165382
-0.038212
0.000572369
-0.0379576
-0.000271058
-0.0374963
-0.000782669
-0.0369014
-0.00115082
-0.0361633
-0.00150778
-0.0352952
-0.00181356
-0.0343633
-0.00198282
-0.0334326
-0.00201986
-0.0325339
-0.00198164
-0.0316879
-0.00188581
-0.0309279
-0.00171471
-0.0302901
-0.00146817
-0.0297925
-0.00118284
-0.0294281
-0.000905433
-0.0291756
-0.000663346
-0.0290127
-0.000457598
-0.0289247
-0.000276179
-0.0289033
-0.000105968
-0.0289356
7.42081e-05
-0.0289984
0.000285994
-0.0290528
0.000473138
0.000398105
-0.0096431
0.0240235
-0.0216008
0.0352298
-0.0324977
0.0381003
-0.0421757
0.0368392
-0.0505943
0.0292965
-0.0569797
0.0135566
-0.0594133
-0.00965308
-0.054615
-0.0360884
-0.0404604
-0.055428
-0.0215867
-0.0524508
-0.00996388
-0.0238856
-0.0117348
0.00651703
-0.0172697
0.0151622
-0.0243326
0.0180761
-0.0319611
0.0190772
-0.0391472
0.0181277
-0.0447292
0.0146371
-0.0477178
0.00900088
-0.0480907
0.00336397
-0.0472566
0.000482478
-0.0469082
0.000873323
-0.0476779
0.00269933
-0.0492733
0.0041494
-0.0509652
0.00418011
-0.0519769
0.0026823
-0.0520753
0.000688086
-0.0516162
-0.000712888
-0.0510192
-0.00136372
-0.0503966
-0.00175852
-0.0496499
-0.00224104
-0.0487313
-0.00272001
-0.0477378
-0.00296493
-0.046778
-0.0029694
-0.045877
-0.00287325
-0.0450353
-0.00271862
-0.04429
-0.00245176
-0.0436994
-0.00205154
-0.0432927
-0.0015832
-0.043054
-0.00113863
-0.0429429
-0.000769626
-0.0429207
-0.000475659
-0.0429635
-0.000231191
-0.0430582
-1.33616e-05
-0.0431922
0.000199181
-0.0433432
0.000429913
-0.0435132
0.000636383
0.000626864
-0.00965495
0.033623
-0.0178429
0.043303
-0.0220913
0.0422374
-0.0248459
0.0394766
-0.0282508
0.0325929
-0.033785
0.019021
-0.041176
-0.00235913
-0.0469914
-0.0303539
-0.0437543
-0.058655
-0.0292035
-0.066947
-0.0157841
-0.0372354
-0.0181793
0.00905978
-0.0257717
0.0228487
-0.0351178
0.0274817
-0.0451431
0.0291419
-0.0546869
0.0276949
-0.0619971
0.0219654
-0.0651102
0.0121304
-0.0635391
0.00181827
-0.0597943
-0.00323545
-0.0576968
-0.00119778
-0.0584263
0.00345572
-0.0609245
0.00667091
-0.0638118
0.00708926
-0.065533
0.00442504
-0.0655596
0.000736227
-0.0646913
-0.00156242
-0.0639098
-0.00212772
-0.0634157
-0.00223702
-0.0628581
-0.00278436
-0.0620073
-0.00355748
-0.0610222
-0.00393833
-0.0601304
-0.00385005
-0.0593519
-0.00364071
-0.0586271
-0.00343269
-0.0579877
-0.00308148
-0.0575393
-0.00249103
-0.0573414
-0.00177312
-0.0573639
-0.00110905
-0.0575318
-0.000595559
-0.0577807
-0.000221424
-0.05808
7.16838e-05
-0.0584245
0.000330185
-0.0588112
0.000582772
-0.0592311
0.000842728
-0.0596746
0.00107632
0.00112721
-0.0123243
0.0458839
-0.0123097
0.043179
-0.00435277
0.0341623
0.00441043
0.0306116
0.0105877
0.026357
0.0115836
0.018003
0.00327549
0.00600673
-0.013488
-0.0134615
-0.0301395
-0.0419232
-0.0335243
-0.063476
-0.0239113
-0.0466662
-0.023508
0.0088346
-0.0335143
0.0329493
-0.0463312
0.0403546
-0.0595937
0.0424391
-0.0720289
0.0401554
-0.0816232
0.0315831
-0.0856968
0.0162314
-0.0823691
-0.00147838
-0.0730686
-0.0125017
-0.0658406
-0.00838772
-0.0656991
0.00334922
-0.0699709
0.0109725
-0.0753386
0.0124833
-0.0784782
0.00758907
-0.0781551
0.000436308
-0.0761601
-0.00353625
-0.0749798
-0.00328891
-0.0749141
-0.00228589
-0.0748965
-0.00278582
-0.0742125
-0.00422666
-0.0731715
-0.00496366
-0.0723853
-0.00462073
-0.0718714
-0.00414041
-0.0713787
-0.00391209
-0.0708907
-0.0035566
-0.0706241
-0.00274607
-0.0707209
-0.00166551
-0.0711256
-0.000695181
-0.0716897
-2.31469e-05
-0.072299
0.000394596
-0.0729184
0.000695683
-0.0735647
0.000977729
-0.0742595
0.00127422
-0.0749955
0.0015752
-0.0757494
0.00182846
0.00190997
0.022845
0.0229927
0.0501418
0.0158052
0.069698
0.0145419
0.0851206
0.0151501
0.0964182
0.0150694
0.101472
0.0130185
0.0966762
0.0109309
0.0692506
0.0140822
0.0107607
0.0166857
-0.0447966
-0.00780914
-0.0463799
-0.0450024
-0.0272295
-0.0102472
-0.0377247
0.0434717
-0.0523908
0.0550323
-0.066173
0.056228
-0.0788242
0.0528187
-0.09023
0.0430034
-0.0983801
0.0244021
-0.0986795
-0.00115032
-0.0872682
-0.0238832
-0.0716436
-0.0239802
-0.0657033
-0.00255412
-0.0734303
0.0187324
-0.0837608
0.0228418
-0.0896708
0.0135266
-0.0889289
-0.00027995
-0.0844374
-0.00800462
-0.0820963
-0.00560908
-0.0830067
-0.00135387
-0.0843126
-0.00145975
-0.0839086
-0.00460866
-0.0824921
-0.00635926
-0.0818406
-0.00525287
-0.0818741
-0.0040878
-0.0817797
-0.00398871
-0.0814015
-0.00391883
-0.0812466
-0.00288593
-0.0816801
-0.00121888
-0.0825757
0.00021265
-0.0836237
0.00103468
-0.0846063
0.0013856
-0.0854954
0.00159025
-0.0863643
0.0018481
-0.0872769
0.00218571
-0.0882379
0.00253505
-0.0892214
0.00280943
0.00291364
0.680556
0.0705613
0.627478
0.0688723
0.572421
0.0695896
0.51538
0.0721916
0.455388
0.0750852
0.391291
0.0771699
0.324101
0.0781995
0.260648
0.077618
0.202262
0.0751163
0.122171
0.072281
0.0118217
0.0653366
-0.0559163
0.0574676
-0.0658997
0.0534233
-0.0596698
0.0487662
-0.0479218
0.0444498
-0.0348967
0.0397701
-0.0248849
0.0329757
-0.0229567
0.0224686
-0.0317116
0.00760891
-0.0486905
-0.00688942
-0.0567276
-0.0159148
-0.0510807
-0.00816149
-0.0599779
0.0276692
-0.0792188
0.0421175
-0.0917973
0.0261367
-0.0935597
0.00151398
-0.0865306
-0.0150064
-0.0804848
-0.0116273
-0.0829799
0.00116842
-0.0883145
0.00390165
-0.0893095
-0.00358826
-0.0870853
-0.00855793
-0.0863351
-0.00597557
-0.0874117
-0.00298657
-0.0880768
-0.00330048
-0.0876783
-0.00429671
-0.0874364
-0.003108
-0.0882618
-0.000375717
-0.0898403
0.00180701
-0.0915168
0.00272401
-0.0928687
0.00274746
-0.0939076
0.00263551
-0.0948445
0.00278752
-0.0958372
0.0031783
-0.0969073
0.00360089
-0.098025
0.00392818
0.00407944
2.49262
0.125028
2.42722
0.134279
2.35215
0.144656
2.26853
0.155813
2.17654
0.167085
2.07623
0.177508
1.96798
0.186467
1.85193
0.193692
1.72741
0.199643
1.59453
0.205153
1.45178
0.208077
1.302
0.207239
1.15147
0.203938
1.00206
0.198153
0.856418
0.190072
0.716449
0.179719
0.582515
0.166892
0.453383
0.151586
0.326626
0.134358
0.203462
0.116278
0.0896017
0.0979617
0.00469944
0.0767743
-0.0282182
0.0606275
-0.03357
0.0475045
-0.0372015
0.0298042
-0.043982
0.0083304
-0.05072
-0.00823728
-0.051591
-0.0107228
-0.0602853
0.00990151
-0.0782599
0.0219149
-0.0861611
0.00435422
-0.0840509
-0.0106275
-0.0813365
-0.00865342
-0.0845181
0.000232521
-0.0878471
6.00895e-05
-0.0877291
-0.00438363
-0.0869894
-0.00382062
-0.0882302
0.000892151
-0.0909472
0.00454454
-0.0936627
0.00545603
-0.0954845
0.00458027
-0.0965566
0.00371439
-0.0974077
0.00364086
-0.0984046
0.00417287
-0.0995676
0.00476595
-0.100819
0.00517949
0.00545495
2.99541
0.114554
2.99683
0.132859
2.99
0.151479
2.97539
0.170426
2.95299
0.189499
2.92219
0.208322
2.88206
0.226606
2.83159
0.244181
2.77016
0.261074
2.69798
0.277333
2.61377
0.292279
2.51586
0.305136
2.40415
0.315631
2.27886
0.323425
2.14083
0.32809
1.99121
0.329322
1.83122
0.326861
1.66217
0.320628
1.48565
0.310873
1.30397
0.297957
1.11986
0.282073
0.934143
0.262491
0.754959
0.239817
0.588591
0.213877
0.433569
0.184831
0.287386
0.15452
0.154381
0.124778
0.0488154
0.0948652
-0.00829971
0.0670547
-0.029686
0.0433493
-0.0408084
0.0155284
-0.047286
-0.00410113
-0.0510855
-0.00480018
-0.0630926
0.0122934
-0.0760635
0.0130851
-0.0784124
-0.00198619
-0.0760452
-0.00614394
-0.0773011
0.002183
-0.082538
0.00980682
-0.0874728
0.010408
-0.0901362
0.00725498
-0.0911378
0.00472263
-0.0917421
0.00424743
-0.0927648
0.00519671