/*--------------------------------*- C++ -*----------------------------------*\
| =========                 |                                                 |
| \\      /  F ield         | OpenFOAM: The Open Source CFD Toolbox           |
|  \\    /   O peration     | Version:  2406                                  |
|   \\  /    A nd           | Website:  www.openfoam.com                      |
|    \\/     M anipulation  |                                                 |
\*---------------------------------------------------------------------------*/
FoamFile
{
    version     2.0;
    format      ascii;
    arch        "LSB;label=32;scalar=64";
    class       volVectorField;
    location    "206";
    object      U;
}
// * * * * * * * * * * * * * * * * * * * * * * * * * * * * * * * * * * * * * //

dimensions      [0 1 -1 0 0 0 0];

internalField   nonuniform List<vector> 
1916
(
(0.977191 -0.00308993 0)
(0.982929 -0.00549687 0)
(0.989295 -0.00532695 0)
(0.995472 -0.00449732 0)
(1.00108 -0.00372937 0)
(1.00611 -0.00306072 0)
(1.01057 -0.00246074 0)
(1.01447 -0.00194708 0)
(1.01786 -0.00152992 0)
(1.02078 -0.00119602 0)
(1.02328 -0.000925802 0)
(1.02542 -0.000704281 0)
(1.02724 -0.00052066 0)
(1.02875 -0.000365806 0)
(1.02999 -0.000231284 0)
(1.03097 -0.000109397 0)
(1.0317 7.11934e-06 0)
(1.03216 0.000125537 0)
(1.03235 0.000254362 0)
(1.03222 0.00040252 0)
(1.03173 0.00057892 0)
(1.03082 0.000794104 0)
(1.02938 0.00106178 0)
(1.0273 0.00139941 0)
(1.02441 0.00182898 0)
(1.02049 0.00237788 0)
(1.01527 0.0030801 0)
(1.00837 0.0039772 0)
(0.99934 0.00511918 0)
(0.987584 0.00656433 0)
(0.972362 0.00837784 0)
(0.952757 0.010627 0)
(0.927647 0.0133723 0)
(0.895703 0.0166494 0)
(0.85539 0.0204407 0)
(0.805032 0.024629 0)
(0.74294 0.0289334 0)
(0.667661 0.0328263 0)
(0.578398 0.0354583 0)
(0.475673 0.0356478 0)
(0.362212 0.0321246 0)
(0.243982 0.024241 0)
(0.130247 0.0131679 0)
(0.0313684 0.00153768 0)
(-0.0419581 -0.0110839 0)
(-0.0649846 -0.0380701 0)
(-0.0352323 -0.0545162 0)
(2.77276 -0.00264569 0)
(2.77103 -0.00568172 0)
(2.77012 -0.00660153 0)
(2.76945 -0.00663898 0)
(2.76922 -0.00643738 0)
(2.76948 -0.00609898 0)
(2.77007 -0.00563861 0)
(2.77085 -0.00511736 0)
(2.77174 -0.00459312 0)
(2.77267 -0.0040911 0)
(2.77363 -0.00361605 0)
(2.77455 -0.00316732 0)
(2.77543 -0.00274266 0)
(2.77622 -0.00233726 0)
(2.77691 -0.00194343 0)
(2.77748 -0.00155103 0)
(2.77788 -0.00114767 0)
(2.7781 -0.000718221 0)
(2.77808 -0.000243887 0)
(2.77777 0.00029843 0)
(2.77712 0.000936822 0)
(2.77603 0.00170675 0)
(2.77438 0.00265369 0)
(2.77203 0.00383592 0)
(2.76877 0.005328 0)
(2.76436 0.00722522 0)
(2.75844 0.00964896 0)
(2.75059 0.0127532 0)
(2.74025 0.0167317 0)
(2.72666 0.0218259 0)
(2.70887 0.0283324 0)
(2.68564 0.0366076 0)
(2.65535 0.0470676 0)
(2.61595 0.0601752 0)
(2.56479 0.0764077 0)
(2.49854 0.0961869 0)
(2.41303 0.119753 0)
(2.30324 0.146953 0)
(2.16322 0.176914 0)
(1.98648 0.207569 0)
(1.76667 0.235131 0)
(1.49934 0.25357 0)
(1.18486 0.254836 0)
(0.834257 0.229134 0)
(0.473747 0.166475 0)
(0.186566 0.0489671 0)
(0.0149346 -0.0550954 0)
(4.37351 -0.00155536 0)
(4.37273 -0.0036105 0)
(4.37202 -0.00447191 0)
(4.37082 -0.00471672 0)
(4.36962 -0.00474524 0)
(4.36873 -0.00464239 0)
(4.36808 -0.00441572 0)
(4.36756 -0.00410635 0)
(4.36712 -0.0037624 0)
(4.36675 -0.00340918 0)
(4.36644 -0.00305318 0)
(4.36615 -0.00269437 0)
(4.36586 -0.00233053 0)
(4.36556 -0.00195654 0)
(4.36523 -0.00156352 0)
(4.36484 -0.00113886 0)
(4.36437 -0.000666169 0)
(4.36379 -0.00012441 0)
(4.36306 0.000513173 0)
(4.36214 0.0012808 0)
(4.36096 0.00222257 0)
(4.35946 0.00339538 0)
(4.35754 0.00487278 0)
(4.35506 0.00674987 0)
(4.35188 0.00914955 0)
(4.34776 0.0122306 0)
(4.34243 0.0161976 0)
(4.33553 0.0213137 0)
(4.32657 0.0279161 0)
(4.31492 0.036434 0)
(4.29975 0.0474104 0)
(4.27994 0.0615249 0)
(4.25406 0.0796167 0)
(4.22015 0.102702 0)
(4.17564 0.131974 0)
(4.11709 0.168779 0)
(4.03987 0.21452 0)
(3.93784 0.270464 0)
(3.80282 0.337368 0)
(3.62413 0.4148 0)
(3.38817 0.500082 0)
(3.0788 0.586466 0)
(2.67843 0.660915 0)
(2.1747 0.700186 0)
(1.56342 0.670542 0)
(0.899339 0.525504 0)
(0.24642 0.305516 0)
(5.7739 -0.000938621 0)
(5.77358 -0.00244015 0)
(5.77321 -0.00334442 0)
(5.77221 -0.00379508 0)
(5.77107 -0.003995 0)
(5.77012 -0.00403048 0)
(5.76935 -0.00392686 0)
(5.76866 -0.00371682 0)
(5.76802 -0.00343998 0)
(5.76742 -0.00312362 0)
(5.76686 -0.00277997 0)
(5.76632 -0.00241308 0)
(5.76579 -0.00202293 0)
(5.76525 -0.00160548 0)
(5.76469 -0.00115192 0)
(5.76409 -0.000648368 0)
(5.76345 -7.55698e-05 0)
(5.76273 0.000592066 0)
(5.76191 0.00138804 0)
(5.76097 0.00235594 0)
(5.75986 0.00355234 0)
(5.75855 0.00505058 0)
(5.75695 0.00694584 0)
(5.755 0.00936174 0)
(5.75259 0.0124588 0)
(5.74956 0.0164455 0)
(5.74575 0.0215924 0)
(5.74089 0.0282499 0)
(5.73467 0.0368719 0)
(5.72665 0.0480441 0)
(5.71624 0.0625204 0)
(5.70264 0.0812672 0)
(5.68477 0.105516 0)
(5.66115 0.136822 0)
(5.62971 0.17713 0)
(5.58755 0.228831 0)
(5.53059 0.294792 0)
(5.45299 0.378318 0)
(5.34639 0.482968 0)
(5.19882 0.612031 0)
(4.99301 0.767533 0)
(4.7049 0.94773 0)
(4.30062 1.14379 0)
(3.7386 1.32994 0)
(2.96506 1.45879 0)
(1.96281 1.43532 0)
(0.703869 1.18181 0)
(6.97411 -0.000616298 0)
(6.97396 -0.00170192 0)
(6.97382 -0.00246311 0)
(6.97305 -0.00289451 0)
(6.97206 -0.00309618 0)
(6.97116 -0.00314442 0)
(6.9704 -0.00307201 0)
(6.96969 -0.0029029 0)
(6.96899 -0.00266468 0)
(6.96833 -0.00237991 0)
(6.96771 -0.0020607 0)
(6.96712 -0.00171114 0)
(6.96654 -0.00133046 0)
(6.96598 -0.000913649 0)
(6.96541 -0.000450899 0)
(6.96484 7.29873e-05 0)
(6.96426 0.000679196 0)
(6.96365 0.00139603 0)
(6.96301 0.00226066 0)
(6.96233 0.00332156 0)
(6.96158 0.00464182 0)
(6.96075 0.00630353 0)
(6.95982 0.00841351 0)
(6.95875 0.0111109 0)
(6.95751 0.0145772 0)
(6.95603 0.0190489 0)
(6.95425 0.0248346 0)
(6.95205 0.0323367 0)
(6.94932 0.0420808 0)
(6.94584 0.0547525 0)
(6.94136 0.0712467 0)
(6.93548 0.0927307 0)
(6.92763 0.120726 0)
(6.91698 0.157216 0)
(6.90229 0.204774 0)
(6.88167 0.266739 0)
(6.85222 0.347408 0)
(6.80946 0.452258 0)
(6.74635 0.588178 0)
(6.65188 0.763481 0)
(6.50833 0.987864 0)
(6.28838 1.27061 0)
(5.94618 1.61892 0)
(5.41627 2.02656 0)
(4.57841 2.46697 0)
(3.30434 2.85569 0)
(1.22131 3.13826 0)
(7.97423 -0.00041604 0)
(7.97417 -0.00117716 0)
(7.97416 -0.00175622 0)
(7.97356 -0.00211875 0)
(7.97269 -0.00230612 0)
(7.97186 -0.00236692 0)
(7.97112 -0.00232703 0)
(7.97041 -0.00220251 0)
(7.96971 -0.00201109 0)
(7.96904 -0.00176927 0)
(7.9684 -0.00148726 0)
(7.9678 -0.00116876 0)
(7.96723 -0.000812837 0)
(7.96669 -0.000414531 0)
(7.96617 3.55832e-05 0)
(7.96568 0.000552144 0)
(7.96521 0.0011558 0)
(7.96478 0.00187439 0)
(7.96437 0.00274473 0)
(7.964 0.00381509 0)
(7.96367 0.00514859 0)
(7.9634 0.00682764 0)
(7.9632 0.0089598 0)
(7.9631 0.0116856 0)
(7.96311 0.0151888 0)
(7.96329 0.0197099 0)
(7.96366 0.025564 0)
(7.96429 0.0331647 0)
(7.96523 0.0430556 0)
(7.96658 0.0559527 0)
(7.9684 0.072801 0)
(7.97077 0.0948515 0)
(7.97374 0.123766 0)
(7.97729 0.161758 0)
(7.98125 0.211793 0)
(7.98513 0.277858 0)
(7.9879 0.365344 0)
(7.9875 0.481555 0)
(7.97993 0.636502 0)
(7.95799 0.84366 0)
(7.90783 1.12202 0)
(7.80614 1.49522 0)
(7.60591 2.00083 0)
(7.23299 2.66449 0)
(6.53734 3.5726 0)
(5.28076 4.56076 0)
(2.73382 5.72082 0)
(8.7743 -0.000274014 0)
(8.7743 -0.00078405 0)
(8.77435 -0.00119003 0)
(8.77387 -0.00145869 0)
(8.7731 -0.00160085 0)
(8.77233 -0.00164222 0)
(8.77163 -0.00160131 0)
(8.77095 -0.00149035 0)
(8.77027 -0.00132151 0)
(8.76961 -0.00110653 0)
(8.76898 -0.000853364 0)
(8.76839 -0.000565159 0)
(8.76785 -0.000240957 0)
(8.76734 0.000123798 0)
(8.76689 0.000537598 0)
(8.76648 0.00101355 0)
(8.76614 0.00157018 0)
(8.76588 0.00223257 0)
(8.7657 0.00303394 0)
(8.76564 0.00401795 0)
(8.76572 0.00524173 0)
(8.76598 0.00677999 0)
(8.76648 0.0087304 0)
(8.7673 0.0112207 0)
(8.76851 0.0144185 0)
(8.77024 0.0185436 0)
(8.77266 0.023885 0)
(8.77595 0.0308241 0)
(8.7804 0.039865 0)
(8.78633 0.0516765 0)
(8.79419 0.0671502 0)
(8.80452 0.0874803 0)
(8.81803 0.114276 0)
(8.83558 0.149724 0)
(8.8582 0.196818 0)
(8.88713 0.259699 0)
(8.92369 0.344174 0)
(8.96923 0.458443 0)
(9.02447 0.614426 0)
(9.08959 0.829132 0)
(9.15948 1.12936 0)
(9.23025 1.55108 0)
(9.25742 2.16724 0)
(9.25184 3.04725 0)
(8.82034 4.48585 0)
(8.57601 6.69915 0)
(2.9363 11.9698 0)
(9.37435 -0.000163646 0)
(9.37437 -0.000470192 0)
(9.37447 -0.00071692 0)
(9.37406 -0.000879586 0)
(9.37336 -0.000957866 0)
(9.37266 -0.000964265 0)
(9.372 -0.000910849 0)
(9.37134 -0.000806213 0)
(9.37068 -0.000658043 0)
(9.37004 -0.000473591 0)
(9.36943 -0.00025798 0)
(9.36887 -1.31531e-05 0)
(9.36836 0.000262004 0)
(9.3679 0.000571412 0)
(9.36751 0.00092202 0)
(9.36719 0.00132435 0)
(9.36697 0.00179318 0)
(9.36686 0.00234847 0)
(9.3669 0.0030167 0)
(9.36711 0.00383262 0)
(9.36754 0.00484176 0)
(9.36827 0.00610369 0)
(9.36938 0.00769636 0)
(9.37098 0.00972192 0)
(9.37321 0.0123144 0)
(9.37628 0.0156504 0)
(9.38043 0.0199623 0)
(9.38601 0.0255583 0)
(9.39344 0.0328472 0)
(9.40331 0.0423751 0)
(9.41636 0.054875 0)
(9.43358 0.0713376 0)
(9.45627 0.0931137 0)
(9.48614 0.122063 0)
(9.52542 0.160778 0)
(9.57707 0.212918 0)
(9.64495 0.283739 0)
(9.73426 0.380905 0)
(9.85133 0.515893 0)
(10.0062 0.705931 0)
(10.206 0.978832 0)
(10.4816 1.37584 0)
(10.8044 1.97877 0)
(11.4003 2.88162 0)
(11.8116 4.45628 0)
(14.4041 6.51954 0)
(14.7312 12.9038 0)
(9.77438 -7.10904e-05 0)
(9.77441 -0.000203023 0)
(9.77453 -0.000303377 0)
(9.77417 -0.000358196 0)
(9.77353 -0.000364949 0)
(9.77287 -0.000328801 0)
(9.77224 -0.000256076 0)
(9.77161 -0.00015154 0)
(9.77098 -1.92226e-05 0)
(9.77036 0.000137124 0)
(9.76978 0.000314787 0)
(9.76925 0.000512815 0)
(9.76877 0.000732126 0)
(9.76836 0.000975434 0)
(9.76803 0.00124738 0)
(9.76779 0.00155487 0)
(9.76767 0.00190757 0)
(9.76769 0.00231847 0)
(9.76789 0.00280479 0)
(9.76831 0.0033891 0)
(9.76903 0.00410095 0)
(9.77011 0.00497897 0)
(9.77167 0.00607369 0)
(9.77386 0.00745135 0)
(9.77685 0.00919898 0)
(9.78091 0.0114311 0)
(9.78635 0.0142992 0)
(9.7936 0.018004 0)
(9.80323 0.0228129 0)
(9.816 0.0290846 0)
(9.83288 0.0373025 0)
(9.85521 0.0481245 0)
(9.88474 0.0624539 0)
(9.92386 0.0815466 0)
(9.97575 0.107171 0)
(10.0448 0.141862 0)
(10.1371 0.189306 0)
(10.261 0.255007 0)
(10.4284 0.347248 0)
(10.6573 0.479115 0)
(10.9707 0.670569 0)
(11.4179 0.95531 0)
(12.0351 1.38339 0)
(13.0269 2.02798 0)
(14.349 3.04298 0)
(16.8607 4.15591 0)
(20.078 6.55536 0)
(9.97439 1.18995e-05 0)
(9.97443 3.82494e-05 0)
(9.97457 7.49976e-05 0)
(9.97423 0.000126378 0)
(9.97362 0.00019369 0)
(9.97298 0.000275836 0)
(9.97238 0.00037104 0)
(9.97178 0.000477967 0)
(9.97117 0.000595561 0)
(9.97057 0.000722874 7.84321e-33)
(9.97002 0.000859289 0)
(9.96951 0.00100478 0)
(9.96907 0.00115997 0)
(9.9687 0.00132615 0)
(9.96842 0.00150527 0)
(9.96824 0.00170012 7.84198e-33)
(9.96819 0.00191442 0)
(9.9683 0.00215312 0)
(9.96862 0.00242263 0)
(9.96918 0.00273126 0)
(9.97006 0.00308977 0)
(9.97136 0.00351213 0)
(9.9732 0.00401648 0)
(9.97572 0.00462651 -7.82887e-33)
(9.97916 0.00537322 0)
(9.98377 0.00629734 0)
(9.98993 0.00745263 0)
(9.99811 0.00891035 0)
(10.009 0.0107655 0)
(10.0233 0.0131456 0)
(10.0423 0.016223 0)
(10.0674 0.020233 0)
(10.1006 0.0255 0)
(10.1448 0.0324772 0)
(10.2036 0.0418069 0)
(10.2822 0.0544166 0)
(10.388 0.071664 0)
(10.5313 0.0956068 0)
(10.7271 0.12933 0)
(10.9978 0.177885 0)
(11.3765 0.248501 0)
(11.9132 0.354566 -6.04518e-33)
(12.6833 0.509616 0)
(13.7803 0.739669 0)
(15.3684 1.04008 0)
(17.4366 1.30735 0)
(20.3537 1.50839 0)
(9.97439 9.11634e-05 0)
(9.97443 0.000269127 0)
(9.97457 0.00043833 0)
(9.97425 0.000593612 0)
(9.97364 0.000734117 0)
(9.97302 0.000861711 0)
(9.97243 0.000978648 0)
(9.97184 0.00108687 0)
(9.97125 0.00118817 0)
(9.97068 0.00128426 -7.84271e-33)
(9.97015 0.00137659 0)
(9.96967 0.00146607 0)
(9.96926 0.00155302 0)
(9.96892 0.0016372 0)
(9.96867 0.00171773 0)
(9.96853 0.001793 -7.84168e-33)
(9.96853 0.00186053 0)
(9.96869 0.0019167 0)
(9.96905 0.00195655 0)
(9.96966 0.00197334 0)
(9.97061 0.00195801 0)
(9.97197 0.00189849 0)
(9.97387 0.00177878 0)
(9.97647 0.00157761 7.83056e-33)
(9.97998 0.00126683 0)
(9.98468 0.000809029 0)
(9.99093 0.000154531 0)
(9.99922 -0.000762896 0)
(10.0102 -0.00203185 0)
(10.0246 -0.00377148 0)
(10.0437 -0.00614299 0)
(10.069 -0.00936636 0)
(10.1024 -0.0137447 0)
(10.1468 -0.0197011 0)
(10.2058 -0.0278337 0)
(10.2848 -0.0390047 0)
(10.3909 -0.0544729 0)
(10.5347 -0.0761422 0)
(10.7313 -0.106853 0)
(11.003 -0.151251 0)
(11.3834 -0.215889 0)
(11.9227 -0.31291 6.04975e-33)
(12.6976 -0.453805 0)
(13.8016 -0.659869 0)
(15.4041 -0.92104 0)
(17.4846 -1.11306 0)
(20.4301 -1.20231 0)
(9.77438 0.000171883 0)
(9.77442 0.000503611 0)
(9.77455 0.000805386 0)
(9.77422 0.00106229 0)
(9.7736 0.0012722 0)
(9.77297 0.00144103 0)
(9.77238 0.00157557 0)
(9.7718 0.0016812 0)
(9.77123 0.00176263 0)
(9.77067 0.0018244 0)
(9.77017 0.00187001 0)
(9.76971 0.0019013 0)
(9.76933 0.00191827 0)
(9.76901 0.00191922 0)
(9.76879 0.00190056 0)
(9.76867 0.00185653 0)
(9.76868 0.00177869 0)
(9.76883 0.0016553 0)
(9.76918 0.00147058 0)
(9.76977 0.00120344 0)
(9.77066 0.000825989 0)
(9.77193 0.000301399 0)
(9.77369 -0.000418843 0)
(9.77609 -0.0013987 0)
(9.77932 -0.00272252 0)
(9.78363 -0.00450182 0)
(9.78935 -0.00688428 0)
(9.7969 -0.0100661 0)
(9.80686 -0.0143092 0)
(9.81999 -0.0199648 0)
(9.83727 -0.0275067 0)
(9.86005 -0.0375798 0)
(9.89009 -0.05107 0)
(9.9298 -0.0692083 0)
(9.98241 -0.0937283 0)
(10.0523 -0.127114 0)
(10.1457 -0.172976 0)
(10.2711 -0.236712 0)
(10.4405 -0.326431 0)
(10.6723 -0.454975 0)
(10.99 -0.641876 0)
(11.4444 -0.920272 0)
(12.0735 -1.33907 0)
(13.0865 -1.96941 0)
(14.4482 -2.96389 0)
(17.0239 -4.02608 0)
(20.3771 -6.36878 0)
(9.37435 0.000259912 0)
(9.37438 0.000757249 0)
(9.3745 0.00119637 0)
(9.37413 0.001552 0)
(9.37348 0.00182415 0)
(9.37283 0.00202603 0)
(9.37223 0.00217016 0)
(9.37166 0.00226572 0)
(9.3711 0.00232106 0)
(9.37056 0.00234418 0)
(9.37007 0.00234096 0)
(9.36965 0.00231418 0)
(9.36928 0.00226362 0)
(9.36899 0.00218632 0)
(9.36877 0.00207634 0)
(9.36865 0.00192424 0)
(9.36864 0.00171638 0)
(9.36876 0.001434 0)
(9.36904 0.00105195 0)
(9.36952 0.000536859 0)
(9.37025 -0.000155306 0)
(9.37129 -0.00108247 0)
(9.37273 -0.00232077 0)
(9.37469 -0.00397035 0)
(9.37731 -0.00616302 0)
(9.3808 -0.00907258 0)
(9.38541 -0.0129287 0)
(9.39147 -0.0180357 0)
(9.39945 -0.0247984 0)
(9.4099 -0.0337572 0)
(9.4236 -0.0456385 0)
(9.44156 -0.0614244 0)
(9.46507 -0.0824543 0)
(9.49589 -0.110573 0)
(9.5363 -0.148353 0)
(9.5893 -0.199427 0)
(9.65886 -0.26902 0)
(9.75033 -0.364749 0)
(9.87027 -0.498046 0)
(10.0292 -0.686092 0)
(10.2347 -0.956699 0)
(10.5193 -1.35118 0)
(10.8547 -1.95205 0)
(11.4781 -2.85351 0)
(11.9197 -4.43677 0)
(14.6414 -6.50006 0)
(15.0706 -13.011 0)
(8.7743 0.000363521 0)
(8.77431 0.00105093 0)
(8.7744 0.00163585 0)
(8.77396 0.00208386 0)
(8.77325 0.00240602 0)
(8.77257 0.0026287 0)
(8.77196 0.00277084 0)
(8.7714 0.0028452 0)
(8.77084 0.00286459 0)
(8.77033 0.00284143 0)
(8.76987 0.00278441 0)
(8.76947 0.00269746 0)
(8.76913 0.00258044 0)
(8.76885 0.00242969 0)
(8.76865 0.00223765 0)
(8.76851 0.0019922 0)
(8.76846 0.00167586 0)
(8.76852 0.00126466 0)
(8.76868 0.00072652 0)
(8.76899 1.90309e-05 0)
(8.76947 -0.000913661 0)
(8.77017 -0.00214482 0)
(8.77114 -0.00377063 0)
(8.77245 -0.00591722 0)
(8.7742 -0.00875031 0)
(8.77651 -0.0124878 0)
(8.77955 -0.0174167 0)
(8.78353 -0.0239159 0)
(8.78871 -0.032487 0)
(8.79546 -0.043796 0)
(8.8042 -0.0587312 0)
(8.81552 -0.0784834 0)
(8.83013 -0.104659 0)
(8.84893 -0.139439 0)
(8.87301 -0.185817 0)
(8.90366 -0.247934 0)
(8.9423 -0.331605 0)
(8.99042 -0.445053 0)
(9.04895 -0.600261 0)
(9.1184 -0.814355 0)
(9.19405 -1.11445 0)
(9.27296 -1.53696 0)
(9.31071 -2.15651 0)
(9.3223 -3.04384 0)
(8.90433 -4.50392 0)
(8.70418 -6.76098 0)
(2.96928 -12.2033 0)
(7.97423 0.000496597 0)
(7.97419 0.00141735 0)
(7.97422 0.00215758 0)
(7.97368 0.00268148 0)
(7.97289 0.00303049 0)
(7.97216 0.00325381 0)
(7.97154 0.00337776 0)
(7.97098 0.00341887 0)
(7.97044 0.00339548 0)
(7.96996 0.00332468 0)
(7.96954 0.00321735 0)
(7.96918 0.00307792 0)
(7.96887 0.00290619 0)
(7.96861 0.00269801 0)
(7.96841 0.00244478 0)
(7.96826 0.00213275 0)
(7.96817 0.00174219 0)
(7.96814 0.00124623 0)
(7.96817 0.000609042 0)
(7.96827 -0.000216638 0)
(7.96845 -0.00129288 0)
(7.96873 -0.00270096 0)
(7.96912 -0.00454728 0)
(7.96965 -0.00697113 0)
(7.97035 -0.010155 0)
(7.97125 -0.0143383 0)
(7.97242 -0.0198349 0)
(7.9739 -0.0270575 0)
(7.97577 -0.0365488 0)
(7.97812 -0.0490247 0)
(7.98104 -0.0654307 0)
(7.98463 -0.0870195 0)
(7.98894 -0.115456 0)
(7.994 -0.152963 0)
(7.99966 -0.202517 0)
(8.00551 -0.268128 0)
(8.01059 -0.355228 0)
(8.01294 -0.471189 0)
(8.00868 -0.626144 0)
(7.99084 -0.833775 0)
(7.94573 -1.11346 0)
(7.85029 -1.48944 0)
(7.65748 -2.00062 0)
(7.293 -2.67396 0)
(6.60506 -3.60087 0)
(5.35171 -4.61508 0)
(2.78457 -5.81038 0)
(6.97411 0.000685762 0)
(6.97399 0.00190916 0)
(6.97389 0.0028096 0)
(6.9732 0.0033801 0)
(6.9723 0.00372065 0)
(6.97153 0.00390813 0)
(6.97091 0.00397574 0)
(6.97037 0.00394786 0)
(6.96988 0.00385262 0)
(6.96945 0.0037131 0)
(6.96908 0.00354202 0)
(6.96878 0.00334408 0)
(6.96852 0.00311918 0)
(6.9683 0.00286299 0)
(6.96812 0.00256644 0)
(6.96796 0.00221503 0)
(6.96783 0.0017884 0)
(6.96771 0.00125898 0)
(6.9676 0.000590466 0)
(6.96748 -0.000264889 0)
(6.96735 -0.00136934 0)
(6.96718 -0.00280426 0)
(6.96696 -0.0046756 0)
(6.96665 -0.00712184 0)
(6.96622 -0.0103236 0)
(6.96562 -0.014517 0)
(6.96478 -0.0200103 0)
(6.96361 -0.0272065 0)
(6.96197 -0.0366319 0)
(6.95968 -0.0489744 0)
(6.95649 -0.0651321 0)
(6.95201 -0.0862789 0)
(6.9457 -0.113946 0)
(6.93675 -0.150131 0)
(6.92395 -0.197433 0)
(6.90545 -0.259225 0)
(6.8784 -0.339864 0)
(6.83838 -0.444914 0)
(6.77842 -0.581405 0)
(6.68758 -0.757861 0)
(6.54813 -0.984317 0)
(6.3327 -1.27054 0)
(5.99501 -1.62448 0)
(5.46877 -2.04074 0)
(4.63133 -2.49384 0)
(3.3501 -2.89882 0)
(1.24026 -3.20386 0)
(5.77391 0.000994901 0)
(5.77361 0.00260844 0)
(5.7733 0.00362612 0)
(5.77238 0.00418955 0)
(5.77135 0.00450138 0)
(5.77054 0.00464851 0)
(5.76995 0.00465674 0)
(5.76946 0.0045591 0)
(5.76905 0.00439565 0)
(5.76871 0.00419415 0)
(5.76845 0.00396731 0)
(5.76825 0.00371972 0)
(5.76809 0.0034519 0)
(5.76795 0.00316038 0)
(5.76784 0.00283692 0)
(5.76772 0.00246824 0)
(5.7676 0.00203566 0)
(5.76745 0.00151421 0)
(5.76724 0.000870916 0)
(5.76696 6.28057e-05 0)
(5.76657 -0.000966157 0)
(5.76601 -0.00228882 0)
(5.76524 -0.00400001 0)
(5.76416 -0.00622296 0)
(5.76269 -0.0091181 0)
(5.76068 -0.012894 0)
(5.75794 -0.0178218 0)
(5.75425 -0.0242533 0)
(5.74928 -0.0326448 0)
(5.7426 -0.0435856 0)
(5.73363 -0.0578357 0)
(5.72159 -0.0763705 0)
(5.70542 -0.100435 0)
(5.68363 -0.131604 0)
(5.65419 -0.171853 0)
(5.61423 -0.223614 0)
(5.55966 -0.289817 0)
(5.4847 -0.373855 0)
(5.38096 -0.479412 0)
(5.23645 -0.609947 0)
(5.0338 -0.767714 0)
(4.74864 -0.951237 0)
(4.34655 -1.15197 0)
(3.78489 -1.3442 0)
(3.00808 -1.48017 0)
(1.99624 -1.46297 0)
(0.719132 -1.20983 0)
(4.37352 0.00159655 0)
(4.37277 0.00373428 0)
(4.37212 0.00467938 0)
(4.37101 0.00500655 0)
(4.36994 0.00511577 0)
(4.36921 0.00509267 0)
(4.36875 0.00494524 0)
(4.36846 0.00471498 0)
(4.36829 0.0044503 0)
(4.36822 0.00417695 0)
(4.36824 0.00390179 0)
(4.36833 0.00362524 0)
(4.36846 0.00334546 0)
(4.36862 0.00305779 0)
(4.36878 0.00275372 0)
(4.36893 0.00242117 0)
(4.36904 0.00204408 0)
(4.3691 0.00160191 0)
(4.36905 0.00106805 0)
(4.36886 0.000408432 0)
(4.36847 -0.000420829 0)
(4.36782 -0.00147615 0)
(4.3668 -0.00283095 0)
(4.3653 -0.00458018 0)
(4.36315 -0.00684716 0)
(4.36014 -0.00979115 0)
(4.356 -0.0136182 0)
(4.35037 -0.0185934 0)
(4.34276 -0.025057 0)
(4.33256 -0.0334431 0)
(4.31893 -0.0443019 0)
(4.30078 -0.0583231 0)
(4.27666 -0.076361 0)
(4.24464 -0.0994521 0)
(4.20213 -0.128821 0)
(4.1457 -0.165852 0)
(4.07072 -0.212004 0)
(3.97101 -0.268614 0)
(3.83832 -0.336523 0)
(3.66184 -0.415398 0)
(3.42773 -0.502647 0)
(3.11946 -0.591564 0)
(2.71879 -0.669033 0)
(2.21244 -0.711465 0)
(1.59511 -0.684344 0)
(0.920607 -0.539882 0)
(0.253983 -0.317817 0)
(2.77277 0.00267107 0)
(2.77106 0.00575784 0)
(2.77022 0.00672848 0)
(2.76965 0.00681453 0)
(2.76956 0.00665927 0)
(2.76999 0.00636561 0)
(2.7708 0.00594884 0)
(2.77183 0.00547033 0)
(2.773 0.00498826 0)
(2.77426 0.00452811 0)
(2.77557 0.00409498 0)
(2.77689 0.00368848 0)
(2.7782 0.00330669 0)
(2.77947 0.00294502 0)
(2.78068 0.0025961 0)
(2.7818 0.00225004 0)
(2.78281 0.0018948 0)
(2.78368 0.00151555 0)
(2.78436 0.00109407 0)
(2.7848 0.000607296 0)
(2.78494 2.62933e-05 0)
(2.78469 -0.000685145 0)
(2.78395 -0.00157223 0)
(2.78256 -0.00269322 0)
(2.78033 -0.00412292 0)
(2.77701 -0.00595759 0)
(2.77226 -0.00831983 0)
(2.76565 -0.0113659 0)
(2.75661 -0.0152925 0)
(2.74441 -0.0203458 0)
(2.72808 -0.0268285 0)
(2.70637 -0.0351064 0)
(2.67768 -0.0456073 0)
(2.63992 -0.0588112 0)
(2.59043 -0.0752165 0)
(2.52583 -0.0952733 0)
(2.4419 -0.119255 0)
(2.33351 -0.147045 0)
(2.19458 -0.177801 0)
(2.01842 -0.209474 0)
(1.7984 -0.238246 0)
(1.5297 -0.257968 0)
(1.21229 -0.260347 0)
(0.856883 -0.235209 0)
(0.489487 -0.172156 0)
(0.194311 -0.0530047 0)
(0.01641 0.0535649 0)
(0.977194 0.0031025 0)
(0.98296 0.00553017 0)
(0.989387 0.0053762 0)
(0.995658 0.00455838 0)
(1.00139 0.00379961 0)
(1.00656 0.0031387 0)
(1.0112 0.00254566 0)
(1.0153 0.00203833 0)
(1.01891 0.00162712 0)
(1.02208 0.00129893 0)
(1.02485 0.0010344 0)
(1.02728 0.0008186 0)
(1.02941 0.000640869 0)
(1.03127 0.000492087 0)
(1.03287 0.000363931 0)
(1.03425 0.000248725 0)
(1.03539 0.000139384 0)
(1.03629 2.87967e-05 0)
(1.03695 -9.0564e-05 0)
(1.03733 -0.000227687 0)
(1.03739 -0.000393398 0)
(1.03704 -0.000599662 0)
(1.03621 -0.000859724 0)
(1.03476 -0.00119056 0)
(1.03254 -0.00161406 0)
(1.02932 -0.00215821 0)
(1.02483 -0.0028577 0)
(1.01869 -0.00375547 0)
(1.01044 -0.00490302 0)
(0.999481 -0.00636117 0)
(0.98506 -0.00819792 0)
(0.966241 -0.0104849 0)
(0.94188 -0.0132873 0)
(0.910611 -0.0166473 0)
(0.870853 -0.0205535 0)
(0.820868 -0.0248959 0)
(0.758889 -0.0293967 0)
(0.683367 -0.0335261 0)
(0.5934 -0.0364171 0)
(0.489402 -0.0368462 0)
(0.374029 -0.0334626 0)
(0.253271 -0.0255048 0)
(0.136622 -0.0140795 0)
(0.0349908 -0.00192494 0)
(-0.0405909 0.0110859 0)
(-0.0649245 0.0384226 0)
(-0.0356636 0.0552674 0)
(18.475 10.1604 0)
(15.9735 6.00273 0)
(11.3775 3.24905 0)
(8.87552 1.68102 0)
(8.18134 0.747351 0)
(7.72891 0.189789 0)
(24.6324 5.4474 0)
(26.4775 3.49785 0)
(26.4822 2.52979 0)
(26.1903 2.1395 0)
(26.0131 1.88143 0)
(25.7588 1.69782 0)
(23.8616 0.822131 0)
(26.6245 0.244807 0)
(28.1282 0.210806 0)
(28.8929 0.395886 0)
(29.4083 0.558219 0)
(29.7677 0.702044 0)
(23.951 -0.302739 0)
(26.6869 0.545508 0)
(28.1374 0.850379 0)
(28.8434 0.924588 0)
(29.3448 1.02942 0)
(29.7377 1.1885 0)
(25.0517 -4.94488 0)
(27.0427 -2.57321 0)
(27.3652 -1.26326 0)
(27.5784 -0.628642 0)
(28.0193 -0.145751 0)
(28.4231 0.279952 0)
(19.1637 -10.2511 0)
(17.1993 -6.07087 0)
(13.3198 -3.33215 0)
(11.5774 -1.7752 0)
(11.7002 -0.77332 0)
(12.31 -0.0472051 0)
(-0.0018408 0.00140541 0)
(-0.0232824 0.00542205 0)
(-0.0612103 0.0110986 0)
(-0.114799 0.0181384 0)
(-0.172442 0.0224975 0)
(-0.209055 0.0169508 0)
(-0.198967 -8.26533e-05 0)
(-0.138886 -0.0186154 0)
(-0.0532213 -0.023495 0)
(0.0185826 -0.0112337 0)
(0.0468396 0.0021473 0)
(0.038495 0.00603081 0)
(0.0202233 0.00460782 0)
(0.00385968 0.00354025 0)
(-0.0118441 0.00349543 0)
(-0.0280283 0.00394615 0)
(-0.0436337 0.00409757 0)
(-0.0563182 0.00342819 0)
(-0.0644523 0.00217472 0)
(-0.0685906 0.00105718 0)
(-0.0709214 0.000557743 0)
(-0.073549 0.000659902 0)
(-0.0773342 0.00104156 0)
(-0.0817762 0.00128769 0)
(-0.0856661 0.0011723 0)
(-0.0880809 0.000805221 0)
(-0.0888996 0.000426132 0)
(-0.0884936 0.00014454 0)
(-0.0871891 -8.26924e-05 0)
(-0.0850908 -0.000313835 0)
(-0.0822697 -0.000535203 0)
(-0.0789121 -0.000701619 0)
(-0.0752631 -0.000804073 0)
(-0.0715159 -0.000863221 0)
(-0.0678095 -0.000887542 0)
(-0.0642854 -0.000868338 0)
(-0.0610941 -0.000801691 0)
(-0.0583482 -0.000700751 0)
(-0.0560862 -0.000586663 0)
(-0.054285 -0.000474974 0)
(-0.0528989 -0.000368867 0)
(-0.0519006 -0.000269006 0)
(-0.0512981 -0.000168939 0)
(-0.0511909 -1.97972e-05 0)
(-0.052053 0.000314796 0)
(-0.0548063 0.00115634 0)
(-0.0572154 0.00174736 0)
(-0.014685 0.0313077 0)
(-0.0880825 0.0641466 0)
(-0.186674 0.0899668 0)
(-0.298068 0.102894 0)
(-0.394923 0.0852419 0)
(-0.443418 0.0267287 0)
(-0.422087 -0.058029 0)
(-0.329721 -0.130826 0)
(-0.187014 -0.148147 0)
(-0.0429656 -0.0949844 0)
(0.0442057 -0.0172056 0)
(0.0481846 0.0259595 0)
(0.0128379 0.0334159 0)
(-0.0275324 0.0321324 0)
(-0.069143 0.0315144 0)
(-0.11002 0.0310907 0)
(-0.146311 0.0278533 0)
(-0.173398 0.0207777 0)
(-0.189404 0.0124841 0)
(-0.197179 0.00683463 0)
(-0.202164 0.00535411 0)
(-0.20853 0.00669548 0)
(-0.21732 0.00844275 0)
(-0.226897 0.00855904 0)
(-0.234563 0.00651917 0)
(-0.238604 0.0034263 0)
(-0.239154 0.000641954 0)
(-0.237278 -0.00137939 0)
(-0.233747 -0.00294434 0)
(-0.228796 -0.00434759 0)
(-0.222579 -0.00551647 0)
(-0.215499 -0.0062647 0)
(-0.208057 -0.00659844 0)
(-0.200614 -0.00664572 0)
(-0.193402 -0.00645659 0)
(-0.186673 -0.00600496 0)
(-0.180712 -0.00530381 0)
(-0.175727 -0.00445501 0)
(-0.171766 -0.00358884 0)
(-0.168751 -0.00278761 0)
(-0.166562 -0.00205586 0)
(-0.165114 -0.0013488 0)
(-0.164381 -0.000584767 0)
(-0.164356 0.000432987 0)
(-0.165867 0.00213174 0)
(-0.17028 0.004256 0)
(-0.165049 0.00362292 0)
(-0.0269299 0.0991762 0)
(-0.140887 0.1703 0)
(-0.268818 0.208148 0)
(-0.398476 0.212514 0)
(-0.508245 0.160998 0)
(-0.574334 0.0449712 0)
(-0.576962 -0.112337 0)
(-0.504456 -0.256871 0)
(-0.358824 -0.314414 0)
(-0.179827 -0.234488 0)
(-0.042651 -0.0720759 0)
(-0.0162667 0.0407383 0)
(-0.0563456 0.0713121 0)
(-0.10724 0.0782933 0)
(-0.165625 0.0805649 0)
(-0.225279 0.0780936 0)
(-0.277425 0.0667713 0)
(-0.313833 0.0469234 0)
(-0.331781 0.0259774 0)
(-0.336907 0.0130336 0)
(-0.33906 0.0107133 0)
(-0.345068 0.0145537 0)
(-0.355993 0.0185068 0)
(-0.368672 0.0182085 0)
(-0.378405 0.0128673 0)
(-0.382426 0.00538898 0)
(-0.381425 -0.000940776 0)
(-0.377624 -0.00519037 0)
(-0.37235 -0.00831068 0)
(-0.365677 -0.0111228 0)
(-0.357514 -0.013466 0)
(-0.348348 -0.0148566 0)
(-0.338934 -0.0153069 0)
(-0.329728 -0.0151502 0)
(-0.320928 -0.0145117 0)
(-0.312805 -0.0133099 0)
(-0.305754 -0.0115622 0)
(-0.300074 -0.0095107 0)
(-0.295807 -0.00746968 0)
(-0.292776 -0.00563481 0)
(-0.290746 -0.00402294 0)
(-0.289532 -0.00254793 0)
(-0.288982 -0.00110312 0)
(-0.288934 0.000511941 0)
(-0.289869 0.00251318 0)
(-0.292933 0.00429168 0)
(-0.28817 0.00344108 0)
(-0.0324839 0.190569 0)
(-0.157592 0.293972 0)
(-0.272807 0.33078 0)
(-0.379483 0.322494 0)
(-0.475129 0.245153 0)
(-0.551239 0.0842728 0)
(-0.5918 -0.143069 0)
(-0.578274 -0.377073 0)
(-0.486822 -0.515907 0)
(-0.322574 -0.441225 0)
(-0.135683 -0.171541 0)
(-0.0808013 0.0571758 0)
(-0.136681 0.119593 0)
(-0.203779 0.139718 0)
(-0.280755 0.147709 0)
(-0.359153 0.142188 0)
(-0.426613 0.117577 0)
(-0.469951 0.0768066 0)
(-0.483364 0.0356299 0)
(-0.476359 0.012564 0)
(-0.467842 0.0118281 0)
(-0.470432 0.0221822 0)
(-0.484242 0.0313802 0)
(-0.502683 0.0316079 0)
(-0.516903 0.0213794 0)
(-0.521695 0.00696771 0)
(-0.518879 -0.00435161 0)
(-0.513289 -0.010716 0)
(-0.507415 -0.0147937 0)
(-0.500693 -0.0188375 0)
(-0.492168 -0.0225598 0)
(-0.48234 -0.0246772 0)
(-0.47247 -0.0250555 0)
(-0.46315 -0.0244667 0)
(-0.454351 -0.0232245 0)
(-0.446271 -0.0210892 0)
(-0.439496 -0.0179857 0)
(-0.434525 -0.0143548 0)
(-0.43139 -0.0108237 0)
(-0.429733 -0.00777874 0)
(-0.429132 -0.00525053 0)
(-0.429295 -0.00308589 0)
(-0.429995 -0.00113635 0)
(-0.430993 0.0008002 0)
(-0.432737 0.00298681 0)
(-0.436497 0.00495266 0)
(-0.434525 0.00453777 0)
(-0.0373319 0.292292 0)
(-0.147103 0.402771 0)
(-0.204376 0.417881 0)
(-0.238447 0.396826 0)
(-0.272844 0.316221 0)
(-0.318814 0.147837 0)
(-0.375398 -0.114487 0)
(-0.432884 -0.416358 0)
(-0.4506 -0.656149 0)
(-0.408053 -0.654309 0)
(-0.22325 -0.324066 0)
(-0.120955 0.0799504 0)
(-0.209039 0.191527 0)
(-0.300674 0.226306 0)
(-0.401016 0.236745 0)
(-0.504818 0.222089 0)
(-0.595358 0.177267 0)
(-0.648603 0.108145 0)
(-0.649971 0.0385148 0)
(-0.614556 0.000656705 0)
(-0.579534 0.00474437 0)
(-0.575037 0.0291547 0)
(-0.595755 0.0500092 0)
(-0.626658 0.0530158 0)
(-0.650853 0.0346051 0)
(-0.657586 0.00808351 0)
(-0.651043 -0.0104637 0)
(-0.642386 -0.0175282 0)
(-0.636916 -0.0206339 0)
(-0.63215 -0.0254935 0)
(-0.624723 -0.0313714 0)
(-0.615 -0.0346596 0)
(-0.605523 -0.034568 0)
(-0.597298 -0.0330959 0)
(-0.589702 -0.0311614 0)
(-0.58262 -0.0280787 0)
(-0.577009 -0.0233335 0)
(-0.573832 -0.0176325 0)
(-0.573138 -0.0121934 0)
(-0.574243 -0.00775417 0)
(-0.576401 -0.00433557 0)
(-0.579208 -0.00159902 0)
(-0.58244 0.000769205 0)
(-0.585849 0.00305551 0)
(-0.590024 0.00551809 0)
(-0.596498 0.00778814 0)
(-0.598657 0.00800841 0)
(-0.0690958 0.401158 0)
(-0.145746 0.438365 0)
(-0.087277 0.3925 0)
(-0.00174116 0.359975 0)
(0.0674368 0.299079 0)
(0.0893734 0.186879 0)
(0.0860268 0.0225749 0)
(0.0169038 -0.22015 0)
(-0.155102 -0.519331 0)
(-0.413935 -0.683792 0)
(-0.390718 -0.450758 0)
(-0.129223 0.0594665 0)
(-0.260248 0.240972 0)
(-0.397843 0.307504 0)
(-0.530828 0.336714 0)
(-0.665867 0.332298 0)
(-0.785164 0.278001 0)
(-0.856767 0.166199 0)
(-0.85267 0.0317525 0)
(-0.779611 -0.0487915 0)
(-0.675528 -0.0287699 0)
(-0.642351 0.0316719 0)
(-0.676622 0.0796681 0)
(-0.733122 0.0896187 0)
(-0.777488 0.0572836 0)
(-0.786504 0.00973883 0)
(-0.769571 -0.0203035 0)
(-0.753074 -0.0260159 0)
(-0.749838 -0.0246975 0)
(-0.750842 -0.0297837 0)
(-0.746305 -0.0395831 0)
(-0.736307 -0.0447319 0)
(-0.727198 -0.0429322 0)
(-0.721306 -0.0396476 0)
(-0.716232 -0.0372077 0)
(-0.71077 -0.033596 0)
(-0.706641 -0.0269077 0)
(-0.705937 -0.0182825 0)
(-0.708824 -0.0102235 0)
(-0.713935 -0.00415083 0)
(-0.719886 1.4464e-05 0)
(-0.726068 0.00310653 0)
(-0.732346 0.00583068 0)
(-0.738677 0.00857136 0)
(-0.745882 0.011409 0)
(-0.755649 0.0138863 0)
(-0.761904 0.0145458 0)
(0.228512 0.444513 0)