/*--------------------------------*- C++ -*----------------------------------*\
| =========                 |                                                 |
| \\      /  F ield         | OpenFOAM: The Open Source CFD Toolbox           |
|  \\    /   O peration     | Version:  2406                                  |
|   \\  /    A nd           | Website:  www.openfoam.com                      |
|    \\/     M anipulation  |                                                 |
\*---------------------------------------------------------------------------*/
FoamFile
{
    version     2.0;
    format      ascii;
    arch        "LSB;label=32;scalar=64";
    class       surfaceScalarField;
    location    "33";
    object      phi;
}
// * * * * * * * * * * * * * * * * * * * * * * * * * * * * * * * * * * * * * //

dimensions      [0 3 -1 0 0 0 0];

oriented        oriented;

internalField   nonuniform List<scalar> 
3680
(
0.0193739
-0.00037394
0.0198136
-0.000439596
0.0202133
-0.00039976
0.0206474
-0.000434045
0.0211806
-0.00053326
0.0218823
-0.000701641
0.0228737
-0.000991459
0.0243867
-0.00151296
0.0269932
-0.00260649
-0.00589475
0.0328879
0.0509681
-0.000341986
0.0512338
-0.000705377
0.051706
-0.000871923
0.0523359
-0.00106392
0.0531518
-0.00134922
0.0542127
-0.00176245
0.0556065
-0.00238527
0.0574636
-0.0033701
0.0598677
-0.00501055
-0.00794014
0.061913
0.0749727
-0.000314716
0.0750717
-0.00080436
0.0753671
-0.00116734
0.075843
-0.00153983
0.0764984
-0.00200457
0.077349
-0.00261302
0.0784075
-0.00344378
0.0796523
-0.00461492
0.0809241
-0.0062824
-0.00864329
0.0816273
0.0909786
-0.000293347
0.090983
-0.000808754
0.0910885
-0.0012728
0.0913064
-0.00175782
0.0916283
-0.00232637
0.0920424
-0.00302716
0.092519
-0.00392032
0.0929828
-0.00507878
0.0932721
-0.00657165
-0.00843768
0.0930665
0.0989597
-0.000253096
0.0988773
-0.000726274
0.0988077
-0.00120328
0.0987656
-0.00171564
0.0987359
-0.00229668
0.0986934
-0.00298461
0.0985937
-0.00382067
0.0983578
-0.00484281
0.0978594
-0.00607328
-0.00749724
0.096919
0.0989265
-0.000179568
0.0987499
-0.000549714
0.0985229
-0.00097627
0.0982538
-0.00144648
0.0979205
-0.00196341
0.0974915
-0.00255554
0.0969203
-0.00324941
0.0961376
-0.00406008
0.0950516
-0.00498722
-0.00600343
0.0935578
0.0908823
-6.18889e-05
0.0906167
-0.000284068
0.0902712
-0.000630706
0.0898399
-0.00101516
0.0892925
-0.00141602
0.0885952
-0.00185813
0.0877039
-0.00235815
0.0865625
-0.00291859
0.0851072
-0.0035319
-0.00417487
0.0832787
0.0748279
0.000110262
0.0745255
1.82976e-05
0.0741538
-0.000258975
0.0736725
-0.000533759
0.073045
-0.000788447
0.0722406
-0.0010537
0.0712231
-0.00134057
0.0699521
-0.00164761
0.0683895
-0.00196921
-0.00229255
0.0665072
0.0508166
0.00029372
0.0506532
0.000181685
0.0504158
-2.15346e-05
0.050036
-0.000153933
0.0495
-0.00025238
0.0487941
-0.000347775
0.0478988
-0.000445178
0.0467944
-0.0005432
0.0454658
-0.000640556
-0.000734028
0.0439073
0.0192937
0.0194754
0.0194539
0.0193
0.0190476
0.0186998
0.0182546
0.0177115
0.0170709
0.0163369
-0.000137733
0.00013772
-0.000507506
0.000369742
-0.000975835
0.000468299
-0.00142981
0.00045395
-0.00180512
0.000375276
-0.00207038
0.000265233
-0.00221386
0.000143449
-0.00223518
2.12938e-05
-0.00214069
-9.45019e-05
-0.00194099
-0.000199714
-0.00164948
-0.000291506
-0.00128138
-0.00036809
-0.00085281
-0.000428541
-0.000380045
-0.000472724
0.000121169
-0.000501158
0.000636152
-0.000514912
0.00115171
-0.000515479
0.0016565
-0.000504686
0.00214114
-0.000484527
0.00259829
-0.000457029
0.00302258
-0.000424156
0.00341045
-0.000387732
0.00375997
-0.000349376
0.00407059
-0.000310473
0.00434289
-0.000272159
0.00457836
-0.000235325
0.00477912
-0.000200626
0.00494777
-0.000168514
0.00508715
-0.000139261
0.00520025
-0.00011299
0.00529005
-8.97055e-05
0.00535946
-6.93256e-05
0.00541123
-5.16988e-05
0.00544791
-3.66338e-05
-2.391e-05
0.00547186
-0.000403862
0.000541553
-0.0012342
0.0012
-0.00220222
0.00143624
-0.00310058
0.00135223
-0.00380456
0.00107919
-0.00425215
0.00071275
-0.0044221
0.000313343
-0.00431818
-8.26684e-05
-0.00395897
-0.000453736
-0.00337206
-0.000786627
-0.00259024
-0.0010733
-0.00164899
-0.0013093
-0.000584472
-0.00149297
0.000567812
-0.00162489
0.00177411
-0.00170731
0.00300356
-0.00174417
0.00422885
-0.00174054
0.00542653
-0.00170212
0.00657724
-0.00163496
0.00766569
-0.00154518
0.00868053
-0.00143867
0.00961401
-0.00132088
0.0104617
-0.00119669
0.0112218
-0.0010703
0.0118952
-0.000945201
0.0124844
-0.000824192
0.0129935
-0.000709391
0.0134276
-0.000602307
0.0137925
-0.000503917
0.0140945
-0.000414743
0.01434
-0.000334936
0.0145352
-0.000264358
0.0146863
-0.000202648
0.0147991
-0.000149291
-0.00010367
0.0148789
-0.000573701
0.00111522
-0.00164495
0.00227119
-0.00280265
0.00259388
-0.00379799
0.00234751
-0.00449442
0.00177557
-0.00483148
0.00104976
-0.0047969
0.000278724
-0.00440723
-0.000472368
-0.00369558
-0.0011654
-0.00270428
-0.00177792
-0.00148002
-0.00229754
-7.06692e-05
-0.0027186
0.00147652
-0.00304009
0.00311659
-0.00326485
0.00480826
-0.00339886
0.00651444
-0.00345021
0.00820266
-0.0034286
0.00984542
-0.00334467
0.0114201
-0.00320946
0.0129091
-0.00303391
0.0142992
-0.00282849
0.0155814
-0.00260283
0.0167505
-0.00236556
0.0178047
-0.00212416
0.0187446
-0.00188487
0.0195734
-0.00165273
0.0202959
-0.00143162
0.0209182
-0.00122438
0.0214474
-0.00103291
0.0218912
-0.000858296
0.0222574
-0.000700969
0.0225541
-0.00056082
0.0227889
-0.000437324
0.0229694
-0.000329654
-0.000236771
0.0231026
-0.000646523
0.00176172
-0.00175244
0.00337705
-0.00282498
0.00366636
-0.00361203
0.00313451
-0.00400305
0.00216653
-0.00396742
0.00101408
-0.00351903
-0.000169693
-0.0026952
-0.00129622
-0.00154544
-0.00231517
-0.000124176
-0.00319918
0.0015132
-0.0039349
0.0033128
-0.00451816
0.00522412
-0.00495136
0.007201
-0.00524167
0.00920211
-0.00539987
0.0111913
-0.0054393
0.0131378
-0.00537496
0.0150161
-0.0052228
0.0168057
-0.00499892
0.018491
-0.00471908
0.0200608
-0.00439812
0.0215079
-0.00404966
0.0228283
-0.0036858
0.0240213
-0.003317
0.0250887
-0.00295202
0.0260341
-0.00259794
0.026863
-0.00226026
0.0275818
-0.00194301
0.028198
-0.00164895
0.0287196
-0.00137972
0.0291548
-0.00113601
0.0295119
-0.000917768
0.0297991
-0.000724344
0.0300242
-0.000554634
-0.000407218
0.0301947
-0.000643675
0.00240538
-0.0015785
0.00431181
-0.00228045
0.00436824
-0.00255143
0.00340543
-0.00234922
0.00196426
-0.00169825
0.000363058
-0.000650085
-0.0012179
0.000733476
-0.00267982
0.00238848
-0.0039702
0.00425313
-0.00506384
0.00626984
-0.00595161
0.0083862
-0.00663452
0.0105554
-0.00712056
0.0127365
-0.00742275
0.0148944
-0.00755765
0.0169994
-0.00754428
0.0190276
-0.00740306
0.0209599
-0.007155
0.0227819
-0.00682089
0.0244836
-0.00642065
0.0260585
-0.00597284
0.0275033
-0.00549429
0.0288174
-0.00499982
0.0300027
-0.00450216
0.0310627
-0.00401188
0.0320025
-0.00353752
0.032828
-0.00308568
0.0335464
-0.00266117
0.0341649
-0.00226729
0.0346913
-0.00190598
0.0351335
-0.00157806
0.0354992
-0.00128341
0.0357962
-0.00102123
0.0360318
-0.000790143
-0.000588379
0.0362131
-0.00056224
0.00296758
-0.00108193
0.00483143
-0.00107775
0.00436398
-0.000496735
0.00282434
0.000583697
0.00088376
0.00206659
-0.00111989
0.00386046
-0.00301182
0.00588387
-0.00470327
0.00806682
-0.00615319
0.0103497
-0.00734674
0.0126817
-0.00828366
0.0150199
-0.0089727
0.0173282
-0.00942885
0.0195769
-0.00967148
0.0217422
-0.009723
0.0238058
-0.00960777
0.0257538
-0.00935103
0.0275768
-0.00897805
0.0292694
-0.00851335
0.0308288
-0.00798001
0.0322553
-0.00739923
0.033551
-0.00678994
0.0347199
-0.00616865
0.0357672
-0.00554932
0.0366989
-0.00494346
0.0375217
-0.00436022
0.0382427
-0.00380656
0.0388691
-0.00328753
0.0394084
-0.00280644
0.0398677
-0.00236515
0.040254
-0.00196433
0.0405744
-0.00160365
0.0408352
-0.00128199
0.0410428
-0.000997675
-0.000748593
0.0412031
-0.000336493
0.00330405
-6.55577e-05
0.00456041
0.00108931
0.00320903
0.00289427
0.00101932
0.00511089
-0.00133293
0.00757619
-0.00358524
0.0101767
-0.00561242
0.0128313
-0.00735787
0.0154813
-0.0088033
0.0180838
-0.00994924
0.020606
-0.010806
0.0230233
-0.01139
0.0253171
-0.0117227
0.0274742
-0.0118286
0.0294861
-0.0117349
0.0313483
-0.01147
0.0330598
-0.0110625
0.0346224
-0.0105407
0.0360403
-0.00993127
0.0373195
-0.00925916
0.0384671
-0.00854683
0.0394912
-0.00781404
0.0404004
-0.00707774
0.0412032
-0.00635205
0.0419081
-0.00564838
0.0425236
-0.00497562
0.0430574
-0.00434035
0.0435171
-0.00374715
0.0439096
-0.00319887
0.0442414
-0.00269688
0.0445185
-0.00224136
0.0447464
-0.00183153
0.0449304
-0.00146586
0.045075
-0.00114227
-0.000858291
0.0451847
0.000233443
0.00307056
0.00202729
0.00276647
0.00494335
0.000292909
0.00831706
-0.00235445
0.0118023
-0.00481823
0.0152364
-0.00701941
0.0185364
-0.00891245
0.0216591
-0.0104807
0.0245831
-0.0117273
0.027298
-0.0126642
0.0297999
-0.0133079
0.032089
-0.0136792
0.0341687
-0.0138024
0.0360449
-0.0137049
0.0377261
-0.0134162
0.0392226
-0.0129665
0.0405463
-0.0123862
0.0417099
-0.0117044
0.0427271
-0.0109485
0.0436116
-0.0101437
0.0443768
-0.00931207
0.0450357
-0.008473
0.0456006
-0.00764263
0.0460827
-0.00683415
0.0464923
-0.00605793
0.0468384
-0.00532178
0.0471293
-0.00463122
0.047372
-0.00398984
0.0475727
-0.00339954
0.0477367
-0.00286086
0.0478686
-0.00237325
0.0479724
-0.0019353
0.0480515
-0.00154495
0.048109
-0.00119967
-0.000896624
0.0481473
0.00199184
0.00107868
0.00673367
-0.00197546
0.0119593
-0.00493278
0.0169121
-0.00730733
0.0214221
-0.00932825
0.0254728
-0.0110702
0.0290885
-0.0125282
0.0323019
-0.0136941
0.0351447
-0.0145702
0.0376461
-0.0151656
0.0398325
-0.0154944
0.0417288
-0.0155756
0.0433593
-0.0154328
0.0447473
-0.015093
0.0459164
-0.0145853
0.0468896
-0.0139398
0.0476895
-0.0131862
0.048338
-0.0123529
0.0488558
-0.0114664
0.0492622
-0.0105501
0.049575
-0.00962492
0.0498102
-0.00870822
0.0499819
-0.00781438
0.0501024
-0.00695473
0.0501823
-0.00613785
0.0502304
-0.00536988
0.0502539
-0.00465479
0.0502588
-0.00399477
0.0502498
-0.00339053
0.0502305
-0.00284157
0.0502037
-0.00234648
0.0501715
-0.00190315
0.0501355
-0.00150894
0.0500967
-0.0011609
-0.000855859
0.0500559
0.00988083
-0.00880222
0.0180396
-0.0101343
0.024549
-0.0114423
0.0299501
-0.0127084
0.0344888
-0.0138671
0.0383217
-0.0149031
0.0415625
-0.0157691
0.0442941
-0.0164259
0.0465792
-0.0168554
0.0484682
-0.0170547
0.0500049
-0.0170312
0.051229
-0.0167998
0.0521773
-0.0163813
0.0528849
-0.0158006
0.0533847
-0.0150852
0.0537081
-0.0142633
0.0538843
-0.0133625
0.0539404
-0.0124091
0.0539008
-0.0114268
0.0537874
-0.0104368
0.0536194
-0.00945701
0.0534132
-0.00850213
0.0531827
-0.00758392
0.0529392
-0.00671127
0.0526917
-0.00589048
0.0524474
-0.00512565
0.0522116
-0.004419
0.051988
-0.0037712
0.051779
-0.00318167
0.0515863
-0.00264887
0.0514103
-0.00217057
0.0512511
-0.00174398
0.0511081
-0.00136601
0.0509805
-0.00103335
-0.000742601
0.0508672
0.0357804
-0.0116948
0.039818
-0.014172
0.043691
-0.0153154
0.0471794
-0.0161969
0.0502228
-0.0169106
0.0527879
-0.0174682
0.0548864
-0.0178676
0.0565519
-0.0180915
0.0578233
-0.0181268
0.0587401
-0.0179716
0.0593424
-0.0176336
0.0596701
-0.0171276
0.0597627
-0.016474
0.0596582
-0.0156962
0.0593927
-0.0148199
0.0590002
-0.0138708
0.0585116
-0.012874
0.0579547
-0.0118523
0.057354
-0.0108262
0.0567304
-0.00981332
0.0561014
-0.00882809
0.0554812
-0.00788205
0.0548811
-0.00698387
0.0543094
-0.00613971
0.0537724
-0.00535349
0.0532738
-0.00462723
0.0528162
-0.00396143
0.0524002
-0.00335534
0.0520257
-0.00280725
0.0516915
-0.00231476
0.0513958
-0.00187495
0.0511364
-0.0014846
0.0509106
-0.0011403
0.0507158
-0.000838562
-0.000575912
0.050549
0.0621807
-0.0119625
0.0627538
-0.0147451
0.06373
-0.0162916
0.0648037
-0.0172706
0.0658016
-0.0179085
0.0666087
-0.0182754
0.0671606
-0.0184196
0.0674358
-0.0183667
0.0674386
-0.0181297
0.0671883
-0.0177213
0.0667125
-0.0171578
0.0660442
-0.0164594
0.0652186
-0.0156484
0.0642711
-0.0147487
0.0632359
-0.0137847
0.0621446
-0.0127796
0.0610256
-0.0117551
0.0599038
-0.0107305
0.0587999
-0.00972238
0.0577309
-0.00874436
0.0567099
-0.00780725
0.0557469
-0.00691912
0.0548486
-0.00608563
0.0540191
-0.00531028
0.0532603
-0.00459478
0.0525723
-0.00393935
0.0519538
-0.00334304
0.0514023
-0.00280399
0.0509147
-0.00231969
0.050487
-0.00188715
0.0501151
-0.00150311
0.0497945
-0.00116414
0.0495209
-0.000866749
0.0492897
-0.000607506
-0.000383052
0.0490968
0.0811876
-0.0115228
0.0803609
-0.0139184
0.0795788
-0.0155095
0.0788417
-0.0165335
0.0780895
-0.0171563
0.0772635
-0.0174494
0.0763147
-0.0174708
0.0752167
-0.0172687
0.0739651
-0.016878
0.0725709
-0.0163271
0.0710556
-0.0156425
0.0694468
-0.0148505
0.0677748
-0.0139764
0.0660707
-0.0130446
0.0643638
-0.0120778
0.0626806
-0.0110965
0.0610442
-0.0101186
0.0594733
-0.00915961
0.0579827
-0.00823182
0.0565832
-0.00734497
0.0552822
-0.00650625
0.0540835
-0.00572056
0.0529887
-0.00499085
0.0519967
-0.00431841
0.051105
-0.00370317
0.0503096
-0.00314401
0.0496055
-0.00263901
0.048987
-0.00218563
0.0484482
-0.00178096
0.0479827
-0.00142181
0.0475844
-0.00110489
0.0472471
-0.000826878
0.0469647
-0.000584478
0.0467316
-0.000374513
-0.000193938
0.0465424
0.092078
-0.0105342
0.0905572
-0.0123975
0.0888092
-0.0137614
0.08694
-0.0146644
0.0849768
-0.0151931
0.0829294
-0.0154019
0.0807991
-0.0153404
0.0785886
-0.0150582
0.0763089
-0.0145984
0.0739791
-0.0139972
0.0716235
-0.0132869
0.0692694
-0.0124963
0.0669445
-0.0116515
0.0646751
-0.0107753
0.0624849
-0.00988756
0.0603937
-0.00900522
0.0584172
-0.0081421
0.0565668
-0.00730923
0.05485
-0.00651503
0.0532706
-0.00576559
0.0518292
-0.00506493
0.050524
-0.00441535
0.0493508
-0.00381768
0.0483039
-0.00327162
0.0473766
-0.00277596
0.0465613
-0.00232881
0.04585
-0.00192779
0.0452345
-0.00157018
0.0447065
-0.00125308
0.0442581
-0.00097349
0.0438815
-0.000728397
0.0435694
-0.000514842
0.0433148
-0.000329965
0.0431112
-0.000171035
-3.54758e-05
0.0429527
0.0953917
-0.00900679
0.09336
-0.0103658
0.090997
-0.0113983
0.0884129
-0.0120803
0.0856707
-0.0124508
0.0828181
-0.0125493
0.0798942
-0.0124164
0.0769318
-0.0120957
0.0739623
-0.0116288
0.071017
-0.0110519
0.0681263
-0.0103961
0.0653183
-0.00968827
0.0626182
-0.00895134
0.0600473
-0.00820428
0.0576223
-0.00746251
0.0553554
-0.00673828
0.0532544
-0.00604102
0.0513228
-0.00537768
0.0495609
-0.00475311
0.0479658
-0.0041704
0.046532
-0.00363115
0.0452524
-0.00313582
0.0441186
-0.00268392
0.0431212
-0.00227427
0.0422503
-0.00190514
0.0414959
-0.00157446
0.0408479
-0.00127988
0.0402966
-0.00101893
0.0398325
-0.000789086
0.0394468
-0.000587814
0.0391309
-0.000412631
0.0388771
-0.00026115
0.0386782
-0.000131085
0.0385274
-2.02918e-05
7.32443e-05
0.0384186
0.0915841
-0.00703296
0.0891648
-0.00794647
0.0864032
-0.0086366
0.0833956
-0.00907255
0.0802174
-0.00927252
0.0769347
-0.00926652
0.0736062
-0.00908785
0.070283
-0.00877237
0.0670089
-0.00835462
0.0638218
-0.00786476
0.0607539
-0.00732806
0.0578311
-0.00676536
0.0550734
-0.00619353
0.052495
-0.00562582
0.0501049
-0.00507236
0.0479073
-0.00454066
0.0459024
-0.00403601
0.0440867
-0.00356196
0.0424542
-0.00312064
0.0409969
-0.00271303
0.039705
-0.00233926
0.038568
-0.00199878
0.0375745
-0.00169053
0.0367133
-0.00141309
0.0359729
-0.00116481
0.0353423
-0.00094386
0.0348107
-0.000748334
0.0343679
-0.000576294
0.0340046
-0.00042581
0.0337117
-0.000295002
0.0334811
-0.000182054
0.0333051
-8.52397e-05
0.0331768
-2.92627e-06
0.0330901
6.6405e-05
0.000124167
0.0330391
0.0810455
-0.00479969
0.078435
-0.00533588
0.0755222
-0.0057238
0.0723933
-0.00594354
0.0691276
-0.00600675
0.0657976
-0.00593644
0.062468
-0.00575818
0.0591938
-0.00549808
0.0560198
-0.00518053
0.0529813
-0.00482618
0.0501049
-0.00445162
0.0474095
-0.00406985
0.0449068
-0.00369083
0.042603
-0.00332193
0.0404991
-0.00296838
0.0385922
-0.00263375
0.0368765
-0.00232026
0.0353437
-0.00202914
0.0339839
-0.00176086
0.0327862
-0.00151532
0.0317389
-0.00129201
0.0308302
-0.00109013
0.0300483
-0.000908642
0.0293815
-0.000746399
0.0288188
-0.000602162
0.0283495
-0.000474643
0.0279637
-0.000362558
0.0276519
-0.000264627
0.0274057
-0.000179619
0.0272169
-0.000106332
0.0270785
-4.36403e-05
0.0269836
9.53827e-06
0.0269265
5.41929e-05
0.0269016
9.12679e-05
0.000121611
0.0269041
0.0643008
-0.00259322
0.0618028
-0.00283788
0.0590785
-0.00299943
0.0562054
-0.00307038
0.0532585
-0.00305975
0.0503049
-0.00298277
0.047402
-0.00285522
0.0445959
-0.00269196
0.0419215
-0.00250605
0.0394034
-0.002308
0.0370576
-0.00210579
0.0348931
-0.00190528
0.0329129
-0.00171065
0.0311158
-0.00152479
0.029497
-0.00134954
0.0280492
-0.00118598
0.0267635
-0.00103461
0.0256299
-0.000895537
0.0246376
-0.000768584
0.0237757
-0.000653378
0.023033
-0.000549415
0.0223989
-0.000456105
0.021863
-0.0003728
0.0214154
-0.000298831
0.0210467
-0.000233513
0.0207481
-0.000176171
0.0205116
-0.000126139
0.0203297
-8.27771e-05
0.0201955
-4.5467e-05
0.0201027
-1.36274e-05
0.0200457
1.32986e-05
0.0200194
3.58225e-05
0.0200191
5.44334e-05
0.0200408
6.95717e-05
8.16548e-05
0.0200807
0.0421306
-0.000816449
0.0401707
-0.000877951
0.0380825
-0.000911175
0.0359276
-0.00091549
0.0337635
-0.000895568
0.0316384
-0.000857567
0.0295903
-0.000807077
0.0276472
-0.000748857
0.0258279
-0.000686742
0.0241436
-0.000623596
0.0225992
-0.000561392
0.0211954
-0.000501468
0.0199295
-0.000444678
0.0187962
-0.000391548
0.017789
-0.000342322
0.0169001
-0.000297081
0.0161213
-0.000255762
0.015444
-0.000218248
0.0148597
-0.000184355
0.0143602
-0.000153896
0.0139374
-0.000126648
0.0135836
-0.000102403
0.0132917
-8.09328e-05
0.0130548
-6.20324e-05
0.0128667
-4.54829e-05
0.0127216
-3.10918e-05
0.012614
-1.86573e-05
0.0125392
-8.00512e-06
0.0124926
1.04688e-06
0.0124703
8.65355e-06
0.0124686
1.49775e-05
0.0124842
2.01521e-05
0.0125143
2.43179e-05
0.0125563
2.7588e-05
3.00823e-05
0.0126079
0.0155204
0.0146425
0.0137313
0.0128158
0.0119203
0.0110627
0.0102556
0.00950679
0.00882006
0.00819646
0.00763508
0.00713361
0.00668894
0.00629739
0.00595507
0.00565799
0.00540222
0.00518397
0.00499961
0.00484571
0.00471906
0.00461665
0.00453571
0.00447367
0.00442818
0.00439708
0.00437841
0.0043704
0.00437144
0.00438009
0.00439506
0.00441521
0.00443953
0.00446711
0.0044972
0.00548519
-1.32979e-05
0.00548976
-4.56321e-06
0.00548724
2.51775e-06
0.00547906
8.15906e-06
0.00546648
1.25564e-05
0.00545055
1.58926e-05
0.00543217
1.83286e-05
0.0054121
2.00105e-05
0.00539097
2.10632e-05
2.15987e-05
0.00536931
0.0149308
-6.51089e-05
0.0149592
-3.29094e-05
0.0149681
-6.37629e-06
0.014961
1.51597e-05
0.0149412
3.23306e-05
0.0149113
4.57219e-05
0.0148736
5.58696e-05
0.0148302
6.32564e-05
0.0147828
6.83127e-05
7.14179e-05
0.0147328
0.023195
-0.000157508
0.0232528
-9.06284e-05
0.0232813
-3.48843e-05
0.0232855
1.09498e-05
0.0232698
4.80436e-05
0.023238
7.74959e-05
0.0231934
0.000100323
0.0231391
0.000117453
0.0230776
0.000129721
0.000137872
0.0230111
0.0303178
-0.000280471
0.0303999
-0.000172651
0.030447
-8.19709e-05
0.0304646
-6.66119e-06
0.0304577
5.49895e-05
0.0304305
0.000104601
0.0303871
0.000143688
0.0303309
0.000173645
0.0302648
0.000195739
0.000211111
0.0301915
0.0363466
-0.000413911
0.0364386
-0.000264556
0.0364947
-0.000138064
0.0365203
-3.21902e-05
0.03652
5.52499e-05
0.0364983
0.00012634
0.0364589
0.000183037
0.0364054
0.000227157
0.0363407
0.000260364
0.000284164
0.0362676
0.0413216
-0.000532351
0.0414035
-0.000346394
0.0414536
-0.000188095
0.0414763
-5.48351e-05
0.0414756
5.5944e-05
0.0414552
0.000146688
0.0414185
0.000219702
0.0413685
0.000277132
0.0413079
0.000320953
0.000352968
0.0412391
0.0452636
-0.000611195
0.0453154
-0.000398114
0.0453435
-0.000216132
0.045351
-6.23567e-05
0.0453409
6.60307e-05
0.0453159
0.000171721
0.0452783
0.000257251
0.0452305
0.000324983
0.0451743
0.000377097
0.00041559
0.0451116
0.0481689
-0.000632778
0.0481758
-0.000405016
0.0481699
-0.000210218
0.0481529
-4.53187e-05
0.0481263
9.26478e-05
0.0480915
0.0002065
0.0480499
0.000298883
0.0480026
0.00037226
0.0479507
0.000428903
0.000470896
0.0478954
0.0500137
-0.00059054
0.0499703
-0.000361661
0.0499261
-0.000165988
0.0498811
-3.86834e-07
0.0498356
0.000138145
0.0497897
0.000252438
0.0497434
0.000345133
0.049697
0.000418682
0.0496506
0.000475342
0.000517182
0.0496043
0.050767
-0.000490352
0.0506786
-0.00027326
0.0506007
-8.80882e-05
0.050532
6.82617e-05
0.0504714
0.000198713
0.0504179
0.000306
0.0503703
0.000392659
0.050328
0.000461034
0.05029
0.000513273
0.00055134
0.0502559
0.0504076
-0.000348957
0.0502887
-0.000154425
0.0501898
1.08048e-05
0.0501084
0.000149669
0.0500421
0.000264908
0.0499891
0.000359064
0.0499473
0.000434482
0.049915
0.000493313
0.0498907
0.00053752
0.00056889
0.0498732
0.048938
-0.000190172
0.0488093
-2.58106e-05
0.0487072
0.000112899
0.0486282
0.000228621
0.0485693
0.00032382
0.0485276
0.000400768
0.0485005
0.00046154
0.0484858
0.000508032
0.0484814
0.000541959
0.00056488
0.0484854
0.0463921
-3.98744e-05
0.0462758
9.03717e-05
0.0461894
0.000199297
0.0461288
0.000289205
0.0460904
0.000362211
0.0460709
0.000420248
0.0460674
0.00046507
0.0460772
0.000498267
0.0460979
0.000521273
0.00053538
0.0461274
0.0428336
7.91218e-05
0.042749
0.00017498
0.0426941
0.000254154
0.0426647
0.000318521
0.0426571
0.000369797
0.0426679
0.000409533
0.0426938
0.000439133
0.0427323
0.000459854
0.0427807
0.000472834
0.000479083
0.0428371
0.0383463
0.000151372
0.0383054
0.000215811
0.0382914
0.00026812
0.0383002
0.000309734
0.038328
0.000341935
0.0383717
0.000365892
0.0384282
0.000382644
0.0384949
0.000393131
0.0385696
0.000398181
0.000398543
0.0386502
0.0330188
0.000171659
0.0330245
0.000210077
0.0330521
0.000240502
0.0330979
0.00026392
0.0331586
0.000281211
0.0332314
0.000293172
0.0333135
0.000300508
0.0334029
0.000303853
0.0334973
0.000303763
0.000300736
0.0335952
0.0269297
0.000146026
0.0269746
0.00016522
0.0270352
0.000179857
0.0271087
0.000190513
0.0271922
0.000197728
0.0272835
0.000201962
0.0273804
0.000203642
0.0274812
0.000203131
0.0275843
0.000200765
0.000196822
0.0276883
0.0201357
9.10519e-05
0.0202029
9.81107e-05
0.0202797
0.000103133
0.0203638
0.000106403
0.0204535
0.000108161
0.0205469
0.000108632
0.0206427
0.000108007
0.0207395
0.000106459
0.0208362
0.000104136
0.000101173
0.020932
0.0126671
3.18941e-05
0.0127321
3.31235e-05
0.0128014
3.38448e-05
0.0128738
3.41401e-05
0.0129479
3.40664e-05
0.013023
3.36898e-05
0.013098
3.30528e-05
0.0131724
3.22077e-05
0.0132455
3.11848e-05
3.00256e-05
0.0133167
0.00452909
0.00456222
0.00459607
0.00463022
0.0046643
0.004698
0.00473107
0.00476329
0.00479449
0.00482453
0.00534752
2.17102e-05
0.00532596
2.14807e-05
0.00530491
2.09776e-05
0.00528457
2.0261e-05
0.00526511
1.93785e-05
0.00524666
1.83729e-05
0.00522931
1.72774e-05
0.00521312
1.61221e-05
0.00519813
1.493e-05
0.00518435
1.37222e-05
0.00517178
1.25145e-05
0.00516041
1.13219e-05
0.00515022
1.01551e-05
0.00514116
9.02476e-06
0.0051332
7.9381e-06
0.00512628
6.90247e-06
0.00512034
5.92253e-06
0.00511533
5.00315e-06
0.00511118
4.14686e-06
0.00510783
3.35655e-06
0.0051052
2.63288e-06
0.00510323
1.97708e-06
0.00510186
1.38815e-06
0.00510101
8.65871e-07
0.00510062
4.07818e-07
0.00510063
1.2518e-08
0.00510097
-3.23752e-07
0.0051016
-6.03351e-07
0.00510245
-8.30922e-07
0.00510348
-1.00945e-06
0.00510465
-1.14428e-06
0.0051059
-1.23869e-06
0.00510722
-1.29839e-06
0.00510856
-1.32669e-06
-1.32944e-06
0.00510991
0.0146815
7.29036e-05
0.0146297
7.30577e-05
0.0145784
7.21282e-05
0.0145281
7.03282e-05
0.0144795
6.7839e-05
0.0144329
6.48155e-05
0.0143886
6.13884e-05
0.0143469
5.76692e-05
0.0143079
5.37513e-05
0.0142718
4.97145e-05
0.0142386
4.56251e-05
0.0142082
4.15405e-05
0.0141808
3.75076e-05
0.0141562
3.35672e-05
0.0141343
2.9752e-05
0.014115
2.6091e-05
0.0140983
2.2606e-05
0.014084
1.93163e-05
0.0140719
1.62355e-05
0.0140619
1.33751e-05
0.0140538
1.07414e-05
0.0140475
8.33912e-06
0.0140427
6.16869e-06
0.0140394
4.22896e-06
0.0140373
2.51507e-06
0.0140364
1.02097e-06
0.0140363
-2.62494e-07
0.0140371
-1.34533e-06
0.0140386
-2.24002e-06
0.0140406
-2.95949e-06
0.014043
-3.51842e-06
0.0140458
-3.93146e-06
0.0140487
-4.21443e-06
0.0140518
-4.38267e-06
-4.45219e-06
0.014055
0.0229413
0.000142564
0.0228698
0.000144375
0.022798
0.000143808
0.0227269
0.0001413
0.0226573
0.000137228
0.0225901
0.000131916
0.0225257
0.000125641
0.0224646
0.000118643
0.0224071
0.000111126
0.0223534
0.000103262
0.0223037
9.52008e-05
0.0222581
8.70695e-05
0.0222165
7.89757e-05
0.022179
7.10115e-05
0.0221454
6.32542e-05
0.0221157
5.57692e-05
0.0220897
4.86105e-05
0.0220671
4.18225e-05
0.0220479
3.544e-05
0.0220318
2.949e-05
0.0220185
2.39914e-05
0.0220079
1.89563e-05
0.0219997
1.43899e-05
0.0219937
1.02914e-05
0.0219896
6.6543e-06
0.0219872
3.46714e-06
0.0219862
7.13654e-07
0.0219865
-1.62609e-06
0.0219879
-3.57585e-06
0.0219902
-5.16182e-06
0.0219931
-6.41281e-06
0.0219966
-7.3588e-06
0.0220004
-8.03129e-06
0.0220045
-8.46182e-06
-8.68247e-06
0.0220088
0.0301132
0.000220781
0.0300318
0.000225648
0.029949
0.000226507
0.0298661
0.000224053
0.0297843
0.00021889
0.0297046
0.000211546
0.0296276
0.000202476
0.0295541
0.000192074
0.0294844
0.000180681
0.0294189
0.000168592
0.029358
0.000156058
0.0293017
0.000143299
0.02925
0.000130502
0.0292031
0.000117828
0.0291609
0.000105413
0.0291233
9.33741e-05
0.02909
8.18088e-05
0.029061
7.07972e-05
0.029036
6.04041e-05
0.0290148
5.06801e-05
0.0289971
4.16623e-05
0.0289827
3.33757e-05
0.0289713
2.58336e-05
0.0289626
1.9039e-05
0.0289562
1.29851e-05
0.0289521
7.65623e-06
0.0289498
3.02905e-06
0.0289491
-9.26753e-07
0.0289498
-4.2474e-06
0.0289517
-6.97402e-06
0.0289545
-9.15154e-06
0.028958
-1.08278e-05
0.028962
-1.20525e-05
0.0289665
-1.28765e-05
-1.33505e-05
0.0289712
0.0361884
0.000299916
0.0361051
0.000308831
0.0360195
0.000311983
0.0359332
0.000310321
0.0358473
0.000304682
0.0357629
0.000295795
0.035681
0.000284302
0.0356022
0.00027076
0.0355271
0.000255656
0.0354562
0.000239413
0.0353898
0.0002224
0.035328
0.000204936
0.0352712
0.000187298
0.0352192
0.000169726
0.0351721
0.000152425
0.0351299
0.000135572
0.0350923
0.000119316
0.0350593
0.000103779
0.0350306
8.90636e-05
0.035006
7.52493e-05
0.0349853
6.23968e-05
0.0349681
5.05482e-05
0.0349542
3.97287e-05
0.0349433
2.99482e-05
0.0349351
2.12018e-05
0.0349293
1.3472e-05
0.0349256
6.72929e-06
0.0349238
9.34171e-07
0.0349235
-3.96166e-06
0.0349246
-8.01392e-06
0.0349268
-1.1284e-05
0.0349298
-1.38378e-05
0.0349335
-1.57442e-05
0.0349378
-1.70735e-05
-1.78968e-05
0.0349423
0.0411641
0.000374807
0.041085
0.000387937
0.0410032
0.000393669
0.0409203
0.000393167
0.0408374
0.000387465
0.0407556
0.000377476
0.0406759
0.000364005
0.0405988
0.000347757
0.040525
0.000329357
0.040455
0.000309348
0.0403891
0.000288208
0.0403276
0.000266358
0.0402706
0.000244161
0.0402184
0.000221936
0.0401708
0.000199959
0.0401278
0.000178467
0.0400894
0.000157661
0.0400555
0.000137713
0.0400257
0.00011876
0.0400001
0.000100917
0.0399782
8.42684e-05
0.0399598
6.88768e-05
0.0399448
5.47818e-05
0.0399327
4.20021e-05
0.0399234
3.05373e-05
0.0399165
2.03698e-05
0.0399118
1.14661e-05
0.039909
3.77912e-06
0.0399078
-2.74997e-06
0.039908
-8.18983e-06
0.0399094
-1.26171e-05
0.0399117
-1.61143e-05
0.0399147
-1.87684e-05
0.0399183
-2.06684e-05
-2.19044e-05
0.0399224
0.0450441
0.000442277
0.0449732
0.000458797
0.0449002
0.000466624
0.0448262
0.000467076
0.0447523
0.000461331
0.0446793
0.000450433
0.0446079
0.000435313
0.0445388
0.000416791
0.0444725
0.000395598
0.0444094
0.000372377
0.0443498
0.000347695
0.0442941
0.000322056
0.0442423
0.0002959
0.0441946
0.000269612
0.0441509
0.000243531
0.0441114
0.000217949
0.0440759
0.000193116
0.0440444
0.000169244
0.0440166
0.000146509
0.0439924
0.000125054
0.0439717
0.00010499
0.0439542
8.63988e-05
0.0439396
6.93339e-05
0.0439278
5.38241e-05
0.0439185
3.98744e-05
0.0439114
2.74685e-05
0.0439063
1.65707e-05
0.043903
7.12831e-06
0.0439011
-9.25776e-07
0.0439006
-7.67107e-06
0.0439012
-1.31968e-05
0.0439028
-1.76e-05
0.043905
-2.09828e-05
0.0439078
-2.34507e-05
-2.51104e-05
0.043911
0.0478375
0.000500135
0.047778
0.000518342
0.0477175
0.000527068
0.0476568
0.000527708
0.0475966
0.000521513
0.0475374
0.000509603
0.0474797
0.000492975
0.0474239
0.000472522
0.0473704
0.000449037
0.0473195
0.000423226
0.0472714
0.000395718
0.0472264
0.000367071
0.0471845
0.000337779
0.0471458
0.000308277
0.0471103
0.000278948
0.0470781
0.000250124
0.0470491
0.000222095
0.0470232
0.000195104
0.0470003
0.000169356
0.0469804
0.000145018
0.0469631
0.000122221
0.0469485
0.000101064
0.0469362
8.16113e-05
0.0469261
6.39009e-05
0.046918
4.79427e-05
0.0469118
3.37219e-05
0.0469072
2.12016e-05
0.046904
1.03255e-05
0.046902
1.02017e-06
0.0469012
-6.802e-06
0.0469012
-1.324e-05
0.0469021
-1.84017e-05
0.0469035
-2.24013e-05
0.0469054
-2.5357e-05
-2.73884e-05
0.0469077
0.0495583
0.000546085
0.0495129
0.000563761
0.0494682
0.000571756
0.0494244
0.000571464
0.0493818
0.00056414
0.0493404
0.000550909
0.0493006
0.000532784
0.0492624
0.00051067
0.0492261
0.000485382
0.0491916
0.000457645
0.0491592
0.000428112
0.0491289
0.000397364
0.0491007
0.000365919
0.0490748
0.000334236
0.049051
0.000302721
0.0490293
0.00027173
0.0490099
0.000241571
0.0489924
0.000212508
0.048977
0.000184761
0.0489635
0.000158514
0.0489518
0.000133908
0.0489418
0.000111051
0.0489334
9.00175e-05
0.0489265
7.08493e-05
0.0489208
5.35593e-05
0.0489164
3.81339e-05
0.0489131
2.45353e-05
0.0489107
1.27044e-05
0.0489092
2.56366e-06
0.0489084
-5.97979e-06
0.0489082
-1.30313e-05
0.0489085
-1.87061e-05
0.0489092
-2.31261e-05
0.0489103
-2.64178e-05
-2.87093e-05
0.0489116
0.050225
0.000577021
0.0501968
0.000591935
0.050171
0.000597548
0.0501473
0.000595183
0.0501254
0.000586032
0.0501052
0.000571172
0.0500864
0.00055157
0.050069
0.000528099
0.0500528
0.000501546
0.0500378
0.000472616
0.050024
0.000441947
0.0500113
0.000410109
0.0499996
0.000377614
0.0499889
0.000344919
0.0499792
0.000312428
0.0499704
0.000280496
0.0499625
0.000249435
0.0499555
0.00021951
0.0499494
0.000190946
0.0499439
0.000163926
0.0499392
0.000138596
0.0499352
0.000115065
0.0499318
9.34092e-05
0.049929
7.36707e-05
0.0499267
5.58626e-05
0.0499248
3.99707e-05
0.0499234
2.59559e-05
0.0499224
1.37574e-05
0.0499216
3.2957e-06
0.0499212
-5.52486e-06
0.0499209
-1.28126e-05
0.0499209