/*--------------------------------*- C++ -*----------------------------------*\
| =========                 |                                                 |
| \\      /  F ield         | OpenFOAM: The Open Source CFD Toolbox           |
|  \\    /   O peration     | Version:  2406                                  |
|   \\  /    A nd           | Website:  www.openfoam.com                      |
|    \\/     M anipulation  |                                                 |
\*---------------------------------------------------------------------------*/
FoamFile
{
    version     2.0;
    format      ascii;
    arch        "LSB;label=32;scalar=64";
    class       surfaceScalarField;
    location    "65";
    object      phi;
}
// * * * * * * * * * * * * * * * * * * * * * * * * * * * * * * * * * * * * * //

dimensions      [0 3 -1 0 0 0 0];

oriented        oriented;

internalField   nonuniform List<scalar> 
3880
(
0.0098526
-0.0001026
0.00993866
-8.60557e-05
0.0099896
-5.09383e-05
0.0100226
-3.30289e-05
0.0100452
-2.25377e-05
0.0100604
-1.52483e-05
0.0100709
-1.04787e-05
0.0100784
-7.49878e-06
0.010084
-5.56626e-06
-4.23637e-06
0.0100882
0.0277307
-8.33096e-05
0.0277609
-0.000116228
0.0278012
-9.12755e-05
0.0278373
-6.90896e-05
0.0278678
-5.30217e-05
0.0278924
-3.99198e-05
0.0279118
-2.98816e-05
0.0279271
-2.27084e-05
0.0279391
-1.75779e-05
-1.37971e-05
0.0279486
0.0437242
-5.74969e-05
0.0437119
-0.000103955
0.0437201
-9.94794e-05
0.0437371
-8.60117e-05
0.043757
-7.29425e-05
0.0437769
-5.98162e-05
0.043795
-4.79653e-05
0.0438106
-3.8366e-05
0.0438239
-3.08421e-05
-2.4914e-05
0.043835
0.0577308
-3.83063e-05
0.0577076
-8.07397e-05
0.0576967
-8.85514e-05
0.0576956
-8.48895e-05
0.0577007
-7.81124e-05
0.0577096
-6.87383e-05
0.0577201
-5.84556e-05
0.0577307
-4.89732e-05
0.0577407
-4.08227e-05
-3.39387e-05
0.0577498
0.0697371
-2.53914e-05
0.0697155
-5.91389e-05
0.069698
-7.10674e-05
0.0696865
-7.34223e-05
0.0696804
-7.19512e-05
0.0696786
-6.69951e-05
0.06968
-5.98369e-05
0.0696833
-5.22084e-05
0.0696874
-4.49911e-05
-3.8443e-05
0.0696919
0.0797415
-1.68967e-05
0.0797242
-4.18781e-05
0.0797066
-5.33761e-05
0.0796912
-5.8059e-05
0.0796788
-5.95743e-05
0.0796697
-5.79062e-05
0.0796637
-5.37635e-05
0.07966
-4.85065e-05
0.079658
-4.30121e-05
-3.7658e-05
0.0796572
0.0877442
-1.10794e-05
0.0877307
-2.8445e-05
0.087715
-3.75973e-05
0.0876992
-4.22987e-05
0.0876844
-4.47934e-05
0.0876714
-4.48905e-05
0.0876605
-4.28888e-05
0.0876517
-3.97004e-05
0.0876447
-3.60084e-05
-3.21578e-05
0.0876392
0.0937457
-6.75258e-06
0.0937349
-1.76686e-05
0.0937212
-2.38525e-05
0.0937063
-2.7391e-05
0.093691
-2.95915e-05
0.0936764
-3.02544e-05
0.093663
-2.94664e-05
0.0936511
-2.77633e-05
0.0936406
-2.55893e-05
-2.31858e-05
0.0936317
0.0977465
-3.20854e-06
0.0977373
-8.47027e-06
0.097725
-1.1559e-05
0.097711
-1.34191e-05
0.0976961
-1.46554e-05
0.097681
-1.51502e-05
0.0976664
-1.49165e-05
0.0976528
-1.41985e-05
0.0976405
-1.32104e-05
-1.20722e-05
0.0976294
0.0997468
1.8139e-09
0.0997383
5.29016e-09
0.0997268
8.09442e-09
0.0997133
1.15955e-08
0.0996987
1.53618e-08
0.0996835
1.81435e-08
0.0996685
2.04737e-08
0.0996543
2.34538e-08
0.0996411
2.72231e-08
3.13134e-08
0.099629
0.0997468
3.21139e-06
0.0997383
8.47867e-06
0.0997268
1.15762e-05
0.0997133
1.34435e-05
0.0996987
1.46846e-05
0.0996835
1.51847e-05
0.0996686
1.49572e-05
0.0996543
1.42454e-05
0.0996411
1.32638e-05
1.2133e-05
0.099629
0.0977465
6.75597e-06
0.0977373
1.76785e-05
0.097725
2.38676e-05
0.097711
2.74127e-05
0.0976961
2.96199e-05
0.097681
3.02879e-05
0.0976664
2.95044e-05
0.0976529
2.78068e-05
0.0976405
2.56397e-05
2.32435e-05
0.0976294
0.0937457
1.10821e-05
0.0937349
2.84529e-05
0.0937212
3.76121e-05
0.0937063
4.23192e-05
0.0936911
4.48181e-05
0.0936764
4.49201e-05
0.093663
4.29237e-05
0.0936511
3.97404e-05
0.0936407
3.60539e-05
3.22095e-05
0.0936317
0.0877442
1.68998e-05
0.0877308
4.18862e-05
0.087715
5.33884e-05
0.0876992
5.80758e-05
0.0876844
5.95959e-05
0.0876714
5.79323e-05
0.0876606
5.37937e-05
0.0876518
4.85411e-05
0.0876448
4.30514e-05
3.77025e-05
0.0876393
0.0797415
2.5394e-05
0.0797242
5.91456e-05
0.0797066
7.10775e-05
0.0796912
7.34361e-05
0.0796788
7.1969e-05
0.0796697
6.7017e-05
0.0796637
5.98625e-05
0.07966
5.22372e-05
0.079658
4.50233e-05
3.84791e-05
0.0796572
0.0697371
3.83081e-05
0.0697155
8.07445e-05
0.069698
8.85598e-05
0.0696865
8.49004e-05
0.0696804
7.81259e-05
0.0696787
6.87552e-05
0.06968
5.84757e-05
0.0696833
4.89957e-05
0.0696875
4.08471e-05
3.39653e-05
0.069692
0.0577308
5.74988e-05
0.0577076
0.00010396
0.0576967
9.94846e-05
0.0576956
8.60186e-05
0.0577007
7.2952e-05
0.0577097
5.98277e-05
0.0577202
4.79782e-05
0.0577308
3.83803e-05
0.0577408
3.08578e-05
2.4931e-05
0.0577498
0.0437242
8.33107e-05
0.0437119
0.00011623
0.0437201
9.12801e-05
0.0437371
6.90947e-05
0.043757
5.3026e-05
0.0437769
3.99245e-05
0.043795
2.9888e-05
0.0438106
2.27157e-05
0.0438239
1.75852e-05
1.38043e-05
0.043835
0.0277307
0.0001026
0.0277609
8.6058e-05
0.0278012
5.09394e-05
0.0278373
3.30298e-05
0.0278678
2.25394e-05
0.0278925
1.52502e-05
0.0279119
1.04802e-05
0.0279271
7.50027e-06
0.0279391
5.56802e-06
4.23815e-06
0.0279487
0.0098526
0.00993866
0.0099896
0.0100226
0.0100452
0.0100604
0.0100709
0.0100784
0.010084
0.0100882
0.0100915
-3.2859e-06
0.0100941
-2.59127e-06
0.0100961
-2.0737e-06
0.0100978
-1.68008e-06
0.0100992
-1.37456e-06
0.0101003
-1.13337e-06
0.0101013
-9.4074e-07
0.010102
-7.85694e-07
0.0101027
-6.6004e-07
0.0101033
-5.57415e-07
0.0101037
-4.72842e-07
0.0101041
-4.02527e-07
0.0101045
-3.43593e-07
0.0101048
-2.93889e-07
0.010105
-2.51748e-07
0.0101052
-2.15878e-07
0.0101054
-1.8522e-07
0.0101056
-1.58927e-07
0.0101057
-1.3628e-07
0.0101058
-1.16707e-07
0.0101059
-9.97161e-08
0.010106
-8.49246e-08
0.0101061
-7.1998e-08
0.0101061
-6.06787e-08
0.0101062
-5.07339e-08
0.0101062
-4.19867e-08
0.0101063
-3.42677e-08
0.0101063
-2.7452e-08
0.0101063
-2.14123e-08
0.0101063
-1.60601e-08
0.0101064
-1.12993e-08
0.0101064
-7.06838e-09
0.0101064
-3.2949e-09
0.0101064
6.22445e-11
3.05751e-09
0.0101064
0.0279563
-1.09505e-05
0.0279625
-8.78199e-06
0.0279675
-7.11345e-06
0.0279716
-5.81401e-06
0.027975
-4.78814e-06
0.0279779
-3.96802e-06
0.0279802
-3.30617e-06
0.0279822
-2.76862e-06
0.0279839
-2.32966e-06
0.0279853
-1.96908e-06
0.0279865
-1.67078e-06
0.0279875
-1.42217e-06
0.0279884
-1.21351e-06
0.0279891
-1.03736e-06
0.0279898
-8.8793e-07
0.0279903
-7.6067e-07
0.0279908
-6.51887e-07
0.0279912
-5.58575e-07
0.0279915
-4.78227e-07
0.0279918
-4.08789e-07
0.0279921
-3.48544e-07
0.0279923
-2.96096e-07
0.0279924
-2.50274e-07
0.0279926
-2.10129e-07
0.0279927
-1.74847e-07
0.0279928
-1.43769e-07
0.0279929
-1.16313e-07
0.027993
-9.20076e-08
0.027993
-7.04263e-08
0.027993
-5.12297e-08
0.0279931
-3.41044e-08
0.0279931
-1.8809e-08
0.0279931
-5.11557e-09
0.0279931
7.14399e-09
1.81338e-08
0.0279931
0.0438443
-2.02161e-05
0.043852
-1.64902e-05
0.0438584
-1.35312e-05
0.0438637
-1.11697e-05
0.0438682
-9.27011e-06
0.043872
-7.72911e-06
0.0438751
-6.47055e-06
0.0438778
-5.43798e-06
0.0438801
-4.58769e-06
0.043882
-3.88451e-06
0.0438836
-3.29984e-06
0.043885
-2.81071e-06
0.0438862
-2.39906e-06
0.0438872
-2.0508e-06
0.043888
-1.75489e-06
0.0438888
-1.50255e-06
0.0438894
-1.28664e-06
0.04389
-1.1013e-06
0.0438904
-9.41652e-07
0.0438908
-8.03625e-07
0.0438912
-6.8385e-07
0.0438914
-5.79539e-07
0.0438917
-4.88378e-07
0.0438919
-4.08453e-07
0.043892
-3.3816e-07
0.0438922
-2.76156e-07
0.0438923
-2.21302e-07
0.0438924
-1.72635e-07
0.0438924
-1.29329e-07
0.0438925
-9.06868e-08
0.0438925
-5.61114e-08
0.0438925
-2.51027e-08
0.0438925
2.76512e-09
0.0438925
2.78437e-08
5.04313e-08
0.0438924
0.0577577
-2.8177e-05
0.0577646
-2.34051e-05
0.0577706
-1.94839e-05
0.0577757
-1.6269e-05
0.05778
-1.36267e-05
0.0577837
-1.14455e-05
0.0577869
-9.63811e-06
0.0577896
-8.13733e-06
0.0577919
-6.88914e-06
0.0577939
-5.84853e-06
0.0577956
-4.97769e-06
0.057797
-4.24544e-06
0.0577982
-3.62666e-06
0.0577993
-3.10147e-06
0.0578002
-2.65405e-06
0.0578009
-2.27171e-06
0.0578016
-1.94404e-06
0.0578021
-1.66238e-06
0.0578026
-1.4195e-06
0.057803
-1.20933e-06
0.0578034
-1.02681e-06
0.0578037
-8.67714e-07
0.0578039
-7.28549e-07
0.0578041
-6.06398e-07
0.0578043
-4.98822e-07
0.0578044
-4.03769e-07
0.0578045
-3.19504e-07
0.0578046
-2.44554e-07
0.0578046
-1.77666e-07
0.0578046
-1.17775e-07
0.0578046
-6.39793e-08
0.0578046
-1.55182e-08
0.0578046
2.82454e-08
0.0578046
6.78441e-08
1.03717e-07
0.0578045
0.0696964
-3.26443e-05
0.0697006
-2.76208e-05
0.0697045
-2.33415e-05
0.0697079
-1.97305e-05
0.069711
-1.66923e-05
0.0697137
-1.41354e-05
0.069716
-1.19824e-05
0.0697181
-1.01704e-05
0.0697198
-8.6462e-06
0.0697213
-7.36369e-06
0.0697226
-6.28229e-06
0.0697238
-5.3674e-06
0.0697247
-4.5904e-06
0.0697255
-3.92818e-06
0.0697263
-3.3621e-06
0.0697269
-2.87699e-06
0.0697274
-2.46027e-06
0.0697278
-2.10137e-06
0.0697282
-1.79135e-06
0.0697285
-1.52268e-06
0.0697288
-1.289e-06
0.069729
-1.08501e-06
0.0697292
-9.06284e-07
0.0697293
-7.49112e-07
0.0697294
-6.10393e-07
0.0697295
-4.87512e-07
0.0697296
-3.78254e-07
0.0697296
-2.80737e-07
0.0697296
-1.93361e-07
0.0697296
-1.1477e-07
0.0697296
-4.38188e-08
0.0697295
2.0458e-08
0.0697295
7.88637e-08
0.0697294
1.32065e-07
1.80606e-07
0.0697294
0.0796572
-3.2644e-05
0.0796577
-2.81024e-05
0.0796584
-2.40938e-05
0.0796593
-2.06127e-05
0.0796602
-1.76139e-05
0.0796611
-1.50397e-05
0.079662
-1.28356e-05
0.0796628
-1.09543e-05
0.0796635
-9.35317e-06
0.0796641
-7.9927e-06
0.0796647
-6.83629e-06
0.0796651
-5.85137e-06
0.0796656
-5.0102e-06
0.0796659
-4.2899e-06
0.0796662
-3.67171e-06
0.0796665
-3.14013e-06
0.0796667
-2.68216e-06
0.0796669
-2.2867e-06
0.079667
-1.9443e-06
0.0796672
-1.64688e-06
0.0796673
-1.38761e-06
0.0796673
-1.16071e-06
0.0796674
-9.61375e-07
0.0796674
-7.85549e-07
0.0796675
-6.29832e-07
0.0796675
-4.91349e-07
0.0796674
-3.67662e-07
0.0796674
-2.56699e-07
0.0796674
-1.567e-07
0.0796673
-6.61766e-08
0.0796673
1.61282e-08
0.0796672
9.12645e-08
0.0796671
1.60102e-07
0.079667
2.23356e-07
2.81601e-07
0.0796669
0.087635
-2.83611e-05
0.0876316
-2.47798e-05
0.087629
-2.15147e-05
0.087627
-1.86035e-05
0.0876255
-1.60402e-05
0.0876242
-1.37989e-05
0.0876232
-1.18495e-05
0.0876224
-1.01632e-05
0.0876218
-8.71193e-06
0.0876213
-7.4671e-06
0.0876208
-6.40059e-06
0.0876205
-5.48615e-06
0.0876202
-4.70073e-06
0.0876199
-4.02482e-06
0.0876197
-3.44221e-06
0.0876195
-2.93928e-06
0.0876193
-2.50444e-06
0.0876191
-2.12771e-06
0.087619
-1.80045e-06
0.0876189
-1.5152e-06
0.0876187
-1.26562e-06
0.0876186
-1.04633e-06
0.0876185
-8.52807e-07
0.0876184
-6.81242e-07
0.0876183
-5.28422e-07
0.0876182
-3.91629e-07
0.0876181
-2.68555e-07
0.087618
-1.5724e-07
0.0876179
-5.60193e-08
0.0876178
3.65112e-08
0.0876177
1.21529e-07
0.0876176
2.0001e-07
0.0876175
2.72754e-07
0.0876174
3.40406e-07
4.03472e-07
0.0876172
0.093624
-2.07123e-05
0.0936175
-1.83005e-05
0.0936121
-1.6043e-05
0.0936074
-1.39868e-05
0.0936035
-1.21437e-05
0.0936003
-1.05073e-05
0.0935975
-9.06523e-06
0.0935951
-7.8037e-06
0.0935931
-6.70746e-06
0.0935914
-5.75943e-06
0.0935899
-4.94147e-06
0.0935887
-4.2358e-06
0.0935876
-3.62631e-06
0.0935867
-3.09914e-06
0.0935859
-2.64254e-06
0.0935852
-2.24655e-06
0.0935846
-1.90257e-06
0.0935841
-1.60309e-06
0.0935836
-1.34156e-06
0.0935832
-1.11228e-06
0.0935828
-9.10342e-07
0.0935825
-7.3159e-07
0.0935822
-5.72503e-07
0.093582
-4.3011e-07
0.0935818
-3.01905e-07
0.0935816
-1.85762e-07
0.0935814
-7.98783e-08
0.0935812
1.72757e-08
0.093581
1.06993e-07
0.0935809
1.90354e-07
0.0935807
2.68259e-07
0.0935806
3.41436e-07
0.0935805
4.1047e-07
0.0935803
4.75811e-07
5.37792e-07
0.0935802
0.0976195
-1.08666e-05
0.0976109
-9.66494e-06
0.0976033
-8.5206e-06
0.0975968
-7.46324e-06
0.0975912
-6.50375e-06
0.0975863
-5.6427e-06
0.0975821
-4.87671e-06
0.0975785
-4.20096e-06
0.0975754
-3.60931e-06
0.0975728
-3.0941e-06
0.0975705
-2.64664e-06
0.0975685
-2.2581e-06
0.0975668
-1.92029e-06
0.0975653
-1.62605e-06
0.097564
-1.36926e-06
0.0975629
-1.14467e-06
0.097562
-9.47721e-07
0.0975611
-7.74371e-07
0.0975604
-6.21063e-07
0.0975598
-4.84686e-07
0.0975592
-3.62551e-07
0.0975588
-2.52365e-07
0.0975583
-1.52184e-07
0.097558
-6.03693e-08
0.0975576
2.4463e-08
0.0975574
1.03483e-07
0.0975571
1.77678e-07
0.0975569
2.47876e-07
0.0975567
3.14767e-07
0.0975565
3.78914e-07
0.0975563
4.40763e-07
0.0975561
5.00656e-07
0.097556
5.58837e-07
0.0975558
6.15463e-07
6.70604e-07
0.0975557
0.0996181
3.55527e-08
0.0996084
4.01974e-08
0.0995998
4.55179e-08
0.0995923
5.15613e-08
0.0995857
5.82768e-08
0.09958
6.56805e-08
0.0995751
7.38274e-08
0.0995708
8.27448e-08
0.0995671
9.24304e-08
0.0995639
1.02896e-07
0.0995611
1.14199e-07
0.0995587
1.26427e-07
0.0995567
1.39664e-07
0.0995549
1.53977e-07
0.0995534
1.69415e-07
0.099552
1.86025e-07
0.0995509
2.03862e-07
0.0995499
2.22996e-07
0.099549
2.43503e-07
0.0995483
2.65459e-07
0.0995476
2.88932e-07
0.099547
3.13981e-07
0.0995465
3.40655e-07
0.0995461
3.6899e-07
0.0995457
3.9901e-07
0.0995454
4.30724e-07
0.0995451
4.64126e-07
0.0995449
4.99192e-07
0.0995447
5.35875e-07
0.0995445
5.74105e-07
0.0995443
6.13784e-07
0.0995441
6.54783e-07
0.099544
6.96943e-07
0.0995439
7.40068e-07
7.83927e-07
0.0995438
0.0996181
1.0936e-05
0.0996084
9.74395e-06
0.0995998
8.61006e-06
0.0995923
7.56432e-06
0.0995857
6.61782e-06
0.09958
5.77124e-06
0.0995751
5.02124e-06
0.0995708
4.36296e-06
0.0995671
3.79024e-06
0.0995639
3.29546e-06
0.0995612
2.87007e-06
0.0995588
2.50541e-06
0.0995567
2.19346e-06
0.0995549
1.92718e-06
0.0995534
1.70055e-06
0.0995521
1.50841e-06
0.0995509
1.3463e-06
0.09955
1.21032e-06
0.0995491
1.09705e-06
0.0995484
1.00354e-06
0.0995477
9.27235e-07
0.0995472
8.65941e-07
0.0995467
8.17817e-07
0.0995463
7.81291e-07
0.0995459
7.55026e-07
0.0995456
7.37867e-07
0.0995454
7.28817e-07
0.0995451
7.26993e-07
0.0995449
7.3162e-07
0.0995448
7.41991e-07
0.0995446
7.5747e-07
0.0995445
7.7746e-07
0.0995444
8.01407e-07
0.0995443
8.28772e-07
8.59032e-07
0.0995442
0.0976195
2.07779e-05
0.0976109
1.83746e-05
0.0976034
1.6127e-05
0.0975969
1.40818e-05
0.0975912
1.22508e-05
0.0975864
1.06279e-05
0.0975822
9.20066e-06
0.0975786
7.95535e-06
0.0975755
6.87673e-06
0.0975728
5.94775e-06
0.0975706
5.15035e-06
0.0975686
4.46692e-06
0.0975669
3.88151e-06
0.0975655
3.38035e-06
0.0975642
2.9518e-06
0.0975631
2.58599e-06
0.0975622
2.27441e-06
0.0975614
2.00969e-06
0.0975607
1.78538e-06
0.0975601
1.59593e-06
0.0975596
1.43656e-06
0.0975592
1.30319e-06
0.0975588
1.19241e-06
0.0975585
1.10129e-06
0.0975582
1.02737e-06
0.097558
9.68544e-07
0.0975578
9.22984e-07
0.0975576
8.89115e-07
0.0975575
8.65552e-07
0.0975574
8.51083e-07
0.0975573
8.44624e-07
0.0975572
8.45211e-07
0.0975572
8.51966e-07
0.0975571
8.64083e-07
8.80809e-07
0.0975571
0.093624
2.842e-05
0.0936176
2.48466e-05
0.0936121
2.15902e-05
0.0936075
1.86887e-05
0.0936036
1.61361e-05
0.0936003
1.39066e-05
0.0935976
1.19703e-05
0.0935952
1.02984e-05
0.0935932
8.86269e-06
0.0935915
7.63468e-06
0.0935901
6.58635e-06
0.0935889
5.69158e-06
0.0935878
4.92742e-06
0.0935869
4.27448e-06
0.0935862
3.71662e-06
0.0935855
3.24032e-06
0.093585
2.83407e-06
0.0935845
2.48799e-06
0.0935841
2.19353e-06
0.0935837
1.94336e-06
0.0935834
1.73124e-06
0.0935832
1.55185e-06
0.093583
1.40076e-06
0.0935828
1.2742e-06
0.0935827
1.16899e-06
0.0935825
1.08243e-06
0.0935824
1.01217e-06
0.0935824
9.56217e-07
0.0935823
9.12815e-07
0.0935823
8.80439e-07
0.0935823
8.57747e-07
0.0935823
8.43549e-07
0.0935823
8.36785e-07
0.0935823
8.36497e-07
8.41805e-07
0.0935824
0.087635
3.26944e-05
0.0876317
2.81594e-05
0.0876291
2.41582e-05
0.0876271
2.06851e-05
0.0876256
1.76951e-05
0.0876243
1.51307e-05
0.0876234
1.29375e-05
0.0876226
1.1068e-05
0.087622
9.47985e-06
0.0876215
8.13341e-06
0.0876211
6.99215e-06
0.0876207
6.02362e-06
0.0876205
5.20015e-06
0.0876202
4.49894e-06
0.0876201
3.9013e-06
0.0876199
3.39184e-06
0.0876198
2.95757e-06
0.0876197
2.58755e-06
0.0876196
2.27234e-06
0.0876195
2.00397e-06
0.0876195
1.77565e-06
0.0876195
1.58172e-06
0.0876194
1.41737e-06
0.0876194
1.27864e-06
0.0876194
1.16209e-06
0.0876195
1.06491e-06
0.0876195
9.84576e-07
0.0876195
9.19027e-07
0.0876196
8.6637e-07
0.0876196
8.25066e-07
0.0876197
7.93658e-07
0.0876198
7.70979e-07
0.0876198
7.55876e-07
0.0876199
7.47438e-07
7.44715e-07
0.08762
0.0796572
3.2685e-05
0.0796577
2.76665e-05
0.0796585
2.33929e-05
0.0796594
1.97879e-05
0.0796603
1.67565e-05
0.0796613
1.42071e-05
0.0796621
1.20624e-05
0.0796629
1.02594e-05
0.0796637
8.74526e-06
0.0796643
7.47361e-06
0.0796649
6.40399e-06
0.0796654
5.50178e-06
0.0796659
4.73847e-06
0.0796663
4.09097e-06
0.0796667
3.54074e-06
0.079667
3.07264e-06
0.0796673
2.6742e-06
0.0796675
2.33484e-06
0.0796677
2.04574e-06
0.079668
1.79933e-06
0.0796681
1.58939e-06
0.0796683
1.41059e-06
0.0796685
1.25859e-06
0.0796686
1.12968e-06
0.0796688
1.0208e-06
0.0796689
9.29287e-07
0.079669
8.5296e-07
0.0796691
7.89833e-07
0.0796693
7.38305e-07
0.0796694
6.9687e-07
0.0796695
6.64332e-07
0.0796697
6.39522e-07
0.0796698
6.21533e-07
0.0796699
6.09428e-07
6.02496e-07
0.0796701
0.0696965
2.82067e-05
0.0697007
2.34385e-05
0.0697046
1.95212e-05
0.069708
1.63104e-05
0.0697111
1.36727e-05
0.0697138
1.14966e-05
0.0697162
9.69499e-06
0.0697182
8.20055e-06
0.06972
6.95937e-06
0.0697216
5.92639e-06
0.0697229
5.06387e-06
0.0697241
4.34053e-06
0.0697251
3.73137e-06
0.069726
3.21645e-06
0.0697267
2.78012e-06
0.0697274
2.40963e-06
0.069728
2.09471e-06
0.0697285
1.82665e-06
0.0697289
1.59832e-06
0.0697293
1.40358e-06
0.0697297
1.23749e-06
0.06973
1.09578e-06
0.0697303
9.75062e-07
0.0697305
8.7233e-07
0.0697307
7.8527e-07
0.069731
7.117e-07
0.0697312
6.49995e-07
0.0697314
5.98513e-07
0.0697315
5.56092e-07
0.0697317
5.2146e-07
0.0697319
4.9378e-07
0.069732
4.72043e-07
0.0697322
4.55645e-07
0.0697324
4.43757e-07
4.35942e-07
0.0697325
0.0577578
2.02346e-05
0.0577647
1.65106e-05
0.0577707
1.35539e-05
0.0577758
1.1195e-05
0.0577801
9.29822e-06
0.0577839
7.76031e-06
0.0577871
6.50511e-06
0.0577898
5.4764e-06
0.0577921
4.63037e-06
0.0577941
3.93198e-06
0.0577958
3.3524e-06
0.0577973
2.8688e-06
0.0577986
2.46295e-06
0.0577997
2.12097e-06
0.0578006
1.83169e-06
0.0578014
1.58657e-06
0.0578021
1.37829e-06
0.0578028
1.20121e-06
0.0578033
1.05022e-06
0.0578038
9.21506e-07
0.0578042
8.11473e-07
0.0578046
7.17582e-07
0.0578049
6.37297e-07
0.0578052
5.68955e-07
0.0578055
5.10706e-07
0.0578058
4.61459e-07
0.057806
4.19797e-07
0.0578062
3.85003e-07
0.0578064
3.55943e-07
0.0578066
3.32164e-07
0.0578068
3.12727e-07
0.0578069
2.9737e-07
0.0578071
2.85291e-07
0.0578073
2.76368e-07
2.69891e-07
0.0578074
0.0438443
1.09584e-05
0.043852
8.791e-06
0.0438584
7.12362e-06
0.0438638
5.82534e-06
0.0438683
4.80077e-06
0.0438721
3.98208e-06
0.0438753
3.3219e-06
0.043878
2.78621e-06
0.0438802
2.34941e-06
0.0438822
1.99116e-06
0.0438838
1.69541e-06
0.0438852
1.44944e-06
0.0438865
1.24361e-06
0.0438875
1.07041e-06
0.0438884
9.24171e-07
0.0438892
8.00283e-07
0.0438899
6.95149e-07
0.0438905
6.05669e-07
0.043891
5.29427e-07
0.0438915
4.64273e-07
0.0438919
4.08591e-07
0.0438922
3.609e-07
0.0438925
3.20132e-07
0.0438928
2.85243e-07
0.0438931
2.55525e-07
0.0438933
2.30209e-07
0.0438935
2.08812e-07
0.0438937
1.90741e-07
0.0438939
1.75667e-07
0.0438941
1.63116e-07
0.0438942
1.52867e-07
0.0438944
1.44532e-07
0.0438945
1.37973e-07
0.0438947
1.32861e-07
1.29117e-07
0.0438948
0.0279563
3.28757e-06
0.0279625
2.59302e-06
0.0279676
2.07582e-06
0.0279717
1.68262e-06
0.0279751
1.37749e-06
0.027978
1.13664e-06
0.0279803
9.44429e-07
0.0279823
7.89887e-07
0.027984
6.64901e-07
0.0279854
5.62972e-07
0.0279867
4.79163e-07
0.0279877
4.09567e-07
0.0279886
3.51416e-07
0.0279894
3.02478e-07
0.02799
2.61209e-07
0.0279906
2.2622e-07
0.0279911
1.96554e-07
0.0279915
1.71251e-07
0.0279919
1.49699e-07
0.0279922
1.31209e-07
0.0279925
1.15408e-07
0.0279928
1.01801e-07
0.027993
9.01739e-08
0.0279932
8.01529e-08
0.0279934
7.16261e-08
0.0279936
6.42938e-08
0.0279937
5.81073e-08
0.0279939
5.28128e-08
0.027994
4.84055e-08
0.0279941
4.46637e-08
0.0279942
4.16146e-08
0.0279943
3.90599e-08
0.0279944
3.70509e-08
0.0279945
3.54061e-08
3.41943e-08
0.0279946
0.0100915
0.0100941
0.0100962
0.0100978
0.0100992
0.0101004
0.0101013
0.0101021
0.0101028
0.0101033
0.0101038
0.0101042
0.0101046
0.0101049
0.0101051
0.0101053
0.0101055
0.0101057
0.0101059
0.010106
0.0101061
0.0101062
0.0101063
0.0101064
0.0101065
0.0101065
0.0101066
0.0101066
0.0101067
0.0101067
0.0101068
0.0101068
0.0101068
0.0101069
0.0101069
0.0101064
5.71679e-09
0.0101063
8.08237e-09
0.0101063
1.01701e-08
0.0101063
1.20135e-08
0.0101063
1.36215e-08
0.0101063
1.50214e-08
0.0101063
1.62177e-08
0.0101063
1.72338e-08
0.0101062
1.80708e-08
1.87491e-08
0.0101062
0.027993
2.79683e-08
0.027993
3.67649e-08
0.027993
4.46001e-08
0.0279929
5.15584e-08
0.0279929
5.76898e-08
0.0279928
6.30561e-08
0.0279928
6.76894e-08
0.0279927
7.16353e-08
0.0279927
7.49143e-08
7.75609e-08
0.0279926
0.0438924
7.07696e-08
0.0438923
8.90634e-08
0.0438923
1.05475e-07
0.0438922
1.20142e-07
0.0438921
1.3317e-07
0.043892
1.44651e-07
0.043892
1.5465e-07
0.0438919
1.63226e-07
0.0438918
1.70419e-07
1.76266e-07
0.0438917
0.0578044
1.36225e-07
0.0578044
1.65662e-07
0.0578043
1.92265e-07
0.0578042
2.1622e-07
0.0578041
2.37674e-07
0.057804
2.56737e-07
0.0578039
2.73492e-07
0.0578037
2.87997e-07
0.0578036
3.00291e-07
3.10395e-07
0.0578035
0.0697293
2.24931e-07
0.0697292
2.65392e-07
0.0697291
3.02266e-07
0.0697289
3.35763e-07
0.0697288
3.66038e-07
0.0697287
3.93198e-07
0.0697285
4.17309e-07
0.0697284
4.38405e-07
0.0697282
4.5649e-07
4.7155e-07
0.0697281
0.0796668
3.35296e-07
0.0796667
3.84796e-07
0.0796666
4.30365e-07
0.0796664
4.7219e-07
0.0796663
5.10393e-07
0.0796661
5.45035e-07
0.079666
5.7613e-07
0.0796658
6.03651e-07
0.0796657
6.27536e-07
6.47698e-07
0.0796655
0.0876171
4.62341e-07
0.087617
5.17293e-07
0.0876168
5.68518e-07
0.0876167
6.16121e-07
0.0876165
6.6014e-07
0.0876164
7.00548e-07
0.0876162
7.37265e-07
0.0876161
7.70166e-07
0.0876159
7.9909e-07
8.23848e-07
0.0876157
0.0935801
5.9664e-07
0.0935799
6.52488e-07
0.0935798
7.05383e-07
0.0935796
7.55299e-07
0.0935795
8.02138e-07
0.0935794
8.45747e-07
0.0935792
8.85916e-07
0.0935791
9.22395e-07
0.0935789
9.54895e-07
9.83102e-07
0.0935787
0.0975556
7.24258e-07
0.0975555
7.76348e-07
0.0975553
8.26734e-07
0.0975552
8.75212e-07
0.0975551
9.21526e-07
0.097555
9.65362e-07
0.0975549
1.00637e-06
0.0975547
1.04415e-06
0.0975546
1.07828e-06
1.10831e-06
0.0975545
0.0995436
8.28249e-07
0.0995436
8.72727e-07
0.0995435
9.17008e-07
0.0995434
9.60704e-07
0.0995433
1.00338e-06
0.0995432
1.04458e-06
0.0995431
1.0838e-06
0.0995431
1.12051e-06
0.099543
1.15415e-06
1.18416e-06
0.0995429
0.0995442
8.91662e-07
0.0995441
9.26136e-07
0.0995441
9.6191e-07
0.099544
9.9843e-07
0.099544
1.03512e-06
0.099544
1.07137e-06
0.0995439
1.10658e-06
0.0995439
1.14011e-06
0.0995439
1.1713e-06
1.19951e-06
0.0995439
0.0975571
9.01428e-07
0.0975571
9.25247e-07
0.0975571
9.51587e-07
0.0975571
9.79776e-07
0.0975571
1.00914e-06
0.0975572
1.039e-06
0.0975572
1.06866e-06
0.0975573
1.09745e-06
0.0975573
1.12465e-06
1.14958e-06
0.0975574
0.0935824
8.51893e-07
0.0935825
8.6599e-07
0.0935825
8.83358e-07
0.0935826
9.03278e-07
0.0935827
9.25048e-07
0.0935828
9.4797e-07
0.0935829
9.71356e-07
0.093583
9.94514e-07
0.0935831
1.01676e-06
1.03743e-06
0.0935832
0.0876201
7.46963e-07
0.0876202
7.53358e-07
0.0876204
7.63256e-07
0.0876205
7.75903e-07
0.0876206
7.90711e-07
0.0876208
8.06962e-07
0.0876209
8.24096e-07
0.0876211
8.41417e-07
0.0876212
8.58384e-07
8.74318e-07
0.0876214
0.0796702
5.99957e-07
0.0796704
6.01225e-07
0.0796705
6.05615e-07
0.0796707
6.12621e-07
0.0796709
6.21612e-07
0.079671
6.32126e-07
0.0796712
6.43564e-07
0.0796714
6.55493e-07
0.0796716
6.67335e-07
6.78682e-07
0.0796718
0.0697327
4.31487e-07
0.0697329
4.30066e-07
0.0697331
4.31043e-07
0.0697332
4.34161e-07
0.0697334
4.38826e-07
0.0697336
4.44829e-07
0.0697338
4.516e-07
0.069734
4.5896e-07
0.0697342
4.66356e-07
4.73635e-07
0.0697344
0.0578076
2.65835e-07
0.0578078
2.63549e-07
0.0578079
2.63078e-07
0.0578081
2.63801e-07
0.0578083
2.65813e-07
0.0578085
2.6851e-07
0.0578086
2.72019e-07
0.0578088
2.75746e-07
0.057809
2.79841e-07
2.83717e-07
0.0578092
0.0438949
1.2645e-07
0.0438951
1.24824e-07
0.0438952
1.23975e-07
0.0438953
1.23893e-07
0.0438955
1.24328e-07
0.0438956
1.25292e-07
0.0438958
1.26544e-07
0.0438959
1.28106e-07
0.0438961
1.29746e-07
1.31495e-07
0.0438962
0.0279947
3.32458e-08
0.0279948
3.26416e-08
0.0279949
3.22197e-08
0.027995
3.20693e-08
0.0279951
3.20333e-08
0.0279952
3.22063e-08
0.0279952
3.24342e-08
0.0279953
3.28151e-08
0.0279954
3.31964e-08
3.36789e-08
0.0279955
0.0101069
0.010107
0.010107
0.010107
0.0101071
0.0101071
0.0101071
0.0101072
0.0101072
0.0101072
0.0101062
1.92678e-08
0.0101062
1.96446e-08
0.0101062
1.98769e-08
0.0101061
1.99803e-08
0.0101061
1.99506e-08
0.0101061
1.98012e-08
0.0101061
1.95269e-08
0.0101061
1.91391e-08
0.010106
1.86317e-08
0.010106
1.80144e-08
0.010106
1.72811e-08
0.010106
1.64404e-08
0.010106
1.54873e-08
0.010106
1.44301e-08
0.0101059
1.32659e-08
0.0101059
1.2004e-08
0.0101059
1.06452e-08
0.0101059
9.20038e-09
0.0101059
7.67512e-09
0.0101059
6.08268e-09
0.0101059
4.43386e-09
0.0101059
2.74542e-09
0.0101059
1.03168e-09
0.0101059
-6.87842e-10
0.0101059
-2.39327e-09
0.0101059
-4.06585e-09
0.0101059
-5.68074e-09
0.0101059
-7.21672e-09
0.0101059
-8.64768e-09
0.0101059
-9.95131e-09
0.0101059
-1.1102e-08
0.010106
-1.20806e-08
0.010106
-1.28638e-08
0.010106
-1.34509e-08
-1.38547e-08
0.010106
0.0279926
7.95878e-08
0.0279925
8.1022e-08
0.0279924
8.18712e-08
0.0279924
8.21574e-08
0.0279923
8.18854e-08
0.0279922
8.10746e-08
0.0279922
7.97284e-08
0.0279921
7.78656e-08
0.0279921
7.54901e-08
0.027992
7.26224e-08
0.027992
6.92687e-08
0.0279919
6.5454e-08
0.0279919
6.11893e-08
0.0279918
5.65067e-08
0.0279918
5.14243e-08
0.0279917
4.59843e-08
0.0279917
4.02136e-08
0.0279917
3.41665e-08
0.0279917
2.78802e-08
0.0279917
2.14209e-08
0.0279916
1.48362e-08
0.0279916
8.20287e-09
0.0279916
1.57644e-09
0.0279916
-4.95807e-09
0.0279917
-1.13389e-08
0.0279917
-1.7478e-08
0.0279917
-2.33093e-08
0.0279917
-2.87444e-08
0.0279917
-3.37194e-08
0.0279918
-3.81518e-08
0.0279918
-4.19884e-08
0.0279918
-4.51664e-08
0.0279919
-4.76607e-08
0.0279919
-4.94515e-08
-5.05667e-08
0.0279919
0.0438916
1.80788e-07
0.0438915
1.8401e-07
0.0438914
1.85944e-07
0.0438913
1.86606e-07
0.0438912
1.86006e-07
0.043891
1.84161e-07
0.0438909
1.8108e-07
0.0438908
1.76787e-07
0.0438907
1.71298e-07
0.0438907
1.64646e-07
0.0438906
1.56864e-07
0.0438905
1.47998e-07
0.0438904
1.38098e-07
0.0438903
1.27234e-07
0.0438903
1.15477e-07
0.0438902
1.02918e-07
0.0438902
8.96579e-08
0.0438901
7.58108e-08
0.0438901
6.15013e-08
0.0438901
4.68676e-08
0.04389
3.20554e-08
0.04389
1.72201e-08
0.04389
2.52156e-09
0.04389
-1.18754e-08
0.0438901
-2.58054e-08
0.0438901
-3.91042e-08
0.0438901
-5.16102e-08
0.0438901
-6.31688e-08
0.0438902
-7.36346e-08
0.0438902
-8.28754e-08
0.0438903
-9.07775e-08
0.0438903
-9.7252e-08
0.0438904
-1.02243e-07
0.0438904
-1.05736e-07
-1.07751e-07
0.0438905
0.0578033
3.18322e-07
0.0578032
3.24071e-07
0.057803
3.27643e-07
0.0578029
3.2903e-07
0.0578028
3.2823e-07
0.0578026
3.25239e-07
0.0578025
3.20068e-07
0.0578023
3.12729e-07
0.0578022
3.03253e-07
0.0578021
2.91679e-07
0.057802
2.7807e-07
0.0578018
2.62504e-07
0.0578017
2.45081e-07
0.0578016
2.25924e-07
0.0578015
2.05181e-07
0.0578015
1.83021e-07
0.0578014
1.59639e-07
0.0578013
1.35253e-07
0.0578013
1.101e-07
0.0578012
8.4438e-08
0.0578012
5.85386e-08
0.0578012
3.26854e-08
0.0578012
7.1686e-09
0.0578012
-1.77188e-08
0.0578012
-4.16878e-08
0.0578012
-6.44552e-08
0.0578013
-8.57524e-08
0.0578013
-1.05326e-07
0.0578014
-1.22948e-07
0.0578014
-1.38416e-07
0.0578015
-1.51565e-07
0.0578016
-1.6227e-07
0.0578016
-1.7046e-07
0.0578017
-1.76118e-07
-1.79289e-07
0.0578018
0.0697279
4.83551e-07
0.0697277
4.92453e-07
0.0697276
4.98205e-07
0.0697274
5.00761e-07
0.0697272
5.00076e-07
0.069727
4.96117e-07
0.0697269
4.88861e-07
0.0697267
4.78309e-07
0.0697265
4.64482e-07
0.0697264
4.4743e-07
0.0697262
4.27234e-07
0.0697261
4.0401e-07
0.069726
3.7791e-07
0.0697258
3.49125e-07
0.0697257
3.17887e-07
0.0697256
2.84466e-07
0.0697255
2.49173e-07
0.0697255
2.12352e-07
0.0697254
1.74382e-07
0.0697253
1.35668e-07
0.0697253
9.66369e-08
0.0697253
5.77308e-08
0.0697253
1.93995e-08
0.0697253
-1.79095e-08
0.0697253
-5.37559e-08
0.0697253
-8.7719e-08
0.0697253
-1.19401e-07
0.0697254
-1.4844e-07
0.0697254
-1.74511e-07
0.0697255
-1.97342e-07
0.0697256
-2.16714e-07
0.0697256
-2.32473e-07
0.0697257
-2.44539e-07
0.0697258
-2.5291e-07
-2.5766e-07
0.0697259
0.0796653
6.64032e-07
0.0796651
6.7642e-07
0.0796649
6.8474e-07
0.0796647
6.88871e-07
0.0796646
6.88707e-07
0.0796644
6.84153e-07
0.0796642
6.75144e-07
0.079664
6.6164e-07
0.0796638
6.43643e-07
0.0796636
6.21196e-07
0.0796635
5.94394e-07
0.0796633
5.63379e-07
0.0796632
5.28357e-07
0.079663
4.89585e-07
0.0796629
4.47384e-07
0.0796628
4.02132e-07
0.0796627
3.54263e-07
0.0796626
3.0426e-07
0.0796625
2.52656e-07
0.0796624
2.00018e-07
0.0796624
1.46944e-07
0.0796623
9.40486e-08
0.0796623
4.19564e-08
0.0796623
-8.71504e-09
0.0796623
-5.73636e-08
0.0796623
-1.03417e-07
0.0796624
-1.46342e-07
0.0796624
-1.85659e-07
0.0796624
-2.20947e-07
0.0796625
-2.51859e-07
0.0796626
-2.78127e-07
0.0796626
-2.99574e-07
0.0796627
-3.16116e-07
0.0796628
-3.27774e-07
-3.3467e-07
0.0796629
0.0876155
8.44228e-07
0.0876154
8.60014e-07
0.0876152
8.7098e-07
0.087615
8.76915e-07
0.0876148
8.7762e-07
0.0876146
8.72925e-07
0.0876144
8.62692e-07
0.0876142
8.46834e-07
0.087614
8.25309e-07
0.0876139
7.98144e-07
0.0876137
7.65426e-07
0.0876135
7.27323e-07
0.0876134
6.84072e-07
0.0876132
6.35997e-07
0.0876131
5.83496e-07
0.087613
5.27048e-07
0.0876129
4.67205e-07
0.0876128
4.04588e-07
0.0876127
3.39875e-07
0.0876126
2.73796e-07
0.0876125
2.07112e-07
0.0876125
1.40614e-07
0.0876124
7.50931e-08
0.0876124
1.13371e-08
0.0876124
-4.9894e-08
0.0876124
-1.07878e-07
0.0876124
-1.61952e-07
0.0876125
-2.11519e-07
0.0876125
-2.56067e-07
0.0876125
-2.95179e-07
0.0876126
-3.28543e-07
0.0876127
-3.55961e-07
0.0876127
-3.77355e-07
0.0876128
-3.92775e-07
-4.0239e-07
0.0876129
0.0935786
1.00668e-06