/*--------------------------------*- C++ -*----------------------------------*\
| =========                 |                                                 |
| \\      /  F ield         | OpenFOAM: The Open Source CFD Toolbox           |
|  \\    /   O peration     | Version:  2406                                  |
|   \\  /    A nd           | Website:  www.openfoam.com                      |
|    \\/     M anipulation  |                                                 |
\*---------------------------------------------------------------------------*/
FoamFile
{
    version     2.0;
    format      ascii;
    arch        "LSB;label=32;scalar=64";
    class       volVectorField;
    location    "65";
    object      U;
}
// * * * * * * * * * * * * * * * * * * * * * * * * * * * * * * * * * * * * * //

dimensions      [0 1 -1 0 0 0 0];

internalField   nonuniform List<vector> 
2000
(
(0.0969795 -0.000406772 0)
(0.098936 -0.000282908 0)
(0.0997331 -0.000162725 0)
(0.100091 -0.000104607 0)
(0.100349 -6.48096e-05 0)
(0.100537 -3.80991e-05 0)
(0.100664 -2.31812e-05 0)
(0.100751 -1.52424e-05 0)
(0.100815 -1.06118e-05 0)
(0.100863 -7.65133e-06 0)
(0.275607 -0.00102426 0)
(0.277228 -0.00120724 0)
(0.277953 -0.000826009 0)
(0.278225 -0.0005603 0)
(0.278524 -0.000396488 0)
(0.27881 -0.000278818 0)
(0.279033 -0.000197019 0)
(0.279203 -0.000143321 0)
(0.279337 -0.000107489 0)
(0.279443 -8.24096e-05 0)
(0.435681 -0.000753034 0)
(0.436892 -0.00117168 0)
(0.437315 -0.0010223 0)
(0.437307 -0.000827095 0)
(0.437446 -0.00066526 0)
(0.437666 -0.000521054 0)
(0.437866 -0.000401862 0)
(0.438034 -0.000311642 0)
(0.438177 -0.000244605 0)
(0.438299 -0.000193928 0)
(0.575835 -0.000472832 0)
(0.576893 -0.000925243 0)
(0.577194 -0.000965197 0)
(0.576987 -0.00088947 0)
(0.576945 -0.000789751 0)
(0.577038 -0.000672389 0)
(0.577149 -0.000555427 0)
(0.577256 -0.000454126 0)
(0.577359 -0.000371028 0)
(0.577455 -0.000303416 0)
(0.695952 -0.000307507 0)
(0.696955 -0.000687941 0)
(0.697255 -0.000801732 0)
(0.696964 -0.000807195 0)
(0.696797 -0.000771827 0)
(0.696776 -0.000701893 0)
(0.69679 -0.00061356 0)
(0.696814 -0.000525356 0)
(0.696851 -0.000445451 0)
(0.696896 -0.000375376 0)
(0.796038 -0.000204802 0)
(0.797011 -0.000494378 0)
(0.797349 -0.000617539 0)
(0.797045 -0.000660518 0)
(0.796817 -0.000666848 0)
(0.796724 -0.000637837 0)
(0.796663 -0.000583336 0)
(0.796615 -0.000519154 0)
(0.796586 -0.000454754 0)
(0.796573 -0.000393858 0)
(0.876099 -0.000136144 0)
(0.877047 -0.00034376 0)
(0.877425 -0.00044868 0)
(0.877138 -0.000499674 0)
(0.87689 -0.000523942 0)
(0.876762 -0.0005198 0)
(0.876658 -0.000491802 0)
(0.876559 -0.000451128 0)
(0.876478 -0.000405776 0)
(0.876416 -0.000359647 0)
(0.936141 -8.70888e-05 0)
(0.937068 -0.000225593 0)
(0.937475 -0.00030237 0)
(0.93721 -0.000345384 0)
(0.936962 -0.000371208 0)
(0.936822 -0.000377457 0)
(0.936697 -0.000365675 0)
(0.936569 -0.000342823 0)
(0.936454 -0.000314501 0)
(0.936358 -0.000283724 0)
(0.976167 -4.87744e-05 0)
(0.977079 -0.000128034 0)
(0.977504 -0.000174162 0)
(0.977257 -0.000201842 0)
(0.977013 -0.000220106 0)
(0.976871 -0.000227178 0)
(0.976738 -0.000223346 0)
(0.976596 -0.000212312 0)
(0.976463 -0.00019729 0)
(0.976345 -0.000180089 0)
(0.996179 -1.57217e-05 0)
(0.997084 -4.14981e-05 0)
(0.997517 -5.6808e-05 0)
(0.997279 -6.62574e-05 0)
(0.997039 -7.27278e-05 0)
(0.996897 -7.5579e-05 0)
(0.996762 -7.48081e-05 0)
(0.996615 -7.15671e-05 0)
(0.996474 -6.68942e-05 0)
(0.996347 -6.13839e-05 0)
(0.996179 1.57543e-05 0)
(0.997084 4.15932e-05 0)
(0.997517 5.69769e-05 0)
(0.997279 6.64979e-05 0)
(0.997039 7.30295e-05 0)
(0.996897 7.59353e-05 0)
(0.996762 7.52195e-05 0)
(0.996615 7.20401e-05 0)
(0.996474 6.74379e-05 0)
(0.996347 6.20067e-05 0)
(0.976167 4.88052e-05 0)
(0.977079 0.000128127 0)
(0.977504 0.000174323 0)
(0.977257 0.000202073 0)
(0.977013 0.000220398 0)
(0.976871 0.000227522 0)
(0.976738 0.000223743 0)
(0.976596 0.000212768 0)
(0.976463 0.000197813 0)
(0.976346 0.000180687 0)
(0.936141 8.71198e-05 0)
(0.937068 0.000225681 0)
(0.937475 0.000302523 0)
(0.93721 0.000345598 0)
(0.936962 0.000371475 0)
(0.936822 0.000377774 0)
(0.936697 0.000366043 0)
(0.936569 0.000343245 0)
(0.936455 0.000314985 0)
(0.936358 0.000284276 0)
(0.876099 0.000136173 0)
(0.877047 0.000343843 0)
(0.877425 0.000448815 0)
(0.877138 0.00049986 0)
(0.87689 0.000524175 0)
(0.876762 0.000520079 0)
(0.876658 0.000492127 0)
(0.876559 0.000451502 0)
(0.876478 0.000406203 0)
(0.876416 0.000360132 0)
(0.796038 0.000204832 0)
(0.797011 0.000494449 0)
(0.797349 0.000617657 0)
(0.797045 0.000660674 0)
(0.796817 0.000667045 0)
(0.796724 0.000638077 0)
(0.796663 0.000583617 0)
(0.796615 0.000519472 0)
(0.796586 0.000455112 0)
(0.796573 0.000394263 0)
(0.695952 0.000307529 0)
(0.696956 0.000688001 0)
(0.697255 0.00080182 0)
(0.696964 0.000807315 0)
(0.696797 0.000771987 0)
(0.696777 0.000702091 0)
(0.69679 0.000613793 0)
(0.696815 0.000525615 0)
(0.696852 0.000445736 0)
(0.696896 0.000375693 0)
(0.575835 0.000472851 0)
(0.576893 0.00092529 0)
(0.577194 0.000965267 0)
(0.576987 0.00088956 0)
(0.576945 0.000789865 0)
(0.577038 0.000672532 0)
(0.577149 0.000555596 0)
(0.577256 0.000454314 0)
(0.577359 0.000371231 0)
(0.577455 0.000303636 0)
(0.435681 0.00075305 0)
(0.436892 0.00117172 0)
(0.437315 0.00102235 0)
(0.437307 0.000827156 0)
(0.437447 0.000665328 0)
(0.437666 0.000521133 0)
(0.437866 0.000401954 0)
(0.438034 0.000311746 0)
(0.438178 0.000244715 0)
(0.438299 0.000194043 0)
(0.275607 0.00102426 0)
(0.277228 0.00120725 0)
(0.277953 0.000826036 0)
(0.278225 0.000560332 0)
(0.278524 0.000396517 0)
(0.27881 0.000278845 0)
(0.279033 0.000197051 0)
(0.279203 0.000143358 0)
(0.279337 0.000107526 0)
(0.279444 8.24456e-05 0)
(0.0969795 0.000406773 0)
(0.098936 0.000282919 0)
(0.0997331 0.000162732 0)
(0.100091 0.000104607 0)
(0.100349 6.48106e-05 0)
(0.100537 3.81021e-05 0)
(0.100664 2.31824e-05 0)
(0.100751 1.52421e-05 0)
(0.100815 1.06112e-05 0)
(0.100863 7.65054e-06 0)
(0.1009 -5.68555e-06 0)
(0.100929 -4.34765e-06 0)
(0.100952 -3.40568e-06 0)
(0.100971 -2.71714e-06 0)
(0.100986 -2.1976e-06 0)
(0.100998 -1.79681e-06 0)
(0.101008 -1.48317e-06 0)
(0.101017 -1.23518e-06 0)
(0.101024 -1.03691e-06 0)
(0.10103 -8.76514e-07 0)
(0.101035 -7.45018e-07 0)
(0.101039 -6.36009e-07 0)
(0.101043 -5.4468e-07 0)
(0.101046 -4.67663e-07 0)
(0.101049 -4.02274e-07 0)
(0.101051 -3.46588e-07 0)
(0.101053 -2.98892e-07 0)
(0.101055 -2.57957e-07 0)
(0.101057 -2.22601e-07 0)
(0.101058 -1.92024e-07 0)
(0.101059 -1.65397e-07 0)
(0.10106 -1.42225e-07 0)
(0.101061 -1.21926e-07 0)
(0.101061 -1.04198e-07 0)
(0.101062 -8.86122e-08 0)
(0.101062 -7.49856e-08 0)
(0.101063 -6.29741e-08 0)
(0.101063 -5.24687e-08 0)
(0.101063 -4.31838e-08 0)
(0.101063 -3.5063e-08 0)
(0.101063 -2.78664e-08 0)
(0.101064 -2.15788e-08 0)
(0.101064 -1.59961e-08 0)
(0.101064 -1.11349e-08 0)
(0.101064 -6.81889e-09 0)
(0.279528 -6.42529e-05 0)
(0.279597 -5.0846e-05 0)
(0.279652 -4.0781e-05 0)
(0.279698 -3.30887e-05 0)
(0.279735 -2.71005e-05 0)
(0.279766 -2.23638e-05 0)
(0.279792 -1.85739e-05 0)
(0.279813 -1.55181e-05 0)
(0.279831 -1.3038e-05 0)
(0.279847 -1.10103e-05 0)
(0.279859 -9.33849e-06 0)
(0.27987 -7.9482e-06 0)
(0.27988 -6.78298e-06 0)
(0.279888 -5.80017e-06 0)
(0.279895 -4.96696e-06 0)
(0.279901 -4.25763e-06 0)
(0.279906 -3.65144e-06 0)
(0.27991 -3.13144e-06 0)
(0.279914 -2.68366e-06 0)
(0.279917 -2.29657e-06 0)
(0.279919 -1.96065e-06 0)
(0.279922 -1.66812e-06 0)
(0.279924 -1.41253e-06 0)
(0.279925 -1.1886e-06 0)
(0.279927 -9.9189e-07 0)
(0.279928 -8.18698e-07 0)
(0.279929 -6.65868e-07 0)
(0.279929 -5.30724e-07 0)
(0.27993 -4.10962e-07 0)
(0.27993 -3.04626e-07 0)
(0.279931 -2.10032e-07 0)
(0.279931 -1.25764e-07 0)
(0.279931 -5.06067e-08 0)
(0.279931 1.64505e-08 0)
(0.279931 7.627e-08 0)
(0.4384 -0.000155055 0)
(0.438484 -0.000125022 0)
(0.438554 -0.000101665 0)
(0.438613 -8.33317e-05 0)
(0.438662 -6.87756e-05 0)
(0.438702 -5.709e-05 0)
(0.438737 -4.76281e-05 0)
(0.438766 -3.9921e-05 0)
(0.43879 -3.36121e-05 0)
(0.438811 -2.84198e-05 0)
(0.438828 -2.41185e-05 0)
(0.438843 -2.05305e-05 0)
(0.438856 -1.75175e-05 0)
(0.438867 -1.49728e-05 0)
(0.438876 -1.28135e-05 0)
(0.438884 -1.09741e-05 0)
(0.438891 -9.40144e-06 0)
(0.438897 -8.0523e-06 0)
(0.438902 -6.89056e-06 0)
(0.438906 -5.88657e-06 0)
(0.43891 -5.01552e-06 0)
(0.438913 -4.2572e-06 0)
(0.438916 -3.59465e-06 0)
(0.438918 -3.01409e-06 0)
(0.43892 -2.50376e-06 0)
(0.438921 -2.05405e-06 0)
(0.438922 -1.65658e-06 0)
(0.438923 -1.30447e-06 0)
(0.438924 -9.91594e-07 0)
(0.438924 -7.13015e-07 0)
(0.438925 -4.64252e-07 0)
(0.438925 -2.41781e-07 0)
(0.438925 -4.23593e-08 0)
(0.438925 1.36469e-07 0)
(0.438924 2.97021e-07 0)
(0.57754 -0.000248525 0)
(0.577614 -0.000204179 0)
(0.577678 -0.000168464 0)
(0.577733 -0.000139655 0)
(0.57778 -0.00011629 0)
(0.57782 -9.7212e-05 0)
(0.577855 -8.15485e-05 0)
(0.577884 -6.86417e-05 0)
(0.577908 -5.79758e-05 0)
(0.57793 -4.91301e-05 0)
(0.577948 -4.17588e-05 0)
(0.577963 -3.55818e-05 0)
(0.577976 -3.03765e-05 0)
(0.577988 -2.59683e-05 0)
(0.577997 -2.22199e-05 0)
(0.578006 -1.90215e-05 0)
(0.578013 -1.62836e-05 0)
(0.578019 -1.39325e-05 0)
(0.578024 -1.19067e-05 0)
(0.578028 -1.01548e-05 0)
(0.578032 -8.63446e-06 0)
(0.578035 -7.31008e-06 0)
(0.578038 -6.15245e-06 0)
(0.57804 -5.13714e-06 0)
(0.578042 -4.24387e-06 0)
(0.578043 -3.45547e-06 0)
(0.578044 -2.75756e-06 0)
(0.578045 -2.1378e-06 0)
(0.578046 -1.5858e-06 0)
(0.578046 -1.09263e-06 0)
(0.578046 -6.50815e-07 0)
(0.578046 -2.53936e-07 0)
(0.578046 1.03311e-07 0)
(0.578046 4.2544e-07 0)
(0.578045 7.16128e-07 0)
(0.696942 -0.000315026 0)
(0.696986 -0.000263924 0)
(0.697026 -0.000221203 0)
(0.697063 -0.000185705 0)
(0.697096 -0.000156219 0)
(0.697124 -0.000131669 0)
(0.697149 -0.000111184 0)
(0.697171 -9.40766e-05 0)
(0.69719 -7.97803e-05 0)
(0.697206 -6.78155e-05 0)
(0.69722 -5.77716e-05 0)
(0.697232 -4.93054e-05 0)
(0.697243 -4.21371e-05 0)
(0.697252 -3.60432e-05 0)
(0.697259 -3.08452e-05 0)
(0.697266 -2.63986e-05 0)
(0.697271 -2.25846e-05 0)
(0.697276 -1.9304e-05 0)
(0.69728 -1.64734e-05 0)
(0.697284 -1.40229e-05 0)
(0.697286 -1.18937e-05 0)
(0.697289 -1.00371e-05 0)
(0.697291 -8.41216e-06 0)
(0.697292 -6.98507e-06 0)
(0.697294 -5.72738e-06 0)
(0.697295 -4.61517e-06 0)
(0.697295 -3.62819e-06 0)
(0.697296 -2.74926e-06 0)
(0.697296 -1.96377e-06 0)
(0.697296 -1.25931e-06 0)
(0.697296 -6.25394e-07 0)
(0.697296 -5.31707e-08 0)
(0.697295 4.64757e-07 0)
(0.697295 9.34545e-07 0)
(0.697294 1.36127e-06 0)
(0.79657 -0.000338204 0)
(0.796573 -0.000288787 0)
(0.79658 -0.000245875 0)
(0.796588 -0.00020911 0)
(0.796598 -0.000177797 0)
(0.796607 -0.000151177 0)
(0.796616 -0.000128575 0)
(0.796624 -0.000109419 0)
(0.796631 -9.32149e-05 0)
(0.796638 -7.95158e-05 0)
(0.796644 -6.79207e-05 0)
(0.796649 -5.80801e-05 0)
(0.796654 -4.97013e-05 0)
(0.796657 -4.2545e-05 0)
(0.796661 -3.64169e-05 0)
(0.796664 -3.11576e-05 0)
(0.796666 -2.66343e-05 0)
(0.796668 -2.27345e-05 0)
(0.79667 -1.93628e-05 0)
(0.796671 -1.64383e-05 0)
(0.796672 -1.38927e-05 0)
(0.796673 -1.16685e-05 0)
(0.796674 -9.71794e-06 0)
(0.796674 -8.00084e-06 0)
(0.796674 -6.48354e-06 0)
(0.796675 -5.1376e-06 0)
(0.796675 -3.93895e-06 0)
(0.796674 -2.86713e-06 0)
(0.796674 -1.90475e-06 0)
(0.796674 -1.03708e-06 0)
(0.796673 -2.51672e-07 0)
(0.796672 4.61906e-07 0)
(0.796672 1.11234e-06 0)
(0.796671 1.70681e-06 0)
(0.79667 2.25115e-06 0)
(0.876368 -0.00031504 0)
(0.876331 -0.000273616 0)
(0.876302 -0.000236329 0)
(0.876279 -0.000203437 0)
(0.876262 -0.000174736 0)
(0.876248 -0.000149834 0)
(0.876237 -0.000128323 0)
(0.876228 -0.000109823 0)
(0.876221 -9.39797e-05 0)
(0.876215 -8.04485e-05 0)
(0.87621 -6.88978e-05 0)
(0.876206 -5.90249e-05 0)
(0.876203 -5.05679e-05 0)
(0.8762 -4.33078e-05 0)
(0.876198 -3.70635e-05 0)
(0.876196 -3.1684e-05 0)
(0.876194 -2.70419e-05 0)
(0.876192 -2.30277e-05 0)
(0.876191 -1.95473e-05 0)
(0.876189 -1.652e-05 0)
(0.876188 -1.38772e-05 0)
(0.876187 -1.15611e-05 0)
(0.876186 -9.52287e-06 0)
(0.876185 -7.72173e-06 0)
(0.876183 -6.12323e-06 0)
(0.876182 -4.69825e-06 0)
(0.876182 -3.42209e-06 0)
(0.876181 -2.27375e-06 0)
(0.87618 -1.23538e-06 0)
(0.876179 -2.91901e-07 0)
(0.876177 5.69385e-07 0)
(0.876176 1.35905e-06 0)
(0.876175 2.08585e-06 0)
(0.876174 2.75687e-06 0)
(0.876173 3.37783e-06 0)
(0.936275 -0.000252456 0)
(0.936205 -0.000222275 0)
(0.936146 -0.000194256 0)
(0.936095 -0.000168909 0)
(0.936053 -0.000146321 0)
(0.936018 -0.000126369 0)
(0.935987 -0.000108865 0)
(0.935962 -9.36134e-05 0)
(0.93594 -8.04061e-05 0)
(0.935922 -6.90196e-05 0)
(0.935906 -5.9222e-05 0)
(0.935893 -5.07905e-05 0)
(0.935881 -4.35254e-05 0)
(0.935871 -3.72558e-05 0)
(0.935862 -3.18379e-05 0)
(0.935855 -2.71503e-05 0)
(0.935849 -2.30887e-05 0)
(0.935843 -1.95624e-05 0)
(0.935838 -1.64925e-05 0)
(0.935834 -1.38107e-05 0)
(0.93583 -1.14583e-05 0)
(0.935827 -9.38575e-06 0)
(0.935824 -7.551e-06 0)
(0.935821 -5.91868e-06 0)
(0.935819 -4.45896e-06 0)
(0.935817 -3.14653e-06 0)
(0.935815 -1.95991e-06 0)
(0.935813 -8.80843e-07 0)
(0.935811 1.06138e-07 0)
(0.93581 1.01407e-06 0)
(0.935808 1.85382e-06 0)
(0.935807 2.63437e-06 0)
(0.935805 3.36299e-06 0)
(0.935804 4.04546e-06 0)
(0.935803 4.68625e-06 0)
(0.976241 -0.000161947 0)
(0.976149 -0.000143924 0)
(0.976068 -0.000126807 0)
(0.975998 -0.00011103 0)
(0.975938 -9.67453e-05 0)
(0.975886 -8.39541e-05 0)
(0.975841 -7.25985e-05 0)
(0.975802 -6.26011e-05 0)
(0.975768 -5.3866e-05 0)
(0.97574 -4.62762e-05 0)
(0.975715 -3.97004e-05 0)
(0.975694 -3.40059e-05 0)
(0.975676 -2.90702e-05 0)
(0.97566 -2.47867e-05 0)
(0.975646 -2.10641e-05 0)
(0.975634 -1.78247e-05 0)
(0.975624 -1.50005e-05 0)
(0.975615 -1.25322e-05 0)
(0.975608 -1.03671e-05 0)
(0.975601 -8.45962e-06 0)
(0.975595 -6.77016e-06 0)
(0.97559 -5.26508e-06 0)
(0.975585 -3.91586e-06 0)
(0.975581 -2.69844e-06 0)
(0.975578 -1.59246e-06 0)
(0.975575 -5.80698e-07 0)
(0.975572 3.51476e-07 0)
(0.97557 1.21642e-06 0)
(0.975568 2.02455e-06 0)
(0.975566 2.78451e-06 0)
(0.975564 3.50339e-06 0)
(0.975562 4.18686e-06 0)
(0.975561 4.83931e-06 0)
(0.975559 5.464e-06 0)
(0.975558 6.06312e-06 0)
(0.996232 -5.54523e-05 0)
(0.996129 -4.94662e-05 0)
(0.996038 -4.3707e-05 0)
(0.995958 -3.83394e-05 0)
(0.995888 -3.34313e-05 0)
(0.995827 -2.89958e-05 0)
(0.995774 -2.50237e-05 0)
(0.995728 -2.14972e-05 0)
(0.995688 -1.83902e-05 0)
(0.995654 -1.56673e-05 0)
(0.995624 -1.32863e-05 0)
(0.995598 -1.12032e-05 0)
(0.995576 -9.37648e-06 0)
(0.995557 -7.76977e-06 0)
(0.995541 -6.35175e-06 0)
(0.995526 -5.09543e-06 0)
(0.995514 -3.97706e-06 0)
(0.995503 -2.97549e-06 0)
(0.995494 -2.07192e-06 0)
(0.995486 -1.24982e-06 0)
(0.995479 -4.94837e-07 0)
(0.995473 2.05265e-07 0)
(0.995468 8.60905e-07 0)
(0.995463 1.4808e-06 0)
(0.995459 2.07234e-06 0)
(0.995456 2.64166e-06 0)
(0.995453 3.19395e-06 0)
(0.99545 3.73341e-06 0)
(0.995448 4.26347e-06 0)
(0.995445 4.78671e-06 0)
(0.995444 5.30503e-06 0)
(0.995442 5.81957e-06 0)
(0.995441 6.33088e-06 0)
(0.995439 6.83877e-06 0)
(0.995438 7.34255e-06 0)
(0.996232 5.61617e-05 0)
(0.996129 5.02708e-05 0)
(0.996038 4.46181e-05 0)
(0.995958 3.93702e-05 0)
(0.995888 3.45957e-05 0)
(0.995827 3.03083e-05 0)
(0.995774 2.64995e-05 0)
(0.995728 2.31515e-05 0)
(0.995688 2.02381e-05 0)
(0.995654 1.77243e-05 0)
(0.995624 1.55691e-05 0)
(0.995599 1.37305e-05 0)
(0.995577 1.21684e-05 0)
(0.995558 1.0848e-05 0)
(0.995541 9.73859e-06 0)
(0.995527 8.81437e-06 0)
(0.995515 8.05257e-06 0)
(0.995504 7.43356e-06 0)
(0.995495 6.93995e-06 0)
(0.995487 6.55682e-06 0)
(0.99548 6.27111e-06 0)
(0.995474 6.07184e-06 0)
(0.995469 5.94948e-06 0)
(0.995465 5.89613e-06 0)
(0.995461 5.90476e-06 0)
(0.995458 5.96953e-06 0)
(0.995455 6.08503e-06 0)
(0.995452 6.24668e-06 0)
(0.99545 6.45003e-06 0)
(0.995448 6.69118e-06 0)
(0.995447 6.96617e-06 0)
(0.995446 7.27141e-06 0)
(0.995444 7.60303e-06 0)
(0.995443 7.95743e-06 0)
(0.995443 8.33058e-06 0)
(0.976241 0.000162628 0)
(0.976149 0.000144697 0)
(0.976069 0.000127682 0)
(0.975999 0.000112019 0)
(0.975938 9.78623e-05 0)
(0.975886 8.52122e-05 0)
(0.975841 7.40123e-05 0)
(0.975802 6.41852e-05 0)
(0.975769 5.56348e-05 0)
(0.975741 4.82445e-05 0)
(0.975716 4.18841e-05 0)
(0.975695 3.64227e-05 0)
(0.975677 3.17395e-05 0)
(0.975661 2.77287e-05 0)
(0.975648 2.43004e-05 0)
(0.975636 2.13775e-05 0)
(0.975626 1.88933e-05 0)
(0.975618 1.67895e-05 0)
(0.97561 1.50151e-05 0)
(0.975604 1.35257e-05 0)
(0.975598 1.22831e-05 0)
(0.975594 1.12548e-05 0)
(0.97559 1.04131e-05 0)
(0.975586 9.7345e-06 0)
(0.975583 9.19933e-06 0)
(0.975581 8.7903e-06 0)
(0.975579 8.49281e-06 0)
(0.975577 8.29383e-06 0)
(0.975575 8.18222e-06 0)
(0.975574 8.14778e-06 0)
(0.975573 8.1817e-06 0)
(0.975572 8.27569e-06 0)
(0.975572 8.42244e-06 0)
(0.975571 8.61483e-06 0)
(0.975571 8.8464e-06 0)
(0.936276 0.000253084 0)
(0.936205 0.000222986 0)
(0.936146 0.000195061 0)
(0.936096 0.000169818 0)
(0.936054 0.000147346 0)
(0.936018 0.000127521 0)
(0.935988 0.000110159 0)
(0.935963 9.50614e-05 0)
(0.935941 8.20217e-05 0)
(0.935923 7.08162e-05 0)
(0.935908 6.12143e-05 0)
(0.935894 5.29943e-05 0)
(0.935883 4.59581e-05 0)
(0.935874 3.99357e-05 0)
(0.935865 3.47845e-05 0)
(0.935858 3.03836e-05 0)
(0.935852 2.663e-05 0)
(0.935847 2.34339e-05 0)
(0.935843 2.07178e-05 0)
(0.935839 1.84141e-05 0)
(0.935836 1.6466e-05 0)
(0.935833 1.48241e-05 0)
(0.935831 1.34477e-05 0)
(0.935829 1.23015e-05 0)
(0.935827 1.13566e-05 0)
(0.935826 1.05873e-05 0)
(0.935825 9.97227e-06 0)
(0.935824 9.49242e-06 0)
(0.935824 9.13182e-06 0)
(0.935823 8.87568e-06 0)
(0.935823 8.71185e-06 0)
(0.935823 8.62862e-06 0)
(0.935823 8.6164e-06 0)
(0.935823 8.66551e-06 0)
(0.935823 8.76801e-06 0)
(0.876369 0.000315591 0)
(0.876331 0.00027424 0)
(0.876302 0.000237034 0)
(0.87628 0.000204231 0)
(0.876262 0.000175628 0)
(0.876249 0.000150836 0)
(0.876238 0.000129445 0)
(0.876229 0.000111077 0)
(0.876222 9.5378e-05 0)
(0.876217 8.20025e-05 0)
(0.876212 7.06196e-05 0)
(0.876209 6.09286e-05 0)
(0.876206 5.26677e-05 0)
(0.876203 4.56197e-05 0)
(0.876201 3.96034e-05 0)
(0.8762 3.44698e-05 0)
(0.876198 3.00911e-05 0)
(0.876197 2.63597e-05 0)
(0.876196 2.31814e-05 0)
(0.876196 2.04775e-05 0)
(0.876195 1.81792e-05 0)
(0.876195 1.62305e-05 0)
(0.876194 1.45822e-05 0)
(0.876194 1.3195e-05 0)
(0.876194 1.20335e-05 0)
(0.876194 1.10699e-05 0)
(0.876195 1.02781e-05 0)
(0.876195 9.63776e-06 0)
(0.876195 9.12893e-06 0)
(0.876196 8.73676e-06 0)
(0.876196 8.44557e-06 0)
(0.876197 8.24428e-06 0)
(0.876198 8.12024e-06 0)
(0.876199 8.06494e-06 0)
(0.8762 8.06773e-06 0)
(0.796571 0.000338661 0)
(0.796574 0.000289304 0)
(0.796581 0.000246457 0)
(0.796589 0.000209763 0)
(0.796599 0.000178528 0)
(0.796608 0.000151995 0)
(0.796617 0.000129489 0)
(0.796626 0.000110439 0)
(0.796633 9.43494e-05 0)
(0.79664 8.07752e-05 0)
(0.796646 6.93154e-05 0)
(0.796652 5.96209e-05 0)
(0.796657 5.13997e-05 0)
(0.796661 4.44131e-05 0)
(0.796665 3.84678e-05 0)
(0.796668 3.34049e-05 0)
(0.796671 2.90924e-05 0)
(0.796674 2.54184e-05 0)
(0.796676 2.22883e-05 0)
(0.796679 1.96214e-05 0)
(0.796681 1.73502e-05 0)
(0.796682 1.54179e-05 0)
(0.796684 1.37771e-05 0)
(0.796685 1.23878e-05 0)
(0.796687 1.12168e-05 0)
(0.796688 1.02354e-05 0)
(0.79669 9.41938e-06 0)
(0.796691 8.74779e-06 0)
(0.796692 8.20258e-06 0)
(0.796693 7.76796e-06 0)
(0.796695 7.43029e-06 0)
(0.796696 7.17746e-06 0)
(0.796697 6.99886e-06 0)
(0.796699 6.88497e-06 0)
(0.7967 6.82725e-06 0)
(0.696942 0.000315381 0)
(0.696986 0.000264323 0)
(0.697027 0.000221649 0)
(0.697064 0.000186201 0)
(0.697097 0.000156772 0)
(0.697126 0.000132284 0)
(0.697151 0.00011187 0)
(0.697173 9.48386e-05 0)
(0.697192 8.06273e-05 0)
(0.697209 6.87543e-05 0)
(0.697223 5.8811e-05 0)
(0.697235 5.04521e-05 0)
(0.697246 4.34003e-05 0)
(0.697256 3.74306e-05 0)
(0.697264 3.23673e-05 0)
(0.697271 2.80641e-05 0)
(0.697277 2.44052e-05 0)
(0.697282 2.12894e-05 0)
(0.697287 1.8636e-05 0)
(0.697291 1.63728e-05 0)
(0.697295 1.44443e-05 0)
(0.697298 1.27991e-05 0)
(0.697301 1.13997e-05 0)
(0.697304 1.02094e-05 0)
(0.697306 9.20289e-06 0)
(0.697309 8.35312e-06 0)
(0.697311 7.64271e-06 0)
(0.697313 7.05096e-06 0)
(0.697315 6.56588e-06 0)
(0.697316 6.17106e-06 0)
(0.697318 5.85834e-06 0)
(0.69732 5.61429e-06 0)
(0.697321 5.43352e-06 0)
(0.697323 5.30465e-06 0)
(0.697325 5.22423e-06 0)
(0.57754 0.000248766 0)
(0.577615 0.000204449 0)
(0.577679 0.000168764 0)
(0.577734 0.000139988 0)
(0.577781 0.000116658 0)
(0.577822 9.76206e-05 0)
(0.577856 8.20014e-05 0)
(0.577885 6.9145e-05 0)
(0.57791 5.85339e-05 0)
(0.577932 4.97496e-05 0)
(0.57795 4.24439e-05 0)
(0.577966 3.63383e-05 0)
(0.57798 3.12084e-05 0)
(0.577992 2.6882e-05 0)
(0.578002 2.32202e-05 0)
(0.57801 2.01158e-05 0)
(0.578018 1.74776e-05 0)
(0.578025 1.52341e-05 0)
(0.578031 1.33218e-05 0)
(0.578036 1.16918e-05 0)
(0.57804 1.02993e-05 0)
(0.578044 9.11165e-06 0)
(0.578048 8.09714e-06 0)
(0.578051 7.23412e-06 0)
(0.578054 6.49965e-06 0)
(0.578056 5.87926e-06 0)
(0.578059 5.35557e-06 0)
(0.578061 4.91883e-06 0)
(0.578063 4.55533e-06 0)
(0.578065 4.25858e-06 0)
(0.578067 4.01744e-06 0)
(0.578069 3.82776e-06 0)
(0.57807 3.68021e-06 0)
(0.578072 3.5723e-06 0)
(0.578074 3.49596e-06 0)
(0.438401 0.000155179 0)
(0.438485 0.000125161 0)
(0.438555 0.000101821 0)
(0.438614 8.35053e-05 0)
(0.438663 6.89684e-05 0)
(0.438704 5.73042e-05 0)
(0.438738 4.7866e-05 0)
(0.438767 4.01861e-05 0)
(0.438792 3.39078e-05 0)
(0.438813 2.87495e-05 0)
(0.438831 2.44847e-05 0)
(0.438846 2.09357e-05 0)
(0.438859 1.79635e-05 0)
(0.43887 1.54626e-05 0)
(0.43888 1.33497e-05 0)
(0.438888 1.15605e-05 0)
(0.438896 1.00411e-05 0)
(0.438902 8.74912e-06 0)
(0.438908 7.6476e-06 0)
(0.438912 6.70774e-06 0)
(0.438917 5.90395e-06 0)
(0.438921 5.21706e-06 0)
(0.438924 4.62926e-06 0)
(0.438927 4.12781e-06 0)
(0.43893 3.69994e-06 0)
(0.438932 3.33708e-06 0)
(0.438934 3.02961e-06 0)
(0.438936 2.77163e-06 0)
(0.438938 2.55561e-06 0)
(0.43894 2.37754e-06 0)
(0.438941 2.23132e-06 0)
(0.438943 2.11432e-06 0)
(0.438944 2.02147e-06 0)
(0.438946 1.95113e-06 0)
(0.438947 1.89893e-06 0)
(0.279529 6.42906e-05 0)
(0.279597 5.08883e-05 0)
(0.279653 4.08304e-05 0)
(0.279698 3.31449e-05 0)
(0.279736 2.71643e-05 0)
(0.279767 2.24349e-05 0)
(0.279793 1.86541e-05 0)
(0.279814 1.56084e-05 0)
(0.279832 1.31409e-05 0)
(0.279848 1.11265e-05 0)
(0.279861 9.46951e-06 0)
(0.279872 8.09361e-06 0)
(0.279882 6.9442e-06 0)
(0.27989 5.97701e-06 0)
(0.279897 5.16147e-06 0)
(0.279903 4.47e-06 0)
(0.279909 3.88393e-06 0)
(0.279913 3.38414e-06 0)
(0.279917 2.95875e-06 0)
(0.279921 2.59397e-06 0)
(0.279924 2.28263e-06 0)
(0.279927 2.01464e-06 0)
(0.279929 1.78603e-06 0)
(0.279931 1.58907e-06 0)
(0.279933 1.42185e-06 0)
(0.279935 1.27809e-06 0)
(0.279936 1.15719e-06 0)
(0.279938 1.05375e-06 0)
(0.279939 9.68072e-07 0)
(0.27994 8.9534e-07 0)
(0.279942 8.3655e-07 0)
(0.279943 7.87286e-07 0)
(0.279944 7.49071e-07 0)
(0.279945 7.17758e-07 0)
(0.279946 6.95272e-07 0)
(0.1009 5.68375e-06 0)
(0.100929 4.34547e-06 0)
(0.100952 3.40399e-06 0)
(0.100971 2.71638e-06 0)
(0.100986 2.19744e-06 0)
(0.100998 1.79708e-06 0)
(0.101009 1.48398e-06 0)
(0.101017 1.237e-06 0)
(0.101024 1.04004e-06 0)
(0.101031 8.81071e-07 0)
(0.101036 7.50841e-07 0)
(0.10104 6.42992e-07 0)
(0.101044 5.52695e-07 0)
(0.101047 4.76773e-07 0)
(0.10105 4.12484e-07 0)
(0.101052 3.5802e-07 0)
(0.101054 3.11504e-07 0)
(0.101056 2.71832e-07 0)
(0.101058 2.37643e-07 0)
(0.101059 2.08305e-07 0)
(0.101061 1.82823e-07 0)
(0.101062 1.60902e-07 0)
(0.101063 1.41769e-07 0)
(0.101063 1.25342e-07 0)
(0.101064 1.10968e-07 0)
(0.101065 9.86968e-08 0)
(0.101065 8.7936e-08 0)
(0.101066 7.88243e-08 0)
(0.101067 7.08099e-08 0)
(0.101067 6.41062e-08 0)
(0.101067 5.81873e-08 0)
(0.101068 5.33297e-08 0)
(0.101068 4.90243e-08 0)
(0.101069 4.56003e-08 0)
(0.101069 4.25562e-08 0)
(0.101064 -3.08549e-09 0)
(0.101063 2.23903e-10 0)
(0.101063 3.05968e-09 0)
(0.101063 5.56683e-09 0)
(0.101063 7.68806e-09 0)
(0.101063 9.55876e-09 0)
(0.101063 1.11178e-08 0)
(0.101063 1.24926e-08 0)
(0.101062 1.362e-08 0)
(0.101062 1.46202e-08 0)
(0.27993 1.29564e-07 0)
(0.27993 1.76946e-07 0)
(0.27993 2.18922e-07 0)
(0.27993 2.55931e-07 0)
(0.279929 2.88339e-07 0)
(0.279929 3.16464e-07 0)
(0.279928 3.40578e-07 0)
(0.279928 3.60919e-07 0)
(0.279927 3.77695e-07 0)
(0.279926 3.91086e-07 0)
(0.438924 4.4097e-07 0)
(0.438924 5.69959e-07 0)
(0.438923 6.85097e-07 0)
(0.438922 7.87552e-07 0)
(0.438922 8.78039e-07 0)
(0.438921 9.57392e-07 0)
(0.43892 1.02606e-06 0)
(0.438919 1.08464e-06 0)
(0.438918 1.1334e-06 0)
(0.438917 1.1728e-06 0)
(0.578045 9.78486e-07 0)
(0.578044 1.21499e-06 0)
(0.578043 1.42773e-06 0)
(0.578042 1.61833e-06 0)
(0.578041 1.78814e-06 0)
(0.57804 1.93817e-06 0)
(0.578039 2.06926e-06 0)
(0.578038 2.18201e-06 0)
(0.578037 2.27691e-06 0)
(0.578035 2.35427e-06 0)
(0.697293 1.74907e-06 0)
(0.697292 2.1013e-06 0)
(0.697291 2.42062e-06 0)
(0.69729 2.70913e-06 0)
(0.697289 2.96843e-06 0)
(0.697287 3.19967e-06 0)
(0.697286 3.4037e-06 0)
(0.697285 3.58104e-06 0)
(0.697283 3.73201e-06 0)
(0.697281 3.8567e-06 0)
(0.796669 2.75007e-06 0)
(0.796668 3.20728e-06 0)
(0.796666 3.62563e-06 0)
(0.796665 4.00727e-06 0)
(0.796664 4.35368e-06 0)
(0.796662 4.66582e-06 0)
(0.796661 4.9442e-06 0)
(0.796659 5.18894e-06 0)
(0.796657 5.39984e-06 0)
(0.796656 5.57648e-06 0)
(0.876172 3.95317e-06 0)
(0.87617 4.4863e-06 0)
(0.876169 4.97964e-06 0)
(0.876168 5.43483e-06 0)
(0.876166 5.85277e-06 0)
(0.876165 6.23377e-06 0)
(0.876163 6.57758e-06 0)
(0.876161 6.88354e-06 0)
(0.87616 7.15061e-06 0)
(0.876158 7.37749e-06 0)
(0.935801 5.28865e-06 0)
(0.9358 5.85491e-06 0)
(0.935798 6.38638e-06 0)
(0.935797 6.88358e-06 0)
(0.935796 7.34631e-06 0)
(0.935794 7.77377e-06 0)
(0.935793 8.16459e-06 0)
(0.935791 8.51695e-06 0)
(0.93579 8.82866e-06 0)
(0.935788 9.09722e-06 0)
(0.975557 6.63794e-06 0)
(0.975555 7.18887e-06 0)
(0.975554 7.71554e-06 0)
(0.975553 8.21686e-06 0)
(0.975552 8.69112e-06 0)
(0.97555 9.13605e-06 0)
(0.975549 9.54884e-06 0)
(0.975548 9.92629e-06 0)
(0.975547 1.02648e-05 0)
(0.975546 1.05607e-05 0)
(0.995437 7.84084e-06 0)
(0.995436 8.33177e-06 0)
(0.995435 8.81285e-06 0)
(0.995434 9.28115e-06 0)
(0.995433 9.73318e-06 0)
(0.995433 1.01651e-05 0)
(0.995432 1.05725e-05 0)
(0.995431 1.09507e-05 0)
(0.99543 1.12949e-05 0)
(0.995429 1.15999e-05 0)
(0.995442 8.71856e-06 0)
(0.995441 9.11695e-06 0)
(0.995441 9.52134e-06 0)
(0.99544 9.92676e-06 0)
(0.99544 1.03282e-05 0)
(0.99544 1.07202e-05 0)
(0.99544 1.10971e-05 0)
(0.995439 1.14529e-05 0)
(0.995439 1.17816e-05 0)
(0.995439 1.20769e-05 0)
(0.975571 9.11058e-06 0)
(0.975571 9.40126e-06 0)
(0.975571 9.71199e-06 0)
(0.975571 1.00366e-05 0)
(0.975571 1.03686e-05 0)
(0.975572 1.07015e-05 0)
(0.975572 1.10286e-05 0)
(0.975572 1.13431e-05 0)
(0.975573 1.16382e-05 0)
(0.975573 1.1907e-05 0)
(0.935824 8.91545e-06 0)
(0.935824 9.10081e-06 0)
(0.935825 9.31623e-06 0)
(0.935826 9.55512e-06 0)
(0.935827 9.80983e-06 0)
(0.935827 1.00739e-05 0)
(0.935828 1.03397e-05 0)
(0.935829 1.06007e-05 0)
(0.93583 1.08493e-05 0)
(0.935832 1.10791e-05 0)
(0.876201 8.12177e-06 0)
(0.876202 8.21758e-06 0)
(0.876203 8.34931e-06 0)
(0.876204 8.50813e-06 0)
(0.876205 8.68869e-06 0)
(0.876207 8.88245e-06 0)
(0.876208 9.08433e-06 0)
(0.87621 9.28593e-06 0)
(0.876211 9.48234e-06 0)
(0.876213 9.66529e-06 0)
(0.796701 6.81784e-06 0)
(0.796703 6.84951e-06 0)
(0.796704 6.91547e-06 0)
(0.796706 7.00924e-06 0)
(0.796708 7.12461e-06 0)
(0.796709 7.25554e-06 0)
(0.796711 7.39618e-06 0)
(0.796713 7.54071e-06 0)
(0.796715 7.68351e-06 0)
(0.796717 7.819e-06 0)
(0.697326 5.18219e-06 0)
(0.697328 5.17639e-06 0)
(0.69733 5.19759e-06 0)
(0.697331 5.24446e-06 0)
(0.697333 5.30824e-06 0)
(0.697335 5.38811e-06 0)
(0.697337 5.47556e-06 0)
(0.697339 5.57015e-06 0)
(0.697341 5.6635e-06 0)
(0.697343 5.75549e-06 0)
(0.578075 3.44984e-06 0)
(0.578077 3.42668e-06 0)
(0.578079 3.42591e-06 0)
(0.57808 3.44076e-06 0)
(0.578082 3.47116e-06 0)
(0.578084 3.51062e-06 0)
(0.578085 3.55942e-06 0)
(0.578087 3.61123e-06 0)
(0.578089 3.66656e-06 0)
(0.578091 3.71926e-06 0)
(0.438949 1.86394e-06 0)
(0.43895 1.84226e-06 0)
(0.438951 1.83345e-06 0)
(0.438953 1.83386e-06 0)
(0.438954 1.84341e-06 0)
(0.438956 1.8586e-06 0)
(0.438957 1.87958e-06 0)
(0.438958 1.90293e-06 0)
(0.43896 1.92899e-06 0)
(0.438961 1.95439e-06 0)
(0.279947 6.77633e-07 0)
(0.279947 6.67061e-07 0)
(0.279948 6.59666e-07 0)
(0.279949 6.57887e-07 0)
(0.27995 6.5787e-07 0)
(0.279951 6.62214e-07 0)
(0.279952 6.67074e-07 0)
(0.279953 6.75165e-07 0)
(0.279954 6.82636e-07 0)
(0.279955 6.92289e-07 0)
(0.101069 4.02643e-08 0)
(0.10107 3.82241e-08 0)
(0.10107 3.68422e-08 0)
(0.10107 3.56141e-08 0)
(0.101071 3.49742e-08 0)
(0.101071 3.44106e-08 0)
(0.101071 3.43795e-08 0)
(0.101071 3.43588e-08 0)
(0.101072 3.48212e-08 0)
(0.101072 3.52332e-08 0)
(0.101062 1.54279e-08 0)
(0.101062 1.61555e-08 0)
(0.101062 1.67352e-08 0)
(0.101062 1.72701e-08 0)
(0.101061 1.76888e-08 0)
(0.101061 1.80836e-08 0)
(0.101061 1.83786e-08 0)
(0.101061 1.8654e-08 0)
(0.101061 1.88296e-08 0)
(0.10106 1.89731e-08 0)
(0.10106 1.90005e-08 0)
(0.10106 1.89687e-08 0)
(0.10106 1.87931e-08 0)
(0.10106 1.85207e-08 0)
(0.10106 1.80704e-08 0)
(0.101059 1.74842e-08 0)
(0.101059 1.66882e-08 0)
(0.101059 1.57233e-08 0)
(0.101059 1.45291e-08 0)
(0.101059 1.31466e-08 0)
(0.101059 1.15328e-08 0)
(0.101059 9.74117e-09 0)
(0.101059 7.7295e-09 0)
(0.101059 5.56327e-09 0)
(0.101059 3.23362e-09 0)
(0.101059 7.86281e-10 0)
(0.101059 -1.75778e-09 0)
(0.101059 -4.32938e-09 0)
(0.101059 -6.90135e-09 0)
(0.101059 -9.39041e-09 0)
(0.101059 -1.17566e-08 0)
(0.10106 -1.39072e-08 0)
(0.10106 -1.5777e-08 0)
(0.10106 -1.73494e-08 0)
(0.10106 -1.87785e-08 0)
(0.279926 4.01257e-07 0)
(0.279925 4.08347e-07 0)
(0.279925 4.12486e-07 0)
(0.279924 4.13781e-07 0)
(0.279923 4.12334e-07 0)
(0.279923 4.08227e-07 0)
(0.279922 4.01541e-07 0)
(0.279922 3.92339e-07 0)
(0.279921 3.80685e-07 0)
(0.27992 3.66633e-07 0)
(0.27992 3.50243e-07 0)
(0.279919 3.31574e-07 0)
(0.279919 3.10696e-07 0)
(0.279918 2.87687e-07 0)
(0.279918 2.62648e-07 0)
(0.279918 2.35698e-07 0)
(0.279917 2.06983e-07 0)
(0.279917 1.76679e-07 0)
(0.279917 1.44996e-07 0)
(0.279917 1.12175e-07 0)
(0.279916 7.84939e-08 0)