/*--------------------------------*- C++ -*----------------------------------*\
| =========                 |                                                 |
| \\      /  F ield         | OpenFOAM: The Open Source CFD Toolbox           |
|  \\    /   O peration     | Version:  2406                                  |
|   \\  /    A nd           | Website:  www.openfoam.com                      |
|    \\/     M anipulation  |                                                 |
\*---------------------------------------------------------------------------*/
FoamFile
{
    version     2.0;
    format      ascii;
    arch        "LSB;label=32;scalar=64";
    class       volScalarField;
    location    "28";
    object      p;
}
// * * * * * * * * * * * * * * * * * * * * * * * * * * * * * * * * * * * * * //

dimensions      [0 2 -2 0 0 0 0];

internalField   nonuniform List<scalar> 
1700
(
1.41647
1.39548
1.37198
1.3479
1.32213
1.29416
1.26355
1.22946
1.19071
1.13911
1.42339
1.39772
1.37191
1.34754
1.32187
1.29402
1.26392
1.23118
1.19501
1.15455
1.42859
1.40037
1.37308
1.34898
1.32409
1.29723
1.26883
1.23938
1.2096
1.18146
1.4339
1.40468
1.37665
1.35311
1.32948
1.30431
1.2784
1.25285
1.22872
1.20766
1.43971
1.41015
1.38193
1.35904
1.33671
1.31332
1.28985
1.26757
1.2474
1.23029
1.44511
1.41553
1.3876
1.36538
1.34411
1.32222
1.30071
1.28076
1.26302
1.24799
1.449
1.41972
1.39249
1.37081
1.35017
1.3293
1.30913
1.29059
1.27412
1.25994
1.45048
1.42213
1.39593
1.37445
1.35394
1.33356
1.31409
1.29618
1.28013
1.26607
1.44836
1.42242
1.39758
1.37596
1.35513
1.33476
1.31541
1.29751
1.28131
1.26695
1.44191
1.42042
1.39752
1.37584
1.35466
1.33408
1.31451
1.29631
1.27972
1.26494
1.17238
1.17151
1.17186
1.17407
1.17797
1.1833
1.18976
1.19705
1.20487
1.21291
1.22087
1.22847
1.23547
1.24164
1.2468
1.2508
1.25356
1.25498
1.25502
1.25367
1.25089
1.24667
1.24097
1.23375
1.22492
1.21435
1.20187
1.18727
1.17027
1.15058
1.12787
1.10187
1.0724
1.03947
1.00342
1.17331
1.17243
1.1728
1.17493
1.17859
1.18356
1.18961
1.19647
1.20389
1.21156
1.21921
1.22654
1.23332
1.23931
1.24432
1.24822
1.25088
1.25224
1.25223
1.25083
1.24802
1.24375
1.238
1.2307
1.22177
1.21108
1.19845
1.18365
1.16643
1.14648
1.12349
1.09718
1.06741
1.03421
0.997988
1.17288
1.17196
1.17238
1.17452
1.17808
1.18286
1.18866
1.19528
1.20247
1.20994
1.2174
1.22459
1.23123
1.23712
1.24205
1.24587
1.24848
1.24979
1.24976
1.24834
1.24551
1.24124
1.23549
1.22821
1.21929
1.20859
1.19595
1.18111
1.16379
1.14365
1.12032
1.09347
1.06289
1.02861
0.991103
1.17001
1.16928
1.16997
1.17238
1.17614
1.18104
1.18692
1.19359
1.20081
1.20829
1.21577
1.22294
1.22957
1.23542
1.24031
1.24408
1.24664
1.24791
1.24785
1.24642
1.24361
1.23939
1.23373
1.22657
1.21782
1.20732
1.19487
1.1802
1.16296
1.1427
1.11894
1.09117
1.05899
1.02232
0.981712
1.16433
1.16424
1.16571
1.16881
1.17312
1.17846
1.18469
1.19163
1.19905
1.20667
1.21424
1.22146
1.22809
1.2339
1.23874
1.24244
1.24494
1.24615
1.24606
1.24465
1.2419
1.23781
1.23234
1.22545
1.21703
1.20692
1.19489
1.18061
1.16363
1.14336
1.11908
1.08998
1.05527
1.01453
0.968402
1.15547
1.15684
1.15988
1.16426
1.16958
1.17568
1.18247
1.1898
1.1975
1.2053
1.21295
1.22019
1.22678
1.23252
1.23724
1.24085
1.24324
1.2444
1.24429
1.24293
1.24032
1.23645
1.23132
1.22486
1.21698
1.20751
1.19617
1.18257
1.16615
1.1461
1.1214
1.09074
1.05267
1.006
0.951037
1.1429
1.14708
1.15295
1.15939
1.16614
1.17326
1.18075
1.18855
1.19651
1.20445
1.21213
1.21931
1.22577
1.23136
1.23591
1.23936
1.24164
1.24273
1.24265
1.2414
1.23902
1.23551
1.23086
1.22504
1.21794
1.20939
1.19908
1.18657
1.17114
1.15179
1.12704
1.09491
1.05293
0.998446
0.930731
1.1241
1.13445
1.14556
1.15491
1.16343
1.17174
1.17999
1.18821
1.19638
1.20435
1.21194
1.21895
1.22519
1.23053
1.23485
1.2381
1.24025
1.2413
1.24129
1.24024
1.23819
1.23518
1.2312
1.22623
1.22017
1.21284
1.20395
1.19301
1.17922
1.16133
1.13736
1.10423
1.05759
0.991784
0.904598
1.08859
1.11702
1.13823
1.15135
1.16183
1.17145
1.18047
1.18904
1.19727
1.20514
1.21251
1.21922
1.22512
1.23012
1.23415
1.23717
1.23919
1.24024
1.24036
1.23959
1.238
1.23561
1.23245
1.2285
1.22369
1.21787
1.21078
1.20196
1.19063
1.17546
1.1541
1.12226
1.07214
0.98992
0.865214
1.03925
1.09948
1.13366
1.1502
1.16221
1.17291
1.18251
1.19122
1.19933
1.2069
1.21387
1.22013
1.22559
1.23017
1.23386
1.23664
1.23854
1.23961
1.23991
1.2395
1.23844
1.23677
1.23452
1.23171
1.22828
1.22414
1.2191
1.21282
1.20473
1.19379
1.1781
1.15389
1.11293
1.03506
0.881449
1.08608
1.11416
1.1417
1.15598
1.16682
1.17714
1.18655
1.19497
1.20262
1.20963
1.216
1.22165
1.22654
1.23063
1.23393
1.23645
1.23825
1.23938
1.2399
1.23988
1.23938
1.23846
1.23714
1.23546
1.23341
1.23093
1.22794
1.22426
1.21959
1.21344
1.20505
1.19316
1.17586
1.15251
1.13807
1.12626
1.13669
1.15433
1.1659
1.17514
1.18417
1.19262
1.20021
1.20701
1.21317
1.2187
1.22358
1.2278
1.23134
1.23423
1.2365
1.2382
1.2394
1.24015
1.24052
1.24057
1.24034
1.23989
1.23925
1.23842
1.23741
1.23618
1.23468
1.2328
1.23038
1.22718
1.22295
1.21797
1.21611
1.22302
1.16282
1.16313
1.17175
1.17966
1.1866
1.19356
1.20031
1.20649
1.21206
1.21709
1.22161
1.22561
1.22909
1.23205
1.23453
1.23655
1.23818
1.23944
1.24042
1.24114
1.24167
1.24206
1.24233
1.24254
1.24269
1.24282
1.24293
1.24301
1.24303
1.24295
1.24271
1.2423
1.24232
1.24564
1.25165
1.19315
1.18889
1.19126
1.19521
1.19936
1.20386
1.20848
1.21291
1.217
1.22076
1.22419
1.22728
1.23004
1.23247
1.23458
1.23639
1.23795
1.2393
1.24046
1.24149
1.24241
1.24328
1.24411
1.24495
1.24582
1.24674
1.24773
1.2488
1.24993
1.25112
1.25232
1.2536
1.25552
1.25999
1.2661
1.21778
1.21128
1.20947
1.20986
1.21122
1.21326
1.21573
1.21836
1.22097
1.2235
1.22592
1.22821
1.23035
1.23233
1.23415
1.23582
1.23736
1.23878
1.24011
1.24137
1.2426
1.24382
1.24505
1.24631
1.24764
1.24905
1.25056
1.25215
1.25384
1.25559
1.25739
1.2593
1.26176
1.2661
1.27156
1.23626
1.22836
1.22379
1.2214
1.22035
1.22027
1.22089
1.22197
1.22331
1.22482
1.22645
1.22813
1.22982
1.2315
1.23315
1.23475
1.2363
1.23781
1.23928
1.24074
1.24218
1.24364
1.24512
1.24665
1.24825
1.24992
1.25167
1.2535
1.25539
1.25734
1.25931
1.26137
1.26383
1.26753
1.27184
1.24829
1.23937
1.23299
1.22863
1.22578
1.22411
1.22336
1.22329
1.22374
1.22456
1.22567
1.22699
1.22845
1.22999
1.23158
1.23319
1.23481
1.23642
1.23803
1.23963
1.24123
1.24284
1.24448
1.24615
1.24788
1.24966
1.2515
1.2534
1.25534
1.25731
1.2593
1.26134
1.26363
1.26661
1.26974
1.25414
1.24444
1.23691
1.23131
1.22731
1.22464
1.22305
1.22234
1.2223
1.2228
1.2237
1.2249
1.22631
1.22787
1.22952
1.23122
1.23295
1.23469
1.23642
1.23815
1.23987
1.24159
1.24331
1.24506
1.24683
1.24864
1.25049
1.25237
1.25429
1.25625
1.25822
1.26025
1.26238
1.26476
1.26693
1.25459
1.2443
1.23609
1.22981
1.22524
1.22212
1.22022
1.21932
1.2192
1.2197
1.22066
1.22197
1.22352
1.22524
1.22706
1.22893
1.23082
1.23271
1.23458
1.23642
1.23824
1.24003
1.24181
1.24359
1.24536
1.24715
1.24895
1.25078
1.25265
1.25457
1.25657
1.25865
1.2608
1.2629
1.26447
1.25215
1.24145
1.23286
1.22628
1.22151
1.2183
1.2164
1.21557
1.21559
1.21627
1.21744
1.21896
1.22073
1.22266
1.22468
1.22673
1.22879
1.23083
1.23283
1.23478
1.23668
1.23853
1.24035
1.24213
1.2439
1.24565
1.2474
1.24917
1.25098
1.25288
1.25491
1.25712
1.25946
1.26164
1.26305
0.964926
0.92508
0.885174
0.846421
0.809767
0.775872
0.745166
0.71789
0.694136
0.673887
0.959506
0.919958
0.880688
0.842841
0.807233
0.774417
0.744754
0.718444
0.695559
0.676084
0.95135
0.910957
0.871579
0.834268
0.799572
0.767837
0.739314
0.714119
0.692295
0.673839
0.938613
0.895702
0.855328
0.818252
0.784406
0.753786
0.726465
0.702438
0.681707
0.664353
0.919094
0.871871
0.830258
0.793897
0.761463
0.732449
0.70666
0.683914
0.664174
0.647762
0.891032
0.837563
0.79573
0.761742
0.73206
0.705643
0.681988
0.660575
0.641406
0.625261
0.852975
0.792083
0.753461
0.724944
0.700002
0.677488
0.656532
0.636184
0.616551
0.599092
0.799856
0.736447
0.709243
0.690308
0.671978
0.654293
0.636065
0.615992
0.594046
0.5721
0.712515
0.670196
0.670205
0.664567
0.653751
0.64105
0.625293
0.604994
0.57934
0.547699
0.590672
0.606676
0.64348
0.649226
0.644977
0.636596
0.622848
0.602878
0.576189
0.535592
0.657053
0.64347
0.63289
0.624981
0.619364
0.615654
0.613492
0.612558
0.612575
0.613309
0.61457
0.616204
0.61809
0.620133
0.622261
0.624422
0.626576
0.628699
0.630774
0.632794
0.634758
0.636669
0.638533
0.64036
0.64216
0.643943
0.645723
0.647516
0.649349
0.65126
0.653302
0.655515
0.657855
0.660032
0.661445
0.659926
0.646914
0.636783
0.629182
0.623725
0.620046
0.617814
0.616732
0.616547
0.617046
0.618055
0.619432
0.621065
0.622866
0.624768
0.62672
0.628688
0.630647
0.632582
0.634486
0.636359
0.638203
0.640027
0.641837
0.643645
0.645459
0.647287
0.649138
0.651023
0.652957
0.654959
0.657043
0.659195
0.661291
0.662856
0.658698
0.646724
0.637599
0.630874
0.626102
0.622914
0.621002
0.620096
0.619967
0.620432
0.621341
0.622575
0.624037
0.625652
0.627363
0.629127
0.630916
0.632708
0.634494
0.636269
0.638034
0.639794
0.641558
0.643335
0.645135
0.646967
0.648833
0.650736
0.652669
0.65463
0.656614
0.658639
0.660775
0.663149
0.665312
0.65049
0.640087
0.632715
0.627666
0.624337
0.622333
0.621361
0.621171
0.621557
0.622368
0.62349
0.624832
0.626322
0.627905
0.629539
0.631196
0.632858
0.634515
0.636163
0.637803
0.639443
0.641091
0.642759
0.644461
0.646207
0.648008
0.649867
0.651778
0.653731
0.655708
0.657702
0.659745
0.662031
0.664998
0.668123
0.635212
0.626875
0.622069
0.619522
0.618361
0.618196
0.618762
0.619812
0.621165
0.622707
0.624364
0.62608
0.627811
0.629526
0.631205
0.632839
0.634426
0.63597
0.637479
0.638964
0.640441
0.641925
0.643434
0.644988
0.646601
0.648288
0.650054
0.651896
0.653801
0.655749
0.657727
0.659785
0.66225
0.665937
0.670236
0.613621
0.607803
0.60646
0.607161
0.608724
0.610889
0.613447
0.616145
0.618826
0.621423
0.623903
0.626242
0.628422
0.630435
0.632284
0.633981
0.635543
0.636992
0.63835
0.639643
0.640895
0.642134
0.643384
0.644672
0.64602
0.647446
0.648962
0.65057
0.652262
0.654019
0.655824
0.657738
0.660198
0.664531
0.669993
0.587218
0.584546
0.587755
0.592232
0.596753
0.601462
0.606209
0.61073
0.614913
0.618751
0.622246
0.625392
0.628186
0.630639
0.632769
0.634608
0.636191
0.637556
0.638743
0.63979
0.640737
0.64162
0.642473
0.643329
0.644215
0.645154
0.64616
0.647239
0.648384
0.649578
0.650799
0.652085
0.654014
0.658494
0.664609
0.557641
0.559728
0.568918
0.577205
0.584444
0.591539
0.598328
0.604539
0.610153
0.615227
0.619781
0.623809
0.627308
0.630289
0.632779
0.634819
0.636456
0.637742
0.63873
0.639473
0.64002
0.640419
0.64071
0.64093
0.641104
0.64125
0.641376
0.641471
0.641512
0.641455
0.641232
0.640852
0.640911
0.644248
0.65031
0.524956
0.536066
0.553127
0.564614
0.57389
0.582841
0.591166
0.598651
0.605404
0.61153
0.617042
0.621912
0.626115
0.629649
0.632535
0.634809
0.636521
0.637728
0.638493
0.638876
0.638936
0.638725
0.638287
0.637654
0.636842
0.635848
0.634644
0.633168
0.631316
0.628927
0.625774
0.6216
0.616699
0.614951
0.621947
0.49044
0.516798
0.542318
0.556003
0.566563
0.576564
0.58568
0.593874
0.601366
0.608261
0.614534
0.620119
0.624956
0.629015
0.632293
0.634811
0.636611
0.637745
0.638274
0.638264
0.637775
0.636859
0.635557
0.633888
0.631847
0.629389
0.626418
0.622761
0.618127
0.612039
0.603727
0.591953
0.574851
0.551852
0.537844
0.449658
0.504307
0.535704
0.551249
0.562696
0.572923
0.582126
0.590538
0.598404
0.605782
0.612599
0.618741
0.624107
0.628629
0.632272
0.635032
0.63693
0.638005
0.638313
0.63791
0.636855
0.635195
0.63296
0.630152
0.626734
0.622607
0.617586
0.611339
0.603292
0.592427
0.576862
0.552871
0.512352
0.435534
0.284535
0.494677
0.520705
0.540338
0.552682
0.562634
0.571806
0.58043
0.588664
0.596612
0.604235
0.611399
0.617943
0.623725
0.628637
0.632606
0.635598
0.637606
0.638652
0.638774
0.638019
0.636436
0.634061
0.63091
0.626968
0.622165
0.616356
0.609278
0.60048
0.589193
0.574097
0.552863
0.521262
0.471622
0.390376
0.267628
0.527464
0.537071
0.54744
0.556268
0.564359
0.572276
0.58016
0.588047
0.595903
0.603602
0.610957
0.61777
0.62386
0.629083
0.633332
0.636538
0.638668
0.639721
0.639714
0.638679
0.63665
0.633651
0.629685
0.624718
0.61866
0.611337
0.602453
0.59152
0.577755
0.559911
0.53602
0.50305
0.456697
0.391449
0.305309
0.545118
0.549026
0.554553
0.560649
0.567078
0.573867
0.581026
0.588496
0.596151
0.603801
0.611223
0.618186
0.624483
0.629936
0.634407
0.637801
0.640057
0.641149
0.641074
0.639845
0.63748
0.63399
0.629362
0.623552
0.616458
0.607901
0.597587
0.585059
0.569626
0.550269
0.525532
0.493434
0.451549
0.397268
0.329964
0.557008
0.5583
0.561183
0.565354
0.570429
0.576259
0.582755
0.589789
0.597179
0.604695
0.612087
0.619101
0.625509
0.631109
0.635742
0.639284
0.641656
0.642806
0.642714
0.641373
0.638785
0.634944
0.62983
0.623385
0.615509
0.606026
0.594669
0.58104
0.56457
0.544469
0.519693
0.488937
0.450775
0.403993
0.348948
0.565424
0.565347
0.566749
0.569711
0.573846
0.578965
0.584937
0.591596
0.598725
0.606074
0.613379
0.620375
0.626819
0.632495
0.637226
0.640873
0.643336
0.644549
0.644471
0.643081
0.640364
0.636302
0.630863
0.623985
0.615567
0.605447
0.593388
0.579057
0.561998
0.541619
0.517187
0.487873
0.452889
0.411783
0.365155
0.570838
0.570141
0.57081
0.573127
0.576737
0.581444
0.587095
0.593509
0.600454
0.607676
0.614898
0.621857
0.628298
0.634006
0.638788
0.642501
0.645028
0.646296
0.646244
0.644845
0.642066
0.637885
0.632255
0.625115
0.616361
0.605847
0.593362
0.578627
0.561277
0.540869
0.51689
0.488816
0.456219
0.418971
0.377576
0.573572
0.572698
0.573103
0.575164
0.578593
0.583185
0.588772
0.595146
0.602073
0.609282
0.616508
0.623477
0.629947
0.635688
0.640517
0.644277
0.646857
0.648166
0.648149
0.646759
0.643968
0.639736
0.634023
0.626756
0.617841
0.607133
0.594446
0.579531
0.562088
0.541759
0.518168
0.490952
0.459863
0.424881
0.386399
0.573988
0.573145
0.573503
0.575549
0.579075
0.583857
0.589677
0.596296
0.603451
0.61087
0.618274
0.625399
0.631996
0.637849
0.642769
0.646606
0.649244
0.650602
0.65062
0.649257
0.64648
0.642257
0.636542
0.629271
0.620348
0.60964
0.596964
0.582092
0.564743
0.5446
0.521332
0.494638
0.464321
0.430381
0.393125
0.573095
0.572268
0.572602
0.574724
0.57848
0.583605
0.589825
0.596853
0.604398
0.612172
0.61989
0.627283
0.634105
0.64014
0.645207
0.649162
0.651893
0.653322
0.653397
0.652083
0.649353
0.645181
0.639529
0.632338
0.623518
0.61294
0.600426
0.585749
0.568631
0.548753
0.52578
0.499403
0.469406
0.435757
0.398705
-0.00141072
0.0153761
0.0529809
0.0606592
0.0593563
0.0552028
0.0477064
0.0370371
0.0239269
0.00881114
0.117949
0.0776378
0.0792662
0.0758482
0.0681831
0.0597939
0.0499884
0.0381059
0.0241335
0.00866351
0.202429
0.14105
0.115775
0.0990486
0.0835475
0.0694669
0.0558051
0.0413983
0.0256404
0.00888963
0.253027
0.193237
0.155811
0.128668
0.105385
0.0848198
0.0659759
0.0476455
0.0288796
0.00966622
0.288928
0.235522
0.193753
0.159799
0.130083
0.103443
0.0791003
0.0561136
0.0334889
0.0110756
0.315232
0.267225
0.224612
0.186934
0.152768
0.121402
0.0923432
0.0649808
0.0384654
0.0127287
0.333422
0.289117
0.246921
0.207464
0.17053
0.135885
0.103311
0.0724753
0.0427227
0.0140407
0.345325
0.303172
0.261463
0.221116
0.18249
0.145719
0.110795
0.0775836
0.0455805
0.0147377
0.353243
0.311814
0.270058
0.228965
0.189175
0.151038
0.114694
0.0801023
0.0468575
0.0149237
0.358859
0.317192
0.274875
0.232974
0.192269
0.15323
0.116067
0.0807642
0.0470854
0.0149281
)
;

boundaryField
{
    inlet
    {
        type            zeroGradient;
    }
    outlet
    {
        type            fixedValue;
        value           uniform 0;
    }
    upperWall
    {
        type            zeroGradient;
    }
    lowerWall
    {
        type            zeroGradient;
    }
    frontAndBack
    {
        type            empty;
    }
}


// ************************************************************************* //
