/*--------------------------------*- C++ -*----------------------------------*\
| =========                 |                                                 |
| \\      /  F ield         | OpenFOAM: The Open Source CFD Toolbox           |
|  \\    /   O peration     | Version:  2406                                  |
|   \\  /    A nd           | Website:  www.openfoam.com                      |
|    \\/     M anipulation  |                                                 |
\*---------------------------------------------------------------------------*/
FoamFile
{
    version     2.0;
    format      ascii;
    arch        "LSB;label=32;scalar=64";
    class       volScalarField;
    location    "33";
    object      p;
}
// * * * * * * * * * * * * * * * * * * * * * * * * * * * * * * * * * * * * * //

dimensions      [0 2 -2 0 0 0 0];

internalField   nonuniform List<scalar> 
1800
(
0.533288
0.520154
0.504775
0.488727
0.471345
0.452266
0.431215
0.407619
0.38067
0.346139
0.538811
0.522098
0.504869
0.488624
0.471374
0.452446
0.431836
0.409341
0.384589
0.357685
0.543327
0.52451
0.506078
0.490063
0.473485
0.455375
0.436115
0.416186
0.396231
0.377894
0.548184
0.528565
0.509508
0.493879
0.478276
0.461474
0.444122
0.427103
0.411238
0.397746
0.553553
0.533674
0.514456
0.499299
0.484685
0.46925
0.453742
0.439148
0.426143
0.415396
0.558584
0.538701
0.519732
0.50511
0.491323
0.477042
0.463017
0.450155
0.438935
0.429658
0.562293
0.542665
0.524288
0.510147
0.496883
0.483396
0.470386
0.458585
0.448298
0.43965
0.563881
0.545035
0.527524
0.513621
0.500482
0.487381
0.474916
0.463604
0.45364
0.4451
0.562468
0.545602
0.52922
0.515215
0.501833
0.488753
0.476408
0.465134
0.455086
0.446357
0.557612
0.544146
0.529352
0.515326
0.501686
0.488475
0.476009
0.464541
0.454244
0.445248
0.377576
0.376871
0.376797
0.377816
0.379893
0.382945
0.386895
0.391661
0.397154
0.403264
0.409861
0.416795
0.423897
0.430984
0.437866
0.444354
0.450259
0.455406
0.45963
0.46278
0.464713
0.465303
0.464425
0.461957
0.45777
0.45172
0.443644
0.433357
0.420653
0.405312
0.387124
0.365928
0.341664
0.314447
0.28464
0.378342
0.377628
0.37761
0.378642
0.38063
0.383507
0.387231
0.391751
0.39699
0.402849
0.409207
0.415915
0.422807
0.429702
0.436411
0.442742
0.448509
0.453532
0.457642
0.460684
0.462516
0.463009
0.462036
0.459474
0.455189
0.449036
0.440851
0.430445
0.417605
0.402107
0.383736
0.362321
0.337805
0.310317
0.280264
0.378322
0.37755
0.37755
0.378598
0.380522
0.383267
0.386822
0.391157
0.396214
0.401904
0.408106
0.414674
0.421442
0.428226
0.434834
0.441076
0.446757
0.451698
0.455729
0.458696
0.460458
0.460886
0.459853
0.457239
0.45291
0.446719
0.438494
0.428034
0.415101
0.399438
0.380772
0.358878
0.333633
0.305143
0.27387
0.376732
0.376001
0.376099
0.37724
0.379205
0.381948
0.385478
0.389782
0.39481
0.400476
0.406661
0.413217
0.419976
0.426751
0.433344
0.439559
0.445207
0.450107
0.45409
0.457006
0.45872
0.459107
0.45805
0.45543
0.451119
0.444966
0.436786
0.426348
0.413368
0.397503
0.378369
0.355588
0.328885
0.298256
0.264244
0.373254
0.372846
0.373318
0.374772
0.376972
0.37989
0.383557
0.387971
0.393092
0.398839
0.405094
0.411704
0.4185
0.425292
0.431886
0.438083
0.443695
0.448542
0.452467
0.455323
0.45699
0.45735
0.4563
0.453728
0.44951
0.443488
0.43546
0.425151
0.412201
0.396137
0.376393
0.352314
0.323325
0.289108
0.25029
0.367657
0.36807
0.36942
0.371568
0.374293
0.377608
0.381575
0.386216
0.39151
0.397392
0.403746
0.410427
0.417261
0.424061
0.430632
0.436781
0.442323
0.447092
0.450937
0.453732
0.455365
0.45574
0.454764
0.452339
0.448344
0.442619
0.434935
0.424967
0.412252
0.396155
0.375831
0.350237
0.318219
0.27879
0.232193
0.359624
0.361732
0.364796
0.368173
0.371752
0.375665
0.380044
0.384977
0.390486
0.396523
0.402979
0.409714
0.416555
0.423322
0.429825
0.435882
0.441318
0.445983
0.449742
0.452491
0.454135
0.454601
0.453811
0.451686
0.448111
0.442927
0.435882
0.426602
0.41451
0.39877
0.378168
0.351085
0.31553
0.269313
0.211539
0.34755
0.353623
0.360013
0.365226
0.369899
0.374535
0.379392
0.384639
0.390363
0.39654
0.403074
0.409823
0.416626
0.423307
0.429691
0.435608
0.440906
0.445451
0.449135
0.451872
0.453597
0.454255
0.453797
0.452155
0.44924
0.444894
0.438871
0.430761
0.419905
0.405239
0.385083
0.356812
0.316742
0.260136
0.184177
0.324461
0.342532
0.355619
0.363132
0.368953
0.374444
0.379864
0.385443
0.391364
0.397656
0.404228
0.410944
0.41765
0.424185
0.430393
0.436127
0.441255
0.445672
0.449295
0.452065
0.453943
0.454899
0.454908
0.45393
0.451897
0.448686
0.444079
0.4377
0.428904
0.416556
0.398625
0.371338
0.327645
0.254514
0.138095
0.290303
0.330331
0.352516
0.362248
0.369144
0.375586
0.381645
0.387572
0.393669
0.400028
0.406577
0.413188
0.41972
0.426034
0.431999
0.437495
0.442419
0.446694
0.450265
0.453101
0.455185
0.456514
0.457085
0.456885
0.45588
0.453993
0.451078
0.446869
0.440895
0.432309
0.419507
0.399237
0.364042
0.293576
0.141142
0.31567
0.337246
0.356515
0.365462
0.372051
0.378727
0.385145
0.391296
0.397461
0.403766
0.410167
0.416549
0.422793
0.428785
0.434423
0.439615
0.44429
0.448398
0.45191
0.454817
0.457123
0.458844
0.459995
0.460588
0.46062
0.460064
0.458854
0.456863
0.453868
0.449494
0.443108
0.433629
0.419004
0.395706
0.368408
0.34119
0.350554
0.363776
0.371788
0.377974
0.38434
0.390662
0.39675
0.402753
0.408789
0.414838
0.420814
0.426621
0.43217
0.437386
0.442204
0.446581
0.450489
0.453918
0.456875
0.459378
0.461452
0.463125
0.464421
0.465361
0.465951
0.466184
0.466028
0.465421
0.464255
0.462354
0.459452
0.455268
0.451195
0.450237
0.366806
0.368488
0.375595
0.381729
0.386989
0.392455
0.398092
0.40366
0.409157
0.414644
0.42011
0.425494
0.43072
0.435721
0.44044
0.444834
0.448878
0.452558
0.455878
0.45885
0.461497
0.463846
0.465927
0.46777
0.4694
0.470842
0.472111
0.473218
0.474162
0.474927
0.475469
0.475715
0.475782
0.477169
0.479409
0.389017
0.387308
0.390143
0.393919
0.397737
0.40192
0.40645
0.411108
0.415796
0.420508
0.425224
0.429896
0.434462
0.438868
0.443068
0.447032
0.450742
0.454194
0.457391
0.460347
0.463082
0.465618
0.46798
0.470194
0.472282
0.474268
0.476171
0.478005
0.479778
0.481487
0.483105
0.484601
0.486168
0.488965
0.492377
0.407927
0.404626
0.404608
0.406114
0.408294
0.411058
0.414316
0.417876
0.421607
0.425455
0.42938
0.433333
0.437259
0.441106
0.444835
0.448419
0.451842
0.455096
0.458184
0.461113
0.463896
0.466547
0.469082
0.471517
0.47387
0.476155
0.478382
0.480559
0.482683
0.484741
0.486708
0.488569
0.490518
0.493397
0.496747
0.422725
0.418471
0.416577
0.416251
0.416917
0.41835
0.420402
0.422903
0.425721
0.428773
0.432
0.435343
0.438743
0.442148
0.445518
0.448822
0.45204
0.455159
0.458177
0.461091
0.463905
0.466626
0.469261
0.471819
0.474306
0.47673
0.479092
0.48139
0.483612
0.485739
0.487747
0.489632
0.491553
0.494053
0.496764
0.432791
0.427855
0.424732
0.423073
0.422531
0.422884
0.423964
0.425621
0.427724
0.430176
0.432897
0.435816
0.438866
0.441992
0.445146
0.448294
0.451408
0.45447
0.457468
0.460395
0.463246
0.466021
0.468719
0.471345
0.473897
0.476379
0.478784
0.481106
0.48333
0.485435
0.487401
0.489227
0.491009
0.493036
0.495007
0.438067
0.432613
0.428702
0.426171
0.424809
0.424429
0.424872
0.425993
0.427662
0.429769
0.43222
0.434928
0.437822
0.440836
0.443921
0.447033
0.450142
0.453222
0.456255
0.459228
0.462133
0.464963
0.467716
0.470389
0.472981
0.475489
0.477908
0.480229
0.48244
0.484524
0.486466
0.488258
0.48993
0.491559
0.492898
0.439038
0.433188
0.4288
0.42578
0.423978
0.423235
0.423392
0.424302
0.42583
0.427852
0.430261
0.432963
0.435877
0.438934
0.442078
0.445262
0.44845
0.451614
0.454731
0.457785
0.460766
0.463664
0.466476
0.469196
0.471823
0.474353
0.476783
0.479105
0.481315
0.483404
0.485367
0.487195
0.488865
0.490295
0.491236
0.437657
0.431536
0.426885
0.423637
0.421664
0.42081
0.420916
0.421823
0.423386
0.425472
0.427965
0.430764
0.433784
0.436952
0.44021
0.443507
0.446805
0.450073
0.453288
0.456431
0.45949
0.462457
0.465326
0.468092
0.470753
0.473307
0.47575
0.478081
0.4803
0.482411
0.484423
0.486338
0.488115
0.489574
0.490403
0.252903
0.220189
0.187611
0.156211
0.126778
0.0998373
0.075707
0.054536
0.0363355
0.0210193
0.248382
0.215736
0.18352
0.152743
0.124092
0.0979937
0.0746873
0.0542812
0.0367635
0.0220415
0.240733
0.207167
0.174698
0.144295
0.116393
0.0912242
0.0689389
0.0495579
0.0330219
0.0192238
0.228127
0.192258
0.158869
0.128725
0.101677
0.0776256
0.0565858
0.0384802
0.0231683
0.0105612
0.208739
0.169038
0.134659
0.105392
0.0798573
0.0575239
0.0382348
0.0217529
0.00784927
-0.00345244
0.180951
0.135393
0.100996
0.0743094
0.0516859
0.0321945
0.0155102
0.00106511
-0.0114183
-0.0216109
0.143585
0.0901439
0.0586507
0.0375273
0.0198993
0.00484487
-0.00826573
-0.020469
-0.0319772
-0.0418923
0.090183
0.033411
0.0130407
0.00165055
-0.00891051
-0.0183062
-0.0275845
-0.0381161
-0.0499964
-0.0617151
-0.00348191
-0.0364733
-0.0276438
-0.0249396
-0.027565
-0.0315294
-0.0377797
-0.0476214
-0.0613928
-0.0786577
-0.129382
-0.100922
-0.0549169
-0.0406169
-0.0364844
-0.0360747
-0.0403047
-0.0496525
-0.0641047
-0.0866712
0.00843595
-0.00161349
-0.0093713
-0.0151172
-0.019147
-0.0217464
-0.0231744
-0.0236594
-0.023399
-0.0225608
-0.0212849
-0.0196872
-0.0178632
-0.0158915
-0.0138362
-0.0117495
-0.0096736
-0.0076425
-0.00568333
-0.00381756
-0.00206198
-0.000429459
0.00107032
0.00243034
0.00364582
0.00471379
0.00563286
0.00640292
0.00702503
0.00750119
0.0078343
0.00802801
0.00808666
0.00801523
0.00781929
0.00996507
0.000338038
-0.00708673
-0.012597
-0.0164878
-0.0190314
-0.0204687
-0.0210119
-0.020845
-0.0201245
-0.0189813
-0.017525
-0.0158467
-0.0140217
-0.0121119
-0.0101675
-0.00822948
-0.0063308
-0.00449777
-0.00275149
-0.0011083
0.000418954
0.00182077
0.00308999
0.00422181
0.00521297
0.00606194
0.00676827
0.00733281
0.00775718
0.00804404
0.00819664
0.00821911
0.00811603
0.00789275
0.00803558
-0.000726647
-0.00733814
-0.0121452
-0.0154785
-0.0176052
-0.0187444
-0.0190886
-0.0188044
-0.0180306
-0.0168822
-0.0154564
-0.0138351
-0.0120869
-0.0102683
-0.0084251
-0.00659474
-0.00480722
-0.00308665
-0.00145208
8.14875e-05
0.00150252
0.00280227
0.00397433
0.00501422
0.0059191
0.00668747
0.00731903
0.00781443
0.0081753
0.008404
0.0085037
0.00847816
0.00833184
0.00806973
0.000617781
-0.00677456
-0.01196
-0.0154473
-0.0176632
-0.0188722
-0.0192643
-0.0190128
-0.0182667
-0.0171419
-0.0157308
-0.0141127
-0.012357
-0.0105221
-0.00865652
-0.00679916
-0.00498132
-0.00322783
-0.00155817
1.25302e-05
0.00147276
0.00281392
0.00402975
0.00511588
0.00606952
0.00688912
0.00757424
0.00812536
0.00854374
0.00883137
0.00899087
0.0090255
0.00893909
0.00873602
0.00842119
-0.0119351
-0.0174913
-0.0206296
-0.0222197
-0.022842
-0.0227156
-0.0219776
-0.0207849
-0.0192685
-0.017515
-0.0155893
-0.0135511
-0.0114561
-0.00935279
-0.00728106
-0.00527244
-0.00335138
-0.00153632
0.000159256
0.00172597
0.00315764
0.00445053
0.00560277
0.00661385
0.00748425
0.00821526
0.00880874
0.00926704
0.00959298
0.00978976
0.0098609
0.0098103
0.00964224
0.00936137
0.00897272
-0.0286746
-0.0319503
-0.0323873
-0.0316085
-0.0303444
-0.0286385
-0.0265395
-0.024193
-0.0217047
-0.0191224
-0.0164817
-0.0138258
-0.0112009
-0.00864868
-0.0062033
-0.00389136
-0.0017325
0.000260021
0.00207842
0.00371946
0.00518334
0.0064727
0.00759177
0.00854574
0.00934024
0.00998114
0.0104743
0.0108255
0.0110402
0.0111241
0.0110825
0.0109208
0.0106444
0.0102586
0.00976894
-0.048042
-0.0485031
-0.0455176
-0.0421164
-0.0389465
-0.0356494
-0.0321783
-0.0286716
-0.0251835
-0.0217086
-0.0182576
-0.0148665
-0.0115796
-0.00843763
-0.005475
-0.00271886
-0.000188867
0.00210298
0.00415182
0.00595891
0.00753022
0.00887499
0.0100044
0.0109306
0.011666
0.0122227
0.0126122
0.0128453
0.0129321
0.0128816
0.0127024
0.0124022
0.0119885
0.0114679
0.0108472
-0.0681978
-0.0647421
-0.0575836
-0.0517921
-0.047071
-0.0424333
-0.0378325
-0.0333918
-0.0290678
-0.0247941
-0.02057
-0.0164375
-0.0124481
-0.00864921
-0.00508276
-0.00178359
0.00122199
0.00391738
0.00629586
0.00835954
0.0101176
0.0115844
0.0127774
0.0137159
0.0144197
0.0149082
0.0152
0.0153124
0.0152611
0.0150605
0.0147232
0.0142608
0.0136833
0.013
0.0122192
-0.0886403
-0.0784868
-0.0663313
-0.0589521
-0.0533393
-0.047838
-0.0425631
-0.0375784
-0.0327103
-0.0278474
-0.0229975
-0.0182198
-0.0135799
-0.00913906
-0.00495349
-0.0010726
0.00246415
0.00562962
0.00840981
0.010803
0.0128176
0.0144701
0.0157822
0.0167791
0.0174874
0.017934
0.018145
0.0181449
0.0179562
0.0175996
0.0170931
0.0164528
0.0156929
0.0148256
0.0138616
-0.107707
-0.087948
-0.071162
-0.0631097
-0.0571638
-0.051365
-0.0459361
-0.0407982
-0.0356799
-0.0304654
-0.0251844
-0.0199149
-0.0147391
-0.00973574
-0.00497971
-0.000539163
0.00352915
0.00718334
0.0103978
0.0131626
0.0154814
0.017369
0.0188484
0.0199481
0.0207001
0.0211376
0.0212937
0.0212002
0.0208868
0.0203806
0.0197061
0.0188846
0.0179349
0.0168731
0.0157131
-0.126542
-0.0927377
-0.0737126
-0.0650915
-0.0589379
-0.0533004
-0.0480778
-0.0430135
-0.0378331
-0.0324508
-0.0269127
-0.0213078
-0.0157313
-0.0102787
-0.00504379
-0.000113326
0.00443814
0.00855273
0.0121911
0.0153325
0.0179725
0.020121
0.0217991
0.0230359
0.0238663
0.0243279
0.0244594
0.0242991
0.0238834
0.0232457
0.0224167
0.0214235
0.0202898
0.019036
0.0176795
-0.0973494
-0.082004
-0.0706849
-0.0640029
-0.0587809
-0.0539038
-0.0491417
-0.0442801
-0.0391536
-0.0337297
-0.028067
-0.0222595
-0.0164121
-0.0106337
-0.00503293
0.000287761
0.00523877
0.00974769
0.0137619
0.0172488
0.0201945
0.0226019
0.0244874
0.0258785
0.0268101
0.0273224
0.0274578
0.0272593
0.0267686
0.0260251
0.0250648
0.0239202
0.0226199
0.0211887
0.0196477
-0.0773007
-0.0721126
-0.0665593
-0.0619348
-0.057743
-0.0535912
-0.0492795
-0.0446598
-0.0396556
-0.0342751
-0.0285856
-0.0226843
-0.0166826
-0.0106984
-0.00485091
0.000747008
0.00599436
0.0108075
0.0151222
0.0188953
0.0221033
0.0247411
0.0268194
0.0283618
0.0294018
0.0299795
0.0301393
0.0299271
0.0293884
0.0285669
0.0275031
0.0262341
0.0247928
0.0232079
0.0215041
-0.0665959
-0.0648178
-0.0621499
-0.0591482
-0.0559406
-0.0524397
-0.0485465
-0.0441958
-0.0393678
-0.0340962
-0.0284572
-0.022552
-0.0164971
-0.0104161
-0.00443424
0.00132907
0.00676557
0.0117836
0.0163104
0.0202938
0.0237018
0.0265221
0.0287592
0.0304322
0.0315714
0.0322159
0.0324097
0.0322002
0.0316349
0.0307604
0.0296204
0.0282555
0.0267018
0.0249917
0.0231526
-0.0594503
-0.0591442
-0.0579738
-0.0560544
-0.0536081
-0.0506476
-0.047132
-0.0430484
-0.0384179
-0.0332931
-0.0277564
-0.0219134
-0.015883
-0.00979304
-0.00377048
0.00206101
0.00759013
0.0127194
0.0173709
0.0214853
0.025025
0.0279704
0.0303215
0.0320918
0.0333092
0.0340094
0.0342363
0.034036
0.0334578
0.0325487
0.0313555
0.0299199
0.0282816
0.0264744
0.0245291
-0.0545038
-0.0549128
-0.0545159
-0.0532146
-0.0512402
-0.0486408
-0.0454045
-0.0415381
-0.0370793
-0.0320934
-0.0266685
-0.0209136
-0.014951
-0.00890689
-0.00290838
0.00292141
0.00846873
0.0136347
0.0183374
0.022514
0.0261217
0.0291374
0.0315554
0.0333865
0.0346541
0.0353923
0.0356422
0.03545
0.0348638
0.0339318
0.0327008
0.0312148
0.0295141
0.0276351
0.0256095
-0.0514682
-0.0521553
-0.0520932
-0.0510801
-0.0493299
-0.0469026
-0.0438038
-0.040052
-0.0356939
-0.0307986
-0.0254585
-0.0197814
-0.0138877
-0.00790033
-0.00194732
0.00384901
0.00937397
0.0145313
0.0192367
0.023427
0.0270555
0.0300977
0.0325433
0.0344018
0.0356922
0.036448
0.0367069
0.0365153
0.0359191
0.034968
0.0337073
0.0321834
0.0304359
0.0285037
0.0264183
-0.050117
-0.0508336
-0.0508622
-0.0499482
-0.0482557
-0.045849
-0.0427489
-0.0389898
-0.0346253
-0.029731
-0.0243981
-0.0187356
-0.0128605
-0.00689756
-0.000969764
0.00480161
0.0103087
0.0154513
0.020147
0.0243294
0.0279556
0.0309962
0.0334435
0.0353015
0.0365914
0.0373416
0.0375923
0.0373855
0.0367699
0.0357917
0.0344998
0.0329376
0.0311486
0.0291693
0.0270352
-0.0501488
-0.0508108
-0.0508618
-0.049978
-0.0482499
-0.0457478
-0.0425198
-0.0386207
-0.0341196
-0.0290988
-0.023655
-0.0178967
-0.0119425
-0.00591476
6.31168e-05
0.00587321
0.0114062
0.0165657
0.0212707
0.0254576
0.0290795
0.0321096
0.0345388
0.0363739
0.037634
0.0383499
0.03856
0.0383089
0.0376438
0.0366136
0.0352659
0.033647
0.0317994
0.0297622
0.02757
-0.0508546
-0.051507
-0.0516131
-0.050754
-0.0489613
-0.0463207
-0.0429122
-0.0388154
-0.0341142
-0.0289004
-0.0232762
-0.0173533
-0.0112515
-0.00509483
0.000993137
0.00689392
0.0124984
0.0177107
0.0224508
0.0266563
0.0302836
0.0333073
0.0357185
0.0375246
0.0387465
0.0394161
0.0395733
0.0392639
0.0385365
0.0374414
0.0360276
0.0343422
0.0324293
0.0303286
0.0280757
0.00750491
0.00707869
0.00654766
0.00591936
0.00520179
0.00440277
0.00352987
0.00259584
0.0016278
0.000599402
0.00755502
0.00710922
0.00656209
0.00592112
0.00519385
0.00438708
0.00350902
0.00258174
0.00163153
0.000637789
0.00769739
0.00722085
0.00664671
0.0059821
0.00523444
0.0044099
0.00351635
0.00257565
0.00161143
0.000636348
0.00800001
0.00747833
0.00686246
0.00615931
0.00537599
0.00451872
0.00359448
0.00262202
0.00161837
0.000623142
0.0084817
0.00789409
0.00721603
0.00645411
0.00561511
0.00470497
0.00373061
0.00270672
0.00164167
0.000592309
0.0091812
0.00850118
0.00773499
0.00688893
0.00596941
0.00498217
0.0039336
0.00283558
0.00168831
0.000551054
0.0101326
0.00933045
0.00844692
0.00748823
0.00646046
0.00536893
0.00421989
0.00302259
0.00177136
0.000513508
0.0113484
0.0103947
0.00936478
0.00826486
0.00710088
0.00587792
0.00460199
0.00328031
0.00190356
0.000497296
0.0128105
0.0116805
0.0104791
0.00921293
0.00788809
0.00650951
0.00508296
0.00361463
0.00209213
0.000518631
0.0144668
0.0131442
0.0117543
0.0103042
0.00880057
0.00724828
0.00565339
0.00402108
0.00233674
0.000587548
0.0162351
0.0147153
0.0131303
0.0114888
0.00979772
0.00806264
0.00628946
0.00448403
0.00262785
0.000704476
0.0180148
0.0163048
0.0145301
0.0127006
0.0108243
0.00890726
0.00695603
0.00497704
0.00294787
0.000859
0.0197024
0.0178199
0.0158712
0.0138676
0.0118184
0.00973037
0.00761055
0.00546722
0.00327323
0.00103172
0.0212083
0.0191784
0.017079
0.0149233
0.0127217
0.0104817
0.00821127
0.00592058
0.00357865
0.00119888
0.0224708
0.0203217
0.0180992
0.0158181
0.0134894
0.0111222
0.00872449
0.00630912
0.00384188
0.00133875
0.0234648
0.0212241
0.0189066
0.0165277
0.0140997
0.0116317
0.009133
0.00661768
0.0040497
0.00143813
0.0242097
0.0219009
0.0195131
0.0170616
0.01456
0.0120168
0.00944236
0.00685105
0.00420394
0.00149715
0.0247741
0.0224126
0.0199701
0.0174647
0.0149081
0.0123106
0.00968096
0.00703294
0.00432129
0.00152821
0.025253
0.0228369
0.0203431
0.0177886
0.0151864
0.0125454
0.00987444
0.00718174
0.00441987
0.00155301
0.0257015
0.0232321
0.0206894
0.0180907
0.015449
0.0127733
0.01007
0.00734274
0.00457793
0.00167403
)
;

boundaryField
{
    inlet
    {
        type            zeroGradient;
    }
    outlet
    {
        type            fixedValue;
        value           uniform 0;
    }
    upperWall
    {
        type            zeroGradient;
    }
    lowerWall
    {
        type            zeroGradient;
    }
    frontAndBack
    {
        type            empty;
    }
}


// ************************************************************************* //
