/*--------------------------------*- C++ -*----------------------------------*\
| =========                 |                                                 |
| \\      /  F ield         | OpenFOAM: The Open Source CFD Toolbox           |
|  \\    /   O peration     | Version:  2406                                  |
|   \\  /    A nd           | Website:  www.openfoam.com                      |
|    \\/     M anipulation  |                                                 |
\*---------------------------------------------------------------------------*/
FoamFile
{
    version     2.0;
    format      ascii;
    arch        "LSB;label=32;scalar=64";
    class       volVectorField;
    location    "33";
    object      U;
}
// * * * * * * * * * * * * * * * * * * * * * * * * * * * * * * * * * * * * * //

dimensions      [0 1 -1 0 0 0 0];

internalField   nonuniform List<vector> 
1800
(
(0.188732 -0.00194421 0)
(0.195766 -0.00210479 0)
(0.201185 -0.00161096 0)
(0.205605 -0.00157337 0)
(0.210653 -0.00186269 0)
(0.216994 -0.0024082 0)
(0.225259 -0.00341674 0)
(0.236662 -0.0054406 0)
(0.254859 -0.0113579 0)
(0.277311 -0.038592 0)
(0.505253 -0.00383665 0)
(0.50894 -0.00704401 0)
(0.514149 -0.00773975 0)
(0.519425 -0.00855561 0)
(0.52634 -0.0102261 0)
(0.535515 -0.0129037 0)
(0.547291 -0.0171107 0)
(0.562352 -0.0239773 0)
(0.581868 -0.0357608 0)
(0.602254 -0.0595619 0)
(0.746083 -0.00320199 0)
(0.748449 -0.00775796 0)
(0.751815 -0.0108424 0)
(0.75508 -0.0138467 0)
(0.759981 -0.0175788 0)
(0.767024 -0.0224622 0)
(0.776046 -0.029138 0)
(0.78686 -0.0386818 0)
(0.799019 -0.0526794 0)
(0.810014 -0.0738194 0)
(0.906571 -0.00286365 0)
(0.908387 -0.00796184 0)
(0.910497 -0.0124214 0)
(0.911676 -0.0169363 0)
(0.913669 -0.0221423 0)
(0.917002 -0.0284827 0)
(0.921273 -0.0364933 0)
(0.92592 -0.0468932 0)
(0.930156 -0.0604418 0)
(0.932373 -0.0777313 0)
(0.986722 -0.00261505 0)
(0.988009 -0.00762245 0)
(0.988995 -0.0124976 0)
(0.988266 -0.0176092 0)
(0.987467 -0.0233521 0)
(0.987101 -0.0300793 0)
(0.986669 -0.0381727 0)
(0.985517 -0.0480299 0)
(0.982908 -0.0599281 0)
(0.977788 -0.0738241 0)
(0.986657 -0.00215371 0)
(0.987397 -0.00648276 0)
(0.987254 -0.0110688 0)
(0.984757 -0.0160296 0)
(0.98151 -0.0214973 0)
(0.977959 -0.027714 0)
(0.973554 -0.0349381 0)
(0.967652 -0.0433531 0)
(0.959646 -0.0529939 0)
(0.948835 -0.0636417 0)
(0.906381 -0.00133873 0)
(0.906607 -0.00445601 0)
(0.905442 -0.00827767 0)
(0.901503 -0.0125389 0)
(0.896417 -0.0171133 0)
(0.890522 -0.0221665 0)
(0.883235 -0.0278696 0)
(0.873969 -0.0342743 0)
(0.862251 -0.0413061 0)
(0.847621 -0.0487346 0)
(0.745788 6.15575e-05 0)
(0.745714 -0.00147721 0)
(0.744091 -0.00443311 0)
(0.739598 -0.00774806 0)
(0.733798 -0.011075 0)
(0.726875 -0.0145805 0)
(0.718253 -0.0183907 0)
(0.707459 -0.022493 0)
(0.694174 -0.0267971 0)
(0.678141 -0.0311415 0)
(0.504931 0.00201456 0)
(0.505867 0.00182459 0)
(0.505472 -0.000671072 0)
(0.502134 -0.00308352 0)
(0.497294 -0.00504661 0)
(0.491148 -0.0068798 0)
(0.483311 -0.00873182 0)
(0.473527 -0.0105988 0)
(0.461673 -0.0124412 0)
(0.447683 -0.0141958 0)
(0.1885 0.00144932 0)
(0.193736 0.000954722 0)
(0.195491 -5.96553e-06 0)
(0.194444 -0.000491082 0)
(0.192211 -0.000765761 0)
(0.189092 -0.00102467 0)
(0.184998 -0.00128056 0)
(0.179904 -0.00150568 0)
(0.173845 -0.00169176 0)
(0.166866 -0.0018422 0)
(-0.00023446 0.000223948 0)
(-0.00280424 0.000840796 0)
(-0.00722357 0.00117418 0)
(-0.0124188 0.00124031 0)
(-0.0174875 0.00118027 0)
(-0.0219985 0.00106066 0)
(-0.0257453 0.000909531 0)
(-0.0286129 0.000737088 0)
(-0.0305276 0.000546732 0)
(-0.0314377 0.00034023 0)
(-0.0313072 0.000120316 0)
(-0.0301179 -0.000109057 0)
(-0.02787 -0.000342922 0)
(-0.0245839 -0.00057607 0)
(-0.0202983 -0.000803491 0)
(-0.0150682 -0.00102066 0)
(-0.00896006 -0.0012238 0)
(-0.00204736 -0.00141009 0)
(0.00559681 -0.00157739 0)
(0.0139056 -0.00172714 0)
(0.0228224 -0.00186427 0)
(0.0323068 -0.00199431 0)
(0.0423404 -0.0021235 0)
(0.0529289 -0.00225866 0)
(0.0641027 -0.0024061 0)
(0.0759138 -0.00257056 0)
(0.0884298 -0.00275329 0)
(0.10172 -0.00294998 0)
(0.115836 -0.00314787 0)
(0.130783 -0.0033228 0)
(0.146477 -0.00343664 0)
(0.162702 -0.00343743 0)
(0.179063 -0.00326394 0)
(0.194954 -0.00285844 0)
(0.209567 -0.00219129 0)
(-0.000990091 0.0029048 0)
(-0.00781066 0.00725663 0)
(-0.0177922 0.00946466 0)
(-0.028858 0.00984912 0)
(-0.0392822 0.00913865 0)
(-0.0481971 0.00783829 0)
(-0.0551592 0.00622183 0)
(-0.0599327 0.00442379 0)
(-0.0623946 0.00251083 0)
(-0.062489 0.000523659 0)
(-0.060207 -0.00150359 0)
(-0.0555808 -0.00353538 0)
(-0.0486791 -0.00553506 0)
(-0.0396053 -0.0074674 0)
(-0.0284914 -0.00930136 0)
(-0.0154913 -0.011013 0)
(-0.000772168 -0.0125875 0)
(0.0154956 -0.0140181 0)
(0.0331502 -0.0153103 0)
(0.0520468 -0.0164818 0)
(0.0720665 -0.0175616 0)
(0.0931264 -0.0185857 0)
(0.115186 -0.0195967 0)
(0.138248 -0.0206393 0)
(0.162364 -0.0217562 0)
(0.187626 -0.022981 0)
(0.214154 -0.0243301 0)
(0.242086 -0.02579 0)
(0.271536 -0.0273039 0)
(0.302562 -0.0287538 0)
(0.335097 -0.0299467 0)
(0.368882 -0.0306043 0)
(0.403375 -0.0303771 0)
(0.437675 -0.0288844 0)
(0.470494 -0.0258242 0)
(-0.00155499 0.00805651 0)
(-0.0112657 0.0176983 0)
(-0.0242492 0.0219045 0)
(-0.0377999 0.0221241 0)
(-0.0498432 0.0199417 0)
(-0.059415 0.0164388 0)
(-0.0660531 0.0122369 0)
(-0.0695483 0.0076678 0)
(-0.0698384 0.00291142 0)
(-0.0669493 -0.00191938 0)
(-0.0609699 -0.00673906 0)
(-0.0520327 -0.0114669 0)
(-0.0403074 -0.0160289 0)
(-0.0259925 -0.0203595 0)
(-0.00930808 -0.0244057 0)
(0.00951379 -0.0281289 0)
(0.0302386 -0.03151 0)
(0.0526437 -0.0345509 0)
(0.0765226 -0.0372766 0)
(0.101697 -0.0397328 0)
(0.128027 -0.041984 0)
(0.155414 -0.0441097 0)
(0.183814 -0.0462011 0)
(0.213232 -0.0483533 0)
(0.24373 -0.0506586 0)
(0.275422 -0.0531927 0)
(0.308464 -0.0560007 0)
(0.343042 -0.0590751 0)
(0.379345 -0.0623288 0)
(0.417525 -0.0655625 0)
(0.45764 -0.06843 0)
(0.499569 -0.0704109 0)
(0.542903 -0.0708124 0)
(0.586805 -0.0688227 0)
(0.629916 -0.0637056 0)
(-0.0018842 0.0147784 0)
(-0.012897 0.0302943 0)
(-0.0263846 0.0359225 0)
(-0.0393008 0.0350415 0)
(-0.04959 0.0303944 0)
(-0.0564806 0.0237395 0)
(-0.0597002 0.016086 0)
(-0.0592093 0.00798344 0)
(-0.0550969 -0.000263777 0)
(-0.0475281 -0.00847168 0)
(-0.0367153 -0.0164993 0)
(-0.0229024 -0.0242296 0)
(-0.00635517 -0.0315615 0)
(0.0126477 -0.0384118 0)
(0.0338213 -0.0447167 0)
(0.0568881 -0.0504388 0)
(0.0815825 -0.055568 0)
(0.107661 -0.0601278 0)
(0.134907 -0.06417 0)
(0.163144 -0.0677777 0)
(0.192235 -0.0710583 0)
(0.222094 -0.0741428 0)
(0.252688 -0.077176 0)
(0.284042 -0.0803112 0)
(0.316241 -0.0836967 0)
(0.349427 -0.0874631 0)
(0.383803 -0.0916998 0)
(0.419624 -0.0964296 0)
(0.457182 -0.101566 0)
(0.496785 -0.106867 0)
(0.538699 -0.111868 0)
(0.58307 -0.115823 0)
(0.629774 -0.117658 0)
(0.67818 -0.115994 0)
(0.726924 -0.109421 0)
(-0.00208559 0.0220589 0)
(-0.0129153 0.0427832 0)
(-0.0243072 0.0484656 0)
(-0.0333945 0.0451613 0)
(-0.0386372 0.0370192 0)
(-0.0397566 0.0264857 0)
(-0.0368445 0.0149121 0)
(-0.0301271 0.00301995 0)
(-0.0198877 -0.00880721 0)
(-0.00643692 -0.02034 0)
(0.00989967 -0.0314088 0)
(0.0287868 -0.041879 0)
(0.0498944 -0.0516429 0)
(0.0728996 -0.0606169 0)
(0.0974924 -0.0687458 0)
(0.123383 -0.0760077 0)
(0.150308 -0.0824169 0)
(0.178035 -0.0880253 0)
(0.206369 -0.0929228 0)
(0.235155 -0.0972345 0)
(0.264288 -0.101117 0)
(0.293711 -0.104754 0)
(0.323421 -0.108347 0)
(0.353473 -0.112109 0)
(0.383988 -0.116254 0)
(0.415149 -0.120975 0)
(0.447219 -0.126432 0)
(0.480539 -0.132708 0)
(0.515538 -0.139773 0)
(0.552731 -0.147405 0)
(0.59269 -0.155104 0)
(0.635973 -0.161957 0)
(0.68296 -0.166506 0)
(0.733435 -0.166596 0)
(0.786138 -0.159653 0)
(-0.0022132 0.0291985 0)
(-0.0113602 0.053048 0)
(-0.0176586 0.0565012 0)
(-0.0193633 0.0491744 0)
(-0.0161827 0.036666 0)
(-0.00864001 0.0219226 0)
(0.00270879 0.00646448 0)
(0.0173545 -0.00894302 0)
(0.0348501 -0.0239161 0)
(0.0547744 -0.0382192 0)
(0.0767392 -0.0516907 0)
(0.100378 -0.0642059 0)
(0.125346 -0.0756713 0)
(0.151326 -0.0860218 0)
(0.178024 -0.0952272 0)
(0.205181 -0.103294 0)
(0.232569 -0.11027 0)
(0.260001 -0.116244 0)
(0.287329 -0.121351 0)
(0.314446 -0.125759 0)
(0.341293 -0.129674 0)
(0.36786 -0.133332 0)
(0.394184 -0.136991 0)
(0.420361 -0.140925 0)
(0.446546 -0.145414 0)
(0.472967 -0.15073 0)
(0.499943 -0.157124 0)
(0.527904 -0.164788 0)
(0.557426 -0.173812 0)
(0.589266 -0.1841 0)
(0.624392 -0.195243 0)
(0.663961 -0.206301 0)
(0.709227 -0.215506 0)
(0.76088 -0.219721 0)
(0.818315 -0.21427 0)
(-0.00219308 0.0359003 0)
(-0.00731387 0.0587008 0)
(-0.00435729 0.0564492 0)
(0.00562674 0.0434789 0)
(0.0207094 0.0262725 0)
(0.0394163 0.00766981 0)
(0.0608182 -0.0109731 0)
(0.0842757 -0.0290111 0)
(0.109258 -0.0461266 0)
(0.135349 -0.0621436 0)
(0.162191 -0.0769421 0)
(0.189469 -0.0904327 0)
(0.216896 -0.102552 0)
(0.244218 -0.113269 0)
(0.271212 -0.122585 0)
(0.297691 -0.130545 0)
(0.323505 -0.137234 0)
(0.348537 -0.142782 0)
(0.372713 -0.147364 0)
(0.395995 -0.151194 0)
(0.418386 -0.15452 0)
(0.439927 -0.157627 0)
(0.460705 -0.16082 0)
(0.480847 -0.164432 0)
(0.500539 -0.168808 0)
(0.520034 -0.174307 0)
(0.539682 -0.18129 0)
(0.559972 -0.190108 0)
(0.581595 -0.20106 0)
(0.605543 -0.21433 0)
(0.633233 -0.229826 0)
(0.666609 -0.246871 0)
(0.708257 -0.263589 0)
(0.760546 -0.275508 0)
(0.824608 -0.273625 0)
(-0.00161729 0.0414189 0)
(0.00302067 0.0555464 0)
(0.0219177 0.0433525 0)
(0.048759 0.0240811 0)
(0.0787033 0.00306321 0)
(0.10989 -0.017995 0)
(0.141539 -0.0382326 0)
(0.173127 -0.0572476 0)
(0.204306 -0.0748852 0)
(0.234839 -0.0910716 0)
(0.264536 -0.105747 0)
(0.293229 -0.11886 0)
(0.320767 -0.13038 0)
(0.347018 -0.140307 0)
(0.371878 -0.148677 0)
(0.395269 -0.155566 0)
(0.417143 -0.161096 0)
(0.437484 -0.165432 0)
(0.456304 -0.168785 0)
(0.473645 -0.171402 0)
(0.489577 -0.173569 0)
(0.504194 -0.175603 0)
(0.517622 -0.177848 0)
(0.530011 -0.180679 0)
(0.541553 -0.184499 0)
(0.552489 -0.189746 0)
(0.563149 -0.196903 0)
(0.574002 -0.206511 0)
(0.585757 -0.219181 0)
(0.59953 -0.235583 0)
(0.617123 -0.256366 0)
(0.641385 -0.281836 0)
(0.676719 -0.310882 0)
(0.72788 -0.337441 0)
(0.797222 -0.342232 0)
(0.00614189 0.0340124 0)
(0.0333175 0.0318551 0)
(0.0770038 0.00961921 0)
(0.124441 -0.013205 0)
(0.169315 -0.0346995 0)
(0.210985 -0.0550478 0)
(0.249872 -0.0740966 0)
(0.286162 -0.0916908 0)
(0.319942 -0.107779 0)
(0.351297 -0.122329 0)
(0.380296 -0.135292 0)
(0.406972 -0.146626 0)
(0.431343 -0.156307 0)
(0.453427 -0.16435 0)
(0.473251 -0.170809 0)
(0.49086 -0.175784 0)
(0.506317 -0.179422 0)
(0.519705 -0.181913 0)
(0.531126 -0.18349 0)
(0.540695 -0.184423 0)
(0.548542 -0.185018 0)
(0.554807 -0.185608 0)
(0.559634 -0.186558 0)
(0.563177 -0.188262 0)
(0.565599 -0.191156 0)
(0.567084 -0.195733 0)
(0.567864 -0.202573 0)
(0.568263 -0.212396 0)
(0.568802 -0.226145 0)
(0.570388 -0.245119 0)
(0.574715 -0.271139 0)
(0.584977 -0.306597 0)
(0.607179 -0.353374 0)
(0.648706 -0.406213 0)
(0.709706 -0.429166 0)
(0.0711577 -0.0165549 0)
(0.131258 -0.0337163 0)
(0.195126 -0.0515583 0)
(0.254413 -0.0679421 0)
(0.304828 -0.0834603 0)
(0.348295 -0.0986902 0)
(0.386761 -0.113417 0)
(0.421042 -0.127267 0)
(0.451509 -0.139985 0)
(0.478448 -0.151402 0)
(0.502085 -0.161394 0)
(0.522592 -0.169874 0)
(0.540106 -0.176801 0)
(0.554754 -0.182182 0)
(0.566668 -0.186078 0)
(0.57599 -0.1886 0)
(0.582875 -0.189908 0)
(0.587486 -0.190204 0)
(0.589993 -0.189733 0)
(0.590569 -0.188772 0)
(0.589385 -0.187626 0)
(0.586602 -0.18663 0)
(0.582365 -0.186141 0)
(0.576804 -0.186548 0)
(0.570023 -0.188283 0)
(0.562106 -0.191845 0)
(0.553119 -0.197844 0)
(0.543121 -0.207076 0)
(0.532201 -0.220665 0)
(0.520542 -0.240305 0)
(0.508603 -0.268674 0)
(0.497566 -0.30994 0)
(0.490673 -0.369047 0)
(0.492252 -0.443038 0)
(0.500328 -0.479914 0)
(0.340915 -0.0913487 0)
(0.370264 -0.103806 0)
(0.405061 -0.110353 0)
(0.444678 -0.118163 0)
(0.481236 -0.127187 0)
(0.513253 -0.136891 0)
(0.541337 -0.146767 0)
(0.565743 -0.156304 0)
(0.58651 -0.165093 0)
(0.603737 -0.172853 0)
(0.617572 -0.179395 0)
(0.628171 -0.184603 0)
(0.635689 -0.188426 0)
(0.640292 -0.190873 0)
(0.642162 -0.19201 0)
(0.641497 -0.191958 0)
(0.638503 -0.190884 0)
(0.633394 -0.188996 0)
(0.626382 -0.186537 0)
(0.617669 -0.183776 0)
(0.607439 -0.181007 0)
(0.595853 -0.17854 0)
(0.583033 -0.176705 0)
(0.569063 -0.175856 0)
(0.553972 -0.176382 0)
(0.537727 -0.178733 0)
(0.520212 -0.183456 0)
(0.501202 -0.191272 0)
(0.480302 -0.203191 0)
(0.456827 -0.220719 0)
(0.429507 -0.246135 0)
(0.395763 -0.282599 0)
(0.349407 -0.332258 0)
(0.273476 -0.382569 0)
(0.13285 -0.324259 0)
(0.618079 -0.0968969 0)
(0.623388 -0.120295 0)
(0.632123 -0.13323 0)
(0.646539 -0.142779 0)
(0.662098 -0.151161 0)
(0.676304 -0.158812 0)
(0.688515 -0.16587 0)
(0.698359 -0.172273 0)
(0.705502 -0.177835 0)
(0.709779 -0.182376 0)
(0.711175 -0.185769 0)
(0.709762 -0.187941 0)
(0.70566 -0.188879 0)
(0.699033 -0.18862 0)
(0.690079 -0.187253 0)
(0.679017 -0.184916 0)
(0.66608 -0.181783 0)
(0.651501 -0.178062 0)
(0.635504 -0.173987 0)
(0.618293 -0.169809 0)
(0.600043 -0.16579 0)
(0.580886 -0.162205 0)
(0.560906 -0.159334 0)
(0.540129 -0.157474 0)
(0.518506 -0.156941 0)
(0.495902 -0.15809 0)
(0.472062 -0.161343 0)
(0.446572 -0.167233 0)
(0.418771 -0.176455 0)
(0.387585 -0.189929 0)
(0.35119 -0.208717 0)
(0.306259 -0.233275 0)
(0.246141 -0.260084 0)
(0.161595 -0.269595 0)
(0.0426415 -0.19142 0)
(0.815022 -0.100396 0)
(0.81276 -0.121654 0)
(0.808929 -0.1363 0)
(0.806738 -0.14726 0)
(0.8053 -0.156036 0)
(0.803278 -0.163087 0)
(0.800036 -0.168718 0)
(0.795182 -0.173128 0)
(0.788374 -0.17637 0)
(0.779404 -0.178438 0)
(0.768209 -0.179325 0)
(0.754839 -0.179053 0)
(0.739415 -0.177674 0)
(0.722111 -0.175276 0)
(0.70314 -0.171985 0)
(0.682734 -0.167954 0)
(0.661134 -0.163366 0)
(0.638573 -0.158421 0)
(0.615264 -0.153332 0)
(0.591387 -0.148321 0)
(0.567082 -0.143609 0)
(0.542437 -0.139419 0)
(0.517484 -0.135973 0)
(0.492185 -0.133493 0)
(0.466425 -0.132209 0)
(0.439994 -0.132368 0)
(0.412567 -0.134247 0)
(0.383657 -0.138164 0)
(0.35255 -0.144488 0)
(0.318183 -0.153585 0)
(0.278919 -0.165549 0)
(0.232135 -0.179224 0)
(0.173791 -0.189263 0)
(0.102417 -0.178649 0)
(0.0203447 -0.10743 0)
(0.930023 -0.0974203 0)
(0.922212 -0.115063 0)
(0.911172 -0.128754 0)
(0.899046 -0.139241 0)
(0.886152 -0.14735 0)
(0.872097 -0.15344 0)
(0.856647 -0.157767 0)
(0.839682 -0.160566 0)
(0.821094 -0.161999 0)
(0.800829 -0.162177 0)
(0.778927 -0.161194 0)
(0.755508 -0.15915 0)
(0.73075 -0.15616 0)
(0.704869 -0.152358 0)
(0.678101 -0.147894 0)
(0.650689 -0.142931 0)
(0.622867 -0.137646 0)
(0.594844 -0.132218 0)
(0.5668 -0.126829 0)
(0.538868 -0.121658 0)
(0.511136 -0.116878 0)
(0.483632 -0.112653 0)
(0.456329 -0.109138 0)
(0.429132 -0.106485 0)
(0.401875 -0.10484 0)
(0.374309 -0.104347 0)
(0.346092 -0.105154 0)
(0.316754 -0.107407 0)
(0.285666 -0.111224 0)
(0.251963 -0.116595 0)
(0.214448 -0.12308 0)
(0.17146 -0.128971 0)
(0.12118 -0.12938 0)
(0.065553 -0.112812 0)
(0.0111729 -0.0601335 0)
(0.968827 -0.0887798 0)
(0.955457 -0.102626 0)
(0.938561 -0.113908 0)
(0.919351 -0.12259 0)
(0.898355 -0.129066 0)
(0.875653 -0.133593 0)
(0.851316 -0.136374 0)
(0.825472 -0.137624 0)
(0.79825 -0.137542 0)
(0.769794 -0.136297 0)
(0.740286 -0.134041 0)
(0.709949 -0.130919 0)
(0.679029 -0.12708 0)
(0.647781 -0.122673 0)
(0.61645 -0.117851 0)
(0.585266 -0.112765 0)
(0.55443 -0.107567 0)
(0.524105 -0.1024 0)
(0.494409 -0.0974046 0)
(0.465414 -0.0927084 0)
(0.437141 -0.0884299 0)
(0.409556 -0.0846766 0)
(0.382574 -0.0815448 0)
(0.356057 -0.0791209 0)
(0.329808 -0.0774822 0)
(0.303573 -0.0766966 0)
(0.277031 -0.0768197 0)
(0.249784 -0.077882 0)
(0.221342 -0.0798498 0)
(0.191093 -0.0825182 0)
(0.158287 -0.0852469 0)
(0.122071 -0.0863897 0)
(0.0820348 -0.0823008 0)
(0.0411637 -0.0663368 0)
(0.00607192 -0.0312394 0)
(0.934483 -0.0746257 0)
(0.916268 -0.0847598 0)
(0.894595 -0.0930902 0)
(0.8702 -0.0993814 0)
(0.843624 -0.10379 0)
(0.815192 -0.106507 0)
(0.785191 -0.107713 0)
(0.753931 -0.10761 0)
(0.721714 -0.106405 0)
(0.68883 -0.104288 0)
(0.655565 -0.101424 0)
(0.622204 -0.0979688 0)
(0.589017 -0.0940652 0)
(0.556251 -0.0898483 0)
(0.524123 -0.085445 0)
(0.492809 -0.0809734 0)
(0.462446 -0.0765432 0)
(0.433125 -0.0722541 0)
(0.404891 -0.0681961 0)
(0.377746 -0.0644485 0)
(0.351644 -0.0610805 0)
(0.3265 -0.0581505 0)
(0.302189 -0.0557079 0)
(0.278546 -0.0537919 0)
(0.255371 -0.0524329 0)
(0.232428 -0.05165 0)
(0.209448 -0.0514468 0)
(0.186123 -0.0517951 0)
(0.162112 -0.0525952 0)
(0.137039 -0.0535807 0)
(0.110523 -0.0541261 0)
(0.0822919 -0.0529208 0)
(0.0526982 -0.0476044 0)
(0.0246113 -0.0349625 0)
(0.00311438 -0.0139157 0)
(0.829673 -0.0561037 0)
(0.808271 -0.0627393 0)
(0.783706 -0.0680633 0)
(0.756537 -0.0718676 0)
(0.727324 -0.0742248 0)
(0.696537 -0.0752926 0)
(0.664608 -0.0752426 0)
(0.631955 -0.0742608 0)
(0.598967 -0.0725336 0)
(0.565986 -0.0702289 0)
(0.533317 -0.0674908 0)
(0.501228 -0.0644432 0)
(0.469945 -0.0611943 0)
(0.439652 -0.0578397 0)
(0.410489 -0.0544628 0)
(0.382553 -0.0511373 0)
(0.355896 -0.0479272 0)
(0.330533 -0.0448879 0)
(0.306442 -0.0420663 0)
(0.283563 -0.0395016 0)
(0.261808 -0.0372254 0)
(0.241061 -0.0352626 0)
(0.221179 -0.0336311 0)
(0.202002 -0.0323424 0)
(0.183347 -0.0314014 0)
(0.165019 -0.030805 0)
(0.146811 -0.0305367 0)
(0.128508 -0.0305535 0)
(0.109901 -0.0307505 0)
(0.0908007 -0.0308894 0)
(0.0710984 -0.0304746 0)
(0.0508887 -0.0286028 0)
(0.0308538 -0.023939 0)
(0.0132525 -0.0153245 0)
(0.00135483 -0.00431505 0)
(0.659194 -0.0352622 0)
(0.637368 -0.0388059 0)
(0.612984 -0.0414711 0)
(0.586568 -0.0431499 0)
(0.558687 -0.0439074 0)
(0.529868 -0.0438776 0)
(0.500577 -0.0432035 0)
(0.471234 -0.0420271 0)
(0.442192 -0.0404797 0)
(0.413743 -0.0386734 0)
(0.386117 -0.0366977 0)
(0.359492 -0.0346246 0)
(0.334002 -0.0325126 0)
(0.309733 -0.0304105 0)
(0.286738 -0.0283584 0)
(0.26503 -0.0263898 0)
(0.244595 -0.0245319 0)
(0.22539 -0.0228069 0)
(0.20735 -0.0212322 0)
(0.190388 -0.0198215 0)
(0.174403 -0.0185842 0)
(0.159277 -0.0175265 0)
(0.144883 -0.0166511 0)
(0.131085 -0.0159575 0)
(0.11774 -0.015442 0)
(0.104707 -0.0150968 0)
(0.091841 -0.0149067 0)
(0.0790096 -0.0148394 0)
(0.0661007 -0.0148214 0)
(0.053055 -0.0146916 0)
(0.0399275 -0.014132 0)
(0.0270039 -0.0126131 0)
(0.0150251 -0.00948293 0)
(0.00553944 -0.00455415 0)
(0.00028035 0.000125553 0)
(0.431575 -0.0157562 0)
(0.413512 -0.0169827 0)
(0.393843 -0.0177672 0)
(0.373039 -0.0180928 0)
(0.351589 -0.0180224 0)
(0.329924 -0.0176438 0)
(0.308403 -0.0170382 0)
(0.287313 -0.0162746 0)
(0.266875 -0.0154107 0)
(0.24725 -0.0144913 0)
(0.228547 -0.0135494 0)
(0.210836 -0.0126092 0)
(0.194153 -0.0116895 0)
(0.178508 -0.0108046 0)
(0.163888 -0.00996567 0)
(0.150261 -0.00918082 0)
(0.137582 -0.00845637 0)
(0.125791 -0.00779653 0)
(0.114819 -0.00720451 0)
(0.10459 -0.00668188 0)
(0.0950194 -0.00622941 0)
(0.0860216 -0.00584642 0)
(0.0775064 -0.00553151 0)
(0.0693835 -0.00528199 0)
(0.0615631 -0.00509472 0)
(0.0539581 -0.00496532 0)
(0.0464862 -0.00488756 0)
(0.0390751 -0.00484825 0)
(0.0316751 -0.004816 0)
(0.0242876 -0.00471813 0)
(0.0170232 -0.00440946 0)
(0.0101958 -0.00365433 0)
(0.00443736 -0.00219486 0)
(0.000690893 -0.000100356 0)
(-0.000351688 0.00125418 0)
(0.159046 -0.00195288 0)
(0.150523 -0.00200883 0)
(0.141507 -0.00199903 0)
(0.132245 -0.00192985 0)
(0.122968 -0.00182011 0)
(0.113858 -0.00168853 0)
(0.105048 -0.00154843 0)
(0.0966264 -0.00140877 0)
(0.0886526 -0.001275 0)
(0.0811579 -0.00114954 0)
(0.0741549 -0.00103285 0)
(0.067643 -0.000924876 0)
(0.0616121 -0.000825643 0)
(0.0560448 -0.000735391 0)
(0.0509178 -0.000654281 0)
(0.0462036 -0.000582319 0)
(0.0418714 -0.000519248 0)
(0.0378882 -0.000464668 0)
(0.0342196 -0.000418019 0)
(0.0308303 -0.000378718 0)
(0.0276846 -0.000346106 0)
(0.0247473 -0.00031954 0)
(0.0219837 -0.000298315 0)
(0.0193604 -0.000281775 0)
(0.0168455 -0.000269284 0)
(0.014409 -0.000260405 0)
(0.0120228 -0.000254796 0)
(0.00966206 -0.000251877 0)
(0.00731063 -0.000249293 0)
(0.00497536 -0.0002398 0)
(0.00271776 -0.000206065 0)
(0.000707445 -0.00011461 0)
(-0.000727571 8.36411e-05 0)
(-0.00118759 0.000392565 0)
(-0.000522705 0.000543028 0)
(0.221979 -0.00128681 0)
(0.231336 -0.000256603 0)
(0.237118 0.000733175 0)
(0.239268 0.00155891 0)
(0.238076 0.00218095 0)
(0.23403 0.00261052 0)
(0.227649 0.00287867 0)
(0.219431 0.00301844 0)
(0.209824 0.00306095 0)
(0.199214 0.00302948 0)
(0.500214 -0.0211079 0)
(0.525159 -0.0150829 0)
(0.544081 -0.00848117 0)
(0.556446 -0.00203123 0)
(0.562349 0.00380623 0)
(0.562172 0.00881265 0)
(0.556537 0.0129288 0)
(0.546149 0.0161911 0)
(0.531718 0.0186862 0)
(0.513928 0.0205004 0)
(0.670286 -0.0550548 0)
(0.70571 -0.0434005 0)
(0.734535 -0.0301328 0)
(0.756078 -0.0166432 0)
(0.770348 -0.00382199 0)
(0.77765 0.00784155 0)
(0.778371 0.0180828 0)
(0.773046 0.0268277 0)
(0.762246 0.0341296 0)
(0.746527 0.0400677 0)
(0.773516 -0.0968764 0)
(0.814817 -0.0792202 0)
(0.848717 -0.0589247 0)
(0.874797 -0.0381782 0)
(0.893495 -0.018224 0)
(0.905379 0.000272323 0)
(0.911002 0.0169408 0)
(0.91087 0.0316794 0)
(0.905407 0.0445597 0)
(0.894897 0.0556646 0)
(0.837262 -0.142932 0)
(0.881405 -0.118129 0)
(0.915662 -0.0898866 0)
(0.940557 -0.0615223 0)
(0.95774 -0.0345652 0)
(0.968603 -0.00980497 0)
(0.974289 0.0124285 0)
(0.975659 0.0322424 0)
(0.973142 0.0499649 0)
(0.966741 0.0658457 0)
(0.874377 -0.192023 0)
(0.91811 -0.156938 0)
(0.945914 -0.118187 0)
(0.961572 -0.080839 0)
(0.96962 -0.0467245 0)
(0.973014 -0.0166273 0)
(0.973725 0.00950648 0)
(0.97295 0.0324504 0)
(0.970988 0.0531918 0)
(0.967271 0.0724701 0)
(0.885093 -0.240333 0)
(0.919244 -0.187965 0)
(0.926669 -0.134526 0)
(0.920863 -0.0870168 0)
(0.911535 -0.0470618 0)
(0.902879 -0.0145891 0)
(0.896796 0.0118465 0)
(0.893943 0.034403 0)
(0.893748 0.0552259 0)
(0.894331 0.076058 0)
(0.851887 -0.27806 0)
(0.850711 -0.193293 0)
(0.815475 -0.121713 0)
(0.778722 -0.0678962 0)
(0.751856 -0.0292352 0)
(0.735368 -0.0019697 0)
(0.72833 0.0181539 0)
(0.729474 0.035067 0)
(0.736771 0.052226 0)
(0.746417 0.0733446 0)
(0.727249 -0.288473 0)
(0.64499 -0.149823 0)
(0.557497 -0.0678113 0)
(0.506716 -0.0242104 0)
(0.482984 -0.00151896 0)
(0.474724 0.010695 0)
(0.477429 0.0188135 0)
(0.488797 0.0267122 0)
(0.507527 0.0376949 0)
(0.528869 0.0586441 0)
(0.408969 -0.206951 0)
(0.249168 -0.0416037 0)
(0.174111 -0.000879656 0)
(0.160964 0.00447984 0)
(0.16205 0.00496598 0)
(0.167181 0.00497122 0)
(0.176286 0.00528745 0)
(0.189467 0.00658275 0)
(0.20896 0.0114851 0)
(0.23233 0.0350862 0)
(0.187941 0.00293661 0)
(0.176318 0.00278761 0)
(0.164647 0.00259113 0)
(0.153199 0.00236528 0)
(0.142183 0.00213095 0)
(0.13174 0.0019027 0)
(0.121952 0.00168778 0)
(0.112857 0.00148969 0)
(0.104465 0.00130998 0)
(0.0967656 0.00114847 0)
(0.0897337 0.00100378 0)
(0.0833382 0.000874179 0)
(0.0775443 0.00075804 0)
(0.0723161 0.000654007 0)
(0.0676177 0.000560838 0)
(0.0634136 0.000477446 0)
(0.0596695 0.000402799 0)
(0.0563523 0.000336022 0)
(0.0534302 0.000276297 0)
(0.0508728 0.00022296 0)
(0.048651 0.00017538 0)
(0.046737 0.000133063 0)
(0.0451044 9.55258e-05 0)
(0.0437281 6.23984e-05 0)
(0.0425842 3.33062e-05 0)
(0.0416501 7.97313e-06 0)
(0.0409044 -1.38983e-05 0)
(0.040327 -3.25219e-05 0)
(0.0398989 -4.81432e-05 0)
(0.0396021 -6.09383e-05 0)
(0.03942 -7.11192e-05 0)
(0.0393366 -7.88357e-05 0)
(0.0393373 -8.42786e-05 0)
(0.0394084 -8.75798e-05 0)
(0.0395369 -8.88995e-05 0)
(0.493434 0.0216865 0)
(0.470902 0.0222634 0)
(0.447027 0.0222638 0)
(0.422493 0.021775 0)
(0.397897 0.0209242 0)
(0.373711 0.0198343 0)
(0.350284 0.0186016 0)
(0.327869 0.0172986 0)
(0.306632 0.0159787 0)
(0.286674 0.0146785 0)
(0.268044 0.0134203 0)
(0.250757 0.012217 0)
(0.234802 0.0110754 0)
(0.220149 0.00999893 0)
(0.206758 0.00898847 0)
(0.194579 0.00804353 0)
(0.183555 0.00716277 0)
(0.173628 0.00634437 0)
(0.164735 0.00558627 0)
(0.156812 0.00488624 0)
(0.149796 0.00424199 0)
(0.143624 0.00365113 0)
(0.138232 0.00311123 0)
(0.13356 0.00261988 0)
(0.129547 0.00217464 0)
(0.126135 0.0017731 0)
(0.12327 0.00141288 0)
(0.120899 0.00109168 0)
(0.118971 0.000807209 0)
(0.117438 0.000557294 0)
(0.116256 0.000339802 0)
(0.115381 0.000152702 0)
(0.114773 -5.96282e-06 0)
(0.114395 -0.000138041 0)
(0.114212 -0.000245281 0)
(0.726452 0.0446636 0)
(0.702676 0.0478687 0)
(0.675991 0.0496706 0)
(0.647256 0.0501948 0)
(0.61727 0.0496732 0)
(0.586709 0.0483524 0)
(0.556134 0.0464488 0)
(0.526004 0.0441451 0)
(0.496683 0.0415913 0)
(0.468447 0.0389026 0)
(0.441494 0.0361621 0)
(0.415968 0.0334288 0)
(0.391961 0.0307438 0)
(0.369528 0.0281362 0)
(0.348691 0.025626 0)
(0.329447 0.0232269 0)
(0.311774 0.0209479 0)
(0.295632 0.018795 0)
(0.280968 0.0167713 0)
(0.267722 0.0148783 0)
(0.255822 0.0131156 0)
(0.245196 0.0114818 0)
(0.235764 0.00997444 0)
(0.227446 0.00859011 0)
(0.220161 0.0073248 0)
(0.213828 0.00617403 0)
(0.20837 0.00513292 0)
(0.203708 0.00419635 0)
(0.199768 0.00335905 0)
(0.19648 0.00261569 0)
(0.193774 0.00196092 0)
(0.191587 0.0013895 0)
(0.189858 0.000896282 0)
(0.188528 0.000476349 0)
(0.187545 0.000124997 0)
(0.87957 0.0649299 0)
(0.859809 0.072118 0)
(0.836285 0.0770669 0)
(0.809818 0.0798975 0)
(0.781167 0.0809219 0)
(0.750961 0.0804747 0)
(0.719761 0.0788581 0)
(0.688076 0.0763461 0)
(0.656354 0.0731785 0)
(0.624977 0.069552 0)
(0.594268 0.0656211 0)
(0.564496 0.0615066 0)
(0.535881 0.057303 0)
(0.508597 0.0530842 0)
(0.482773 0.0489082 0)
(0.458501 0.0448205 0)
(0.435838 0.0408565 0)
(0.414813 0.0370439 0)
(0.395425 0.0334036 0)
(0.377655 0.0299512 0)
(0.361463 0.0266974 0)
(0.346795 0.0236488 0)
(0.333585 0.0208087 0)
(0.321758 0.0181774 0)
(0.311234 0.0157527 0)
(0.301926 0.0135304 0)
(0.293749 0.0115049 0)
(0.286614 0.00966916 0)
(0.280435 0.0080154 0)
(0.275127 0.00653512 0)
(0.270608 0.00521945 0)
(0.266798 0.00405935 0)
(0.263622 0.00304576 0)
(0.261009 0.00216983 0)
(0.258891 0.00142298 0)
(0.956216 0.0797642 0)
(0.941564 0.0911426 0)
(0.923323 0.099577 0)
(0.902245 0.105216 0)
(0.878888 0.10847 0)
(0.853618 0.109724 0)
(0.826779 0.109309 0)
(0.798735 0.107537 0)
(0.769843 0.104687 0)
(0.740441 0.100996 0)
(0.71086 0.096657 0)
(0.681414 0.091835 0)
(0.652395 0.0866684 0)
(0.624065 0.0812753 0)
(0.596654 0.0757567 0)
(0.570352 0.0701987 0)
(0.545314 0.0646747 0)
(0.52166 0.0592467 0)
(0.499472 0.0539664 0)
(0.478802 0.0488759 0)
(0.459671 0.0440086 0)
(0.442078 0.0393898 0)
(0.425997 0.0350378 0)
(0.411386 0.0309643 0)
(0.398188 0.0271758 0)
(0.386337 0.0236738 0)
(0.375756 0.0204563 0)
(0.366364 0.0175177 0)
(0.358078 0.0148503 0)
(0.350814 0.0124442 0)
(0.344485 0.0102883 0)
(0.339008 0.00837055 0)
(0.334303 0.00667834 0)
(0.330292 0.00519897 0)
(0.326899 0.00391991 0)
(0.960708 0.0901569 0)
(0.950757 0.104971 0)
(0.938067 0.116179 0)
(0.923514 0.124135 0)
(0.907401 0.129436 0)
(0.889699 0.132502 0)
(0.870418 0.133661 0)
(0.849661 0.133213 0)
(0.827564 0.131421 0)
(0.804298 0.128495 0)
(0.780081 0.124616 0)
(0.755172 0.119947 0)
(0.729849 0.114635 0)
(0.704395 0.108817 0)
(0.679083 0.102622 0)
(0.654171 0.0961666 0)
(0.629891 0.089561 0)
(0.606442 0.0829038 0)
(0.583993 0.076283 0)
(0.562674 0.0697752 0)
(0.542586 0.0634456 0)
(0.523794 0.0573478 0)
(0.506336 0.0515246 0)
(0.490222 0.0460085 0)
(0.475442 0.0408226 0)
(0.461966 0.0359816 0)
(0.44975 0.0314934 0)
(0.438739 0.0273595 0)
(0.428868 0.0235765 0)
(0.420066 0.020137 0)
(0.41226 0.0170303 0)
(0.405374 0.0142438 0)
(0.399333 0.0117631 0)
(0.394061 0.00957285 0)
(0.389486 0.00765746 0)
(0.892887 0.0966303 0)
(0.888158 0.113775 0)
(0.88167 0.126443 0)
(0.874857 0.135624 0)
(0.867654 0.142215 0)
(0.859506 0.14666 0)
(0.850069 0.149276 0)
(0.839164 0.150329 0)
(0.82667 0.150007 0)
(0.81255 0.148442 0)
(0.796872 0.145748 0)
(0.779787 0.142035 0)
(0.761506 0.137418 0)
(0.742274 0.13202 0)
(0.722359 0.125965 0)
(0.702037 0.119382 0)
(0.681574 0.112401 0)
(0.661222 0.105148 0)
(0.641211 0.0977426 0)
(0.621739 0.0902949 0)
(0.602975 0.0829046 0)
(0.585054 0.0756582 0)
(0.56808 0.0686292 0)
(0.552126 0.0618776 0)
(0.537239 0.0554505 0)
(0.52344 0.0493831 0)
(0.510731 0.0436997 0)
(0.499095 0.0384152 0)
(0.488501 0.0335361 0)
(0.478907 0.0290624 0)
(0.470263 0.0249881 0)
(0.462514 0.0213035 0)
(0.4556 0.0179952 0)
(0.449458 0.0150478 0)
(0.444028 0.0124445 0)
(0.753051 0.0976728 0)
(0.754882 0.116371 0)
(0.756445 0.128893 0)
(0.759967 0.137955 0)
(0.764297 0.144894 0)
(0.768086 0.150145 0)
(0.770677 0.153992 0)
(0.771669 0.156607 0)
(0.770751 0.15804 0)
(0.767754 0.158292 0)
(0.762653 0.157369 0)
(0.755528 0.155298 0)
(0.746529 0.152132 0)
(0.735857 0.147948 0)
(0.72375 0.142845 0)
(0.710468 0.136942 0)
(0.696281 0.130369 0)
(0.681458 0.123264 0)
(0.666257 0.115768 0)
(0.650915 0.108017 0)
(0.635649 0.10014 0)
(0.620648 0.0922549 0)
(0.606069 0.0844662 0)
(0.592044 0.0768639 0)
(0.578674 0.0695233 0)
(0.566034 0.0625043 0)
(0.554173 0.0558533 0)
(0.543122 0.0496035 0)
(0.532891 0.0437767 0)
(0.523475 0.0383849 0)
(0.514857 0.0334319 0)
(0.507011 0.0289143 0)
(0.4999 0.0248239 0)
(0.493487 0.0211483 0)
(0.487726 0.0178721 0)
(0.547469 0.0906124 0)
(0.557741 0.109895 0)
(0.571717 0.120267 0)
(0.590628 0.12787 0)
(0.610289 0.134497 0)
(0.628542 0.140436 0)
(0.644831 0.145743 0)
(0.658834 0.150318 0)
(0.670283 0.153981 0)
(0.679066 0.156572 0)
(0.685205 0.157984 0)
(0.688789 0.158158 0)
(0.689959 0.157084 0)
(0.688893 0.15479 0)
(0.685801 0.151342 0)
(0.680917 0.146838 0)
(0.674492 0.141399 0)
(0.666781 0.135163 0)
(0.658039 0.128279 0)
(0.648515 0.120899 0)
(0.638441 0.113172 0)
(0.628033 0.105241 0)
(0.617483 0.0972373 0)
(0.606958 0.0892793 0)
(0.596603 0.0814691 0)
(0.586536 0.0738929 0)
(0.576849 0.0666205 0)
(0.567616 0.0597067 0)
(0.558888 0.053192 0)
(0.550698 0.047104 0)
(0.543066 0.0414596 0)
(0.535997 0.0362663 0)
(0.529487 0.0315238 0)
(0.523522 0.027226 0)
(0.518083 0.0233622 0)
(0.29149 0.0793696 0)
(0.321675 0.0886521 0)
(0.35719 0.0937067 0)
(0.39659 0.100161 0)
(0.433083 0.107712 0)
(0.46551 0.115756 0)
(0.494411 0.123767 0)
(0.520004 0.131268 0)
(0.542342 0.137897 0)
(0.561537 0.143416 0)
(0.577736 0.147666 0)
(0.59109 0.150551 0)
(0.601748 0.152029 0)