/*--------------------------------*- C++ -*----------------------------------*\
| =========                 |                                                 |
| \\      /  F ield         | OpenFOAM: The Open Source CFD Toolbox           |
|  \\    /   O peration     | Version:  2406                                  |
|   \\  /    A nd           | Website:  www.openfoam.com                      |
|    \\/     M anipulation  |                                                 |
\*---------------------------------------------------------------------------*/
FoamFile
{
    version     2.0;
    format      ascii;
    arch        "LSB;label=32;scalar=64";
    class       surfaceScalarField;
    location    "40";
    object      phi;
}
// * * * * * * * * * * * * * * * * * * * * * * * * * * * * * * * * * * * * * //

dimensions      [0 3 -1 0 0 0 0];

oriented        oriented;

internalField   nonuniform List<scalar> 
3796
(
0.00993285
-0.000182849
0.0101254
-0.000192379
0.0102605
-0.000135109
0.0103545
-9.39592e-05
0.010423
-6.84687e-05
0.0104735
-5.05453e-05
0.0105111
-3.74698e-05
0.0105397
-2.85431e-05
0.0105624
-2.26994e-05
0.0105811
-1.87604e-05
0.0105967
-1.57518e-05
0.01061
-1.32661e-05
0.0106212
-1.12487e-05
0.0106311
-9.81053e-06
0.0106402
-8.87873e-06
0.0106487
-8.43791e-06
0.0106571
-8.26979e-06
0.0106654
-8.3677e-06
0.010674
-8.65153e-06
0.0106831
-9.21867e-06
0.0106931
-1.01553e-05
0.0107047
-1.16391e-05
0.0107186
-1.38437e-05
0.0107357
-1.70416e-05
0.0107573
-2.1496e-05
0.0107851
-2.76619e-05
0.0108212
-3.6014e-05
0.0108687
-4.73525e-05
0.0109314
-6.26106e-05
0.0110147
-8.32207e-05
0.0111257
-0.000110986
0.0112742
-0.000148495
0.0114734
-0.000199134
0.0117411
-0.000267585
0.0121012
-0.00036002
0.012586
-0.000484703
0.0132385
-0.000652239
0.0141148
-0.000876002
0.0152869
-0.00117171
0.0168437
-0.00155635
0.0188888
-0.00204467
0.0215326
-0.00264307
0.0248723
-0.00333892
0.0289572
-0.00408421
0.0337419
-0.00478288
0.038994
-0.00525002
-0.00529794
0.0442921
0.0276718
-0.000104546
0.0276696
-0.000190158
0.0277166
-0.000181964
0.0277778
-0.000155112
0.0278403
-0.00013089
0.0278987
-0.000108882
0.0279505
-8.92629e-05
0.0279954
-7.33172e-05
0.028034
-6.12196e-05
0.0280674
-5.21592e-05
0.0280965
-4.4978e-05
0.0281221
-3.89359e-05
0.0281446
-3.38482e-05
0.0281648
-2.98824e-05
0.0281832
-2.70826e-05
0.0282005
-2.5446e-05
0.0282172
-2.47199e-05
0.0282337
-2.4782e-05
0.0282505
-2.55171e-05
0.0282681
-2.70286e-05
0.0282873
-2.95399e-05
0.028309
-3.34462e-05
0.0283343
-3.92512e-05
0.028365
-4.76439e-05
0.0284031
-5.94317e-05
0.0284514
-7.57528e-05
0.0285137
-9.79962e-05
0.0285948
-0.000128154
0.0287012
-0.000168783
0.0288416
-0.000223473
0.0290277
-0.000296945
0.0292749
-0.00039566
0.0296041
-0.000528159
0.0300425
-0.000705877
0.0306264
-0.000943775
0.0314033
-0.00126132
0.0324346
-0.00168311
0.0337985
-0.00223937
0.0355926
-0.00296513
0.0379347
-0.00389762
0.0409608
-0.00506981
0.044818
-0.00649917
0.0496465
-0.00816621
0.0555511
-0.00998762
0.0625465
-0.0117774
0.0704299
-0.0131344
-0.0136883
0.078818
0.0437018
-5.63935e-05
0.0436447
-0.000132903
0.0436162
-0.000153321
0.0436105
-0.000149452
0.0436199
-0.000140311
0.0436392
-0.000128176
0.043664
-0.00011396
0.0436908
-9.99761e-05
0.0437177
-8.79304e-05
0.0437437
-7.80337e-05
0.0437683
-6.95611e-05
0.0437912
-6.19448e-05
0.0438124
-5.51443e-05
0.043832
-4.95047e-05
0.0438503
-4.54045e-05
0.0438679
-4.28712e-05
0.0438853
-4.18075e-05
0.0439028
-4.19813e-05
0.0439207
-4.3292e-05
0.0439396
-4.58589e-05
0.04396
-4.99987e-05
0.0439827
-5.6328e-05
0.0440089
-6.5655e-05
0.0440402
-7.90609e-05
0.0440787
-9.79353e-05
0.0441271
-0.000124032
0.044189
-0.000159713
0.0442691
-0.000208044
0.0443738
-0.000273209
0.0445114
-0.000360768
0.0446929
-0.000478232
0.0449331
-0.000635607
0.0452513
-0.000846227
0.0456732
-0.00112768
0.0462325
-0.00150301
0.0469733
-0.00200192
0.0479525
-0.00266212
0.0492435
-0.00353009
0.0509395
-0.00466079
0.0531575
-0.00611522
0.0560409
-0.00795289
0.0597612
-0.010219
0.0645087
-0.0129146
0.0704894
-0.0159706
0.0778593
-0.0191489
0.0866019
-0.0218767
-0.0237579
0.0966641
0.0577274
-3.37062e-05
0.0576828
-8.8371e-05
0.057644
-0.000114483
0.0576161
-0.000121408
0.0575974
-0.000121547
0.057587
-0.000117823
0.0575835
-0.000110685
0.0575854
-0.000101848
0.0575909
-9.32447e-05
0.0575989
-8.56382e-05
0.0576085
-7.87587e-05
0.0576187
-7.21319e-05
0.0576292
-6.58012e-05
0.0576396
-6.02631e-05
0.0576501
-5.61003e-05
0.0576608
-5.36063e-05
0.057672
-5.28032e-05
0.0576839
-5.35275e-05
0.0576968
-5.56993e-05
0.0577106
-5.94164e-05
0.0577259
-6.50949e-05
0.0577429
-7.34451e-05
0.0577626
-8.55264e-05
0.057786
-0.000102715
0.0578146
-0.000126813
0.0578506
-0.000160105
0.0578966
-0.000205603
0.0579559
-0.00026725
0.0580334
-0.000350337
0.0581348
-0.000461912
0.0582683
-0.000611447
0.0584446
-0.000811549
0.0586775
-0.00107902
0.0589861
-0.00143604
0.0593949
-0.00191176
0.0599372
-0.00254412
0.0606571
-0.00338193
0.0616141
-0.00448698
0.0628891
-0.00593568
0.0645931
-0.00781926
0.0668796
-0.0102396
0.0699594
-0.0132999
0.0741097
-0.017068
0.0796982
-0.0215611
0.0870881
-0.0265411
0.0967411
-0.0315381
-0.0367072
0.109699
0.0697379
-2.16351e-05
0.0697093
-5.97024e-05
0.0696783
-8.32635e-05
0.0696505
-9.34955e-05
0.0696263
-9.74418e-05
0.069606
-9.7783e-05
0.0695899
-9.48472e-05
0.0695778
-8.98391e-05
0.0695693
-8.43968e-05
0.0695636
-7.93901e-05
0.0695601
-7.46931e-05
0.0695581
-6.98842e-05
0.0695571
-6.4956e-05
0.0695568
-6.04761e-05
0.0695572
-5.70699e-05
0.0695585
-5.52504e-05
0.0695608
-5.51146e-05
0.0695642
-5.66116e-05
0.0695688
-5.96645e-05
0.0695744
-6.43841e-05
0.0695809
-7.11914e-05
0.0695885
-8.08582e-05
0.0695974
-9.45164e-05
0.0696081
-0.000113728
0.0696214
-0.000140452
0.0696383
-0.00017729
0.06966
-0.000227531
0.0696883
-0.000295591
0.0697254
-0.000387253
0.0697741
-0.000510316
0.0698381
-0.00067515
0.0699226
-0.000895672
0.0700343
-0.00119038
0.0701825
-0.00158392
0.0703798
-0.00210887
0.0706441
-0.00280829
0.071001
-0.00373879
0.0714886
-0.0049745
0.0721649
-0.00661204
0.0731221
-0.0087765
0.0745098
-0.0116276
0.0765739
-0.0153657
0.07972
-0.0202155
0.0845788
-0.0264237
0.0919863
-0.0339554
0.103239
-0.0427817
-0.0537261
0.12026
0.0797428
-1.43695e-05
0.079724
-4.09149e-05
0.0797005
-5.9658e-05
0.0796768
-6.96233e-05
0.079654
-7.46195e-05
0.0796325
-7.65756e-05
0.079613
-7.58154e-05
0.0795959
-7.31028e-05
0.0795815
-6.97199e-05
0.0795693
-6.65112e-05
0.079559
-6.3448e-05
0.0795499
-6.01926e-05
0.0795416
-5.67005e-05
0.0795338
-5.33849e-05
0.0795267
-5.09026e-05
0.0795204
-4.97484e-05
0.0795152
-5.01558e-05
0.0795109
-5.21362e-05
0.0795077
-5.56448e-05
0.079505
-6.08031e-05
0.0795026
-6.79751e-05
0.0795001
-7.78924e-05
0.0794974
-9.16475e-05
0.0794941
-0.000110741
0.0794903
-0.000137139
0.0794858
-0.000173365
0.0794805
-0.000222709
0.0794741
-0.000289471
0.0794662
-0.000379365
0.0794561
-0.000500008
0.0794429
-0.000661597
0.0794254
-0.000877793
0.0794024
-0.00116687
0.0793722
-0.0015533
0.0793335
-0.0020698
0.0792856
-0.00276022
0.0792304
-0.00368344
0.079175
-0.004919
0.0791382
-0.00657526
0.0791632
-0.00880159
0.079343
-0.0118079
0.0798723
-0.0158958
0.081167
-0.0215125
0.0840632
-0.0293248
0.0903691
-0.040256
0.102889
-0.0553044
-0.0723203
0.121496
0.0877451
-9.53383e-06
0.0877318
-2.74651e-05
0.0877135
-4.11535e-05
0.0876934
-4.93385e-05
0.0876727
-5.39827e-05
0.087652
-5.62874e-05
0.0876321
-5.64655e-05
0.0876137
-5.50509e-05
0.0875972
-5.30176e-05
0.0875826
-5.1029e-05
0.0875693
-4.91215e-05
0.0875569
-4.70115e-05
0.0875449
-4.46385e-05
0.0875331
-4.23175e-05
0.0875216
-4.05875e-05
0.0875107
-3.99151e-05
0.0875005
-4.05486e-05
0.087491
-4.25378e-05
0.0874819
-4.58801e-05
0.0874729
-5.06587e-05
0.0874632
-5.71932e-05
0.0874522
-6.60773e-05
0.0874392
-7.82555e-05
0.0874233
-9.5013e-05
0.0874037
-0.000118059
0.0873793
-0.00014959
0.0873483
-0.000192468
0.0873087
-0.000250435
0.0872576
-0.000328454
0.0871907
-0.000433142
0.0871028
-0.000573373
0.0869865
-0.00076105
0.0868323
-0.00101218
0.0866278
-0.00134832
0.086357
-0.00179853
0.0859994
-0.00240225
0.0855295
-0.0032133
0.0849165
-0.00430594
0.0841252
-0.005784
0.0831187
-0.00779536
0.0818665
-0.0105563
0.0803606
-0.0143911
0.078666
-0.0198209
0.0770345
-0.0276926
0.0765583
-0.0397858
0.0806281
-0.0593671
-0.0879568
0.09627
0.0937463
-5.85712e-06
0.0937359
-1.70161e-05
0.0937209
-2.59195e-05
0.0937033
-3.15905e-05
0.0936844
-3.50315e-05
0.0936647
-3.69344e-05
0.093645
-3.7402e-05
0.0936262
-3.6758e-05
0.0936089
-3.5629e-05
0.0935932
-3.44712e-05
0.0935787
-3.33357e-05
0.0935647
-3.20635e-05
0.0935509
-3.0601e-05
0.093537
-2.91558e-05
0.0935232
-2.80939e-05
0.0935097
-2.77502e-05
0.0934965
-2.83272e-05
0.0934838
-2.98832e-05
0.093471
-3.24366e-05
0.0934576
-3.60635e-05
0.0934428
-4.09908e-05
0.0934255
-4.76581e-05
0.0934046
-5.67398e-05
0.0933788
-6.91813e-05
0.0933465
-8.62272e-05
0.0933056
-0.000109495
0.0932533
-0.000141089
0.0931859
-0.000183765
0.0930981
-0.000241181
0.092983
-0.000318214
0.0928312
-0.000421412
0.0926302
-0.000559577
0.0923632
-0.000744584
0.092008
-0.000992486
0.0915351
-0.00132509
0.0909055
-0.00177219
0.0900674
-0.00237489
0.088952
-0.00319047
0.0874679
-0.00429997
0.0854917
-0.00581963
0.0828537
-0.00791915
0.0793088
-0.0108478
0.0744673
-0.014981
0.0676221
-0.0208516
0.0571805
-0.0293443
0.0391621
-0.0413512
-0.0487957
0.0977469
-2.81334e-06
0.0977381
-8.16028e-06
0.0977249
-1.25205e-05
0.097709
-1.54008e-05
0.0976913
-1.72311e-05
0.0976722
-1.83067e-05
0.0976527
-1.86473e-05
0.0976338
-1.84101e-05
0.0976162
-1.79007e-05
0.0976
-1.73552e-05
0.0975848
-1.68163e-05
0.09757
-1.62169e-05
0.0975553
-1.55374e-05
0.0975403
-1.4873e-05
0.0975252
-1.43996e-05
0.0975102
-1.42851e-05
0.0974955
-1.46272e-05
0.0974808
-1.54685e-05
0.0974658
-1.68236e-05
0.0974498
-1.87474e-05
0.0974316
-2.137e-05
0.0974102
-2.4927e-05
0.097384
-2.97795e-05
0.0973514
-3.64202e-05
0.0973102
-4.55042e-05
0.0972577
-5.78803e-05
0.0971903
-7.46557e-05
0.0971029
-9.72891e-05
0.0969888
-0.000127713
0.0968389
-0.000168519
0.0966407
-0.000223177
0.0963779
-0.000296371
0.0960283
-0.000394421
0.0955624
-0.0005259
0.0949405
-0.000702484
0.094109
-0.000940206
0.0929957
-0.00126126
0.0915021
-0.00169676
0.0894928
-0.00229076
0.086779
-0.00310639
0.0830938
-0.00423487
0.0780516
-0.00580733
0.0710801
-0.0080117
0.0613207
-0.0110944
0.0473499
-0.0153782
0.0267427
-0.0207489
-0.0220542
0.0997472
-3.86792e-09
0.0997391
1.22721e-08
0.0997268
5.14223e-09
0.0997116
-5.92392e-09
0.0996944
2.02543e-09
0.0996757
9.33567e-09
0.0996564
-1.27587e-08
0.0996374
-5.46099e-08
0.0996196
-7.35008e-08
0.0996032
-4.20519e-08
0.0995877
1.80342e-08
0.0995726
5.55989e-08
0.0995574
3.82787e-08
0.0995419
-3.72744e-08
0.0995262
-1.38982e-07
0.0995106
-2.24824e-07
0.0994951
-2.65597e-07
0.0994796
-2.4931e-07
0.0994635
-1.91883e-07
0.0994462
-1.19599e-07
0.0994264
-6.17418e-08
0.0994029
-4.18017e-08
0.099374
-6.5564e-08
0.0993379
-1.3121e-07
0.0992922
-2.22442e-07
0.0992338
-3.23816e-07
0.0991585
-4.19364e-07
0.0990607
-4.98783e-07
0.0989329
-5.59625e-07
0.0987646
-6.0335e-07
0.0985421
-6.37717e-07
0.0982468
-6.70601e-07
0.0978537
-7.10214e-07
0.0973293
-7.63506e-07
0.0966283
-8.3302e-07
0.0956896
-9.22759e-07
0.0944297
-1.03158e-06
0.0927343
-1.16612e-06
0.0904447
-1.31974e-06
0.0873393
-1.49263e-06
0.0831051
-1.70602e-06
0.0772978
-1.8391e-06
0.0692859
-2.02294e-06
0.0581903
-2.27523e-06
0.0428101
-2.01249e-06
0.0220568
1.5977e-06
-1.0318e-07
0.0997472
2.81782e-06
0.0997391
8.1281e-06
0.0997268
1.25277e-05
0.0997116
1.54362e-05
0.0996944
1.7265e-05
0.0996757
1.8308e-05
0.0996563
1.85824e-05
0.0996374
1.82842e-05
0.0996196
1.77817e-05
0.0996032
1.73187e-05
0.0995877
1.68796e-05
0.0995726
1.63189e-05
0.0995573
1.5571e-05
0.0995418
1.47527e-05
0.0995261
1.40981e-05
0.0995105
1.38435e-05
0.0994951
1.41362e-05
0.0994796
1.50204e-05
0.0994636
1.64864e-05
0.0994462
1.85357e-05
0.0994264
2.12482e-05
0.0994028
2.48268e-05
0.0993739
2.96177e-05
0.0993378
3.61294e-05
0.099292
4.50395e-05
0.0992336
5.72293e-05
0.0991583
7.38316e-05
0.0990606
9.63205e-05
0.0989327
0.000126635
0.0987645
0.000167356
0.098542
0.000221946
0.0982466
0.00029507
0.0978535
0.000393034
0.097329
0.000524401
0.096628
0.00070084
0.0956893
0.000938381
0.0944293
0.00125922
0.0927338
0.00169445
0.0904442
0.00228814
0.0873387
0.00310341
0.0831045
0.00423156
0.0772972
0.00580354
0.0692851
0.00800769
0.0581902
0.0110905
0.042813
0.0153774
0.0220551
0.0207451
0.0220549
0.0977469
5.85217e-06
0.0977382
1.70379e-05
0.097725
2.59352e-05
0.097709
3.15966e-05
0.0976912
3.50423e-05
0.0976722
3.69462e-05
0.0976527
3.73762e-05
0.0976338
3.66755e-05
0.0976163
3.55295e-05
0.0976001
3.44257e-05
0.0975848
3.33702e-05
0.0975699
3.21273e-05
0.097555
3.06056e-05
0.09754
2.90265e-05
0.097525
2.78126e-05
0.0975101
2.73622e-05
0.0974954
2.79093e-05
0.0974809
2.95152e-05
0.0974659
3.21626e-05
0.0974498
3.58835e-05
0.0974316
4.08649e-05
0.09741
4.75215e-05
0.0973837
5.65282e-05
0.097351
6.88435e-05
0.0973098
8.57375e-05
0.0972573
0.000108852
0.0971899
0.000140309
0.0971025
0.000182874
0.0969884
0.000240202
0.0968384
0.000317164
0.0966402
0.000420293
0.0963773
0.000558381
0.0960277
0.000743291
0.0955617
0.000991069
0.0949396
0.00132352
0.094108
0.00177044
0.0929946
0.00237291
0.0915008
0.00318824
0.0894913
0.00429745
0.0867775
0.00581677
0.083092
0.00791589
0.0780499
0.0108442
0.0710788
0.0149772
0.0613234
0.0208488
0.047349
0.0293402
0.0267446
0.0413529
0.0487959
0.0937464
9.53641e-06
0.093736
2.74557e-05
0.0937209
4.11807e-05
0.0937034
4.93675e-05
0.0936844
5.39919e-05
0.0936646
5.6266e-05
0.0936449
5.64094e-05
0.0936262
5.4988e-05
0.0936091
5.2985e-05
0.0935934
5.10452e-05
0.0935787
4.91592e-05
0.0935645
4.70192e-05
0.0935505
4.45627e-05
0.0935366
4.21432e-05
0.0935229
4.03342e-05
0.0935095
3.96312e-05
0.0934965
4.02819e-05
0.0934839
4.23201e-05
0.0934712
4.57102e-05
0.0934577
5.05139e-05
0.0934427
5.70299e-05
0.0934252
6.58571e-05
0.0934041
7.79446e-05
0.0933782
9.45995e-05
0.0933458
0.000117542
0.0933048
0.000148983
0.0932526
0.000191784
0.0931852
0.000249688
0.0930974
0.000327647
0.0929823
0.000432273
0.0928304
0.000572427
0.0926293
0.000760011
0.0923621
0.00101103
0.0920067
0.00134702
0.0915337
0.00179707
0.0909039
0.0024006
0.0900655
0.00321145
0.0889499
0.00430386
0.0874655
0.00578166
0.0854891
0.00779275
0.0828508
0.0105532
0.0793063
0.0143879
0.0744665
0.0198172
0.0676226
0.0276894
0.0571841
0.0397834
0.0391614
0.0593662
0.0879583
0.0877451
1.43737e-05
0.0877318
4.09305e-05
0.0877135
5.96703e-05
0.0876934
6.96285e-05
0.0876726
7.46054e-05
0.0876518
7.65577e-05
0.087632
7.58006e-05
0.0876138
7.30945e-05
0.0875974
6.9728e-05
0.0875828
6.65183e-05
0.0875693
6.34343e-05
0.0875566
6.01288e-05
0.0875444
5.65734e-05
0.0875325
5.32223e-05
0.0875212
5.07362e-05
0.0875105
4.96133e-05
0.0875005
5.00635e-05
0.0874911
5.20635e-05
0.0874821
5.55619e-05
0.0874729
6.06623e-05
0.087463
6.77518e-05
0.0874518
7.75738e-05
0.0874385
9.12425e-05
0.0874225
0.000110273
0.0874028
0.000136631
0.0873783
0.000172837
0.0873474
0.000222168
0.0873078
0.000288911
0.0872566
0.000378769
0.0871897
0.00049935
0.0871017
0.000660853
0.0869852
0.000876934
0.0868308
0.00116588
0.0866261
0.00155216
0.0863551
0.00206849
0.0859972
0.00275873
0.0855269
0.00368177
0.0849136
0.00491715
0.084122
0.0065732
0.0831151
0.00879929
0.0818627
0.0118054
0.080357
0.0158928
0.0786652
0.0215096
0.0770351
0.0293203
0.0765628
0.0402527
0.0806317
0.0553002
0.0723181
0.09627
0.0797428
2.16313e-05
0.079724
5.97073e-05
0.0797005
8.32725e-05
0.0796767
9.34881e-05
0.0796538
9.7436e-05
0.0796323
9.77731e-05
0.0796129
9.48745e-05
0.079596
8.98971e-05
0.0795817
8.44493e-05
0.0795696
7.93819e-05
0.079559
7.45919e-05
0.0795495
6.97103e-05
0.079541
6.47867e-05
0.0795332
6.0355e-05
0.0795262
5.70553e-05
0.0795202
5.53102e-05
0.0795152
5.52091e-05
0.0795112
5.66654e-05
0.0795079
5.96158e-05
0.079505
6.42013e-05
0.0795023
7.08779e-05
0.0794995
8.04434e-05
0.0794965
9.40591e-05
0.0794931
0.000113263
0.0794892
0.00014003
0.0794847
0.000176904
0.0794795
0.000227186
0.0794731
0.000295244
0.0794651
0.000386878
0.0794549
0.000509863
0.0794415
0.000674596
0.0794239
0.000894984
0.0794006
0.00118955
0.0793701
0.00158293
0.0793311
0.00210774
0.0792829
0.00280701
0.0792273
0.00373736
0.0791715
0.00497293
0.0791343
0.00661032
0.0791588
0.00877462
0.0793383
0.0116255
0.0798681
0.0153633
0.0811641
0.0202127
0.0840653
0.0264198
0.0903712
0.0339484
0.102894
0.0427752
0.0537181
0.121498
0.0697379
3.3704e-05
0.0697094
8.83476e-05
0.0696783
0.000114459
0.0696504
0.000121411
0.0696261
0.00012155
0.0696058
0.000117846
0.0695898
0.00011075
0.0695779
0.000101953
0.0695695
9.33047e-05
0.0695637
8.55944e-05
0.06956
7.85826e-05
0.0695577
7.19047e-05
0.0695564
6.56232e-05
0.0695562
6.02289e-05
0.0695568
5.62185e-05
0.0695584
5.38326e-05
0.0695609
5.30227e-05
0.0695645
5.36504e-05
0.069569
5.56425e-05
0.0695743
5.91814e-05
0.0695805
6.47075e-05
0.0695878
7.29902e-05
0.0695965
8.50705e-05
0.069607
0.000102331
0.0696202
0.000126518
0.0696371
0.000159906
0.0696588
0.000205456
0.0696871
0.000267116
0.0697242
0.000350154
0.0697727
0.000461647
0.0698366
0.000611057
0.0699208
0.000811031
0.0700323
0.00107836
0.0701801
0.00143525
0.070377
0.00191085
0.070641
0.0025431
0.0709975
0.00338082
0.0714846
0.00448579
0.0721605
0.00593441
0.0731171
0.00781792
0.0745042
0.0102382
0.0765687
0.0132984
0.0797154
0.0170657
0.0845765
0.0215584
0.0919883
0.0265361
0.103241
0.0315283
0.0366993
0.120263
0.0577273
5.63913e-05
0.0576828
0.000132918
0.0576441
0.000153308
0.0576161
0.000149418
0.0575973
0.000140274
0.0575868
0.000128197
0.0575835
0.000114074
0.0575855
0.000100135
0.0575911
8.80062e-05
0.057599
7.79136e-05
0.0576082
6.93163e-05
0.0576182
6.16924e-05
0.0576285
5.50284e-05
0.057639
4.95957e-05
0.0576497
4.56435e-05
0.0576607
4.31726e-05
0.0576722
4.20374e-05
0.0576842
4.20458e-05
0.0576968
4.31732e-05
0.0577104
4.55614e-05
0.0577253
4.96177e-05
0.0577421
5.59275e-05
0.0577615
6.53217e-05
0.0577848
7.88324e-05
0.0578135
9.78154e-05
0.0578494
0.000124003
0.0578954
0.000159719
0.0579548
0.000208043
0.0580321
0.000273149
0.0581334
0.000360619
0.0582667
0.000477975
0.0584426
0.00063524
0.0586753
0.000845761
0.0589835
0.00112713
0.059392
0.00150239
0.0599339
0.00200126
0.0606534
0.00266142
0.0616099
0.00352939
0.0628843
0.00466014
0.0645877
0.00611466
0.0668736
0.0079525
0.0699532
0.010219
0.0741046
0.0129147
0.0796939
0.0159698
0.0870854
0.0191476
0.0967447
0.0218743
0.0237494
0.109702
0.0437018
0.000104556
0.0436448
0.00019017
0.0436162
0.000181994
0.0436105
0.00015512
0.0436198
0.000130873
0.0436391
0.000108869
0.0436639
8.93514e-05
0.0436909
7.34454e-05
0.0437178
6.12737e-05
0.0437437
5.20412e-05
0.043768
4.47434e-05
0.0437907
3.873e-05
0.0438118
3.38174e-05
0.0438315
3.00344e-05
0.0438501
2.73793e-05
0.043868
2.57234e-05
0.0438855
2.48908e-05
0.043903
2.47583e-05
0.0439207
2.53213e-05
0.0439393
2.67164e-05
0.0439594
2.92059e-05
0.0439818
3.31665e-05
0.0440079
3.90881e-05
0.0440391
4.75944e-05
0.0440776
5.94951e-05
0.044126
7.58583e-05
0.0441879
9.81207e-05
0.044268
0.000128223
0.0443726
0.000168793
0.0445101
0.000223385
0.0446913
0.000296786
0.0449312
0.000395422
0.0452491
0.000527882
0.0456707
0.000705564
0.0462297
0.000943463
0.04697
0.00126101
0.0479489
0.00168284
0.0492394
0.00223916
0.050935
0.00296504
0.0531525
0.00389772
0.0560356
0.00507025
0.0597556
0.00650006
0.0645039
0.00816787
0.070486
0.0099898
0.0778582
0.0117793
0.0866022
0.0131349
0.0136875
0.0966695
0.0276718
0.000182855
0.0276697
0.000192434
0.0277166
0.000135155
0.0277778
9.39578e-05
0.0278401
6.84291e-05
0.0278985
5.05361e-05
0.0279504
3.75702e-05
0.0279954
2.86393e-05
0.028034
2.27073e-05
0.0280673
1.86434e-05
0.0280962
1.55993e-05
0.0281216
1.31767e-05
0.0281442
1.1289e-05
0.0281645
9.9416e-06
0.0281832
9.07506e-06
0.0282007
8.57999e-06
0.0282174
8.34215e-06
0.0282338
8.31573e-06
0.0282504
8.51729e-06
0.0282678
9.03388e-06
0.0282867
9.98071e-06
0.0283082
1.15115e-05
0.0283335
1.37964e-05
0.0283641
1.70596e-05
0.0284022
2.15818e-05
0.0284506
2.77591e-05
0.0285129
3.61224e-05
0.0285939
4.7416e-05
0.0287002
6.26455e-05
0.0288405
8.31945e-05
0.0290263
0.000110931
0.0292734
0.000148401
0.0296022
0.000199037
0.0300403
0.000267479
0.030624
0.000359939
0.0314006
0.000484634
0.0324315
0.000652216
0.0337951
0.000876016
0.0355889
0.00117182
0.0379308
0.00155657
0.0409569
0.00204508
0.0448145
0.00264382
0.0496441
0.00334008
0.0555503
0.00408577
0.0625471
0.0047852
0.0704323
0.00525256
0.00529887
0.0788222
0.00993288
0.0101253
0.0102605
0.0103545
0.0104229
0.0104734
0.010511
0.0105397
0.0105624
0.010581
0.0105966
0.0106097
0.010621
0.010631
0.0106402
0.0106488
0.0106572
0.0106654
0.0106739
0.0106829
0.0106928
0.0107043
0.0107181
0.0107352
0.0107569
0.0107847
0.0108208
0.0108683
0.0109309
0.0110141
0.0111251
0.0112735
0.0114725
0.01174
0.0121
0.0125847
0.013237
0.0141131
0.0152851
0.0168418
0.0188871
0.0215312
0.0248718
0.0289583
0.0337439
0.0389965
0.044295
0.048932
-0.00464263
0.052146
-0.00321684
0.0535785
-0.00143467
0.0533168
0.000260458
0.0516502
0.0016669
0.00272579
0.0489259
0.0868208
-0.0126511
0.0934453
-0.00984621
0.0982642
-0.00625541
0.101268
-0.00274226
0.102502
0.000435689
0.00318305
0.102048
0.106476
-0.022462
0.114487
-0.0178547
0.12043
-0.0121961
0.124461
-0.00676999
0.126773
-0.0018743
0.00233038
0.127626
0.121953
-0.0347124
0.130517
-0.0264119
0.135829
-0.0175027
0.138647
-0.00958591
0.139657
-0.00288566
0.00246614
0.139521
0.132768
-0.0472091
0.137261
-0.0308957
0.137398
-0.0176369
0.135669
-0.00785816
0.133497
-0.000713664
0.0044717
0.131489
0.120799
-0.0465011
0.110497
-0.0205901
0.10025
-0.00738936
0.0931077
-0.000715225
0.0895793
0.00281268
0.0053783
0.0886746
0.049771
0.0291814
0.0217922
0.0210765
0.02389
0.0292684
0.0497666
0.0464995
0.0291777
0.020589
0.0217888
0.00739125
0.0210725
0.000717679
0.0238853
-0.00280996
-0.00537584
0.029263
0.120795
0.0472035
0.110491
0.0308957
0.100242
0.0176402
0.0930974
0.00786158
0.0895693
0.000717449
-0.00447033
0.0886624
0.132769
0.0347042
0.137258
0.0264073
0.137393
0.0175025
0.135662
0.00958748
0.133488
0.00288621
-0.00246562
0.131479
0.121957
0.0224538
0.130517
0.0178465
0.135826
0.0121894
0.138641
0.00676552
0.13965
0.00187161
-0.00233156
0.139513
0.106481
0.012645
0.114489
0.00983685
0.120428
0.00624589
0.124456
0.00273464
0.126768
-0.000439735
-0.00318418
0.127621
0.0868256
0.00464104
0.093449
0.00321294
0.0982658
0.00143007
0.101268
-0.000264428
0.102499
-0.0016697
-0.0027268
0.102044
0.0489362
0.0521499
0.0535811
0.0533172
0.0516482
0.0489218
0.0455039
0.00342401
0.041725
0.00378052
0.0378687
0.00385689
0.03413
0.00373845
0.0306298
0.00349979
0.0274375
0.00319198
0.0245877
0.00284978
0.0220889
0.00249907
0.019931
0.00215835
0.0180924
0.00183895
0.0165459
0.00154662
0.0152623
0.00128354
0.0142124
0.00104973
0.0133682
0.000844005
0.0127035
0.0006646
0.0121939
0.000509536
0.0118171
0.000376862
0.0115526
0.000264648
0.0113817
0.00017101
0.0112878
9.40957e-05
0.0112557
3.20934e-05
0.0112724
-1.67436e-05
0.0113265
-5.41241e-05
0.0114081
-8.16794e-05
0.0115089
-0.000100887
0.0116219
-0.00011314
0.0117415
-0.000119687
0.0118629
-0.000121588
0.0119826
-0.000119768
0.0120975
-0.000115077
0.0122057
-0.000108266
0.0123056
-9.99768e-05
0.0123962
-9.07439e-05
0.0124771
-8.09998e-05
0.012548
-7.10845e-05
0.0126092
-6.12606e-05
0.0126608
-5.17194e-05
0.0127033
-4.25977e-05
0.0127372
-3.39807e-05
0.0127631
-2.59193e-05
0.0127814
-1.84217e-05
0.0127928
-1.14993e-05
0.0127978
-5.00816e-06
0.0127967
9.71825e-07
0.0127895
7.17176e-06
0.0127773
1.22126e-05
3.37556e-05
0.100109
0.00536576
0.0969629
0.0069283
0.0928965
0.00792375
0.0881759
0.00845898
0.0830428
0.00863253
0.0777162
0.00851823
0.0723876
0.00817828
0.0672158
0.00767103
0.062325
0.00704941
0.0578054
0.00635897
0.0537143
0.00563801
0.0500801
0.00491789
0.0469068
0.00422293
0.0441801
0.00357061
0.0418724
0.00297222
0.0399479
0.00243397
0.0383668
0.0019581
0.0370877
0.00154393
0.0360701
0.00118875
0.0352759
0.000888512
0.0346697
0.000638423
0.0342196
0.000433347
0.0338973
0.000268085
0.033678
0.000137535
0.0335401
3.68296e-05
0.0334652
-3.84838e-05
0.0334377
-9.23494e-05
0.0334443
-0.000128379
0.0334742
-0.000149882
0.0335187
-0.000159785
0.0335708
-0.000160618
0.0336252
-0.000154541
0.0336776
-0.000143365
0.0337249
-0.000128596
0.0337651
-0.000111455
0.0337966
-9.2925e-05
0.0338185
-7.37708e-05
0.0338303
-5.45785e-05
0.033832
-3.57786e-05
0.0338236
-1.76755e-05
0.0338055
-4.66646e-07
0.0337781
1.57303e-05
0.033742
3.096e-05
0.0336978
4.50351e-05
0.0336456
5.92631e-05
0.0335883
6.94729e-05
0.000104982
0.127259
0.00573258
0.12587
0.00831837
0.123601
0.0101936
0.120559
0.011502
0.116854
0.0123382
0.112615
0.0127572
0.107985
0.0128084
0.10311
0.0125448
0.0981379
0.0120212
0.0932043
0.0112923
0.0884288
0.0104138
0.0839075
0.00943953
0.0797118
0.00841905
0.0758878
0.00739495
0.0724585
0.00640159
0.0694277
0.00546473
0.0667837
0.00460198
0.0645038
0.00382378
0.0625579
0.00313461
0.060912
0.00253438
0.0595308
0.00201963
0.0583795
0.00158469
0.0574251
0.00122253
0.0566372
0.000925452
0.0559884
0.000685634
0.0554543
0.000495449
0.0550141
0.00034768
0.0546499
0.000235698
0.0543463
0.000153524
0.0540905
9.58249e-05
0.0538718
5.79228e-05
0.0536813
3.57687e-05
0.0535119
2.59099e-05
0.0533577
2.54389e-05
0.0532142
3.19421e-05
0.0530777
4.34435e-05
0.0529454
5.83515e-05
0.0528153
7.5406e-05
0.0526858
9.36312e-05
0.0525558
0.000112288
0.0524243
0.000130844
0.052291
0.000148901
0.0521556
0.000166281
0.0520179
0.000182487
0.0518783
0.000198817
0.0517385
0.000209224
0.000245865
0.138695
0.0065567
0.137444
0.00956965
0.135857
0.0117826
0.133921
0.0134402
0.131616
0.0146447
0.12894
0.0154327
0.125914
0.015834
0.122577
0.0158796
0.118995
0.0156018
0.115247
0.01504
0.111419
0.0142422
0.107597
0.0132629
0.103858
0.0121585
0.10027
0.0109836
0.0968845
0.00978736
0.0937377
0.00861135
0.0908511
0.00748827
0.0882327
0.00644178
0.0858799
0.0054872
0.0837816
0.0046326
0.081921
0.00388018
0.0802781
0.00322771
0.078831
0.00266979
0.0775575
0.00219902
0.0764363
0.00180683
0.0754475
0.00148424
0.0745728
0.00122229
0.0737959
0.00101245
0.0731024
0.000846766
0.07248
0.000718059
0.0719179
0.000619919
0.0714067
0.000546738
0.0709388
0.000493672
0.0705076
0.000456596
0.0701074
0.000432043
0.0697336
0.000417134
0.0693823
0.000409509
0.0690504
0.000407262
0.0687351
0.000408875
0.0684341
0.000413161
0.0681457
0.000419214
0.0678681
0.000426335
0.0676002
0.000434052
0.0673408
0.000441761
0.0670896
0.000449916
0.0668446
0.000454198
0.000473725
0.129865
0.00818152
0.128765
0.0106709
0.128005
0.0125448
0.127361
0.0140853
0.126676
0.0153298
0.125842
0.0162664
0.124787
0.0168875
0.123478
0.0171864
0.121915
0.0171647
0.120115
0.0168392
0.118116
0.0162422
0.115962
0.0154179
0.113704
0.0144176
0.111392
0.0132954
0.109076
0.0121039
0.106796
0.0108908
0.104588
0.0096966
0.102476
0.00855326
0.100478
0.0074842
0.0986059
0.00650476
0.0968628
0.00562324
0.0952484
0.00484221
0.0937586
0.0041598
0.0923868
0.00357098
0.0911251
0.00306864
0.0899648
0.0026445
0.0888973
0.00228976
0.087914
0.00199565
0.0870068
0.00175376
0.0861683
0.00155631
0.0853919
0.00139622
0.0846712
0.00126721
0.0840009
0.00116381
0.0833762
0.00108127
0.0827925
0.0010156
0.0822461
0.000963436
0.0817336
0.000921977
0.0812519
0.000888946
0.0807982
0.000862496
0.0803701
0.000841159
0.0799655
0.000823781
0.0795822
0.000809487
0.0792185
0.000797568
0.0788725
0.000787665
0.0785436
0.000778646
0.0782252
0.00077274
0.000758121
0.0893814
0.00747558
0.0915841
0.00846969
0.0943427
0.00978677
0.0971567
0.0112707
0.0997748
0.0127105
0.102061
0.0139793
0.103955
0.0149925
0.105445
0.0156953
0.106543
0.0160655
0.107273
0.0161091
0.107665
0.0158515
0.107752
0.015332
0.107572
0.0145988
0.107163
0.0137045
0.106566
0.0127017
0.105817
0.0116393
0.104953
0.01056
0.104007
0.0094993
0.103006
0.00848453
0.101975
0.00753533
0.100934
0.00666429
0.0998989
0.00587799
0.0988808
0.00517816
0.0978891
0.00456289
0.0969303
0.00402762
0.0960087
0.00356614
0.0951271
0.00317131
0.0942871
0.00283562
0.093489
0.00255163
0.0927329
0.00231226
0.092018
0.00211097
0.0913432
0.00194186
0.0907072
0.00179972
0.0901083
0.00168
0.0895451
0.00157881
0.0890156
0.00149286
0.0885181
0.00141938
0.088051
0.00135609
0.0876123
0.00130112
0.0872004
0.00125298
0.0868136
0.00121047
0.0864503
0.00117271
0.0861089
0.00113889
0.0857872
0.00110914
0.0854852
0.0010807
0.0851937
0.00106419
0.00101037
0.0359119
0.000832678
0.0431
0.00128074
0.04976
0.0031241
0.055789
0.00523916
0.0612369
0.00726088
0.0661383
0.00907669
0.0705359
0.0105939
0.0744694
0.011761
0.0779671
0.0125677
0.0810495
0.0130273
0.0837349
0.0131671
0.0860418
0.0130261
0.0879902
0.0126513
0.0896022
0.0120931
0.0909027
0.0114015
0.0919194
0.0106227
0.0926816
0.00979768
0.09322
0.0089609
0.0935649
0.00813973
0.0937458
0.00735474
0.0937902
0.00662022
0.0937237
0.005945
0.0935688
0.00533342
0.0933458
0.00478629
0.0930718
0.00430181
0.0927617
0.00387637
0.0924277
0.00350525
0.0920801
0.00318314
0.0917271
0.00290453
0.0913752
0.00266402
0.0910295
0.00245653
0.0906939
0.00227737
0.0903712
0.00212234
0.0900634
0.00198776
0.0897718
0.00187039
0.0894972
0.00176749
0.0892398
0.00167674
0.0889997
0.00159618
0.0887766
0.00152421
0.08857
0.00145951
0.0883794
0.00140103
0.088204
0.00134802
0.088043
0.00129972
0.0878954
0.00125676
0.0877609
0.00121506
0.0876332
0.00119197
0.00111127
0.00602372
-0.00519169
0.011737
-0.00443697
0.0167658
-0.00190837
0.0216344
0.000367496
0.0264712
0.00242184
0.031274
0.00427215
0.0360249
0.0058421
0.0406869
0.00709884
0.0452117
0.0080433
0.0495494
0.00869051
0.0536551
0.00906246
0.0574921
0.0091901
0.0610328
0.00911147
0.0642597
0.00886691
0.0671655
0.00849608
0.0697527
0.00803595
0.0720316
0.00751928
0.0740191
0.00697394
0.0757369
0.00642253
0.0772098
0.00588253
0.078464
0.00536672
0.0795259
0.00488367
0.0804213
0.00443852
0.0811744
0.0040336
0.0818073
0.00366911
0.08234
0.00334374
0.0827902
0.00305515
0.0831729
0.00280036
0.0835013
0.00257611
0.0837862
0.00237906
0.0840368
0.00220594
0.0842605
0.00205369
0.0844633
0.00191952
0.0846502