/*--------------------------------*- C++ -*----------------------------------*\
| =========                 |                                                 |
| \\      /  F ield         | OpenFOAM: The Open Source CFD Toolbox           |
|  \\    /   O peration     | Version:  2406                                  |
|   \\  /    A nd           | Website:  www.openfoam.com                      |
|    \\/     M anipulation  |                                                 |
\*---------------------------------------------------------------------------*/
FoamFile
{
    version     2.0;
    format      ascii;
    arch        "LSB;label=32;scalar=64";
    class       volVectorField;
    location    "40";
    object      U;
}
// * * * * * * * * * * * * * * * * * * * * * * * * * * * * * * * * * * * * * //

dimensions      [0 1 -1 0 0 0 0];

internalField   nonuniform List<vector> 
1964
(
(0.0984374 -0.00100683 0)
(0.100337 -0.00104438 0)
(0.101966 -0.00060331 0)
(0.103126 -0.000339572 0)
(0.103925 -0.0002169 0)
(0.104507 -0.000142652 0)
(0.104942 -9.30298e-05 0)
(0.105268 -6.54849e-05 0)
(0.10552 -5.20927e-05 0)
(0.105725 -4.31917e-05 0)
(0.105895 -3.35948e-05 0)
(0.106038 -2.44513e-05 0)
(0.106159 -1.86894e-05 0)
(0.106264 -1.76193e-05 0)
(0.106358 -1.95061e-05 0)
(0.106445 -2.22119e-05 0)
(0.106529 -2.35429e-05 0)
(0.106612 -2.35311e-05 0)
(0.106696 -2.27055e-05 0)
(0.106784 -2.26944e-05 0)
(0.106879 -2.46157e-05 0)
(0.106985 -2.9521e-05 0)
(0.107111 -3.77942e-05 0)
(0.107263 -4.99581e-05 0)
(0.107454 -6.6306e-05 0)
(0.107697 -8.79835e-05 0)
(0.108011 -0.000116258 0)
(0.108422 -0.00015383 0)
(0.108964 -0.000203856 0)
(0.109681 -0.000271437 0)
(0.110635 -0.000362829 0)
(0.11191 -0.000487146 0)
(0.113617 -0.000656192 0)
(0.11591 -0.000886451 0)
(0.118993 -0.00119978 0)
(0.123145 -0.00162573 0)
(0.128736 -0.00220257 0)
(0.136257 -0.00297881 0)
(0.146347 -0.00401131 0)
(0.159812 -0.00536073 0)
(0.177622 -0.00707497 0)
(0.200867 -0.0091627 0)
(0.230622 -0.0115425 0)
(0.267674 -0.0139623 0)
(0.312157 -0.0159389 0)
(0.362758 -0.016574 0)
(0.416386 -0.0150003 0)
(0.276304 -0.0014618 0)
(0.276387 -0.00233357 0)
(0.276933 -0.00200848 0)
(0.27748 -0.00152802 0)
(0.27808 -0.00116467 0)
(0.278697 -0.00089083 0)
(0.27926 -0.000680083 0)
(0.279744 -0.000526708 0)
(0.280158 -0.000420629 0)
(0.280516 -0.000347004 0)
(0.280829 -0.000291765 0)
(0.281102 -0.00024715 0)
(0.281341 -0.000211347 0)
(0.281552 -0.000185341 0)
(0.281743 -0.000168255 0)
(0.28192 -0.000159239 0)
(0.282089 -0.000155452 0)
(0.282254 -0.000156178 0)
(0.28242 -0.000160945 0)
(0.282591 -0.00017107 0)
(0.282773 -0.000188598 0)
(0.282975 -0.00021635 0)
(0.283207 -0.000257687 0)
(0.283482 -0.000317113 0)
(0.283821 -0.000399764 0)
(0.284245 -0.000513447 0)
(0.284789 -0.000667469 0)
(0.285493 -0.000875903 0)
(0.286413 -0.00115647 0)
(0.287624 -0.00153459 0)
(0.289227 -0.00204339 0)
(0.291353 -0.00272866 0)
(0.294182 -0.00365084 0)
(0.297949 -0.00489157 0)
(0.302969 -0.00655786 0)
(0.309654 -0.00879013 0)
(0.318543 -0.0117661 0)
(0.33033 -0.0157049 0)
(0.345891 -0.0208589 0)
(0.366305 -0.0274919 0)
(0.392849 -0.0358264 0)
(0.42696 -0.0459473 0)
(0.470116 -0.0576457 0)
(0.523563 -0.0701951 0)
(0.588113 -0.0821375 0)
(0.662832 -0.0905504 0)
(0.745141 -0.0923745 0)
(0.436564 -0.00079603 0)
(0.436455 -0.0016121 0)
(0.43637 -0.00174282 0)
(0.436147 -0.00162669 0)
(0.436102 -0.00146899 0)
(0.43626 -0.00129273 0)
(0.436507 -0.00110868 0)
(0.436774 -0.000940698 0)
(0.437041 -0.000803389 0)
(0.437305 -0.000695741 0)
(0.437561 -0.000607205 0)
(0.437803 -0.000530001 0)
(0.438025 -0.000462824 0)
(0.438227 -0.00040912 0)
(0.438413 -0.000371501 0)
(0.438591 -0.000349761 0)
(0.438765 -0.000340998 0)
(0.438939 -0.000342409 0)
(0.439116 -0.000352163 0)
(0.4393 -0.000371503 0)
(0.439494 -0.000403497 0)
(0.439707 -0.000453982 0)
(0.439948 -0.000529997 0)
(0.440231 -0.000640824 0)
(0.440574 -0.000797512 0)
(0.441001 -0.0010146 0)
(0.441543 -0.00131082 0)
(0.442241 -0.00171174 0)
(0.443148 -0.00225153 0)
(0.444338 -0.00297686 0)
(0.445903 -0.00395013 0)
(0.447973 -0.00525553 0)
(0.450713 -0.00700474 0)
(0.454346 -0.00934593 0)
(0.459165 -0.0124728 0)
(0.465553 -0.0166356 0)
(0.47401 -0.0221507 0)
(0.485183 -0.0294056 0)
(0.499899 -0.0388511 0)
(0.519203 -0.0509711 0)
(0.544393 -0.0662028 0)
(0.577041 -0.0848013 0)
(0.618976 -0.106566 0)
(0.672119 -0.130549 0)
(0.738706 -0.154514 0)
(0.818725 -0.173597 0)
(0.913192 -0.183631 0)
(0.576765 -0.000425212 0)
(0.576795 -0.00103891 0)
(0.576734 -0.00130321 0)
(0.576355 -0.0013578 0)
(0.576029 -0.00133798 0)
(0.575882 -0.00127387 0)
(0.575839 -0.00117491 0)
(0.57584 -0.00106223 0)
(0.575873 -0.000957194 0)
(0.575937 -0.000866748 0)
(0.576028 -0.00078681 0)
(0.576135 -0.0007112 0)
(0.576244 -0.000640219 0)
(0.576349 -0.000578524 0)
(0.576449 -0.000532588 0)
(0.576551 -0.000504451 0)
(0.576659 -0.000494043 0)
(0.576775 -0.000498385 0)
(0.5769 -0.000516126 0)
(0.577034 -0.000547492 0)
(0.57718 -0.000596491 0)
(0.57734 -0.000669743 0)
(0.577521 -0.000777609 0)
(0.577732 -0.000932641 0)
(0.577988 -0.00115181 0)
(0.578305 -0.00145544 0)
(0.578707 -0.00187132 0)
(0.579224 -0.00243475 0)
(0.579896 -0.00319443 0)
(0.580773 -0.00421431 0)
(0.581927 -0.00558168 0)
(0.583446 -0.00741182 0)
(0.585454 -0.00985944 0)
(0.588112 -0.0131275 0)
(0.591634 -0.0174834 0)
(0.596305 -0.023272 0)
(0.602507 -0.0309345 0)
(0.61075 -0.0410207 0)
(0.621725 -0.0541942 0)
(0.636376 -0.0712154 0)
(0.655991 -0.0928701 0)
(0.682361 -0.119835 0)
(0.717847 -0.152275 0)
(0.765604 -0.189533 0)
(0.829852 -0.228417 0)
(0.912342 -0.26234 0)
(1.02537 -0.287204 0)
(0.696875 -0.000264047 0)
(0.696984 -0.000705733 0)
(0.697035 -0.000960755 0)
(0.69672 -0.0010621 0)
(0.696365 -0.00109374 0)
(0.69613 -0.00108504 0)
(0.695972 -0.00104121 0)
(0.69584 -0.000976765 0)
(0.695728 -0.000909686 0)
(0.695648 -0.00084921 0)
(0.695604 -0.000793356 0)
(0.695587 -0.000737274 0)
(0.69558 -0.000680264 0)
(0.695575 -0.000628144 0)
(0.695572 -0.000587677 0)
(0.695575 -0.000564246 0)
(0.695589 -0.00055887 0)
(0.695618 -0.000570663 0)
(0.69566 -0.000598165 0)
(0.695713 -0.000642079 0)
(0.695775 -0.000706018 0)
(0.695846 -0.000797678 0)
(0.695928 -0.000928143 0)
(0.696023 -0.00111302 0)
(0.69614 -0.00137161 0)
(0.696287 -0.00172944 0)
(0.696475 -0.0022186 0)
(0.69672 -0.00288212 0)
(0.697041 -0.00377624 0)
(0.697461 -0.00497707 0)
(0.698013 -0.00658561 0)
(0.698742 -0.00873771 0)
(0.699703 -0.0116135 0)
(0.700976 -0.0154526 0)
(0.70267 -0.0205703 0)
(0.704933 -0.0273808 0)
(0.707978 -0.0364223 0)
(0.712117 -0.0483889 0)
(0.717816 -0.0641632 0)
(0.725804 -0.0848465 0)
(0.737226 -0.111766 0)
(0.754014 -0.146447 0)
(0.779047 -0.190294 0)
(0.817787 -0.244432 0)
(0.875938 -0.306492 0)
(0.964845 -0.370952 0)
(1.10663 -0.434488 0)
(0.796943 -0.000174984 0)
(0.797085 -0.000486076 0)
(0.797209 -0.000695685 0)
(0.79697 -0.000801615 0)
(0.796645 -0.000851724 0)
(0.796406 -0.000867905 0)
(0.796224 -0.000853732 0)
(0.796052 -0.000818741 0)
(0.795884 -0.000777396 0)
(0.795738 -0.000738841 0)
(0.795625 -0.000702558 0)
(0.795538 -0.000664419 0)
(0.795462 -0.00062342 0)
(0.795386 -0.000584257 0)
(0.795308 -0.000553733 0)
(0.795234 -0.000537811 0)
(0.795171 -0.00053889 0)
(0.795122 -0.00055719 0)
(0.795086 -0.000591932 0)
(0.79506 -0.000643939 0)
(0.795038 -0.000716666 0)
(0.795016 -0.000817495 0)
(0.79499 -0.00095761 0)
(0.79496 -0.00115281 0)
(0.794923 -0.00142337 0)
(0.79488 -0.0017958 0)
(0.79483 -0.00230393 0)
(0.794771 -0.00299249 0)
(0.794699 -0.00392023 0)
(0.794609 -0.00516592 0)
(0.794493 -0.00683447 0)
(0.794341 -0.00906674 0)
(0.79414 -0.0120505 0)
(0.793875 -0.0160367 0)
(0.793532 -0.0213592 0)
(0.793101 -0.0284626 0)
(0.792585 -0.0379382 0)
(0.792028 -0.0505741 0)
(0.791551 -0.0674237 0)
(0.791452 -0.0899025 0)
(0.792358 -0.119927 0)
(0.795719 -0.160125 0)
(0.804007 -0.21406 0)
(0.82453 -0.286715 0)
(0.862682 -0.383209 0)
(0.958577 -0.509523 0)
(1.09687 -0.675467 0)
(0.876987 -0.000117279 0)
(0.87714 -0.000332666 0)
(0.877303 -0.000492125 0)
(0.877119 -0.00058469 0)
(0.876827 -0.000636364 0)
(0.8766 -0.000660888 0)
(0.876421 -0.000660625 0)
(0.876242 -0.00064177 0)
(0.876055 -0.000615843 0)
(0.875882 -0.000590842 0)
(0.87574 -0.000567409 0)
(0.875623 -0.000542167 0)
(0.875515 -0.000514169 0)
(0.875402 -0.00048642 0)
(0.875282 -0.000465033 0)
(0.875162 -0.0004552 0)
(0.875049 -0.000460123 0)
(0.874948 -0.000480501 0)
(0.874856 -0.000516375 0)
(0.87477 -0.000568478 0)
(0.874681 -0.000640056 0)
(0.874582 -0.000737332 0)
(0.874465 -0.000870582 0)
(0.874322 -0.00105381 0)
(0.874145 -0.00130602 0)
(0.873926 -0.00165139 0)
(0.873651 -0.00212171 0)
(0.873302 -0.00275811 0)
(0.872854 -0.00361539 0)
(0.872273 -0.00476613 0)
(0.871511 -0.00630782 0)
(0.870506 -0.00837079 0)
(0.869175 -0.0111303 0)
(0.867411 -0.0148211 0)
(0.865072 -0.0197595 0)
(0.861981 -0.0263716 0)
(0.85791 -0.0352352 0)
(0.852584 -0.0471405 0)
(0.84568 -0.0631805 0)
(0.836852 -0.0848935 0)
(0.825763 -0.114497 0)
(0.812349 -0.155275 0)
(0.796654 -0.212373 0)
(0.782226 -0.293931 0)
(0.769189 -0.414824 0)
(0.814444 -0.599845 0)
(0.805137 -0.871677 0)
(0.937016 -7.5841e-05 0)
(0.937172 -0.000217456 0)
(0.937355 -0.000328349 0)
(0.937206 -0.000398172 0)
(0.936938 -0.000440547 0)
(0.936724 -0.000463674 0)
(0.936551 -0.000468415 0)
(0.936373 -0.000458905 0)
(0.936179 -0.000443395 0)
(0.935995 -0.000428054 0)
(0.935838 -0.000413682 0)
(0.935707 -0.000398066 0)
(0.935584 -0.000380131 0)
(0.935454 -0.00036203 0)
(0.935313 -0.000348073 0)
(0.935168 -0.000342543 0)
(0.935026 -0.000348163 0)
(0.934892 -0.00036599 0)
(0.934766 -0.000396341 0)
(0.93464 -0.000440065 0)
(0.934504 -0.000499687 0)
(0.934349 -0.000580214 0)
(0.934162 -0.00068959 0)
(0.933932 -0.000839093 0)
(0.933644 -0.00104374 0)
(0.933281 -0.00132316 0)
(0.93282 -0.00170282 0)
(0.932229 -0.00221611 0)
(0.931464 -0.00290712 0)
(0.930466 -0.00383465 0)
(0.929153 -0.00507738 0)
(0.927418 -0.00674103 0)
(0.925118 -0.00896793 0)
(0.922059 -0.0119501 0)
(0.91799 -0.0159478 0)
(0.912573 -0.0213152 0)
(0.905364 -0.0285389 0)
(0.895776 -0.0382942 0)
(0.883028 -0.0515325 0)
(0.866088 -0.0696155 0)
(0.843552 -0.0945394 0)
(0.813532 -0.129276 0)
(0.773039 -0.178485 0)
(0.718193 -0.249341 0)
(0.637866 -0.356037 0)
(0.528949 -0.521994 0)
(0.204728 -0.664603 0)
(0.977033 -4.28317e-05 0)
(0.977189 -0.000123428 0)
(0.977382 -0.000188672 0)
(0.977254 -0.000231378 0)
(0.977001 -0.000258407 0)
(0.976796 -0.000274389 0)
(0.976629 -0.000279383 0)
(0.976452 -0.000275522 0)
(0.976256 -0.000267575 0)
(0.976065 -0.000259312 0)
(0.975901 -0.000251449 0)
(0.975762 -0.000242877 0)
(0.975632 -0.000232986 0)
(0.975493 -0.000222971 0)
(0.975341 -0.000215364 0)
(0.975182 -0.000212774 0)
(0.975025 -0.00021698 0)
(0.974873 -0.000228822 0)
(0.974725 -0.000248692 0)
(0.974574 -0.000277325 0)
(0.97441 -0.000316445 0)
(0.974219 -0.000369318 0)
(0.973986 -0.000441036 0)
(0.973696 -0.000538813 0)
(0.973331 -0.000672286 0)
(0.972868 -0.000854081 0)
(0.972275 -0.00110066 0)
(0.971511 -0.00143365 0)
(0.970519 -0.00188167 0)
(0.96922 -0.00248288 0)
(0.967508 -0.00328843 0)
(0.965242 -0.00436716 0)
(0.962233 -0.00581191 0)
(0.958226 -0.00774841 0)
(0.952883 -0.0103477 0)
(0.945745 -0.0138442 0)
(0.936199 -0.0185617 0)
(0.923412 -0.0249531 0)
(0.906247 -0.0336592 0)
(0.88314 -0.0455989 0)
(0.851904 -0.0621056 0)
(0.809469 -0.0851134 0)
(0.751304 -0.117445 0)
(0.671191 -0.162896 0)
(0.558207 -0.226808 0)
(0.40295 -0.308943 0)
(0.128052 -0.347508 0)
(0.997041 -1.39349e-05 0)
(0.997197 -4.00379e-05 0)
(0.997394 -6.1561e-05 0)
(0.997276 -7.5942e-05 0)
(0.99703 -8.51611e-05 0)
(0.996829 -9.08404e-05 0)
(0.996665 -9.30008e-05 0)
(0.996489 -9.22306e-05 0)
(0.996292 -8.98819e-05 0)
(0.996098 -8.70896e-05 9.85577e-35)
(0.995931 -8.42569e-05 0)
(0.995789 -8.13121e-05 0)
(0.995655 -7.82576e-05 0)
(0.995512 -7.54877e-05 0)
(0.995355 -7.36647e-05 0)
(0.99519 -7.34309e-05 9.69397e-35)
(0.995025 -7.52156e-05 0)
(0.994865 -7.927e-05 0)
(0.994707 -8.58343e-05 0)
(0.994545 -9.53438e-05 0)
(0.994366 -0.000108596 0)
(0.994157 -0.000126853 0)
(0.993901 -0.000151931 0)
(0.993581 -0.000186289 -9.47887e-35)
(0.993177 -0.000233168 0)
(0.992662 -0.000296824 0)
(0.992001 -0.000382847 0)
(0.991148 -0.000498655 0)
(0.990036 -0.000654126 0)
(0.98858 -0.000862505 0)
(0.986659 -0.00114156 0)
(0.984114 -0.00151522 0)
(0.980731 -0.00201579 0)
(0.976224 -0.00268707 0)
(0.970205 -0.0035887 0)
(0.962154 -0.00480267 0)
(0.951364 -0.00644244 0)
(0.93687 -0.00866723 0)
(0.917344 -0.0117021 0)
(0.890947 -0.0158694 0)
(0.855104 -0.0216316 0)
(0.806215 -0.0296464 -1.30775e-34)
(0.73916 -0.0408342 0)
(0.647168 -0.0563447 0)
(0.52024 -0.0774995 0)
(0.352728 -0.103007 0)
(0.0995837 -0.108101 0)
(0.997041 1.39186e-05 0)
(0.997197 3.99961e-05 0)
(0.997394 6.16485e-05 0)
(0.997276 7.60629e-05 0)
(0.99703 8.53508e-05 0)
(0.996829 9.09411e-05 0)
(0.996665 9.25453e-05 0)
(0.996489 9.10195e-05 0)
(0.996292 8.84727e-05 0)
(0.996099 8.63977e-05 -9.85578e-35)
(0.995931 8.4717e-05 0)
(0.995789 8.2429e-05 0)
(0.995655 7.89297e-05 0)
(0.995511 7.46392e-05 0)
(0.995354 7.08248e-05 0)
(0.995189 6.89192e-05 -9.694e-35)
(0.995025 6.99419e-05 0)
(0.994865 7.43144e-05 0)
(0.994708 8.20184e-05 0)
(0.994545 9.29514e-05 0)
(0.994366 0.00010734 0)
(0.994157 0.00012601 0)
(0.9939 0.00015062 0)
(0.99358 0.000183704 9.47889e-35)
(0.993175 0.000228776 0)
(0.99266 0.000290417 0)
(0.991999 0.000374529 0)
(0.991146 0.000488731 0)
(0.990035 0.000642975 0)
(0.988578 0.000850454 0)
(0.986657 0.0011288 0)
(0.984112 0.0015018 0)
(0.980729 0.00200156 0)
(0.976221 0.00267177 0)
(0.970202 0.00357199 0)
(0.962151 0.00478418 0)
(0.95136 0.00642175 0)
(0.936865 0.00864387 0)
(0.917339 0.0116756 0)
(0.890942 0.0158393 0)
(0.855098 0.0215976 0)
(0.806209 0.0296086 1.30778e-34)
(0.739154 0.0407932 0)
(0.647161 0.0563021 0)
(0.520252 0.0774734 0)
(0.352739 0.103001 0)
(0.0995776 0.108104 0)
(0.977033 4.28317e-05 0)
(0.977189 0.000123378 0)
(0.977382 0.000188749 0)
(0.977254 0.000231537 0)
(0.977001 0.000258628 0)
(0.976795 0.000274501 0)
(0.976628 0.000278982 0)
(0.976451 0.000274478 0)
(0.976256 0.000266416 0)
(0.976066 0.000258827 0)
(0.975902 0.000251924 0)
(0.975762 0.000243774 0)
(0.97563 0.000233286 0)
(0.97549 0.000221795 0)
(0.975338 0.000212425 0)
(0.97518 0.000208482 0)
(0.975024 0.000212205 0)
(0.974873 0.000224489 0)
(0.974726 0.000245426 0)
(0.974576 0.00027525 0)
(0.97441 0.000315197 0)
(0.974218 0.000368215 0)
(0.973984 0.0004393 0)
(0.973693 0.0005358 0)
(0.973327 0.000667606 0)
(0.972863 0.00084764 0)
(0.972271 0.0010926 0)
(0.971507 0.00142426 0)
(0.970514 0.00187124 0)
(0.969215 0.00247166 0)
(0.967503 0.00327653 0)
(0.965237 0.00435453 0)
(0.962227 0.00579838 0)
(0.95822 0.00773372 0)
(0.952874 0.0103316 0)
(0.945736 0.0138262 0)
(0.936188 0.0185416 0)
(0.9234 0.0249303 0)
(0.906233 0.0336335 0)
(0.883125 0.0455697 0)
(0.851888 0.0620729 0)
(0.809452 0.0850763 0)
(0.751286 0.117407 0)
(0.671194 0.16286 0)
(0.558222 0.226786 0)
(0.40295 0.308939 0)
(0.128068 0.34751 0)
(0.937016 7.58288e-05 0)
(0.937172 0.000217501 0)
(0.937355 0.000328594 0)
(0.937206 0.00039836 0)
(0.936938 0.000440647 0)
(0.936723 0.000463647 0)
(0.93655 0.000468033 0)
(0.936372 0.00045817 0)
(0.93618 0.00044271 0)
(0.935997 0.000427911 0)
(0.93584 0.000414129 0)
(0.935707 0.000398563 0)
(0.935581 0.000379916 0)
(0.935449 0.000360582 0)
(0.935308 0.000345372 0)
(0.935164 0.000339068 0)
(0.935025 0.000344587 0)
(0.934893 0.000362922 0)
(0.934768 0.000394039 0)
(0.934641 0.000438419 0)
(0.934505 0.000498274 0)
(0.934347 0.000578478 0)
(0.934158 0.000687018 0)
(0.933926 0.000835338 0)
(0.933637 0.00103867 0)
(0.933274 0.00131684 0)
(0.932813 0.00169541 0)
(0.932222 0.00220782 0)
(0.931457 0.0028981 0)
(0.930458 0.00382497 0)
(0.929145 0.00506698 0)
(0.92741 0.00672978 0)
(0.925108 0.00895559 0)
(0.922048 0.0119365 0)
(0.917977 0.0159325 0)
(0.912558 0.021298 0)
(0.905347 0.0285195 0)
(0.895756 0.0382724 0)
(0.883005 0.0515078 0)
(0.866062 0.0695879 0)
(0.843525 0.0945076 0)
(0.813504 0.129242 0)
(0.77302 0.178446 0)
(0.718189 0.249313 0)
(0.637892 0.356007 0)
(0.528963 0.521995 0)
(0.204729 0.664614 0)
(0.876987 0.000117311 0)
(0.877141 0.000332719 0)
(0.877304 0.00049231 0)
(0.87712 0.000584877 0)
(0.876827 0.000636336 0)
(0.876599 0.000660674 0)
(0.876419 0.000660151 0)
(0.876241 0.00064124 0)
(0.876056 0.000615546 0)
(0.875885 0.000590924 0)
(0.875742 0.000567594 0)
(0.875622 0.000542033 0)
(0.875511 0.000513225 0)
(0.875396 0.000484725 0)
(0.875276 0.000462826 0)
(0.875158 0.000453006 0)
(0.875048 0.000458273 0)
(0.874949 0.000479111 0)
(0.874859 0.00051523 0)
(0.874772 0.000567217 0)
(0.874681 0.000638226 0)
(0.874579 0.00073468 0)
(0.874459 0.000866924 0)
(0.874314 0.00104927 0)
(0.874136 0.00130069 0)
(0.873916 0.00164554 0)
(0.873641 0.00211542 0)
(0.873293 0.0027515 0)
(0.872845 0.00360834 0)
(0.872263 0.00475853 0)
(0.8715 0.00629939 0)
(0.870494 0.00836134 0)
(0.869162 0.0111195 0)
(0.867395 0.0148089 0)
(0.865054 0.0197456 0)
(0.86196 0.0263559 0)
(0.857886 0.0352176 0)
(0.852557 0.0471208 0)
(0.84565 0.0631586 0)
(0.836817 0.084869 0)
(0.825726 0.11447 0)
(0.81231 0.155244 0)
(0.796629 0.212342 0)
(0.782222 0.293893 0)
(0.769212 0.414798 0)
(0.814494 0.59983 0)
(0.805163 0.871687 0)
(0.796943 0.000174982 0)
(0.797085 0.000486182 0)
(0.797209 0.000695875 0)
(0.79697 0.000801694 0)
(0.796645 0.000851714 0)
(0.796405 0.000867776 0)
(0.796222 0.000853755 0)
(0.796051 0.000818912 0)
(0.795886 0.000777693 0)
(0.795741 0.000738856 0)
(0.795627 0.000701999 0)
(0.795537 0.000663101 0)
(0.795457 0.00062169 0)
(0.795379 0.000582497 0)
(0.795301 0.000552569 0)
(0.79523 0.000537318 0)
(0.79517 0.000539004 0)
(0.795124 0.000557317 0)
(0.795089 0.000591556 0)
(0.795061 0.000642507 0)
(0.795036 0.000714051 0)
(0.795011 0.000813717 0)
(0.794983 0.000953089 0)
(0.79495 0.00114786 0)
(0.794913 0.00141846 0)
(0.794869 0.00179102 0)
(0.794819 0.0022994 0)
(0.79476 0.00298791 0)
(0.794689 0.00391541 0)
(0.794598 0.00516038 0)
(0.794481 0.00682801 0)
(0.794327 0.00905898 0)
(0.794123 0.0120414 0)
(0.793856 0.016026 0)
(0.79351 0.0213469 0)
(0.793075 0.0284486 0)
(0.792557 0.0379226 0)
(0.791995 0.0505568 0)
(0.791514 0.0674046 0)
(0.79141 0.0898815 0)
(0.792312 0.119904 0)
(0.795675 0.160098 0)
(0.803967 0.214032 0)
(0.82452 0.286672 0)
(0.862707 0.383156 0)
(0.958612 0.509468 0)
(1.09691 0.675416 0)
(0.696875 0.000264021 0)
(0.696984 0.000705623 0)
(0.697036 0.000960613 0)
(0.69672 0.00106198 0)
(0.696364 0.00109375 0)
(0.696128 0.00108517 0)
(0.695969 0.00104181 0)
(0.695839 0.000977805 0)
(0.69573 0.000910598 0)
(0.695651 0.000849301 0)
(0.695605 0.000792218 0)
(0.695584 0.000735242 0)
(0.695574 0.000678341 0)
(0.695568 0.000627129 0)
(0.695566 0.000588129 0)
(0.695572 0.000565833 0)
(0.69559 0.000560801 0)
(0.69562 0.000571959 0)
(0.695662 0.000597986 0)
(0.695713 0.000640143 0)
(0.695773 0.000702499 0)
(0.695841 0.000793142 0)
(0.695919 0.000923358 0)
(0.696013 0.00110855 0)
(0.696129 0.0013679 0)
(0.696275 0.00172646 0)
(0.696464 0.0022162 0)
(0.696709 0.00287979 0)
(0.697029 0.00377357 0)
(0.697448 0.00497354 0)
(0.697999 0.00658095 0)
(0.698725 0.00873166 0)
(0.699684 0.0116061 0)
(0.700954 0.0154437 0)
(0.702644 0.0205601 0)
(0.704904 0.0273693 0)
(0.707945 0.0364095 0)
(0.71208 0.0483749 0)
(0.717774 0.0641479 0)
(0.725757 0.08483 0)
(0.737173 0.111747 0)
(0.753959 0.146426 0)
(0.778998 0.190264 0)
(0.81775 0.244395 0)
(0.875932 0.306421 0)
(0.964869 0.370852 0)
(1.10666 0.434388 0)
(0.576765 0.000425188 0)
(0.576796 0.00103884 0)
(0.576735 0.00130294 0)
(0.576355 0.00135759 0)
(0.576029 0.00133759 0)
(0.57588 0.00127388 0)
(0.575837 0.00117558 0)
(0.57584 0.00106355 0)
(0.575875 0.000957917 0)
(0.575939 0.000865975 0)
(0.576029 0.000784447 0)
(0.576132 0.000708445 0)
(0.576238 0.000638314 0)
(0.576341 0.000578661 0)
(0.576444 0.00053444 0)
(0.576549 0.000507422 0)
(0.57666 0.000496591 0)
(0.576777 0.000499567 0)
(0.576902 0.000515229 0)
(0.577034 0.000544712 0)
(0.577176 0.000592364 0)
(0.577333 0.000665268 0)
(0.577512 0.000773463 0)
(0.577721 0.000929553 0)
(0.577976 0.00114972 0)
(0.578293 0.0014544 0)
(0.578695 0.00187064 0)
(0.579212 0.00243415 0)
(0.579883 0.00319317 0)
(0.58076 0.00421225 0)
(0.581911 0.00557837 0)
(0.583429 0.00740742 0)
(0.585434 0.00985376 0)
(0.588088 0.0131209 0)
(0.591606 0.0174758 0)
(0.596274 0.0232637 0)
(0.602472 0.0309255 0)
(0.610711 0.0410113 0)
(0.621681 0.0541845 0)
(0.636325 0.0712056 0)
(0.655935 0.0928609 0)
(0.6823 0.119826 0)
(0.717788 0.152262 0)
(0.765555 0.189512 0)
(0.829815 0.228382 0)
(0.912341 0.262273 0)
(1.02541 0.287109 0)
(0.436564 0.000796075 0)
(0.436455 0.00161224 0)
(0.436371 0.00174298 0)
(0.436147 0.00162665 0)
(0.436101 0.00146877 0)
(0.436258 0.00129274 0)
(0.436505 0.00110976 0)
(0.436774 0.0009423 0)
(0.437043 0.000804278 0)
(0.437306 0.000694517 0)
(0.43756 0.000604576 0)
(0.437799 0.000527381 0)
(0.438018 0.00046202 0)
(0.438221 0.00041054 0)
(0.43841 0.000374621 0)
(0.43859 0.000353024 0)
(0.438767 0.000343229 0)
(0.438941 0.000342541 0)
(0.439117 0.000350414 0)
(0.439298 0.000368183 0)
(0.43949 0.000399779 0)
(0.4397 0.00045051 0)
(0.439939 0.0005276 0)
(0.440221 0.000639533 0)
(0.440563 0.000797366 0)
(0.44099 0.00101503 0)
(0.441532 0.00131152 0)
(0.44223 0.00171206 0)
(0.443137 0.0022513 0)
(0.444325 0.00297568 0)
(0.445889 0.00394814 0)
(0.447955 0.0052526 0)
(0.450693 0.00700118 0)
(0.454323 0.00934174 0)
(0.459138 0.0124682 0)
(0.465522 0.0166308 0)
(0.473976 0.0221459 0)
(0.485145 0.0294009 0)
(0.499856 0.0388473 0)
(0.519156 0.0509687 0)
(0.544341 0.0662034 0)
(0.576986 0.0848065 0)
(0.618923 0.106577 0)
(0.672076 0.13056 0)
(0.73868 0.154523 0)
(0.81872 0.173598 0)
(0.913218 0.183598 0)
(0.276304 0.00146188 0)
(0.276388 0.00233412 0)
(0.276934 0.00200886 0)
(0.277481 0.00152813 0)
(0.278079 0.0011646 0)
(0.278695 0.000891006 0)
(0.279259 0.000681293 0)
(0.279744 0.000528188 0)
(0.280159 0.000421099 0)
(0.280516 0.000345803 0)
(0.280826 0.000289592 0)
(0.281097 0.000245673 0)
(0.281336 0.000211731 0)
(0.281548 0.0001874 0)
(0.281741 0.000171319 0)
(0.281921 0.000161691 0)
(0.282091 0.000156558 0)
(0.282256 0.000155438 0)
(0.28242 0.000158708 0)
(0.282589 0.000168155 0)
(0.282769 0.000185779 0)
(0.282968 0.000214394 0)
(0.283198 0.000256916 0)
(0.283473 0.000317443 0)
(0.283812 0.000401001 0)
(0.284237 0.000514932 0)
(0.28478 0.00066893 0)
(0.285484 0.000876746 0)
(0.286404 0.00115668 0)
(0.287614 0.00153394 0)
(0.289215 0.00204213 0)
(0.291339 0.00272684 0)
(0.294165 0.00364881 0)
(0.297929 0.0048894 0)
(0.302946 0.00655591 0)
(0.309628 0.00878835 0)
(0.318514 0.0117649 0)
(0.330298 0.0157043 0)
(0.345855 0.0208594 0)
(0.366267 0.0274943 0)
(0.39281 0.0358316 0)
(0.426922 0.0459577 0)
(0.470085 0.0576635 0)
(0.523546 0.0702195 0)
(0.588112 0.0821665 0)
(0.662845 0.0905758 0)
(0.745175 0.0923853 0)
(0.0984375 0.00100687 0)
(0.100337 0.00104451 0)
(0.101966 0.000603667 0)
(0.103126 0.000339617 0)
(0.103924 0.000216511 0)
(0.104506 0.000142409 0)
(0.104941 9.34463e-05 0)
(0.105267 6.57147e-05 0)
(0.10552 5.16599e-05 0)
(0.105724 4.2187e-05 0)
(0.105893 3.28471e-05 0)
(0.106036 2.43314e-05 0)
(0.106157 1.91645e-05 0)
(0.106263 1.8165e-05 0)
(0.106358 2.00123e-05 0)
(0.106446 2.23655e-05 0)
(0.10653 2.36146e-05 0)
(0.106613 2.33812e-05 0)
(0.106696 2.25299e-05 0)
(0.106783 2.23639e-05 0)
(0.106876 2.42319e-05 0)
(0.106982 2.9037e-05 0)
(0.107107 3.73953e-05 0)
(0.107259 4.9644e-05 0)
(0.107449 6.62968e-05 0)
(0.107693 8.81654e-05 0)
(0.108007 0.000116781 0)
(0.108418 0.000154443 0)
(0.108959 0.000204626 0)
(0.109676 0.000272079 0)
(0.11063 0.000363412 0)
(0.111903 0.000487487 0)
(0.113609 0.000656418 0)
(0.1159 0.000886509 0)
(0.118982 0.00119986 0)
(0.123132 0.00162586 0)
(0.128721 0.00220299 0)
(0.136241 0.00297966 0)
(0.146329 0.00401309 0)
(0.159793 0.00536344 0)
(0.177603 0.00707913 0)
(0.20085 0.00916851 0)
(0.230612 0.0115503 0)
(0.267676 0.0139719 0)
(0.312173 0.0159528 0)
(0.362783 0.0165903 0)
(0.416414 0.0150089 0)
(0.467444 -0.0101411 0)
(0.508182 -0.00239972 0)
(0.532393 0.00580115 0)
(0.538428 0.0124441 0)
(0.527894 0.0168393 0)
(0.505003 0.0190009 0)
(0.829018 -0.0825176 0)
(0.90444 -0.0606715 0)
(0.963017 -0.0335171 0)
(1.00217 -0.00697881 0)
(1.02328 0.0166055 0)
(1.02682 0.036091 0)
(1.0157 -0.171439 0)
(1.10912 -0.135902 0)
(1.1806 -0.0911379 0)
(1.22958 -0.0471847 0)
(1.25997 -0.00720178 0)
(1.27531 0.0275416 0)
(1.15866 -0.270731 0)
(1.27154 -0.21707 0)
(1.34191 -0.151795 0)
(1.37858 -0.0880895 0)
(1.39481 -0.0304387 0)
(1.39813 0.018646 0)
(1.27479 -0.396742 0)
(1.36979 -0.301427 0)
(1.38577 -0.200464 0)
(1.36791 -0.110281 0)
(1.34539 -0.0359943 0)
(1.32456 0.0225982 0)
(1.25243 -0.562574 0)
(1.18756 -0.34983 0)
(1.05164 -0.182831 0)
(0.955527 -0.0690239 0)
(0.904692 0.00662124 0)
(0.885878 0.0554799 0)
(0.788736 -0.511584 0)
(0.440532 -0.140709 0)
(0.211504 0.0120507 0)
(0.188086 0.0440081 0)
(0.221676 0.0459118 0)
(0.256814 0.0550099 0)
(0.78871 0.511583 0)
(0.440487 0.140689 0)
(0.211468 -0.0120458 0)
(0.188051 -0.0439848 0)
(0.22163 -0.0458929 0)
(0.25677 -0.0550033 0)
(1.25243 0.56254 0)
(1.1875 0.349837 0)
(1.05157 0.182855 0)
(0.955439 0.0690492 0)
(0.904587 -0.00657986 0)
(0.885765 -0.0554478 0)
(1.27481 0.396657 0)
(1.36979 0.3014 0)
(1.38573 0.200495 0)
(1.36786 0.110328 0)
(1.34531 0.0360397 0)
(1.32445 -0.0225664 0)
(1.1587 0.27064 0)
(1.27157 0.217001 0)
(1.34191 0.151757 0)
(1.37853 0.088071 0)
(1.39474 0.0304132 0)
(1.39806 -0.0186643 0)
(1.01575 0.171371 0)
(1.10916 0.13581 0)
(1.1806 0.09104 0)
(1.22954 0.0471002 0)
(1.25992 0.00714815 0)
(1.27525 -0.0275652 0)
(0.829066 0.0824883 0)
(0.904485 0.0606057 0)
(0.963043 0.0334425 0)
(1.00218 0.00691999 0)
(1.02327 -0.0166323 0)
(1.02679 -0.0360919 0)
(0.467479 0.0101331 0)
(0.508222 0.00237908 0)
(0.532427 -0.00582396 0)
(0.538444 -0.0124637 0)
(0.527886 -0.0168596 0)
(0.504973 -0.0190202 0)
(0.473501 0.019155 0)
(0.436814 0.0177244 0)
(0.398077 0.0153372 0)
(0.359719 0.0126318 0)
(0.323302 0.0100387 0)
(0.289721 0.00775099 0)
(0.259454 0.00582683 0)
(0.232697 0.0042704 0)
(0.209429 0.0030555 0)
(0.18948 0.00213191 0)
(0.172598 0.00143846 0)
(0.158497 0.000916695 0)
(0.146881 0.000518288 0)
(0.137462 0.00020742 0)
(0.129968 -3.96343e-05 0)
(0.124145 -0.000237264 0)
(0.11976 -0.000393609 0)
(0.116597 -0.000513814 0)
(0.11446 -0.000601876 0)
(0.113172 -0.000661689 0)
(0.112574 -0.000697234 0)
(0.112526 -0.000712696 0)
(0.112905 -0.000711962 0)
(0.113605 -0.000698111 0)
(0.114535 -0.00067387 0)
(0.115619 -0.000641722 0)
(0.116795 -0.000603914 0)
(0.118011 -0.00056221 0)
(0.119225 -0.000517954 0)
(0.120405 -0.000472408 0)
(0.121525 -0.000426703 0)
(0.122569 -0.000381827 0)
(0.123524 -0.000338551 0)
(0.124383 -0.000297467 0)
(0.125143 -0.000258959 0)
(0.125803 -0.000223269 0)
(0.126367 -0.000190476 0)
(0.126837 -0.000160572 0)
(0.127219 -0.000133438 0)
(0.127516 -0.000108921 0)
(0.127736 -8.67613e-05 0)
(0.127884 -6.67748e-05 0)
(0.127965 -4.80216e-05 0)
(0.127985 -3.05417e-05 0)
(0.127943 -1.17346e-05 0)
(0.127858 3.97735e-06 0)
(0.127544 0.000124374 0)
(1.01434 0.0506543 0)
(0.988225 0.060013 0)
(0.951414 0.064661 0)
(0.906803 0.065577 0)
(0.856954 0.0637568 0)
(0.804145 0.0600112 0)
(0.750419 0.0549975 0)
(0.697544 0.0492674 0)
(0.646948 0.0432665 0)
(0.599702 0.0373268 0)
(0.556532 0.0316767 0)
(0.517858 0.0264598 0)
(0.483827 0.0217528 0)
(0.454374 0.0175819 0)
(0.429276 0.0139401 0)
(0.408206 0.0107998 0)
(0.390776 0.00812342 0)
(0.376574 0.00586906 0)
(0.365187 0.00399376 0)
(0.356218 0.00245545 0)
(0.349297 0.00121393 0)
(0.344089 0.000231649 0)
(0.340293 -0.000526456 0)
(0.337641 -0.00109328 0)
(0.335903 -0.00149873 0)
(0.334882 -0.00176961 0)
(0.334406 -0.00192898 0)
(0.334331 -0.00199712 0)
(0.334537 -0.00199238 0)
(0.334929 -0.0019312 0)
(0.335428 -0.00182784 0)
(0.335973 -0.00169444 0)
(0.336516 -0.00154105 0)
(0.337022 -0.00137588 0)
(0.337465 -0.00120544 0)
(0.337826 -0.00103479 0)
(0.338095 -0.000867704 0)
(0.338265 -0.000706909 0)
(0.338333 -0.00055422 0)
(0.338299 -0.000410749 0)
(0.338166 -0.000276956 0)
(0.337938 -0.000153042 0)
(0.337618 -3.75246e-05 0)
(0.337219 6.8177e-05 0)
(0.336724 0.000177814 0)
(0.33624 0.000259276 0)
(0.335316 0.000561834 0)
(1.27748 0.0559352 0)
(1.26829 0.0775436 0)
(1.24956 0.0928754 0)
(1.22267 0.102881 0)
(1.18866 0.108392 0)
(1.14862 0.110041 0)
(1.10389 0.108413 0)
(1.05597 0.104109 0)
(1.00636 0.0977386 0)
(0.956491 0.0898893 0)
(0.907666 0.0811113 0)
(0.860965 0.0718983 0)
(0.817229 0.0626678 0)
(0.777041 0.0537488 0)
(0.740739 0.04538 0)
(0.708447 0.0377173 0)
(0.680116 0.0308467 0)
(0.655563 0.0247985 0)
(0.634514 0.0195621 0)
(0.616642 0.0150982 0)
(0.601595 0.0113495 0)
(0.589017 0.00824856 0)
(0.578568 0.00572392 0)
(0.569928 0.00370414 0)
(0.562808 0.00212037 0)
(0.556949 0.000908637 0)
(0.552126 1.09044e-05 0)
(0.548145 -0.000625223 0)
(0.544841 -0.00104669 0)
(0.542073 -0.00129493 0)
(0.539725 -0.0014059 0)
(0.537699 -0.00141036 0)
(0.535916 -0.00133428 0)
(0.534311 -0.00119931 0)
(0.532833 -0.00102323 0)
(0.531441 -0.000820413 0)
(0.530104 -0.000602269 0)
(0.528797 -0.000377652 0)
(0.527503 -0.000153231 0)
(0.526208 6.61188e-05 0)
(0.524902 0.000277075 0)
(0.52358 0.000477383 0)
(0.522235 0.000666653 0)
(0.520878 0.000841689 0)
(0.519461 0.00101581 0)
(0.518209 0.00113556 0)
(0.516215 0.00152466 0)
(1.39282 0.0579334 0)
(1.38189 0.087705 0)
(1.36737 0.109784 0)
(1.34976 0.125966 0)
(1.32869 0.137245 0)
(1.30381 0.14412 0)
(1.27521 0.146988 0)
(1.24323 0.146256 0)
(1.20843 0.142365 0)
(1.17156 0.135808 0)
(1.13344 0.127141 0)
(1.09497 0.116952 0)
(1.05698 0.105822 0)
(1.02019 0.0942818 0)
(0.98521 0.0827884 0)
(0.952474 0.0717069 0)
(0.92227 0.0613081 0)
(0.89474 0.0517735 0)
(0.869903 0.0432066 0)
(0.847684 0.0356467 0)
(0.827938 0.0290837 0)
(0.810475 0.0234722 0)
(0.795081 0.0187435 0)
(0.781532 0.0148148 0)
(0.769611 0.0115977 0)
(0.759109 0.00900277 0)
(0.749834 0.0069439 0)
(0.741614 0.00534045 0)
(0.734295 0.00411896 0)
(0.727745 0.00321372 0)
(0.721847 0.00256685 0)
(0.716502 0.00212812 0)
(0.711625 0.0018545 0)
(0.707145 0.00170957 0)