/*--------------------------------*- C++ -*----------------------------------*\
| =========                 |                                                 |
| \\      /  F ield         | OpenFOAM: The Open Source CFD Toolbox           |
|  \\    /   O peration     | Version:  2406                                  |
|   \\  /    A nd           | Website:  www.openfoam.com                      |
|    \\/     M anipulation  |                                                 |
\*---------------------------------------------------------------------------*/
FoamFile
{
    version     2.0;
    format      ascii;
    arch        "LSB;label=32;scalar=64";
    class       volScalarField;
    location    "24";
    object      p;
}
// * * * * * * * * * * * * * * * * * * * * * * * * * * * * * * * * * * * * * //

dimensions      [0 2 -2 0 0 0 0];

internalField   nonuniform List<scalar> 
1800
(
2.6977
2.63031
2.56016
2.48994
2.4168
2.3401
2.25882
2.17181
2.07829
1.9393
2.71279
2.63455
2.55967
2.48816
2.41443
2.33715
2.25579
2.16917
2.07377
1.95693
2.72152
2.63809
2.5603
2.48863
2.41542
2.33901
2.25959
2.17724
2.09183
2.00394
2.72809
2.64267
2.56348
2.4925
2.42094
2.34698
2.27161
2.19604
2.12167
2.05111
2.73443
2.64815
2.56851
2.4985
2.42889
2.35783
2.28677
2.21735
2.1511
2.0901
2.7397
2.65323
2.57391
2.50486
2.43691
2.36835
2.30076
2.23575
2.17456
2.11853
2.74263
2.65669
2.57836
2.51001
2.44308
2.3762
2.31086
2.24842
2.18983
2.13594
2.74201
2.65782
2.58108
2.51295
2.44624
2.38009
2.3157
2.25422
2.19637
2.14281
2.7351
2.65588
2.58164
2.51337
2.44617
2.37977
2.31518
2.25328
2.19475
2.14025
2.71923
2.65048
2.58013
2.51204
2.44416
2.37701
2.31155
2.24854
2.18864
2.13264
1.8276
1.82808
1.83244
1.84087
1.8518
1.86366
1.87512
1.88515
1.89307
1.89845
1.90116
1.90122
1.89883
1.89424
1.88777
1.87975
1.87049
1.86029
1.84942
1.83809
1.8265
1.81479
1.80307
1.79143
1.77994
1.76864
1.75754
1.74666
1.73601
1.72558
1.71534
1.7053
1.69543
1.68572
1.67614
1.8273
1.82772
1.83171
1.83928
1.8491
1.85982
1.87026
1.8795
1.88689
1.89203
1.89472
1.89497
1.89292
1.88879
1.88284
1.87539
1.86671
1.85708
1.84675
1.83592
1.82477
1.81346
1.80209
1.79075
1.7795
1.76839
1.75746
1.7467
1.73614
1.72577
1.71558
1.70557
1.69571
1.68599
1.67641
1.82289
1.82377
1.82812
1.83571
1.84525
1.85554
1.86553
1.87439
1.88152
1.88652
1.88923
1.88962
1.88781
1.88401
1.87846
1.87144
1.86322
1.85404
1.84415
1.83375
1.82299
1.81203
1.80097
1.7899
1.77889
1.76798
1.7572
1.74658
1.73612
1.72582
1.71569
1.70571
1.69588
1.68618
1.6766
1.81307
1.81545
1.82142
1.83031
1.84078
1.85163
1.86192
1.87088
1.878
1.88296
1.88562
1.88599
1.88422
1.88051
1.87511
1.86828
1.86029
1.85138
1.84176
1.83164
1.82117
1.81048
1.79968
1.78885
1.77805
1.76733
1.75671
1.74623
1.73588
1.72568
1.71562
1.7057
1.69591
1.68624
1.67668
1.7974
1.8027
1.81185
1.82338
1.83581
1.84801
1.8591
1.86847
1.87572
1.88063
1.88315
1.88338
1.88147
1.87767
1.87223
1.86544
1.85753
1.84876
1.83933
1.82942
1.81917
1.80871
1.79814
1.78753
1.77694
1.76641
1.75598
1.74564
1.73543
1.72535
1.71539
1.70555
1.69582
1.6862
1.67668
1.77502
1.78545
1.79987
1.81551
1.83086
1.84496
1.85715
1.86702
1.87435
1.8791
1.88135
1.88126
1.87906
1.87502
1.86942
1.86254
1.85464
1.84594
1.83663
1.82689
1.81685
1.80661
1.79628
1.7859
1.77554
1.76522
1.75498
1.74483
1.73478
1.72484
1.715
1.70526
1.69562
1.68607
1.6766
1.74464
1.76352
1.7863
1.8077
1.82671
1.84302
1.85635
1.86659
1.87381
1.87819
1.87995
1.87935
1.87669
1.87228
1.86641
1.85937
1.85141
1.84274
1.83354
1.82397
1.81413
1.80414
1.79405
1.78393
1.77383
1.76375
1.75374
1.7438
1.73394
1.72416
1.71446
1.70485
1.69532
1.68585
1.67646
1.69912
1.73491
1.77201
1.8012
1.82437
1.84286
1.85707
1.86734
1.87411
1.87779
1.87879
1.87747
1.87419
1.86929
1.86307
1.85582
1.84777
1.83912
1.83003
1.82063
1.81103
1.80129
1.79149
1.78166
1.77183
1.76203
1.75228
1.74257
1.73293
1.72334
1.71382
1.70435
1.69494
1.68558
1.67627
1.61096
1.69593
1.7592
1.79817
1.82534
1.84542
1.85982
1.86948
1.87526
1.87784
1.87777
1.87552
1.87147
1.86598
1.85936
1.85187
1.84372
1.8351
1.82613
1.81694
1.80758
1.79814
1.78864
1.77913
1.76961
1.76011
1.75064
1.7412
1.73179
1.72242
1.71308
1.70377
1.6945
1.68525
1.67604
1.51191
1.67426
1.76223
1.80578
1.83321
1.8524
1.86534
1.87328
1.87732
1.8783
1.87684
1.87344
1.8685
1.86236
1.8553
1.84757
1.83934
1.83077
1.82195
1.81298
1.80391
1.79478
1.78562
1.77644
1.76726
1.75808
1.7489
1.73974
1.73058
1.72143
1.71228
1.70315
1.69402
1.6849
1.67579
1.72511
1.75811
1.80699
1.83375
1.85172
1.86511
1.87398
1.87876
1.88021
1.87908
1.87593
1.87121
1.86529
1.85847
1.85099
1.84303
1.83476
1.82626
1.81763
1.80892
1.80015
1.79135
1.78254
1.77371
1.76486
1.75601
1.74714
1.73825
1.72935
1.72042
1.71148
1.70252
1.69354
1.68454
1.67553
1.84457
1.83658
1.85442
1.86629
1.8746
1.88089
1.88447
1.88521
1.88352
1.87994
1.87492
1.86881
1.86189
1.85441
1.84653
1.8384
1.83012
1.82175
1.81334
1.8049
1.79645
1.788
1.77953
1.77105
1.76254
1.75401
1.74543
1.73682
1.72816
1.71946
1.71071
1.70191
1.69308
1.6842
1.67529
1.9297
1.90417
1.90067
1.8997
1.89877
1.89765
1.89545
1.89176
1.88669
1.88056
1.87364
1.86616
1.85832
1.85025
1.84206
1.83383
1.82559
1.81739
1.80922
1.80108
1.79296
1.78484
1.77672
1.76858
1.76039
1.75216
1.74386
1.7355
1.72707
1.71857
1.71
1.70136
1.69266
1.68389
1.67507
1.99246
1.95918
1.94209
1.93057
1.92128
1.91317
1.90538
1.89737
1.88906
1.88051
1.87186
1.86319
1.85456
1.84605
1.83766
1.82941
1.8213
1.8133
1.8054
1.79757
1.78978
1.782
1.7742
1.76637
1.75848
1.75052
1.74248
1.73435
1.72613
1.71781
1.7094
1.70089
1.69231
1.68364
1.67489
2.03837
2.00124
1.97548
1.95578
1.93948
1.92542
1.91279
1.90104
1.88994
1.87939
1.86934
1.85975
1.85059
1.84181
1.83337
1.82522
1.8173
1.80957
1.80197
1.79445
1.78699
1.77952
1.77203
1.76449
1.75687
1.74916
1.74134
1.73341
1.72536
1.71719
1.70892
1.70053
1.69203
1.68345
1.67477
2.06966
2.03011
1.99879
1.97318
1.95154
1.93291
1.91656
1.90198
1.88881
1.87682
1.86585
1.85572
1.84632
1.83751
1.82919
1.82125
1.81361
1.80619
1.79892
1.79174
1.78459
1.77744
1.77023
1.76295
1.75557
1.74807
1.74044
1.73268
1.72478
1.71674
1.70857
1.70027
1.69186
1.68333
1.6747
2.08781
2.04643
2.01151
1.98191
1.95663
1.93489
1.91609
1.89969
1.8853
1.87256
1.8612
1.85096
1.84164
1.83305
1.82503
1.81745
1.81018
1.80314
1.79624
1.7894
1.78258
1.77571
1.76878
1.76174
1.75457
1.74726
1.7398
1.73218
1.7244
1.71646
1.70838
1.70015
1.69179
1.6833
1.67471
2.09423
2.05129
2.01402
1.98197
1.9545
1.93105
1.91101
1.89386
1.8791
1.86631
1.85513
1.84523
1.83634
1.82824
1.82073
1.81365
1.80687
1.80029
1.7938
1.78735
1.78086
1.77431
1.76764
1.76083
1.75386
1.74672
1.73941
1.73191
1.72422
1.71637
1.70834
1.70017
1.69184
1.68338
1.67481
2.09047
2.04602
2.00716
1.97371
1.94527
1.92126
1.9011
1.88416
1.86988
1.85776
1.84734
1.83824
1.83017
1.82285
1.81608
1.80968
1.80353
1.7975
1.79151
1.78549
1.77939
1.77316
1.76677
1.7602
1.75343
1.74645
1.73926
1.73186
1.72426
1.71647
1.70849
1.70033
1.69203
1.68358
1.675
2.08135
2.03551
1.99552
1.96136
1.93266
1.90882
1.88916
1.87299
1.85964
1.84852
1.83913
1.83105
1.82394
1.81751
1.81155
1.80589
1.80038
1.79493
1.78944
1.78386
1.77814
1.77223
1.76611
1.75977
1.75318
1.74636
1.73929
1.73198
1.72445
1.7167
1.70875
1.70061
1.69231
1.68386
1.67527
1.66668
1.65732
1.64805
1.63885
1.62971
1.62062
1.61157
1.60255
1.59355
1.58458
1.66694
1.65756
1.64827
1.63905
1.62989
1.62078
1.61171
1.60268
1.59367
1.58469
1.66712
1.65774
1.64844
1.63921
1.63003
1.62091
1.61183
1.60279
1.59378
1.58479
1.66722
1.65785
1.64855
1.63931
1.63014
1.62101
1.61193
1.60288
1.59386
1.58486
1.66725
1.65789
1.64861
1.63938
1.63021
1.62108
1.61199
1.60294
1.59391
1.58492
1.66721
1.65789
1.64863
1.63942
1.63025
1.62113
1.61204
1.60299
1.59395
1.58495
1.66712
1.65785
1.64862
1.63943
1.63028
1.62117
1.61208
1.60302
1.59398
1.58496
1.667
1.65777
1.64858
1.63943
1.6303
1.62119
1.61211
1.60304
1.59399
1.58496
1.66685
1.65768
1.64854
1.63941
1.6303
1.62121
1.61213
1.60306
1.594
1.58495
1.66668
1.65758
1.64848
1.63939
1.6303
1.62122
1.61214
1.60307
1.594
1.58493
1.66651
1.65747
1.64842
1.63937
1.63031
1.62124
1.61216
1.60308
1.594
1.58491
1.66634
1.65737
1.64837
1.63935
1.63031
1.62125
1.61218
1.60309
1.594
1.58489
1.6662
1.65728
1.64833
1.63934
1.63032
1.62127
1.6122
1.60311
1.594
1.58488
1.66609
1.65722
1.6483
1.63934
1.63033
1.6213
1.61223
1.60313
1.59402
1.58488
1.66601
1.65719
1.6483
1.63935
1.63036
1.62133
1.61227
1.60317
1.59404
1.58489
1.66599
1.65719
1.64832
1.63939
1.63041
1.62138
1.61232
1.60321
1.59408
1.58493
1.66602
1.65724
1.64838
1.63946
1.63048
1.62145
1.61238
1.60328
1.59414
1.58498
1.66613
1.65735
1.6485
1.63957
1.63059
1.62155
1.61248
1.60337
1.59422
1.58505
1.66632
1.65753
1.64867
1.63973
1.63073
1.62169
1.6126
1.60348
1.59433
1.58515
1.66657
1.65777
1.64888
1.63993
1.63091
1.62185
1.61274
1.60361
1.59445
1.58527
1.57562
1.56668
1.55776
1.54885
1.53996
1.5311
1.52226
1.51345
1.50469
1.49597
1.48731
1.47873
1.47023
1.46184
1.45357
1.44545
1.4375
1.42977
1.42227
1.41506
1.40818
1.40169
1.39566
1.39017
1.38534
1.38131
1.37825
1.3764
1.37603
1.37744
1.38085
1.38623
1.39308
1.39993
1.40451
1.57573
1.56679
1.55787
1.54897
1.5401
1.53125
1.52244
1.51367
1.50494
1.49627
1.48767
1.47916
1.47075
1.46246
1.45431
1.44634
1.43856
1.43103
1.42377
1.41684
1.4103
1.4042
1.39861
1.39363
1.38937
1.38593
1.38347
1.38216
1.38219
1.38374
1.38694
1.39172
1.39775
1.40409
1.40895
1.57583
1.56689
1.55797
1.54908
1.54022
1.53139
1.5226
1.51385
1.50515
1.49653
1.48798
1.47952
1.47118
1.46298
1.45494
1.44709
1.43946
1.4321
1.42506
1.41838
1.41212
1.40636
1.40117
1.39663
1.39285
1.38992
1.38796
1.3871
1.38745
1.38915
1.39226
1.39682
1.40278
1.40988
1.41643
1.5759
1.56696
1.55804
1.54915
1.54029
1.53146
1.52268
1.51394
1.50526
1.49665
1.48813
1.4797
1.4714
1.46324
1.45525
1.44746
1.43991
1.43265
1.42572
1.41917
1.41308
1.40751
1.40254
1.39825
1.39472
1.39206
1.39036
1.3897
1.39021
1.39199
1.39517
1.39994
1.40664
1.41573
1.42514
1.57594
1.56699
1.55807
1.54917
1.54031
1.53147
1.52268
1.51394
1.50525
1.49664
1.48811
1.47968
1.47137
1.4632
1.45521
1.44742
1.43987
1.43261
1.42569
1.41915
1.41308
1.40752
1.40257
1.3983
1.3948
1.39214
1.39042
1.38972
1.39016
1.39188
1.39511
1.40023
1.40812
1.41998
1.43323
1.57596
1.567
1.55807
1.54915
1.54027
1.53142
1.5226
1.51384
1.50512
1.49648
1.48791
1.47944
1.47108
1.46286
1.4548
1.44694
1.4393
1.43194
1.4249
1.41824
1.41201
1.40628
1.40112
1.39662
1.39284
1.38987
1.38777
1.38666
1.38666
1.38797
1.39092
1.39618
1.40522
1.4205
1.43851
1.57596
1.56698
1.55803
1.54909
1.54018
1.53129
1.52244
1.51363
1.50487
1.49616
1.48753
1.47898
1.47053
1.46219
1.45401
1.44599
1.43818
1.43061
1.42333
1.41638
1.40981
1.40369
1.39808
1.39304
1.38864
1.38493
1.382
1.37993
1.37887
1.37907
1.38098
1.38556
1.39533
1.41437
1.43777
1.57594
1.56694
1.55795
1.54898
1.54003
1.53111
1.5222
1.51333
1.5045
1.49571
1.48698
1.47831
1.46973
1.46123
1.45286
1.44462
1.43654
1.42866
1.421
1.41361
1.40653
1.39979
1.39345
1.38755
1.38213
1.37722
1.37285
1.36909
1.36605
1.36397
1.36339
1.36564
1.37461
1.39819
1.4303
1.57591
1.56688
1.55786
1.54885
1.53985
1.53087
1.5219
1.51296
1.50404
1.49515
1.48629
1.47748
1.46872
1.46003
1.45141
1.44288
1.43447
1.42618
1.41803
1.41007
1.40229
1.39474
1.38741
1.38034
1.37349
1.36686
1.36039
1.35403
1.34776
1.34165
1.33609
1.33245
1.33626
1.36372
1.42355
1.57587
1.56681
1.55775
1.54869
1.53965
1.5306
1.52156
1.51254
1.50352
1.49451
1.48551
1.47654
1.46758
1.45865
1.44976
1.44089
1.43208
1.42331
1.41459
1.40594
1.39735
1.3888
1.38029
1.37177
1.36316
1.35435
1.34515
1.33526
1.32433
1.31186
1.29732
1.28055
1.26499
1.26895
1.33855
1.57582
1.56673
1.55763
1.54853
1.53943
1.53032
1.52121
1.51209
1.50297
1.49384
1.4847
1.47554
1.46638
1.4572
1.448
1.43878
1.42954
1.42025
1.41092
1.40151
1.39202
1.38239
1.37256
1.36242
1.35184
1.34055
1.3282
1.31418
1.29757
1.27684
1.24935
1.21046
1.15272
1.06312
0.899332
1.57578
1.56665
1.55752
1.54837
1.53922
1.53005
1.52086
1.51166
1.50243
1.49318
1.4839
1.47457
1.4652
1.45578
1.44628
1.4367
1.42702
1.41722
1.40726
1.3971
1.38669
1.37595
1.36477
1.35299
1.34039
1.32661
1.31113
1.2931
1.27124
1.24344
1.20625
1.15398
1.07792
0.965776
0.805592
1.57574
1.56659
1.55742
1.54824
1.53903
1.52981
1.52056
1.51127
1.50196
1.49259
1.48318
1.47369
1.46414
1.45448
1.44471
1.4348
1.42472
1.41443
1.40388
1.39301
1.38174
1.36995
1.35751
1.3442
1.32973
1.31368
1.29543
1.27406
1.24817
1.21567
1.17342
1.11688
1.04012
0.936867
0.804864
1.57572
1.56655
1.55735
1.54813
1.53889
1.52961
1.52031
1.51096
1.50156
1.49211
1.48258
1.47297
1.46325
1.45341
1.44341
1.43322
1.42279
1.41209
1.40104
1.38956
1.37754
1.36485
1.35132
1.33669
1.32063
1.3027
1.28224
1.25834
1.2297
1.19447
1.15011
1.09333
1.02034
0.927858
0.815791
1.57572
1.56653
1.55731
1.54806
1.53879
1.52948
1.52013
1.51074
1.50129
1.49176
1.48216
1.47245
1.46261
1.45263
1.44245
1.43205
1.42138
1.41036
1.39892
1.38697
1.37438
1.361
1.34661
1.33096
1.3137
1.29435
1.27229
1.24665
1.21629
1.17967
1.13482
1.07939
1.01097
0.927848
0.830796
1.57574
1.56653
1.5573
1.54804
1.53875
1.52942
1.52004
1.51062
1.50114
1.49157
1.48192
1.47215
1.46225
1.45218
1.4419
1.43138
1.42054
1.40933
1.39766
1.38541
1.37246
1.35862
1.34368
1.32736
1.30931
1.28904
1.26596
1.23928
1.20799
1.17084
1.12632
1.07273
1.00854
0.932866
0.846541
1.57579
1.56657
1.55733
1.54806
1.53876
1.52942
1.52004
1.51061
1.50112
1.49155
1.48188
1.4721
1.46218
1.45208
1.44178
1.43122
1.42033
1.40906
1.3973
1.38495
1.37186
1.35784
1.34267
1.32607
1.30765
1.28697
1.26343
1.23631
1.20471
1.16757
1.12366
1.07174
1.01074
0.940168
0.860637
1.57586
1.56664
1.5574
1.54813
1.53883
1.5295
1.52013
1.5107
1.50122
1.49167
1.48203
1.47227
1.46238
1.45233
1.44207
1.43156
1.42074
1.40954
1.39787
1.38561
1.37262
1.35871
1.34366
1.32717
1.30889
1.28832
1.26492
1.23796
1.20661
1.16988
1.12671
1.07605
1.01705
0.949329
0.873346
1.57596
1.56674
1.5575
1.54824
1.53895
1.52964
1.52029
1.51089
1.50145
1.49194
1.48235
1.47266
1.46285
1.45289
1.44275
1.43239
1.42174
1.41075
1.39932
1.38736
1.37473
1.36124
1.34668
1.33077
1.31313
1.29331
1.27073
1.24466
1.21426
1.17854
1.13641
1.08683
1.02893
0.962313
0.887291
1.57607
1.56685
1.55762
1.54836
1.53909
1.5298
1.52048
1.51112
1.50172
1.49226
1.48274
1.47313
1.46342
1.45359
1.4436
1.43341
1.42299
1.41226
1.40117
1.3896
1.37744
1.36453
1.35066
1.33557
1.31888
1.30016
1.27882
1.25411
1.22515
1.19085
1.15005
1.10154
1.04431
0.977811
0.902243
0.449688
0.391578
0.387542
0.354652
0.312416
0.266049
0.214637
0.158474
0.0986359
0.0349935
0.572493
0.466544
0.419748
0.373267
0.323374
0.271565
0.216925
0.159112
0.098079
0.03433
0.643046
0.531474
0.460349
0.399394
0.340352
0.281962
0.222826
0.162088
0.0990537
0.0343477
0.688716
0.582792
0.500736
0.429264
0.361975
0.296842
0.232397
0.167629
0.101486
0.0346155
0.724595
0.625774
0.539185
0.460433
0.386023
0.314345
0.244232
0.1748
0.104836
0.0350337
0.752963
0.660111
0.572216
0.488886
0.408943
0.331615
0.256256
0.182264
0.108437
0.035535
0.774363
0.685597
0.597612
0.51156
0.427707
0.34605
0.266478
0.188692
0.111577
0.0359923
0.790606
0.703814
0.615565
0.527619
0.440982
0.356241
0.273645
0.193137
0.113678
0.0362899
0.805128
0.718004
0.628371
0.538287
0.449228
0.362109
0.277403
0.19512
0.114368
0.0363053
0.818839
0.729818
0.637819
0.545228
0.453835
0.364761
0.278543
0.195177
0.114163
0.0361409
)
;

boundaryField
{
    inlet
    {
        type            zeroGradient;
    }
    outlet
    {
        type            fixedValue;
        value           uniform 0;
    }
    upperWall
    {
        type            zeroGradient;
    }
    lowerWall
    {
        type            zeroGradient;
    }
    frontAndBack
    {
        type            empty;
    }
}


// ************************************************************************* //
