/*--------------------------------*- C++ -*----------------------------------*\
| =========                 |                                                 |
| \\      /  F ield         | OpenFOAM: The Open Source CFD Toolbox           |
|  \\    /   O peration     | Version:  2406                                  |
|   \\  /    A nd           | Website:  www.openfoam.com                      |
|    \\/     M anipulation  |                                                 |
\*---------------------------------------------------------------------------*/
FoamFile
{
    version     2.0;
    format      ascii;
    arch        "LSB;label=32;scalar=64";
    class       surfaceScalarField;
    location    "24";
    object      phi;
}
// * * * * * * * * * * * * * * * * * * * * * * * * * * * * * * * * * * * * * //

dimensions      [0 3 -1 0 0 0 0];

oriented        oriented;

internalField   nonuniform List<scalar> 
3480
(
0.0193261
-0.000326001
0.0196511
-0.000324804
0.0199352
-0.000283793
0.0202491
-0.000313754
0.0206576
-0.000408644
0.0212572
-0.000599744
0.0222319
-0.000974654
0.0239523
-0.00171966
0.02738
-0.00342792
-0.00867309
0.036053
0.0510045
-0.000330096
0.051259
-0.000578793
0.0516514
-0.000675998
0.0521741
-0.000836646
0.0528831
-0.00111788
0.0538768
-0.00159365
0.0553157
-0.00241315
0.0574545
-0.00385796
0.0605511
-0.00652433
-0.011585
0.0634618
0.0749822
-0.000312155
0.0751068
-0.000703103
0.0754009
-0.000970071
0.075852
-0.00128819
0.0764829
-0.00174913
0.0773373
-0.00244833
0.0784634
-0.00353909
0.0798647
-0.00525929
0.0813047
-0.0079648
-0.0120666
0.081786
0.0909701
-0.000282008
0.0909854
-0.00071818
0.0911075
-0.0010926
0.0913385
-0.00151975
0.0916753
-0.00208616
0.0921104
-0.0028834
0.0926063
-0.00403507
0.0930462
-0.00569943
0.0931326
-0.00805158
-0.0111914
0.092257
0.0989424
-0.00022411
0.0988503
-0.00062617
0.0987863
-0.00102916
0.0987552
-0.0014889
0.0987366
-0.00206745
0.0986917
-0.00283836
0.098544
-0.0038874
0.0981503
-0.00530587
0.0972645
-0.007166
-0.00945489
0.0955282
0.0989049
-0.000128989
0.0987131
-0.000434254
0.0984883
-0.000804456
0.098228
-0.00122882
0.0978995
-0.00173879
0.0974491
-0.00238775
0.0967909
-0.00322896
0.0957939
-0.00430886
0.0942773
-0.00564919
-0.00720847
0.0920312
0.0908666
4.62568e-06
0.0906072
-0.000174283
0.090286
-0.000483596
0.0898836
-0.000826319
0.0893576
-0.00121261
0.0886509
-0.001681
0.0876837
-0.00226179
0.0863506
-0.00297576
0.0845271
-0.00382549
-0.00477432
0.0820934
0.0748414
0.000163593
0.0745926
7.43742e-05
0.0742818
-0.000172233
0.0738613
-0.00040563
0.073289
-0.000640612
0.0725155
-0.000907905
0.0714773
-0.00122388
0.0700991
-0.00159756
0.0683015
-0.0020278
-0.00249382
0.066021
0.0508807
0.000282958
0.0507922
0.000163432
0.0506167
3.46626e-06
0.0503116
-0.000100603
0.0498578
-0.000187136
0.0492262
-0.000276784
0.0483792
-0.000377206
0.0472727
-0.000491244
0.0458633
-0.000618579
-0.00075325
0.0441225
0.019283
0.0194465
0.01945
0.0193493
0.0191621
0.0188853
0.018508
0.0180168
0.0173982
0.0166448
-0.000133107
0.000133199
-0.000361035
0.000228028
-0.000544134
0.000183197
-0.000600745
5.67693e-05
-0.000503207
-9.73001e-05
-0.000257994
-0.000244867
0.000109496
-0.000367043
0.000565994
-0.000455939
0.0010773
-0.000510669
0.00161235
-0.000534366
0.00214522
-0.000532181
0.00265581
-0.00050993
0.00312971
-0.000473308
0.00355761
-0.000427418
0.00393453
-0.000376549
0.00425888
-0.000324127
0.0045317
-0.000272725
0.00475583
-0.000224182
0.00493534
-0.000179687
0.00507499
-0.000139935
0.00517983
-0.000105204
0.00525489
-7.55001e-05
0.00530501
-5.06026e-05
0.00533469
-3.01754e-05
0.00534797
-1.37832e-05
0.00534847
-9.70526e-07
0.00533929
8.74155e-06
0.00532309
1.58052e-05
0.0053021
2.06574e-05
0.00527814
2.36896e-05
0.00525267
2.52612e-05
0.00522684
2.56846e-05
0.00520152
2.52354e-05
0.00517734
2.41481e-05
2.26221e-05
0.00515473
-0.000256414
0.000389743
-0.000631532
0.000603424
-0.000859624
0.000411625
-0.000795833
-6.59059e-06
-0.000393406
-0.000499091
0.000327951
-0.000965365
0.00131119
-0.0013492
0.0024834
-0.0016269
0.00377011
-0.00179599
0.0051036
-0.00186641
0.00642706
-0.00185421
0.00769605
-0.00177758
0.00887825
-0.00165434
0.00995231
-0.00150052
0.0109062
-0.00132973
0.0117354
-0.00115296
0.0124414
-0.000978605
0.0130299
-0.000812769
0.0135094
-0.000659574
0.0138904
-0.000521509
0.0141842
-0.000399779
0.0144024
-0.000294608
0.0145563
-0.000205514
0.0146567
-0.000131528
0.0147133
-7.13729e-05
0.0147349
-2.36035e-05
0.0147295
1.32895e-05
0.0147037
4.08054e-05
0.0146633
6.03808e-05
0.014613
7.33537e-05
0.0145569
8.09465e-05
0.014498
8.4252e-05
0.0144389
8.4236e-05
0.0143812
8.17346e-05
7.74662e-05
0.0143264
-0.000280241
0.000670033
-0.000607355
0.000930718
-0.000660088
0.00046447
-0.000288563
-0.000377824
0.000536074
-0.00132327
0.00176703
-0.00219572
0.0033185
-0.00289994
0.00509118
-0.00339873
0.00698811
-0.003692
0.00892341
-0.00380074
0.0108262
-0.00375605
0.0126416
-0.00359209
0.01433
-0.00334188
0.0158652
-0.00303506
0.0172327
-0.00269672
0.0184273
-0.0023472
0.019451
-0.00200218
0.0203114
-0.00167317
0.0210198
-0.00136808
0.0215898
-0.00109182
0.0220365
-0.000846899
0.0223754
-0.000633995
0.0226217
-0.000452402
0.02279
-0.000300459
0.0228938
-0.000175865
0.0229455
-7.59523e-05
0.022956
2.12188e-06
0.0229351
6.12197e-05
0.0228908
0.000104121
0.0228302
0.000133445
0.0227592
0.000151608
0.0226824
0.000160792
0.0226034
0.000162941
0.0225253
0.000159754
0.000152698
0.02245
-0.000243588
0.00091365
-0.000379759
0.0010669
-7.56377e-05
0.000160617
0.000776017
-0.00122927
0.00214869
-0.00269568
0.00394912
-0.00399571
0.00605933
-0.00500961
0.00836078
-0.00569959
0.0107468
-0.00607742
0.0131281
-0.00618138
0.0154339
-0.00606116
0.0176112
-0.00576874
0.019623
-0.00535309
0.0214461
-0.00485756
0.0230684
-0.00431864
0.0244873
-0.00376576
0.0257071
-0.00322171
0.0267373
-0.00270324
0.0275912
-0.00222196
0.0282844
-0.00178514
0.028834
-0.00139661
0.0292572
-0.00105746
0.0295712
-0.000766786
0.0297926
-0.000522198
0.0299366
-0.000320339
0.0300175
-0.000157246
0.0300478
-2.86546e-05
0.0300388
6.97795e-05
0.0300002
0.000142309
0.0299403
0.000192979
0.029866
0.00022555
0.029783
0.00024345
0.029696
0.000249749
0.0296084
0.000247154
0.000238014
0.0295229
-0.000157689
0.00107145
4.78708e-05
0.000861792
0.000909728
-0.00070106
0.00242971
-0.00274889
0.0044846
-0.00475011
0.00691813
-0.00642879
0.00958074
-0.00767173
0.0123444
-0.00846276
0.0151065
-0.00883893
0.0177883
-0.00886253
0.020332
-0.00860424
0.0226975
-0.00813363
0.0248592
-0.00751423
0.0268032
-0.00680111
0.0285251
-0.00604011
0.0300277
-0.00526797
0.0313192
-0.00451296
0.032412
-0.00379586
0.0333212
-0.00313102
0.0340635
-0.00252741
0.0346565
-0.00198971
0.0351181
-0.0015192
0.0354656
-0.00111458
0.0357159
-0.000772724
0.0358844
-0.000489198
0.0359856
-0.000258782
0.0360324
-7.58253e-05
0.0360364
6.54522e-05
0.0360076
0.000170748
0.0359547
0.000245515
0.035885
0.000294854
0.0358047
0.000323446
0.0357187
0.00033551
0.0356309
0.000334788
0.000324551
0.0355442
1.38967e-05
0.00105773
0.000783853
9.10525e-05
0.00246953
-0.00238641
0.00487379
-0.00515298
0.00773737
-0.00761353
0.0108394
-0.00953046
0.0140134
-0.0108453
0.0171412
-0.0115901
0.0201422
-0.0118394
0.0229634
-0.0116832
0.0255721
-0.0112123
0.0279499
-0.0105109
0.0300894
-0.00965324
0.0319911
-0.00870227
0.0336611
-0.00770966
0.0351098
-0.00671639
0.0363509
-0.00575371
0.0373996
-0.00484439
0.0382726
-0.00400399
0.0389873
-0.00324206
0.0395609
-0.00256336
0.0400104
-0.00196884
0.0403523
-0.00145658
0.0406019
-0.00102258
0.0407738
-0.000661338
0.0408812
-0.000366474
0.0409361
-0.000131081
0.0409493
5.19123e-05
0.0409302
0.000189491
0.040887
0.000288368
0.0408267
0.000354854
0.0407551
0.000394768
0.040677
0.000413383
0.0405962
0.000415404
0.000404959
0.0405156
0.000387333
0.00066916
0.00211464
-0.00163608
0.00499424
-0.0052674
0.00850552
-0.0086648
0.0122461
-0.0113542
0.0159679
-0.0132522
0.0195286
-0.0144059
0.0228522
-0.0149134
0.0259026
-0.0148894
0.0286674
-0.0144475
0.0311477
-0.0136922
0.033353
-0.0127158
0.0352972
-0.011597
0.036997
-0.0104017
0.0384703
-0.00918268
0.0397358
-0.00798157
0.0408118
-0.00682959
0.0417167
-0.00574915
0.0424681
-0.00475522
0.0430826
-0.00385662
0.0435765
-0.00305727
0.0439648
-0.0023572
0.0442616
-0.00175355
0.0444801
-0.00124129
0.0446325
-0.000813917
0.0447297
-0.000463991
0.0447819
-0.000183547
0.044798
3.55437e-05
0.0447859
0.000201312
0.0447525
0.000321486
0.0447038
0.000403355
0.0446446
0.000453664
0.0445793
0.000478552
0.044511
0.00048352
0.00047342
0.0444423
0.00123484
-0.000565091
0.00466749
-0.00507239
0.00921086
-0.00981206
0.0139496
-0.0134043
0.0184623
-0.0158674
0.0225841
-0.0173743
0.0262666
-0.0180885
0.0295144
-0.0181612
0.0323553
-0.0177301
0.0348253
-0.0169173
0.0369624
-0.0158291
0.0388034
-0.0145565
0.0403824
-0.0131758
0.0417306
-0.0117497
0.0428761
-0.0103279
0.0438437
-0.00894901
0.0446555
-0.0076413
0.0453311
-0.00642466
0.0458876
-0.00531175
0.0463405
-0.00430946
0.0467031
-0.00342
0.0469878
-0.00264199
0.0472055
-0.00197131
0.0473659
-0.00140187
0.047478
-0.0009262
0.0475498
-0.000535987
0.0475886
-0.000222456
0.0476006
2.32922e-05
0.0475917
0.000210023
0.0475668
0.00034617
0.0475303
0.000439698
0.0474858
0.000497997
0.0474363
0.000527815
0.0473845
0.000535219
0.000525579
0.0473322
0.0035281
-0.0040953
0.00996241
-0.0115084
0.0163817
-0.0162329
0.0220332
-0.0190571
0.0268363
-0.0206712
0.0308649
-0.0214033
0.0342233
-0.0214472
0.0370128
-0.0209508
0.0393228
-0.0200402
0.0412307
-0.0188251
0.0428024
-0.0174007
0.0440943
-0.0158482
0.0451541
-0.0142355
0.0460221
-0.0126176
0.0467319
-0.0110376
0.0473111
-0.0095282
0.0477826
-0.00811281
0.048165
-0.00680701
0.0484732
-0.00562002
0.0487195
-0.00455585
0.0489139
-0.00361448
0.0490646
-0.00279276
0.0491784
-0.00208521
0.0492611
-0.00148468
0.0493177
-0.000982921
0.0493526
-0.000570969
0.0493696
-0.00023954
0.0493721
2.06997e-05
0.0493631
0.000218899
0.0493453
0.000363844
0.0493211
0.000463833
0.0492924
0.000526578
0.049261
0.000559135
0.0492283
0.000567865
0.000558415
0.0491954
0.0123635
-0.0164596
0.0215478
-0.0206945
0.028305
-0.022992
0.0334875
-0.0242404
0.0375146
-0.0246989
0.0406546
-0.0245439
0.0430975
-0.0238906
0.0449851
-0.0228387
0.0464283
-0.0214835
0.047517
-0.0199138
0.0483255
-0.0182091
0.0489152
-0.0164379
0.0493369
-0.0146573
0.0496321
-0.0129127
0.0498336
-0.0112392
0.0499675
-0.00966215
0.0500536
-0.00819901
0.0501068
-0.00686034
0.050138
-0.00565129
0.0501547
-0.00457268
0.0501622
-0.00362206
0.0501638
-0.00279448
0.0501618
-0.00208319
0.0501572
-0.00148019
0.050151
-0.000976675
0.0501433
-0.000563356
0.0501346
-0.000230786
0.0501248
3.04387e-05
0.0501142
0.000229476
0.050103
0.000375097
0.0500912
0.000475578
0.0500792
0.000538611
0.0500671
0.000571248
0.0500551
0.000579855
0.000570098
0.0500434
0.0388519
-0.0192604
0.0422433
-0.0240877
0.0452673
-0.0260164
0.0477625
-0.0267359
0.0497168
-0.0266536
0.0511576
-0.0259851
0.0521478
-0.0248811
0.0527631
-0.0234542
0.0530785
-0.021799
0.0531628
-0.0199982
0.0530769
-0.0181233
0.052873
-0.0162341
0.0525943
-0.0143786
0.0522751
-0.0125937
0.0519422
-0.0109064
0.0516151
-0.00933524
0.0513075
-0.00789158
0.0510281
-0.00658106
0.0507815
-0.00540491
0.0505697
-0.00436095
0.050392
-0.00344454
0.0502467
-0.00264921
0.0501307
-0.00196727
0.0500407
-0.00139019
0.0499731
-0.000908983
0.0499242
-0.000514416
0.0498907
-0.000197249
0.0498697
5.16118e-05
0.0498583
0.000240963
0.0498543
0.000379199
0.0498557
0.000474228
0.049861
0.000533398
0.0498689
0.00056345
0.0498783
0.000570476
0.000559908
0.0498886
0.0630218
-0.018821
0.0623884
-0.0234545
0.0620287
-0.025657
0.0617361
-0.0264435
0.0613775
-0.0262952
0.0608815
-0.0254894
0.0602278
-0.0242276
0.0594313
-0.0226578
0.0585251
-0.0208927
0.0575486
-0.0190217
0.0565412
-0.017116
0.0555381
-0.0152312
0.0545688
-0.0134094
0.0536558
-0.0116808
0.0528151
-0.010066
0.0520569
-0.0085773
0.0513862
-0.00722109
0.0508037
-0.00599881
0.050307
-0.00490844
0.0498914
-0.00394547
0.0495504
-0.00310362
0.0492766
-0.00237548
0.0490622
-0.00175288
0.0488993
-0.00122727
0.0487803
-0.000789879
0.048698
-0.000431947
0.0486457
-0.000144824
0.0486176
7.99068e-05
0.0486084
0.000250335
0.0486137
0.000374151
0.0486295
0.000458583
0.0486527
0.000510345
0.0486807
0.000535595
0.0487114
0.000539901
0.000528235
0.0487432
0.0801115
-0.0171471
0.0776567
-0.0209998
0.0751736
-0.0231735
0.0727939
-0.0240637
0.0705125
-0.0240139
0.0683028
-0.0232798
0.0661471
-0.0220719
0.064045
-0.0205557
0.0620097
-0.0188574
0.0600611
-0.0170731
0.0582204
-0.0152752
0.0565062
-0.0135171
0.054933
-0.0118363
0.0535098
-0.0102579
0.0522407
-0.00879711
0.051125
-0.00746188
0.0501581
-0.00625452
0.0493325
-0.00517348
0.0486384
-0.00421454
0.0480645
-0.00337173
0.0475987
-0.00263798
0.0472287
-0.00200558
0.0469424
-0.00146654
0.046728
-0.00101274
0.0465744
-0.000636134
0.0464714
-0.0003288
0.0464099
-8.30447e-05
0.0463815
0.000108555
0.046379
0.000253085
0.0463961
0.000357261
0.0464276
0.000427379
0.0464689
0.00046928
0.0465164
0.000488319
0.0465671
0.000489344
0.000476679
0.0466188
0.0898759
-0.0147659
0.0865821
-0.0177053
0.0829635
-0.0195546
0.0792955
-0.0203956
0.0757014
-0.0204196
0.0722401
-0.0198183
0.0689412
-0.0187727
0.0658239
-0.0174382
0.0629048
-0.0159381
0.060198
-0.0143662
0.0577144
-0.0127916
0.0554605
-0.0112632
0.0534378
-0.0098137
0.0516432
-0.00846352
0.0500696
-0.0072237
0.048706
-0.0060986
0.0475391
-0.00508794
0.0465538
-0.00418838
0.0457336
-0.00339461
0.0450619
-0.00270019
0.0445218
-0.0020981
0.0440973
-0.00158107
0.0437726
-0.00114185
0.0435333
-0.000773287
0.0433657
-0.000468419
0.0432577
-0.000220529
0.0431981
-2.31512e-05
0.043177
0.000129888
0.043186
0.000244461
0.0432174
0.000326106
0.0432651
0.000380011
0.0433236
0.000410979
0.0433888
0.000423415
0.043457
0.0004213
0.000408193
0.0435256
0.0926822
-0.0119194
0.0889891
-0.0140115
0.0848399
-0.0154048
0.0805151
-0.0160702
0.0761968
-0.0161008
0.0720044
-0.0156254
0.0680138
-0.0147817
0.0642729
-0.0136967
0.0608109
-0.0124757
0.0576446
-0.0111995
0.0547806
-0.00992743
0.0522178
-0.00870025
0.0499484
-0.00754436
0.0479599
-0.00647511
0.046236
-0.00549993
0.0447578
-0.00462068
0.0435052
-0.00383558
0.0424571
-0.00314057
0.0415926
-0.00253031
0.040891
-0.0019988
0.0403326
-0.00153982
0.0398986
-0.00114715
0.0395716
-0.000814782
0.0393353
-0.000536883
0.039175
-0.00030791
0.0390772
-0.000122555
0.0390301
2.42181e-05
0.0390231
0.000137206
0.0390469
0.000220933
0.0390937
0.000279669
0.0391566
0.000317394
0.03923
0.000337799
0.0393094
0.000344258
0.0393911
0.000339828
0.000327234
0.0394722
0.0889326
-0.00882011
0.0851153
-0.0101934
0.080836
-0.0111246
0.0763332
-0.0115667
0.0717969
-0.0115637
0.0673701
-0.0111979
0.063154
-0.0105649
0.0592149
-0.00975694
0.0555923
-0.00885254
0.0523059
-0.00791273
0.0493605
-0.0069817
0.0467499
-0.0060895
0.0444603
-0.00525477
0.042473
-0.00448778
0.0407657
-0.00379273
0.0393147
-0.00316986
0.0380957
-0.00261678
0.0370846
-0.0021297
0.0362582
-0.00170401
0.0355941
-0.00133486
0.0350715
-0.00101734
0.0346711
-0.000746757
0.034375
-0.000518588
0.0341669
-0.000328596
0.0340319
-0.000172751
0.0339569
-4.72816e-05
0.03393
5.13993e-05
0.0339408
0.000126659
0.0339804
0.000181689
0.0340409
0.000219473
0.0341157
0.000242805
0.0341995
0.000254259
0.0342878
0.000256202
0.0343771
0.000250763
0.000239852
0.0344646
0.078997
-0.00572329
0.0753254
-0.00652117
0.0712565
-0.00705518
0.0669826
-0.00729233
0.062675
-0.00725564
0.0584724
-0.00699486
0.0544778
-0.00656985
0.0507603
-0.00603908
0.0473607
-0.00545263
0.0442975
-0.00484926
0.0415727
-0.00425678
0.0391768
-0.00369354
0.0370926
-0.00317057
0.0352982
-0.0026934
0.0337693
-0.00226384
0.0324805
-0.00188119
0.031407
-0.00154332
0.0305245
-0.00124725
0.0298103
-0.000989717
0.0292428
-0.000767324
0.0288024
-0.00057684
0.0284711
-0.000415149
0.0282321
-0.000279385
0.0280707
-0.000166841
0.0279733
-7.50252e-05
0.027928
-1.58167e-06
0.0279241
5.56806e-05
0.0279524
9.8838e-05
0.0280046
0.000129832
0.0280739
0.000150492
0.0281545
0.000162514
0.0282416
0.000167475
0.0283312
0.000166809
0.0284202
0.000161822
0.000153666
0.0285065
0.0632445
-0.00294678
0.0600412
-0.00331792
0.0565419
-0.00355586
0.0528955
-0.00364607
0.0492412
-0.00360142
0.0456945
-0.00344824
0.0423419
-0.00321731
0.0392409
-0.00293828
0.0364242
-0.00263609
0.0339045
-0.00232976
0.03168
-0.00203254
0.0297391
-0.00175289
0.028064
-0.00149558
0.0266331
-0.00126271
0.0254238
-0.00105459
0.024413
-0.000870413
0.0235785
-0.000708733
0.0228993
-0.000567818
0.0223557
-0.000445823
0.0219298
-0.000340964
0.021605
-0.000251535
0.0213664
-0.00017597
0.0212006
-0.000112822
0.0210952
-6.07653e-05
0.0210395
-1.85765e-05
0.0210238
1.48813e-05
0.0210395
4.06688e-05
0.0210792
5.97848e-05
0.0211364
7.31629e-05
0.0212057
8.16825e-05
0.0212824
8.61588e-05
0.0213628
8.73495e-05
0.0214439
8.59446e-05
0.0215232
8.25687e-05
7.77771e-05
0.0215991
0.0420562
-0.000880776
0.0397191
-0.00098119
0.0372029
-0.00104018
0.0346114
-0.00105495
0.0320403
-0.00103081
0.0295683
-0.000976643
0.0272525
-0.000902011
0.0251295
-0.000815775
0.023218
-0.000725039
0.0215229
-0.00063505
0.0200392
-0.000549231
0.0187556
-0.000469671
0.0176571
-0.000397363
0.0167269
-0.000332646
0.0159476
-0.000275343
0.0153023
-0.000225063
0.014775
-0.000181234
0.0143508
-0.000143289
0.0140161
-0.000110621
0.0137584
-8.27057e-05
0.0135666
-5.90216e-05
0.0134305
-3.91375e-05
0.0133411
-2.26262e-05
0.0132903
-9.13736e-06
0.0132709
1.68503e-06
0.0132765
1.01366e-05
0.0133013
1.65262e-05
0.0133407
2.11129e-05
0.0133902
2.41698e-05
0.0134464
2.59257e-05
0.0135063
2.66205e-05
0.0135674
2.6451e-05
0.0136278
2.56208e-05
0.0136861
2.42907e-05
2.26244e-05
0.0137412
0.015764
0.0147828
0.0137425
0.0126875
0.0116566
0.0106799
0.0097778
0.00896195
0.00823685
0.00760174
0.00705246
0.00658274
0.00618535
0.00585269
0.00557735
0.0053523
0.0051711
0.00502787
0.00491732
0.00483469
0.00477577
0.00473673
0.00471421
0.00470518
0.00470697
0.0047172
0.00473382
0.00475501
0.00477924
0.00480521
0.00483187
0.00485833
0.00488396
0.00490824
0.00493085
0.00513397
2.08235e-05
0.00511516
1.88882e-05
0.00509835
1.69264e-05
0.00508345
1.50245e-05
0.00507034
1.32504e-05
0.00505882
1.16546e-05
0.00504868
1.02751e-05
0.00503967
9.13947e-06
0.00503153
8.26739e-06
7.67462e-06
0.00502397
0.0142752
7.20334e-05
0.0142283
6.59398e-05
0.0141859
5.95933e-05
0.0141478
5.33246e-05
0.014114
4.73911e-05
0.0140839
4.19947e-05
0.0140572
3.72858e-05
0.0140332
3.338e-05
0.0140114
3.0362e-05
2.83e-05
0.013991
0.022379
0.000143018
0.0223132
0.000131758
0.0222531
0.000119774
0.0221988
0.00010776
0.0221501
9.62702e-05
0.0221065
8.57341e-05
0.0220675
7.64841e-05
0.0220322
6.87731e-05
0.022
6.27946e-05
5.87018e-05
0.0219698
0.0294415
0.000224341
0.0293654
0.000207827
0.0292953
0.000189873
0.0292315
0.000171623
0.0291738
0.000153994
0.0291219
0.000137706
0.0290752
0.000123322
0.0290328
0.000111274
0.0289938
0.000101897
9.5459e-05
0.0289572
0.0354608
0.000307611
0.0353822
0.000286348
0.0353092
0.00026275
0.0352424
0.000238445
0.0351817
0.000214746
0.0351268
0.000192698
0.035077
0.000173119
0.0350317
0.000156644
0.0349899
0.000143772
0.000134904
0.0349506
0.0404375
0.00038562
0.0403633
0.000360428
0.0402941
0.00033193
0.0402303
0.000302228
0.040172
0.000273028
0.040119
0.000245694
0.0400709
0.0002213
0.0400269
0.000200692
0.0399862
0.000184533
0.000173362
0.0399479
0.0443754
0.000452463
0.0443115
0.000424256
0.0442515
0.000391831
0.044196
0.000357705
0.0441451
0.000323928
0.0440987
0.000292148
0.0440564
0.000263674
0.0440176
0.000239538
0.0439816
0.000220558
0.0002074
0.0439476
0.047281
0.000503578
0.047232
0.000473237
0.0471858
0.000437955
0.047143
0.00040056
0.0471035
0.000363367
0.0470674
0.000328246
0.0470344
0.000296687
0.0470041
0.000269871
0.046976
0.000248741
0.000234066
0.0469494
0.0491632
0.000535727
0.0491323
0.000504055
0.0491033
0.000467007
0.0490762
0.000427594
0.0490513
0.000388293
0.0490284
0.000351105
0.0490075
0.000317636
0.0489882
0.000289159
0.0489703
0.000266696
0.000251085
0.0489533
0.0500322
0.000546946
0.0500215
0.000514688
0.0500116
0.000476969
0.0500023
0.000436842
0.0499938
0.000396817
0.049986
0.000358935
0.0499788
0.000324831
0.0499721
0.00029581
0.0499659
0.000272919
0.00025702
0.04996
0.049899
0.000536515
0.0499093
0.000504424
0.0499192
0.000467148
0.0499284
0.000427629
0.0499369
0.000388297
0.0499447
0.000351124
0.0499518
0.000317695
0.0499583
0.000289276
0.0499643
0.000266886
0.000251364
0.04997
0.0487748
0.000504965
0.0488054
0.000473874
0.0488344
0.000438187
0.0488614
0.000400607
0.0488863
0.000363365
0.0489092
0.000328276
0.04893
0.000296795
0.0489492
0.000270089
0.0489669
0.000249093
0.000234583
0.0489837
0.0466697
0.00045413
0.0467187
0.000424992
0.0467648
0.000392074
0.0468077
0.000357732
0.0468471
0.000323908
0.0468832
0.00029218
0.0469161
0.000263815
0.0469463
0.000239825
0.0469744
0.000221023
0.000208082
0.0470008
0.0435927
0.00038722
0.0436566
0.000361089
0.0437166
0.000332108
0.0437722
0.000302208
0.0438231
0.000272981
0.0438695
0.000245719
0.0439118
0.000221454
0.0439506
0.00020101
0.0439865
0.000185047
0.000174114
0.0440203
0.0395506
0.000308872
0.039625
0.000286813
0.0396943
0.000262823
0.0397582
0.000238374
0.0398164
0.00021468
0.0398694
0.000192717
0.0399175
0.00017327
0.0399615
0.000156955
0.0400022
0.000144272
0.000135629
0.0400406
0.0345484
0.000225133
0.0346272
0.000208057
0.0347002
0.000189844
0.0347671
0.000171522
0.0348278
0.000153921
0.0348827
0.000137723
0.0349325
0.000123453
0.0349778
0.000111543
0.0350196
0.000102319
9.60685e-05
0.0350591
0.0285883
0.000143363
0.0286646
0.00013178
0.0287347
0.000119669
0.0287985
0.000107634
0.0288562
9.61882e-05
0.028908
8.57209e-05
0.0289548
7.65623e-05
0.0289972
6.89445e-05
0.0290363
6.30792e-05
5.91099e-05
0.0290732
0.0216703
7.20544e-05
0.0217362
6.58199e-05
0.0217962
5.94224e-05
0.0218505
5.31561e-05
0.0218991
4.72516e-05
0.0219427
4.19003e-05
0.0219818
3.72415e-05
0.022017
3.33937e-05
0.0220494
3.04372e-05
2.84503e-05
0.0220799
0.0137923
2.07437e-05
0.0138392
1.87724e-05
0.0138815
1.6794e-05
0.0139195
1.4896e-05
0.0139533
1.3129e-05
0.0139834
1.15508e-05
0.0140101
1.01866e-05
0.0140342
9.07463e-06
0.0140561
8.22335e-06
7.66104e-06
0.0140767
0.00495157
0.00497031
0.00498707
0.00500193
0.00501502
0.00502653
0.00503668
0.00504572
0.00505391
0.00506154
0.0050167
7.37269e-06
0.00500941
7.3752e-06
0.00500179
7.69461e-06
0.0049935
8.35068e-06
0.00498419
9.36462e-06
0.00497346
1.07698e-05
0.00496089
1.26036e-05
0.004946
1.49203e-05
0.00492824
1.77804e-05
0.00490699
2.12669e-05
0.00488153
2.54719e-05
0.00485102
3.05153e-05
0.0048145
3.65309e-05
0.00477082
4.36871e-05
0.00471865
5.21719e-05
0.00465643
6.2218e-05
0.00458235
7.40872e-05
0.00449425
8.8099e-05
0.00438964
0.000104617
0.00426556
0.000124079
0.00411858
0.000146974
0.00394472
0.000173861
0.0037394
0.000205304
0.00349758
0.000241793
0.00321403
0.000283525
0.00288395
0.000330032
0.00250436
0.000379524
0.00207634
0.000427931
0.00160849
0.000467737
0.00112142
0.000486911
0.000652255
0.000469009
0.000256094
0.000395979
-9.30357e-07
0.000256913
-7.05165e-05
6.947e-05
-7.05308e-05
0.0139713
2.7249e-05
0.0139516
2.72646e-05
0.0139311
2.84045e-05
0.0139088
3.07421e-05
0.0138839
3.4367e-05
0.0138554
3.93982e-05
0.0138221
4.59842e-05
0.0137828
5.43172e-05
0.013736
6.46326e-05
0.01368
7.7225e-05
0.0136131
9.24485e-05
0.0135329
0.000110735
0.0134369
0.000132595
0.0133219
0.000158641
0.0131845
0.000189594
0.0130205
0.000226306
0.0128248
0.000269773
0.0125917
0.000321168
0.0123145
0.000381847
0.0119852
0.000453381
0.0115947
0.000537529
0.0111324
0.00063619
0.0105865
0.00075122
0.00994422
0.000884068
0.0091927
0.00103503
0.00832069
0.001202
0.00732175
0.0013784
0.00619927
0.00155029
0.00497389
0.00169292
0.00369257
0.00176795
0.00243695
0.00172425
0.00132546
0.00150724
0.000497537
0.00108452
6.46605e-05
0.000502406
-5.8537e-06
0.0219405
5.66242e-05
0.0219113
5.66858e-05
0.0218808
5.90192e-05
0.0218478
6.37821e-05
0.0218111
7.11701e-05
0.0217692
8.1433e-05
0.0217203
9.48874e-05
0.0216628
0.000111933
0.0215944
0.000133066
0.0215128
0.000158901
0.0214151
0.000190183
0.021298
0.000227815
0.0211578
0.000272876
0.0209898
0.000326654
0.0207887
0.000390676
0.0205483
0.000466741
0.0202612
0.000556966
0.0199185
0.000663825
0.0195102
0.000790187
0.0190243
0.000939339
0.018447
0.00111495
0.0177623
0.00132093
0.0169526
0.00156107
0.0159984
0.00183832
0.0148802
0.00215334
0.0135802
0.00250216
0.0120863
0.00287233
0.0103991
0.00323756
0.00854074
0.00355129
0.00656741
0.00374118
0.00458215
0.00370941
0.00274175
0.00334743
0.00124741
0.00257922
0.000299152
0.0014508
0.000293348
0.0289217
9.21881e-05
0.0288862
9.23005e-05
0.0288493
9.60256e-05
0.0288096
0.00010363
0.0287654
0.000115442
0.028715
0.000131876
0.0286565
0.000153454
0.0285877
0.000180833
0.0285059
0.000214829
0.0284084
0.000256449
0.0282917
0.000306922
0.0281518
0.000367731
0.0279841
0.000440663
0.0277829
0.000527849
0.0275418
0.00063182
0.027253
0.000755573
0.0269073
0.000902633
0.0264941
0.00107713
0.0260004
0.00128385
0.0254115
0.0015283
0.02471
0.00181661
0.0238756
0.00215537
0.0228857
0.00255109
0.0217151
0.00300914
0.0203369
0.00353166
0.0187252
0.0041141
0.0168581
0.00473959
0.0147251
0.00537079
0.012337
0.00593943
0.0097421
0.00633605
0.00704548
0.00640594
0.00443016
0.00596307
0.00216642
0.00484287
0.000589303
0.00302846
0.0008827
0.0349125
0.000130382
0.0348744
0.000130531
0.0348348
0.000135689
0.0347922
0.000146247
0.0347451
0.000162682
0.0346914
0.000185588
0.0346292
0.000215713
0.0345561
0.000253997
0.0344694
0.000301605
0.0343659
0.000359977
0.0342419
0.000430869
0.0340933
0.000516412
0.0339148
0.000619172
0.0337004
0.000742221
0.033443
0.00088922
0.0331341
0.00106451
0.0327635
0.00127322
0.0323193
0.00152137
0.0317872
0.00181597
0.0311504
0.0021651
0.0303892
0.00257788
0.0294804
0.00306423
0.0283973
0.00363432
0.0271093
0.00429724
0.0255825
0.00505855
0.0237808
0.00591594
0.0216686
0.00685203
0.0192161
0.00782336
0.0164104
0.00874513
0.0132731
0.00947324
0.00989011
0.00978892
0.00645241
0.00940029
0.00330433
0.00799152
0.000958687
0.00537421
0.00184141
0.0399107
0.000167642
0.0398735
0.000167808
0.0398349
0.000174314
0.0397936
0.000187677
0.0397478
0.000208521
0.0396958
0.000237626
0.0396356
0.000275965
0.0395649
0.000324758
0.039481
0.000385525
0.0393808
0.000460137
0.0392608
0.000550886
0.0391167
0.000660555
0.0389433
0.000792507
0.0387348
0.000950776
0.0384838
0.00114019
0.0381818
0.00136648
0.0378186
0.00163646
0.0373818
0.00195815
0.0368568
0.00234094
0.0362262
0.00279575
0.035469
0.00333502
0.0345607
0.00397261
0.0334718
0.00472324
0.0321678
0.00560123
0.0306085
0.00661798
0.0287473
0.00777724
0.0265324
0.00906702
0.0239095
0.0104462
0.0208302
0.0118244
0.0172697
0.0130334
0.0132645
0.0137936
0.0089794
0.0136857
0.00480936
0.0121613
0.00148408
0.00870036
0.00332576
0.0439147
0.00020064
0.0438817
0.000200815
0.0438476
0.000208488
0.0438111
0.000224291
0.0437707
0.000248989
0.0437248
0.000283527
0.0436717
0.000329087
0.0436093
0.00038715
0.0435353
0.000459557
0.0434469
0.000548582
0.0433408
0.000657014
0.0432131
0.000788248
0.0430592
0.000946392
0.0428736
0.00113639
0.0426495
0.00136419
0.0423791
0.00163686
0.0420527
0.00196284
0.0416587
0.00235212
0.0411832
0.00281648
0.0406092
0.00336968
0.0399165
0.00402769
0.0390806
0.00480859
0.0380715
0.00573235
0.0368529
0.00681977
0.0353806
0.00809035
0.0335999
0.00955792
0.0314444
0.0112226
0.0288338
0.0130567
0.0256773
0.0149806
0.0218854
0.0168249
0.0174063
0.0182729
0.0123102
0.0187815
0.00696836
0.0175053
0.00232681
0.013345
0.00565305
0.0469236
0.000226512
0.0468977
0.000226705
0.046871
0.000235292
0.0468423
0.000253006
0.0468106
0.000280724
0.0467746
0.00031953
0.046733
0.000370779
0.046684
0.000436168
0.0466257
0.00051781
0.046556
0.000618315
0.0464721
0.000740891
0.0463709
0.000889454
0.0462485
0.00106875
0.0461004
0.00128453
0.0459209
0.00154368
0.0457032
0.00185448
0.0454392
0.00222681
0.0451189
0.00267244
0.04473
0.00320531
0.0442578
0.00384187
0.0436841
0.0046014
0.0429865
0.00550618
0.0421373
0.00658151
0.0411018
0.00785523
0.0398359
0.00935624
0.0382825
0.0111113
0.0363668
0.0131383
0.0339898
0.0154336
0.0310218
0.0179484
0.0273007
0.0205459
0.0226482
0.0229251
0.0169417
0.0244899
0.0103279
0.0241223
0.00380221
0.0198745
0.00945581
0.0489368
0.000243053
0.0489202
0.000243283
0.0489031
0.000252484
0.0488847
0.000271455
0.0488642
0.000301153
0.048841
0.000342761
0.0488141
0.000397758
0.0487823
0.000467994
0.0487443
0.000555776
0.0486987
0.000663963
0.0486435
0.000796071
0.0485765
0.000956404
0.0484951
0.0011502
0.0483958
0.00138379
0.0482747
0.00166482
0.0481266
0.00200251
0.0479455
0.00240787
0.0477239
0.00289409
0.0474523
0.00347689
0.0471192
0.00417493
0.0467103
0.00501026
0.0462077
0.00600874
0.0455888
0.00720039
0.0448246
0.00861941
0.0438771
0.0103037
0.0426954
0.012293
0.0412089
0.0146248
0.0393174
0.0173249
0.036876
0.0203895
0.0336735
0.0237478
0.0294109
0.027188
0.0236951
0.0302068
0.016135
0.0316856
0.00694267
0.0290703
0.0163984
0.0499542
0.000248863
0.0499483
0.000249156
0.0499421
0.000258634
0.0499355
0.000278127
0.049928
0.000308632
0.0499194
0.000351378
0.0499093
0.000407907
0.0498971
0.000480149
0.0498824
0.000570515
0.0498643
0.000681996
0.0498421
0.000818284
0.0498146
0.0009839
0.0497805
0.00118436
0.0497379
0.00142637
0.0496846
0.00171804
0.049618
0.00206915
0.0495344
0.00249147
0.0494294
0.0029991
0.0492973
0.00360895
0.0491311
0.00434115
0.0489217
0.00521964
0.0486577
0.00627274
0.0483244
0.00753369
0.0479026
0.00904115
0.047367
0.0108393
0.0466826
0.0129774
0.0457998
0.0155075
0.0446453
0.0184792
0.0431067
0.0219278
0.041005
0.0258491
0.0380479
0.0301453
0.0337472
0.0345084
0.0272688
0.0381658
0.0169885
0.0393495
0.0333865
0.0499754
0.000243443
0.0499807
0.00024382
0.0499861
0.000253217
0.0499917
0.000272458
0.0499978
0.000302531
0.0500045
0.000344659
0.0500121
0.000400378
0.0500206
0.000471616
0.0500303
0.000560785
0.0500414
0.000670885
0.0500541
0.000805622
0.0500685
0.000969552
0.0500846
0.00116825
0.0501025
0.00140849
0.050122
0.00169853
0.0501428
0.0020483
0.0501645