/*--------------------------------*- C++ -*----------------------------------*\
| =========                 |                                                 |
| \\      /  F ield         | OpenFOAM: The Open Source CFD Toolbox           |
|  \\    /   O peration     | Version:  2406                                  |
|   \\  /    A nd           | Website:  www.openfoam.com                      |
|    \\/     M anipulation  |                                                 |
\*---------------------------------------------------------------------------*/
FoamFile
{
    version     2.0;
    format      ascii;
    arch        "LSB;label=32;scalar=64";
    class       volVectorField;
    location    "24";
    object      U;
}
// * * * * * * * * * * * * * * * * * * * * * * * * * * * * * * * * * * * * * //

dimensions      [0 1 -1 0 0 0 0];

internalField   nonuniform List<vector> 
1800
(
(0.186791 -0.00116057 0)
(0.194604 -0.00086542 0)
(0.198162 -0.000777095 0)
(0.200814 -0.000841919 0)
(0.204228 -0.00108078 0)
(0.209018 -0.00167025 0)
(0.216236 -0.00297831 0)
(0.228476 -0.00609496 0)
(0.254218 -0.0173364 0)
(0.29605 -0.0680759 0)
(0.50259 -0.0035859 0)
(0.510204 -0.00510721 0)
(0.514875 -0.00508235 0)
(0.518873 -0.00584084 0)
(0.52471 -0.00766359 0)
(0.532976 -0.0110997 0)
(0.544699 -0.0175041 0)
(0.562002 -0.0296406 0)
(0.588496 -0.0539402 0)
(0.619662 -0.10685 0)
(0.742817 -0.00339951 0)
(0.749132 -0.00671687 0)
(0.752922 -0.00858619 0)
(0.756018 -0.0110042 0)
(0.761116 -0.0148092 0)
(0.768471 -0.0209065 0)
(0.778298 -0.0309029 0)
(0.791006 -0.0475273 0)
(0.806234 -0.0754543 0)
(0.818237 -0.121761 0)
(0.903159 -0.00300838 0)
(0.908522 -0.00730955 0)
(0.911013 -0.0107089 0)
(0.912142 -0.0146077 0)
(0.914701 -0.0199485 0)
(0.91865 -0.0277166 0)
(0.923487 -0.0393362 0)
(0.92854 -0.0567911 0)
(0.932129 -0.0825841 0)
(0.929739 -0.118768 0)
(0.983279 -0.0025627 0)
(0.987837 -0.0069224 0)
(0.988927 -0.0109928 0)
(0.98783 -0.0156119 0)
(0.987331 -0.0215467 0)
(0.987198 -0.0296431 0)
(0.986532 -0.0409501 0)
(0.984248 -0.0566744 0)
(0.978555 -0.0779182 0)
(0.966333 -0.104857 0)
(0.983204 -0.00181785 0)
(0.987097 -0.00548431 0)
(0.986909 -0.00946326 0)
(0.983882 -0.0140166 0)
(0.980723 -0.0196188 0)
(0.977052 -0.0269002 0)
(0.971826 -0.036538 0)
(0.963919 -0.0491746 0)
(0.951827 -0.065187 0)
(0.933503 -0.0841878 0)
(0.90295 -0.000657092 0)
(0.906479 -0.00312935 0)
(0.905448 -0.00655307 0)
(0.901257 -0.010459 0)
(0.896444 -0.0150344 0)
(0.890506 -0.0207158 0)
(0.882419 -0.0278991 0)
(0.871201 -0.0368807 0)
(0.855723 -0.0477277 0)
(0.834694 -0.0600013 0)
(0.742528 0.000990109 0)
(0.746351 -0.000286005 0)
(0.74535 -0.00308489 0)
(0.741165 -0.00602943 0)
(0.736072 -0.00917273 0)
(0.729535 -0.0128504 0)
(0.720692 -0.0172871 0)
(0.708805 -0.0226075 0)
(0.693106 -0.0287917 0)
(0.672836 -0.0355398 0)
(0.502346 0.0025444 0)
(0.507708 0.00188972 0)
(0.507926 -0.000363938 0)
(0.505058 -0.0021654 0)
(0.50116 -0.00377142 0)
(0.495854 -0.00548284 0)
(0.488591 -0.00742131 0)
(0.478934 -0.00964551 0)
(0.466446 -0.0121455 0)
(0.450736 -0.014794 0)
(0.186737 0.0010488 0)
(0.193579 0.00045224 0)
(0.194979 8.82064e-05 0)
(0.194219 -0.000155843 0)
(0.192716 -0.000373637 0)
(0.190433 -0.000579832 0)
(0.187202 -0.000798664 0)
(0.182893 -0.00103387 0)
(0.177369 -0.00128151 0)
(0.170514 -0.00152985 0)
(-0.000479704 0.000468932 0)
(-0.00252837 0.000746568 0)
(-0.00471009 0.000650544 0)
(-0.00601789 0.00035836 0)
(-0.00584 1.40163e-05 0)
(-0.00409253 -0.000310213 0)
(-0.00096624 -0.00057479 0)
(0.00322555 -0.000764239 0)
(0.00813403 -0.000878737 0)
(0.0134268 -0.000927238 0)
(0.0188159 -0.000922283 0)
(0.0240706 -0.000877388 0)
(0.029019 -0.000805143 0)
(0.033544 -0.000716576 0)
(0.0375758 -0.000620498 0)
(0.0410833 -0.000523728 0)
(0.0440654 -0.000430995 0)
(0.0465429 -0.000345494 0)
(0.0485517 -0.000268955 0)
(0.050137 -0.000202211 0)
(0.0513483 -0.000145256 0)
(0.0522369 -9.76964e-05 0)
(0.0528524 -5.87401e-05 0)
(0.0532418 -2.75263e-05 0)
(0.0534479 -3.05382e-06 0)
(0.0535091 1.55924e-05 0)
(0.053459 2.93402e-05 0)
(0.0533265 3.89812e-05 0)
(0.0531358 4.5273e-05 0)
(0.0529072 4.88356e-05 0)
(0.052657 5.02456e-05 0)
(0.0523981 4.99632e-05 0)
(0.0521405 4.84125e-05 0)
(0.0518917 4.59244e-05 0)
(0.0516569 4.28047e-05 0)
(-0.000850802 0.00257821 0)
(-0.00466397 0.00420862 0)
(-0.00799122 0.00326882 0)
(-0.00902576 0.0008407 0)
(-0.00672169 -0.00210525 0)
(-0.00100515 -0.00492884 0)
(0.00767576 -0.00727139 0)
(0.0186276 -0.00897962 0)
(0.0310885 -0.010034 0)
(0.0443343 -0.0104924 0)
(0.0577364 -0.0104522 0)
(0.0707877 -0.0100238 0)
(0.083106 -0.00931608 0)
(0.0944261 -0.00842667 0)
(0.104585 -0.00743824 0)
(0.113504 -0.00641684 0)
(0.121172 -0.00541273 0)
(0.127628 -0.00446182 0)
(0.132945 -0.00358791 0)
(0.137222 -0.00280492 0)
(0.140569 -0.00211902 0)
(0.143102 -0.00153066 0)
(0.144936 -0.00103617 0)
(0.146183 -0.000629162 0)
(0.146945 -0.000301562 0)
(0.147316 -4.45134e-05 0)
(0.14738 0.000151122 0)
(0.147209 0.000294241 0)
(0.146865 0.000393305 0)
(0.146401 0.000456081 0)
(0.145861 0.000489599 0)
(0.145279 0.000500088 0)
(0.144683 0.000492988 0)
(0.144095 0.00047299 0)
(0.14353 0.000444052 0)
(-0.000974741 0.00534527 0)
(-0.00494354 0.00797699 0)
(-0.00721344 0.00502892 0)
(-0.0058164 -0.000957239 0)
(0.000198066 -0.00790987 0)
(0.0106482 -0.0144529 0)
(0.0247912 -0.019818 0)
(0.0416506 -0.0236844 0)
(0.0602175 -0.0260235 0)
(0.0795645 -0.026977 0)
(0.0989034 -0.0267709 0)
(0.117606 -0.0256594 0)
(0.135202 -0.0238915 0)
(0.151368 -0.0216915 0)
(0.165904 -0.0192501 0)
(0.178718 -0.0167214 0)
(0.189798 -0.014224 0)
(0.199196 -0.0118446 0)
(0.20701 -0.00964205 0)
(0.213367 -0.00765254 0)
(0.218413 -0.00589407 0)
(0.222304 -0.00437081 0)
(0.225193 -0.00307673 0)
(0.227232 -0.00199877 0)
(0.228561 -0.00111932 0)
(0.229311 -0.000418238 0)
(0.229597 0.000125747 0)
(0.229523 0.000533838 0)
(0.229178 0.000826504 0)
(0.228638 0.00102288 0)
(0.227967 0.00114053 0)
(0.227218 0.0011952 0)
(0.226431 0.00120087 0)
(0.225639 0.00116969 0)
(0.224868 0.00111209 0)
(-0.0010165 0.00809922 0)
(-0.00403306 0.0106382 0)
(-0.00352208 0.00422285 0)
(0.00219226 -0.00664476 0)
(0.0134771 -0.0185835 0)
(0.0296113 -0.029459 0)
(0.0494578 -0.0381458 0)
(0.0717898 -0.0442269 0)
(0.0954621 -0.0477319 0)
(0.119489 -0.0489398 0)
(0.14307 -0.0482462 0)
(0.165591 -0.0460784 0)
(0.186608 -0.0428469 0)
(0.205824 -0.0389182 0)
(0.223067 -0.0346026 0)
(0.238271 -0.0301515 0)
(0.251448 -0.0257592 0)
(0.26267 -0.0215688 0)
(0.272055 -0.0176792 0)
(0.279751 -0.014152 0)
(0.285923 -0.0110196 0)
(0.290745 -0.00829105 0)
(0.29439 -0.00595854 0)
(0.297028 -0.0040019 0)
(0.298819 -0.00239288 0)
(0.29991 -0.00109835 0)
(0.300437 -8.28498e-05 0)
(0.300518 0.000689556 0)
(0.300258 0.00125389 0)
(0.299746 0.00164333 0)
(0.29906 0.00188855 0)
(0.298261 0.00201738 0)
(0.297401 0.00205466 0)
(0.29652 0.0020222 0)
(0.295649 0.00193886 0)
(-0.00103542 0.0102582 0)
(-0.0020426 0.0107164 0)
(0.00314202 -0.00106511 0)
(0.015252 -0.0180147 0)
(0.0334861 -0.0353922 0)
(0.0563066 -0.050493 0)
(0.0821251 -0.0620566 0)
(0.109534 -0.0697498 0)
(0.137378 -0.0737817 0)
(0.164757 -0.0746397 0)
(0.190998 -0.0729217 0)
(0.21562 -0.0692381 0)
(0.238302 -0.0641576 0)
(0.258851 -0.0581789 0)
(0.277183 -0.0517206 0)
(0.293291 -0.0451199 0)
(0.307237 -0.038637 0)
(0.319125 -0.0324639 0)
(0.329096 -0.0267334 0)
(0.337311 -0.0215293 0)
(0.343944 -0.0168955 0)
(0.349174 -0.012845 0)
(0.353178 -0.00936729 0)
(0.356128 -0.00643497 0)
(0.358185 -0.00400912 0)
(0.3595 -0.00204368 0)
(0.36021 -0.000488838 0)
(0.360437 0.000706261 0)
(0.36029 0.00159161 0)
(0.359861 0.00221491 0)
(0.359232 0.00262066 0)
(0.358469 0.00284952 0)
(0.357626 0.00293803 0)
(0.356749 0.00291851 0)
(0.35587 0.00281908 0)
(-0.000918815 0.0113011 0)
(0.00174364 0.00652796 0)
(0.0142578 -0.0130624 0)
(0.0353303 -0.0370852 0)
(0.0622659 -0.0597076 0)
(0.0925564 -0.0781476 0)
(0.124272 -0.0914122 0)
(0.156015 -0.0995145 0)
(0.186813 -0.102988 0)
(0.216021 -0.10259 0)
(0.243227 -0.0991355 0)
(0.268187 -0.0934042 0)
(0.29078 -0.0860966 0)
(0.310977 -0.0778146 0)
(0.328814 -0.0690557 0)
(0.344379 -0.060217 0)
(0.357793 -0.0516032 0)
(0.369203 -0.0434377 0)
(0.37877 -0.0358744 0)
(0.386667 -0.0290091 0)
(0.393067 -0.0228913 0)
(0.398142 -0.0175336 0)
(0.40206 -0.0129207 0)
(0.40498 -0.00901716 0)
(0.407054 -0.00577357 0)
(0.408419 -0.00313152 0)
(0.409202 -0.00102788 0)
(0.409518 0.000602087 0)
(0.409467 0.0018223 0)
(0.409137 0.00269409 0)
(0.408604 0.00327497 0)
(0.407931 0.00361787 0)
(0.407172 0.0037706 0)
(0.406369 0.00377571 0)
(0.405556 0.00367045 0)
(-0.000323087 0.0105577 0)
(0.00947188 -0.00449631 0)
(0.0334462 -0.0348082 0)
(0.0665605 -0.0661389 0)
(0.103599 -0.0926827 0)
(0.141351 -0.112538 0)
(0.178005 -0.125535 0)
(0.212551 -0.132301 0)
(0.244472 -0.133796 0)
(0.273555 -0.13106 0)
(0.299762 -0.125092 0)
(0.323158 -0.116794 0)
(0.343867 -0.106948 0)
(0.362044 -0.0962132 0)
(0.377865 -0.085123 0)
(0.391514 -0.0740994 0)
(0.403178 -0.0634626 0)
(0.41304 -0.0534444 0)
(0.421279 -0.044202 0)
(0.428069 -0.0358306 0)
(0.433573 -0.0283758 0)
(0.437949 -0.0218444 0)
(0.441341 -0.016213 0)
(0.443886 -0.0114368 0)
(0.445712 -0.00745602 0)
(0.446935 -0.0042009 0)
(0.447659 -0.00159668 0)
(0.447979 0.000433303 0)
(0.447981 0.00196481 0)
(0.447737 0.00307076 0)
(0.447313 0.00381981 0)
(0.446762 0.00427542 0)
(0.446131 0.00449523 0)
(0.445455 0.00453074 0)
(0.444765 0.00442731 0)
(0.00170042 0.00555355 0)
(0.0264242 -0.0277378 0)
(0.0679957 -0.0707892 0)
(0.115946 -0.107396 0)
(0.162912 -0.13456 0)
(0.206292 -0.1526 0)
(0.245334 -0.16263 0)
(0.279938 -0.165984 0)
(0.310302 -0.163992 0)
(0.336762 -0.157881 0)
(0.359704 -0.14874 0)
(0.379505 -0.137508 0)
(0.396525 -0.124981 0)
(0.411089 -0.111811 0)
(0.423494 -0.0985249 0)
(0.434003 -0.0855293 0)
(0.44285 -0.0731292 0)
(0.450243 -0.0615409 0)
(0.456365 -0.0509065 0)
(0.461377 -0.0413073 0)
(0.465424 -0.0327758 0)
(0.468633 -0.0253065 0)
(0.471119 -0.0188649 0)
(0.472987 -0.0133958 0)
(0.474329 -0.00882894 0)
(0.47523 -0.00508512 0)
(0.475766 -0.00207997 0)
(0.476005 0.00027241 0)
(0.476007 0.00205683 0)
(0.475827 0.00335494 0)
(0.47551 0.00424381 0)
(0.475096 0.00479489 0)
(0.474619 0.00507333 0)
(0.474108 0.0051376 0)
(0.473583 0.00503938 0)
(0.0141784 -0.0200168 0)
(0.0673432 -0.076949 0)
(0.132194 -0.127054 0)
(0.193836 -0.161464 0)
(0.246337 -0.183161 0)
(0.290253 -0.195054 0)
(0.32692 -0.199207 0)
(0.357437 -0.197262 0)
(0.382742 -0.190612 0)
(0.40366 -0.180459 0)
(0.420908 -0.167834 0)
(0.435098 -0.153614 0)
(0.44675 -0.138531 0)
(0.4563 -0.123182 0)
(0.464115 -0.108036 0)
(0.4705 -0.0934565 0)
(0.475704 -0.0797048 0)
(0.479934 -0.0669617 0)
(0.483354 -0.0553392 0)
(0.486101 -0.0448932 0)
(0.488283 -0.0356358 0)
(0.489991 -0.0275447 0)
(0.491298 -0.0205723 0)
(0.492268 -0.0146519 0)
(0.492953 -0.00970463 0)
(0.493401 -0.00564335 0)
(0.493651 -0.00237698 0)
(0.493741 0.000186512 0)
(0.493701 0.00213759 0)
(0.493561 0.00356328 0)
(0.493346 0.00454576 0)
(0.493076 0.00516138 0)
(0.492772 0.00547996 0)
(0.492448 0.00556434 0)
(0.492118 0.00547026 0)
(0.0943982 -0.0928839 0)
(0.176652 -0.163449 0)
(0.25115 -0.200435 0)
(0.311543 -0.220717 0)
(0.357409 -0.230654 0)
(0.392714 -0.233139 0)
(0.420224 -0.229766 0)
(0.441593 -0.221752 0)
(0.45802 -0.210181 0)
(0.470486 -0.196033 0)
(0.479807 -0.180173 0)
(0.486661 -0.163347 0)
(0.491607 -0.146181 0)
(0.495102 -0.129176 0)
(0.497515 -0.112725 0)
(0.499138 -0.0971194 0)
(0.500197 -0.082565 0)
(0.500864 -0.0691933 0)
(0.501264 -0.0570764 0)
(0.501489 -0.0462391 0)
(0.501601 -0.0366688 0)
(0.50164 -0.0283247 0)
(0.501635 -0.0211453 0)
(0.5016 -0.0150541 0)
(0.501544 -0.00996511 0)
(0.501474 -0.00578622 0)
(0.501392 -0.00242286 0)
(0.501299 0.000219571 0)
(0.501197 0.00223355 0)
(0.501088 0.00370778 0)
(0.500972 0.00472602 0)
(0.500853 0.00536613 0)
(0.500731 0.00569945 0)
(0.50061 0.00579033 0)
(0.500491 0.00569599 0)
(0.391288 -0.196479 0)
(0.411067 -0.237501 0)
(0.437664 -0.254971 0)
(0.466096 -0.262325 0)
(0.488796 -0.262624 0)
(0.505587 -0.257443 0)
(0.517507 -0.247903 0)
(0.525349 -0.234945 0)
(0.529836 -0.219446 0)
(0.53168 -0.20222 0)
(0.531534 -0.183998 0)
(0.529968 -0.165409 0)
(0.527461 -0.146969 0)
(0.524399 -0.129087 0)
(0.521084 -0.112071 0)
(0.517745 -0.0961385 0)
(0.514547 -0.0814317 0)
(0.511596 -0.0680308 0)
(0.50896 -0.0559666 0)
(0.506667 -0.0452314 0)
(0.504724 -0.0357886 0)
(0.503115 -0.0275801 0)
(0.501817 -0.0205327 0)
(0.500797 -0.0145627 0)
(0.500018 -0.00958008 0)
(0.499444 -0.00549135 0)
(0.49904 -0.00220206 0)
(0.498775 0.000381178 0)
(0.498619 0.00234907 0)
(0.498547 0.00378831 0)
(0.498538 0.00478063 0)
(0.498576 0.00540204 0)
(0.498644 0.00572222 0)
(0.498733 0.00580416 0)
(0.498833 0.00570393 0)
(0.639408 -0.195198 0)
(0.629293 -0.243884 0)
(0.621529 -0.265044 0)
(0.618688 -0.272034 0)
(0.615938 -0.270137 0)
(0.611723 -0.262049 0)
(0.605911 -0.249583 0)
(0.598586 -0.234051 0)
(0.589986 -0.216478 0)
(0.580476 -0.197711 0)
(0.570464 -0.178452 0)
(0.560332 -0.159269 0)
(0.550407 -0.140606 0)
(0.54095 -0.122795 0)
(0.532151 -0.106069 0)
(0.524141 -0.0905811 0)
(0.516991 -0.076416 0)
(0.510729 -0.063607 0)
(0.505343 -0.052148 0)
(0.500796 -0.0420035 0)
(0.497031 -0.0331172 0)
(0.493976 -0.0254182 0)
(0.491555 -0.0188256 0)
(0.489689 -0.013253 0)
(0.488298 -0.00861024 0)
(0.487308 -0.00480648 0)
(0.486651 -0.00175129 0)
(0.486263 0.000643754 0)
(0.486089 0.0024639 0)
(0.48608 0.00379032 0)
(0.486194 0.00469942 0)
(0.486396 0.00526218 0)
(0.486658 0.00554372 0)
(0.486956 0.00560292 0)
(0.487272 0.0054923 0)
(0.814063 -0.182426 0)
(0.790861 -0.225115 0)
(0.764121 -0.247765 0)
(0.73954 -0.256497 0)
(0.716391 -0.255473 0)
(0.693971 -0.247522 0)
(0.67212 -0.234819 0)
(0.650799 -0.219004 0)
(0.63007 -0.20131 0)
(0.6101 -0.182682 0)
(0.591103 -0.163845 0)
(0.573287 -0.145345 0)
(0.556822 -0.127581 0)
(0.541826 -0.110827 0)
(0.528363 -0.0952593 0)
(0.516447 -0.0809765 0)
(0.506051 -0.0680186 0)
(0.497111 -0.0563824 0)
(0.48954 -0.0460341 0)
(0.483229 -0.0369186 0)
(0.478061 -0.0289672 0)
(0.473914 -0.0221026 0)
(0.470662 -0.0162423 0)
(0.468187 -0.0113018 0)
(0.466373 -0.00719582 0)
(0.465115 -0.00384005 0)
(0.464314 -0.00115192 0)
(0.463884 0.00094847 0)
(0.463746 0.00253767 0)
(0.463834 0.00368827 0)
(0.464089 0.00446848 0)
(0.464463 0.00494156 0)
(0.464915 0.00516556 0)
(0.465412 0.00519298 0)
(0.465929 0.0050707 0)
(0.914088 -0.16113 0)
(0.884341 -0.194865 0)
(0.848309 -0.215396 0)
(0.81126 -0.224471 0)
(0.77476 -0.224547 0)
(0.739368 -0.217876 0)
(0.705481 -0.206475 0)
(0.673345 -0.192008 0)
(0.643124 -0.175768 0)
(0.614964 -0.158735 0)
(0.58899 -0.141634 0)
(0.565292 -0.124983 0)
(0.543912 -0.10914 0)
(0.52484 -0.0943308 0)
(0.508023 -0.0806872 0)
(0.493369 -0.0682675 0)
(0.480753 -0.0570793 0)
(0.470032 -0.0470952 0)
(0.461046 -0.0382649 0)
(0.453629 -0.030524 0)
(0.447611 -0.0237999 0)
(0.442828 -0.0180161 0)
(0.43912 -0.013095 0)
(0.436335 -0.00895908 0)
(0.434332 -0.00553239 0)
(0.432984 -0.00274099 0)
(0.432171 -0.000513516 0)
(0.431791 0.00121856 0)
(0.43175 0.00252043 0)
(0.431969 0.00345377 0)
(0.432379 0.00407632 0)
(0.432922 0.00444164 0)
(0.43355 0.00459877 0)
(0.434225 0.00459217 0)
(0.434915 0.00446144 0)
(0.943704 -0.134411 0)
(0.910256 -0.159209 0)
(0.870041 -0.175489 0)
(0.827005 -0.183229 0)
(0.78341 -0.183663 0)
(0.740609 -0.178343 0)
(0.699528 -0.168867 0)
(0.660769 -0.156674 0)
(0.624696 -0.142936 0)
(0.591527 -0.128549 0)
(0.56137 -0.114173 0)
(0.534248 -0.100266 0)
(0.510113 -0.0871267 0)
(0.488861 -0.0749362 0)
(0.470343 -0.0637861 0)
(0.454382 -0.0537053 0)
(0.44078 -0.0446814 0)
(0.429329 -0.0366747 0)
(0.419818 -0.0296298 0)
(0.412038 -0.0234824 0)
(0.405786 -0.0181646 0)
(0.400869 -0.0136078 0)
(0.397106 -0.00974447 0)
(0.394328 -0.00650897 0)
(0.39238 -0.00383829 0)
(0.391121 -0.00167175 0)
(0.390424 4.83565e-05 0)
(0.390178 0.00137719 0)
(0.390283 0.00236684 0)
(0.390655 0.00306655 0)
(0.391218 0.00352219 0)
(0.391913 0.00377638 0)
(0.392687 0.00386806 0)
(0.3935 0.00383253 0)
(0.39432 0.00370123 0)
(0.906895 -0.104103 0)
(0.871864 -0.121058 0)
(0.830692 -0.132541 0)
(0.786192 -0.138083 0)
(0.740567 -0.138262 0)
(0.695441 -0.134085 0)
(0.652011 -0.126701 0)
(0.611101 -0.11721 0)
(0.573219 -0.10654 0)
(0.538645 -0.0954142 0)
(0.507489 -0.0843559 0)
(0.479735 -0.0737256 0)
(0.455276 -0.0637502 0)
(0.433943 -0.0545582 0)
(0.415527 -0.0462061 0)
(0.399796 -0.0387029 0)
(0.386506 -0.0320253 0)
(0.375415 -0.0261325 0)
(0.366284 -0.0209726 0)
(0.358885 -0.0164904 0)
(0.353002 -0.0126288 0)
(0.348433 -0.00933296 0)
(0.344993 -0.00654922 0)
(0.34251 -0.00422731 0)
(0.340829 -0.00231892 0)
(0.33981 -0.000778875 0)
(0.339328 0.000436149 0)
(0.339272 0.00136664 0)
(0.339544 0.00205128 0)
(0.340062 0.00252601 0)
(0.340754 0.00282472 0)
(0.34156 0.00297844 0)
(0.34243 0.0030159 0)
(0.343325 0.00296275 0)
(0.344215 0.00284221 0)
(0.807061 -0.0724056 0)
(0.772908 -0.0828858 0)
(0.733714 -0.0899624 0)
(0.691516 -0.0932272 0)
(0.648209 -0.0929728 0)
(0.605351 -0.0898273 0)
(0.564147 -0.0845499 0)
(0.525449 -0.077885 0)
(0.489791 -0.0704713 0)
(0.457453 -0.0628058 0)
(0.428523 -0.0552478 0)
(0.402954 -0.0480373 0)
(0.380603 -0.0413211 0)
(0.361267 -0.0351756 0)
(0.344712 -0.029629 0)
(0.330686 -0.0246767 0)
(0.318936 -0.0202947 0)
(0.309214 -0.0164477 0)
(0.301285 -0.0130956 0)
(0.294927 -0.0101964 0)
(0.289934 -0.00770931 0)
(0.286118 -0.00559503 0)
(0.283306 -0.00381691 0)
(0.281339 -0.00234028 0)
(0.280077 -0.00113304 0)
(0.279391 -0.000164782 0)
(0.27917 0.000592812 0)
(0.279313 0.00116668 0)
(0.279734 0.00158193 0)
(0.280358 0.00186232 0)
(0.28112 0.00202979 0)
(0.281969 0.00210485 0)
(0.282861 0.00210602 0)
(0.283761 0.00205029 0)
(0.284643 0.00195255 0)
(0.647511 -0.0421453 0)
(0.617373 -0.0475976 0)
(0.5835 -0.0511515 0)
(0.547399 -0.0525911 0)
(0.510571 -0.0520872 0)
(0.474311 -0.0500027 0)
(0.439634 -0.0467734 0)
(0.407253 -0.0428222 0)
(0.377609 -0.0385099 0)
(0.350914 -0.0341128 0)
(0.32721 -0.0298269 0)
(0.30642 -0.0257786 0)
(0.288388 -0.0220415 0)
(0.272913 -0.0186494 0)
(0.259768 -0.0156104 0)
(0.248723 -0.012915 0)
(0.23955 -0.0105444 0)
(0.232031 -0.00847455 0)
(0.225963 -0.00667998 0)
(0.221158 -0.00513503 0)
(0.217443 -0.00381567 0)
(0.214661 -0.00269902 0)
(0.212671 -0.00176438 0)
(0.211343 -0.000992284 0)
(0.210563 -0.000365048 0)
(0.210228 0.00013407 0)
(0.210248 0.000520447 0)
(0.210542 0.000808779 0)
(0.211041 0.00101263 0)
(0.211686 0.00114492 0)
(0.212427 0.00121749 0)
(0.213221 0.00124146 0)
(0.214035 0.00122687 0)
(0.214842 0.00118289 0)
(0.215621 0.00111758 0)
(0.431642 -0.0173031 0)
(0.409453 -0.0192874 0)
(0.384945 -0.0204736 0)
(0.359158 -0.0208052 0)
(0.333128 -0.0203768 0)
(0.307743 -0.0193544 0)
(0.283688 -0.0179207 0)
(0.261425 -0.0162477 0)
(0.241223 -0.0144749 0)
(0.223188 -0.012707 0)
(0.207313 -0.0110134 0)
(0.193507 -0.00943731 0)
(0.181635 -0.00800038 0)
(0.171533 -0.00671076 0)
(0.163026 -0.00556621 0)
(0.155943 -0.00455993 0)
(0.150117 -0.00368129 0)
(0.145394 -0.00291952 0)
(0.141631 -0.00226291 0)
(0.138697 -0.00170121 0)
(0.136476 -0.00122416 0)
(0.13486 -0.000823171 0)
(0.133753 -0.00048979 0)
(0.133071 -0.000216947 0)
(0.132737 2.41467e-06 0)
(0.132682 0.000174293 0)
(0.132847 0.000304789 0)
(0.133179 0.000399174 0)
(0.133633 0.000462824 0)
(0.13417 0.00050039 0)
(0.134757 0.000516574 0)
(0.135367 0.000515379 0)
(0.135979 0.000500788 0)
(0.136576 0.000476073 0)
(0.137145 0.000444436 0)
(0.162311 -0.00174943 0)
(0.152929 -0.00189717 0)
(0.142728 -0.00194936 0)
(0.132157 -0.00191195 0)
(0.121648 -0.00180584 0)
(0.111549 -0.00165408 0)
(0.102115 -0.00147775 0)
(0.0935041 -0.00129379 0)
(0.085792 -0.00111429 0)
(0.0789939 -0.000946586 0)
(0.0730818 -0.000794598 0)
(0.0680008 -0.000659753 0)
(0.0636812 -0.000542023 0)
(0.0600474 -0.000440389 0)
(0.0570235 -0.00035341 0)
(0.0545368 -0.000279395 0)
(0.0525197 -0.000216719 0)
(0.0509105 -0.000163822 0)
(0.0496532 -0.000119364 0)
(0.0486979 -8.21451e-05 0)
(0.0479996 -5.11819e-05 0)
(0.0475183 -2.56069e-05 0)
(0.0472181 -4.72411e-06 0)
(0.0470671 1.20897e-05 0)
(0.0470369 2.53375e-05 0)
(0.0471024 3.54866e-05 0)
(0.0472412 4.29226e-05 0)
(0.0474342 4.80178e-05 0)
(0.0476647 5.10892e-05 0)
(0.0479186 5.2452e-05 0)
(0.0481841 5.23808e-05 0)
(0.0484516 5.11494e-05 0)
(0.0487135 4.89966e-05 0)
(0.048964 4.61565e-05 0)
(0.0491992 4.28302e-05 0)
(0.0514395 3.9284e-05 0)
(0.0512414 3.5579e-05 0)
(0.0510633 3.18425e-05 0)
(0.0509049 2.82244e-05 0)
(0.0507652 2.48181e-05 0)
(0.0506425 2.17264e-05 0)
(0.0505347 1.89971e-05 0)
(0.0504395 1.66978e-05 0)
(0.0503544 1.48481e-05 0)
(0.0502765 1.34982e-05 0)
(0.142999 0.000409508 0)
(0.142508 0.000372066 0)
(0.142061 0.000333948 0)
(0.141658 0.000296881 0)
(0.1413 0.000262241 0)
(0.140981 0.000231039 0)
(0.140698 0.00020406 0)
(0.140446 0.000181848 0)
(0.140219 0.000164833 0)
(0.140009 0.00015331 0)
(0.224133 0.00103689 0)
(0.223448 0.00095145 0)
(0.222818 0.000861775 0)
(0.222246 0.000772727 0)
(0.221731 0.000688121 0)
(0.221271 0.000610949 0)
(0.22086 0.000543464 0)
(0.22049 0.000487399 0)
(0.220155 0.000444037 0)
(0.219845 0.000414416 0)
(0.294811 0.0018207 0)
(0.294021 0.0016812 0)
(0.293288 0.00153147 0)
(0.292619 0.00138053 0)
(0.292012 0.0012356 0)
(0.291465 0.00110231 0)
(0.290974 0.000985029 0)
(0.290531 0.000887091 0)
(0.290126 0.000811077 0)
(0.289751 0.000759016 0)
(0.355015 0.00266386 0)
(0.354202 0.0024732 0)
(0.353442 0.00226402 0)
(0.352743 0.00205014 0)
(0.352106 0.00184267 0)
(0.351529 0.00165041 0)
(0.351007 0.00148021 0)
(0.350534 0.00133738 0)
(0.350101 0.00122604 0)
(0.349698 0.00114951 0)
(0.404757 0.00348694 0)
(0.403993 0.00325245 0)
(0.403274 0.00298977 0)
(0.402608 0.00271765 0)
(0.401998 0.00245126 0)
(0.401443 0.00220268 0)
(0.400939 0.00198141 0)
(0.40048 0.00179486 0)
(0.400059 0.00164886 0)
(0.399666 0.00154811 0)
(0.444083 0.00422424 0)
(0.443426 0.00395505 0)
(0.442805 0.00364791 0)
(0.442227 0.00332612 0)
(0.441695 0.00300863 0)
(0.441209 0.00271061 0)
(0.440766 0.00244409 0)
(0.440362 0.00221852 0)
(0.43999 0.00204137 0)
(0.439642 0.00191871 0)
(0.473062 0.00482366 0)
(0.472559 0.00452897 0)
(0.472081 0.00418784 0)
(0.471635 0.00382728 0)
(0.471224 0.00346937 0)
(0.470847 0.00313189 0)
(0.470502 0.002829 0)
(0.470187 0.00257187 0)
(0.469896 0.00236941 0)
(0.469624 0.00222887 0)
(0.49179 0.00524639 0)
(0.491474 0.00493462 0)
(0.491173 0.00457039 0)
(0.490892 0.00418326 0)
(0.490632 0.00379747 0)
(0.490394 0.00343263 0)
(0.490175 0.00310441 0)
(0.489975 0.00282524 0)
(0.48979 0.00260506 0)
(0.489616 0.00245202 0)
(0.500377 0.00546657 0)
(0.500267 0.0051453 0)
(0.500164 0.00476888 0)
(0.500068 0.00436802 0)
(0.499979 0.00396794 0)
(0.499897 0.00358914 0)
(0.499822 0.00324803 0)
(0.499753 0.00295766 0)
(0.499689 0.00272853 0)
(0.499629 0.00256926 0)
(0.498938 0.0054708 0)
(0.499043 0.00514731 0)
(0.499144 0.00476967 0)
(0.499239 0.00436823 0)
(0.499328 0.00396799 0)
(0.49941 0.00358925 0)
(0.499484 0.00324834 0)
(0.499552 0.00295827 0)
(0.499614 0.00272952 0)
(0.499672 0.0025707 0)
(0.487591 0.00525803 0)
(0.487904 0.00494008 0)
(0.488203 0.00457248 0)
(0.488484 0.00418378 0)
(0.488744 0.00379754 0)
(0.488982 0.00343291 0)
(0.489201 0.00310529 0)
(0.4894 0.00282698 0)
(0.489584 0.00260787 0)
(0.489755 0.00245614 0)
(0.466446 0.00483992 0)
(0.466948 0.00453637 0)
(0.467425 0.00419048 0)
(0.467871 0.00382778 0)
(0.468283 0.00346932 0)
(0.46866 0.00313225 0)
(0.469004 0.0028303 0)
(0.469319 0.0025745 0)
(0.469608 0.00237364 0)
(0.469879 0.00223509 0)
(0.435597 0.00424149 0)
(0.436255 0.0039625 0)
(0.436877 0.00365023 0)
(0.437455 0.00332623 0)
(0.437988 0.00300832 0)
(0.438474 0.00271091 0)
(0.438916 0.00244562 0)
(0.43932 0.00222165 0)
(0.439691 0.00204644 0)
(0.440038 0.00192613 0)
(0.395122 0.00350187 0)
(0.395889 0.00325835 0)
(0.39661 0.00299113 0)
(0.397276 0.00271722 0)
(0.397886 0.00245071 0)
(0.398442 0.00220292 0)
(0.398946 0.001983 0)
(0.399404 0.00179811 0)
(0.399825 0.00165412 0)
(0.400218 0.00155574 0)
(0.345076 0.00267432 0)
(0.345892 0.00247676 0)
(0.346652 0.00226422 0)
(0.347352 0.00204929 0)
(0.347989 0.00184197 0)
(0.348566 0.00165065 0)
(0.349088 0.00148168 0)
(0.349561 0.00134042 0)
(0.349994 0.00123079 0)
(0.350398 0.00115642 0)
(0.285486 0.00182611 0)
(0.286279 0.00168222 0)
(0.287012 0.00153064 0)
(0.287682 0.00137927 0)
(0.288288 0.00123478 0)
(0.288834 0.00110229 0)
(0.289326 0.0009861 0)
(0.28977 0.000889323 0)
(0.290175 0.000814692 0)
(0.290552 0.000764187 0)
(0.216359 0.00103812 0)
(0.217046 0.000950561 0)
(0.217676 0.000860142 0)
(0.218247 0.000771072 0)
(0.218761 0.000686901 0)
(0.219221 0.000610317 0)
(0.219632 0.000543567 0)
(0.220002 0.00048825 0)
(0.220338 0.000445774 0)
(0.22065 0.000417126 0)
(0.137677 0.000408366 0)
(0.138168 0.000370281 0)
(0.138614 0.000331909 0)
(0.139015 0.000294957 0)
(0.139374 0.000260486 0)
(0.139692 0.00022963 0)
(0.139975 0.000202943 0)
(0.140227 0.000181163 0)
(0.140456 0.000164517 0)
(0.140666 0.000153544 0)
(0.0494163 3.92091e-05 0)
(0.0496137 3.54529e-05 0)
(0.0497912 3.17078e-05 0)
(0.049949 2.80911e-05 0)
(0.0500884 2.47062e-05 0)
(0.050211 2.16298e-05 0)
(0.0503188 1.89303e-05 0)
(0.0504142 1.66561e-05 0)
(0.0504997 1.48475e-05 0)
(0.0505782 1.35334e-05 0)
(0.050203 1.26486e-05 0)
(0.0501309 1.23449e-05 0)
(0.0500572 1.25846e-05 0)
(0.0499784 1.34214e-05 0)
(0.0498913 1.48608e-05 0)
(0.0497921 1.69775e-05 0)
(0.0496766 1.97974e-05 0)
(0.0495405 2.34278e-05 0)
(0.0493786 2.79264e-05 0)
(0.0491851 3.34444e-05 0)
(0.0489534 4.00836e-05 0)
(0.0486757 4.80508e-05 0)
(0.048343 5.75045e-05 0)
(0.0479449 6.87213e-05 0)
(0.0474691 8.19343e-05 0)
(0.0469012 9.75113e-05 0)
(0.0462244 0.000115791 0)
(0.045419 0.000137277 0)
(0.044462 0.000162479 0)
(0.043326 0.000192123 0)
(0.0419795 0.000227009 0)
(0.0403853 0.000268213 0)
(0.0385005 0.000316914 0)
(0.0362767 0.000374458 0)
(0.0336611 0.000441878 0)
(0.0306014 0.000519334 0)
(0.0270547 0.000604621 0)
(0.0230052 0.000691086 0)
(0.0184929 0.000764487 0)
(0.0136549 0.000799582 0)
(0.00877455 0.000758314 0)
(0.00432254 0.000592377 0)
(0.000943856 0.000257895 0)
(-0.00073536 -0.000215947 0)
(-0.000522065 -0.000526166 0)
(0.139811 0.000147557 0)
(0.139616 0.000147815 0)
(0.139416 0.000154392 0)
(0.139205 0.000167638 0)
(0.138971 0.000188046 0)
(0.138707 0.000216231 0)
(0.1384 0.000253016 0)
(0.13804 0.000299426 0)
(0.137613 0.000356762 0)
(0.137104 0.000426611 0)
(0.136495 0.000510919 0)
(0.135765 0.000612016 0)
(0.134891 0.000732694 0)
(0.133844 0.000876254 0)
(0.132591 0.0010466 0)
(0.131095 0.00124832 0)
(0.12931 0.00148681 0)
(0.127181 0.00176841 0)
(0.124648 0.00210051 0)
(0.121636 0.00249173 0)
(0.118061 0.00295185 0)
(0.113824 0.00349162 0)
(0.108813 0.00412184 0)
(0.102904 0.00485127 0)
(0.0959653 0.00568249 0)
(0.0878707 0.00660433 0)
(0.078522 0.00757949 0)
(0.0678892 0.0085265 0)
(0.0560728 0.00929812 0)
(0.0433895 0.00966354 0)
(0.0304677 0.00931299 0)
(0.018318 0.00791738 0)
(0.00830348 0.00529802 0)
(0.00186797 0.00181483 0)
(-0.000275627 -0.000816332 0)
(0.21955 0.000399377 0)
(0.21926 0.000399766 0)
(0.218965 0.000416459 0)
(0.218651 0.000450552 0)
(0.218306 0.000503379 0)
(0.217916 0.000576699 0)
(0.217467 0.000672703 0)
(0.216939 0.000794219 0)
(0.216315 0.000944708 0)
(0.215571 0.0011285 0)
(0.214682 0.0013508 0)
(0.213617 0.00161796 0)
(0.212341 0.00193751 0)
(0.210812 0.00231846 0)
(0.20898 0.00277143 0)
(0.20679 0.00330898 0)
(0.204172 0.00394582 0)
(0.201046 0.00469918 0)
(0.197319 0.00558903 0)
(0.192879 0.00663833 0)
(0.187599 0.00787267 0)
(0.181331 0.00931946 0)
(0.173905 0.0110052 0)
(0.165135 0.0129499 0)
(0.154821 0.0151567 0)
(0.142769 0.0175939 0)
(0.128819 0.0201659 0)
(0.112892 0.0226737 0)
(0.0950749 0.0247669 0)
(0.0757282 0.0259072 0)
(0.0556184 0.0253802 0)
(0.0360327 0.0224243 0)
(0.0188283 0.0165811 0)
(0.00632962 0.00842583 0)
(0.000234377 0.000877532 0)
(0.289393 0.000732656 0)
(0.289042 0.000733635 0)
(0.288683 0.000763729 0)
(0.288303 0.000824999 0)
(0.287888 0.000920027 0)
(0.287419 0.00105206 0)
(0.28688 0.00122522 0)
(0.286249 0.0014447 0)
(0.285503 0.00171698 0)
(0.284614 0.00204998 0)
(0.283552 0.00245344 0)
(0.28228 0.00293907 0)
(0.280754 0.00352093 0)
(0.278924 0.00421579 0)
(0.27673 0.00504356 0)
(0.274101 0.0060277 0)
(0.270953 0.00719586 0)
(0.267188 0.00858031 0)
(0.262687 0.0102185 0)
(0.257314 0.0121532 0)
(0.250908 0.0144321 0)
(0.243282 0.0171062 0)
(0.234221 0.0202247 0)
(0.223483 0.0238263 0)
(0.210807 0.0279212 0)
(0.19592 0.0324616 0)
(0.178571 0.0372943 0)
(0.158577 0.0420938 0)
(0.135908 0.0462806 0)
(0.110815 0.0489491 0)
(0.0840075 0.0488628 0)
(0.0568632 0.0446176 0)
(0.0316728 0.0351464 0)
(0.0119172 0.0207877 0)
(0.000835415 0.005173 0)
(0.349314 0.00111061 0)
(0.348936 0.00111203 0)
(0.348551 0.00115658 0)
(0.348144 0.00124752 0)
(0.3477 0.00138887 0)
(0.347201 0.00158563 0)
(0.346627 0.00184415 0)
(0.345956 0.00217237 0)
(0.345164 0.00258016 0)
(0.344221 0.00307972 0)
(0.343094 0.0036859 0)
(0.341742 0.00441671 0)
(0.34012 0.00529379 0)
(0.338172 0.00634302 0)
(0.335832 0.00759517 0)
(0.333024 0.00908669 0)
(0.329653 0.0108605 0)
(0.325611 0.012967 0)
(0.320768 0.0154646 0)
(0.314969 0.0184204 0)
(0.308032 0.0219096 0)
(0.299744 0.0260132 0)
(0.289855 0.0308123 0)
(0.27808 0.0363756 0)
(0.264095 0.0427361 0)
(0.247545 0.0498511 0)
(0.228061 0.0575371 0)
(0.205297 0.0653739 0)
(0.179006 0.0725773 0)
(0.149174 0.0778668 0)
(0.116245 0.079386 0)
(0.0814581 0.0748187 0)
(0.0474177 0.0619419 0)
(0.0190141 0.0400411 0)
(0.00161873 0.0126978 0)
(0.399291 0.00149665 0)
(0.398922 0.00149827 0)
(0.398547 0.00155695 0)
(0.398151 0.00167722 0)
(0.39772 0.00186462 0)
(0.397235 0.002126 0)
(0.39668 0.00247003 0)
(0.396031 0.00290752 0)
(0.395265 0.00345192 0)
(0.394353 0.00411984 0)
(0.393262 0.00493156 0)
(0.391952 0.0059117 0)
(0.390379 0.00708994 0)
(0.388485 0.00850186 0)
(0.386207 0.0101899 0)
(0.383465 0.0122045 0)
(0.380167 0.0146053 0)
(0.376199 0.0174624 0)
(0.37143 0.0208577 0)
(0.365699 0.0248857 0)
(0.358816 0.0296536 0)
(0.350556 0.0352793 0)
(0.340649 0.041885 0)
(0.328778 0.0495844 0)
(0.31457 0.0584563 0)