/*--------------------------------*- C++ -*----------------------------------*\
| =========                 |                                                 |
| \\      /  F ield         | OpenFOAM: The Open Source CFD Toolbox           |
|  \\    /   O peration     | Version:  2406                                  |
|   \\  /    A nd           | Website:  www.openfoam.com                      |
|    \\/     M anipulation  |                                                 |
\*---------------------------------------------------------------------------*/
FoamFile
{
    version     2.0;
    format      ascii;
    arch        "LSB;label=32;scalar=64";
    class       volVectorField;
    location    "79";
    object      U;
}
// * * * * * * * * * * * * * * * * * * * * * * * * * * * * * * * * * * * * * //

dimensions      [0 1 -1 0 0 0 0];

internalField   nonuniform List<vector> 
2000
(
(0.0985951 -0.00107299 0)
(0.100496 -0.00114806 0)
(0.102206 -0.000682297 0)
(0.103481 -0.000386958 0)
(0.104368 -0.000245097 0)
(0.105012 -0.000161406 0)
(0.105496 -0.000107211 0)
(0.105862 -7.49002e-05 0)
(0.106147 -5.60826e-05 0)
(0.106375 -4.40762e-05 0)
(0.276359 -0.00149244 0)
(0.276316 -0.0024374 0)
(0.27679 -0.00214558 0)
(0.277339 -0.00166221 0)
(0.277966 -0.00128019 0)
(0.278614 -0.000986185 0)
(0.279213 -0.00075848 0)
(0.279734 -0.000590773 0)
(0.280183 -0.000471192 0)
(0.280571 -0.000384663 0)
(0.436622 -0.00080361 0)
(0.436445 -0.0016474 0)
(0.436295 -0.00180553 0)
(0.436033 -0.00170706 0)
(0.435957 -0.00155598 0)
(0.436091 -0.00138121 0)
(0.436323 -0.00119595 0)
(0.436585 -0.00102334 0)
(0.436856 -0.000875855 0)
(0.437124 -0.000753289 0)
(0.576817 -0.000430623 0)
(0.576805 -0.00105889 0)
(0.576704 -0.00133984 0)
(0.576306 -0.00140814 0)
(0.575963 -0.0013929 0)
(0.575788 -0.00133144 0)
(0.575718 -0.0012356 0)
(0.575699 -0.0011246 0)
(0.575718 -0.00101488 0)
(0.575768 -0.000913177 0)
(0.696922 -0.000268224 0)
(0.696996 -0.000720358 0)
(0.697016 -0.000986164 0)
(0.696694 -0.00109781 0)
(0.696334 -0.00113233 0)
(0.696082 -0.00112422 0)
(0.695904 -0.00108286 0)
(0.695758 -0.00102023 0)
(0.695638 -0.000949588 0)
(0.695547 -0.000878614 0)
(0.796987 -0.000178137 0)
(0.797098 -0.000496937 0)
(0.797192 -0.000713952 0)
(0.796949 -0.00082889 0)
(0.796626 -0.000881751 0)
(0.796375 -0.000897501 0)
(0.796178 -0.000884286 0)
(0.795996 -0.000850192 0)
(0.795828 -0.000805281 0)
(0.795679 -0.000756607 0)
(0.877029 -0.000119611 0)
(0.877154 -0.000340461 0)
(0.877287 -0.000504877 0)
(0.8771 -0.000604544 0)
(0.876812 -0.000658209 0)
(0.876577 -0.000681718 0)
(0.876382 -0.00068173 0)
(0.876195 -0.000664021 0)
(0.876012 -0.000635804 0)
(0.875843 -0.000602751 0)
(0.937055 -7.73919e-05 0)
(0.937186 -0.000222782 0)
(0.937339 -0.000336815 0)
(0.937187 -0.000411637 0)
(0.936927 -0.000455529 0)
(0.936705 -0.000477611 0)
(0.936516 -0.000482548 0)
(0.936329 -0.000474255 0)
(0.936142 -0.000457502 0)
(0.935965 -0.000436301 0)
(0.977072 -4.36982e-05 0)
(0.977204 -0.000126523 0)
(0.977367 -0.000193368 0)
(0.977235 -0.00023924 0)
(0.976992 -0.000267518 0)
(0.97678 -0.000282761 0)
(0.976595 -0.000287606 0)
(0.97641 -0.000284304 0)
(0.976222 -0.000275575 0)
(0.976041 -0.000263792 0)
(0.997079 -1.41495e-05 0)
(0.997212 -4.10679e-05 0)
(0.997379 -6.3069e-05 0)
(0.997257 -7.84824e-05 0)
(0.997022 -8.82088e-05 0)
(0.996815 -9.36116e-05 0)
(0.996633 -9.55296e-05 0)
(0.996449 -9.46964e-05 0)
(0.99626 -9.19985e-05 0)
(0.996078 -8.8224e-05 0)
(0.997079 1.41525e-05 0)
(0.997212 4.10757e-05 0)
(0.997379 6.30855e-05 0)
(0.997257 7.85082e-05 0)
(0.997022 8.82376e-05 0)
(0.996815 9.36376e-05 0)
(0.996633 9.55515e-05 0)
(0.996449 9.47211e-05 0)
(0.99626 9.20352e-05 0)
(0.996078 8.82691e-05 0)
(0.977072 4.37016e-05 0)
(0.977204 0.000126531 0)
(0.977367 0.000193384 0)
(0.977235 0.000239265 0)
(0.976992 0.000267547 0)
(0.97678 0.000282785 0)
(0.976595 0.000287625 0)
(0.97641 0.000284325 0)
(0.976222 0.000275608 0)
(0.976041 0.000263834 0)
(0.937055 7.73962e-05 0)
(0.937186 0.000222792 0)
(0.937339 0.000336835 0)
(0.937187 0.000411661 0)
(0.936927 0.000455554 0)
(0.936705 0.000477636 0)
(0.936516 0.000482574 0)
(0.936329 0.00047428 0)
(0.936142 0.000457531 0)
(0.935965 0.000436334 0)
(0.877029 0.000119615 0)
(0.877154 0.000340469 0)
(0.877287 0.000504891 0)
(0.8771 0.000604562 0)
(0.876812 0.000658233 0)
(0.876577 0.000681747 0)
(0.876382 0.00068176 0)
(0.876195 0.000664051 0)
(0.876012 0.000635833 0)
(0.875843 0.000602778 0)
(0.796987 0.000178141 0)
(0.797098 0.000496946 0)
(0.797192 0.000713968 0)
(0.796949 0.000828907 0)
(0.796626 0.000881773 0)
(0.796375 0.000897532 0)
(0.796178 0.00088432 0)
(0.795996 0.00085022 0)
(0.795828 0.0008053 0)
(0.795679 0.00075662 0)
(0.696922 0.000268228 0)
(0.696997 0.000720367 0)
(0.697016 0.000986176 0)
(0.696694 0.00109783 0)
(0.696334 0.00113235 0)
(0.696082 0.00112425 0)
(0.695904 0.00108289 0)
(0.695758 0.00102025 0)
(0.695638 0.000949605 0)
(0.695547 0.000878626 0)
(0.576817 0.000430628 0)
(0.576805 0.0010589 0)
(0.576704 0.00133985 0)
(0.576306 0.00140815 0)
(0.575963 0.00139292 0)
(0.575788 0.00133147 0)
(0.575718 0.00123563 0)
(0.575699 0.00112463 0)
(0.575718 0.00101489 0)
(0.575768 0.000913188 0)
(0.436622 0.000803615 0)
(0.436445 0.00164741 0)
(0.436295 0.00180555 0)
(0.436033 0.00170708 0)
(0.435957 0.00155601 0)
(0.436091 0.00138125 0)
(0.436323 0.00119599 0)
(0.436585 0.00102337 0)
(0.436856 0.00087587 0)
(0.437124 0.000753299 0)
(0.276359 0.00149244 0)
(0.276316 0.00243741 0)
(0.27679 0.0021456 0)
(0.277339 0.00166223 0)
(0.277966 0.00128021 0)
(0.278614 0.000986214 0)
(0.279213 0.000758515 0)
(0.279734 0.000590803 0)
(0.280183 0.000471208 0)
(0.280571 0.000384674 0)
(0.0985951 0.001073 0)
(0.100496 0.00114807 0)
(0.102206 0.000682304 0)
(0.103481 0.000386965 0)
(0.104368 0.000245109 0)
(0.105012 0.000161425 0)
(0.105496 0.000107225 0)
(0.105862 7.49013e-05 0)
(0.106147 5.60824e-05 0)
(0.106375 4.40883e-05 0)
(0.106562 -3.56648e-05 0)
(0.106719 -2.95471e-05 0)
(0.106852 -2.49968e-05 0)
(0.106967 -2.15051e-05 0)
(0.107067 -1.87485e-05 0)
(0.107155 -1.65268e-05 0)
(0.107233 -1.47012e-05 0)
(0.107303 -1.31732e-05 0)
(0.107365 -1.18804e-05 0)
(0.107422 -1.07876e-05 0)
(0.107474 -9.86822e-06 0)
(0.107522 -9.0908e-06 0)
(0.107566 -8.42104e-06 0)
(0.107606 -7.82694e-06 0)
(0.107644 -7.28682e-06 0)
(0.107679 -6.79167e-06 0)
(0.107712 -6.3406e-06 0)
(0.107743 -5.9364e-06 0)
(0.107771 -5.57972e-06 0)
(0.107799 -5.26667e-06 0)
(0.107824 -4.99009e-06 0)
(0.107849 -4.74028e-06 0)
(0.107872 -4.50903e-06 0)
(0.107893 -4.29007e-06 0)
(0.107914 -4.0806e-06 0)
(0.107934 -3.88041e-06 0)
(0.107953 -3.6909e-06 0)
(0.107971 -3.51396e-06 0)
(0.107988 -3.3509e-06 0)
(0.108005 -3.2019e-06 0)
(0.10802 -3.06621e-06 0)
(0.108035 -2.94189e-06 0)
(0.10805 -2.82697e-06 0)
(0.108064 -2.71906e-06 0)
(0.108077 -2.61658e-06 0)
(0.280908 -0.000319866 0)
(0.281201 -0.000270105 0)
(0.281458 -0.00023133 0)
(0.281683 -0.000200687 0)
(0.281883 -0.000176018 0)
(0.282062 -0.000155759 0)
(0.282223 -0.000138858 0)
(0.282368 -0.000124639 0)
(0.282499 -0.000112636 0)
(0.282619 -0.000102467 0)
(0.282729 -9.37919e-05 0)
(0.282831 -8.63066e-05 0)
(0.282925 -7.97623e-05 0)
(0.283012 -7.39749e-05 0)
(0.283093 -6.88152e-05 0)
(0.283169 -6.41954e-05 0)
(0.283241 -6.00533e-05 0)
(0.283308 -5.63376e-05 0)
(0.28337 -5.30025e-05 0)
(0.28343 -5.00017e-05 0)
(0.283486 -4.72891e-05 0)
(0.283539 -4.48207e-05 0)
(0.28359 -4.2556e-05 0)
(0.283638 -4.04622e-05 0)
(0.283684 -3.85134e-05 0)
(0.283728 -3.6692e-05 0)
(0.283769 -3.49871e-05 0)
(0.283809 -3.33915e-05 0)
(0.283848 -3.19013e-05 0)
(0.283884 -3.05122e-05 0)
(0.283919 -2.92193e-05 0)
(0.283953 -2.80159e-05 0)
(0.283985 -2.68938e-05 0)
(0.284016 -2.58441e-05 0)
(0.284046 -2.48571e-05 0)
(0.437382 -0.000651395 0)
(0.437624 -0.000566603 0)
(0.437848 -0.000496273 0)
(0.438056 -0.000437995 0)
(0.438247 -0.000389411 0)
(0.438423 -0.000348441 0)
(0.438586 -0.000313511 0)
(0.438737 -0.000283551 0)
(0.438876 -0.000257826 0)
(0.439005 -0.000235733 0)
(0.439125 -0.00021669 0)
(0.439237 -0.000200141 0)
(0.439343 -0.000185592 0)
(0.439441 -0.000172658 0)
(0.439534 -0.000161067 0)
(0.439621 -0.000150634 0)
(0.439704 -0.000141234 0)
(0.439782 -0.000132763 0)
(0.439856 -0.000125127 0)
(0.439926 -0.00011823 0)
(0.439993 -0.000111976 0)
(0.440056 -0.00010627 0)
(0.440117 -0.00010103 0)
(0.440175 -9.61817e-05 0)
(0.44023 -9.16708e-05 0)
(0.440283 -8.74555e-05 0)
(0.440334 -8.35076e-05 0)
(0.440382 -7.98081e-05 0)
(0.440429 -7.6344e-05 0)
(0.440474 -7.31041e-05 0)
(0.440517 -7.00771e-05 0)
(0.440558 -6.72495e-05 0)
(0.440598 -6.46052e-05 0)
(0.440637 -6.21261e-05 0)
(0.440674 -5.97938e-05 0)
(0.575841 -0.000820717 0)
(0.575926 -0.000737683 0)
(0.576018 -0.000664262 0)
(0.576113 -0.000600152 0)
(0.576209 -0.000544358 0)
(0.576304 -0.00049555 0)
(0.576398 -0.000452552 0)
(0.57649 -0.00041457 0)
(0.576578 -0.000381121 0)
(0.576663 -0.000351797 0)
(0.576745 -0.000326113 0)
(0.576823 -0.000303497 0)
(0.576899 -0.000283374 0)
(0.576971 -0.000265266 0)
(0.577041 -0.000248836 0)
(0.577108 -0.000233879 0)
(0.577173 -0.000220265 0)
(0.577235 -0.0002079 0)
(0.577294 -0.000196682 0)
(0.577351 -0.000186494 0)
(0.577406 -0.000177206 0)
(0.577459 -0.000168687 0)
(0.57751 -0.000160818 0)
(0.577559 -0.000153501 0)
(0.577607 -0.00014666 0)
(0.577652 -0.000140242 0)
(0.577697 -0.000134211 0)
(0.57774 -0.000128543 0)
(0.577781 -0.00012322 0)
(0.577821 -0.000118226 0)
(0.577859 -0.000113544 0)
(0.577897 -0.000109152 0)
(0.577933 -0.000105029 0)
(0.577968 -0.000101148 0)
(0.578002 -9.7483e-05 0)
(0.695482 -0.000810095 0)
(0.695437 -0.000745357 0)
(0.695406 -0.000685606 0)
(0.695387 -0.000631579 0)
(0.695378 -0.000583176 0)
(0.695377 -0.000539693 0)
(0.695382 -0.000500355 0)
(0.695393 -0.000464687 0)
(0.695407 -0.00043252 0)
(0.695424 -0.000403761 0)
(0.695444 -0.000378182 0)
(0.695465 -0.000355368 0)
(0.695488 -0.000334815 0)
(0.695512 -0.000316061 0)
(0.695537 -0.000298782 0)
(0.695563 -0.000282802 0)
(0.695589 -0.000268049 0)
(0.695616 -0.00025449 0)
(0.695642 -0.000242076 0)
(0.695668 -0.00023072 0)
(0.695694 -0.000220301 0)
(0.69572 -0.00021068 0)
(0.695746 -0.000201725 0)
(0.695772 -0.000193328 0)
(0.695797 -0.000185409 0)
(0.695822 -0.000177919 0)
(0.695847 -0.00017083 0)
(0.695871 -0.000164128 0)
(0.695895 -0.000157802 0)
(0.695918 -0.000151841 0)
(0.695941 -0.000146228 0)
(0.695964 -0.00014094 0)
(0.695986 -0.000135951 0)
(0.696007 -0.000131231 0)
(0.696029 -0.00012675 0)
(0.795551 -0.000707398 0)
(0.795439 -0.00065931 0)
(0.79534 -0.000613786 0)
(0.795253 -0.000571896 0)
(0.795176 -0.000533927 0)
(0.795109 -0.000499479 0)
(0.79505 -0.000467954 0)
(0.794998 -0.000438982 0)
(0.794952 -0.000412509 0)
(0.794912 -0.000388596 0)
(0.794877 -0.000367188 0)
(0.794846 -0.000348013 0)
(0.794819 -0.000330653 0)
(0.794796 -0.000314685 0)
(0.794775 -0.000299799 0)
(0.794758 -0.00028584 0)
(0.794743 -0.000272774 0)
(0.79473 -0.000260626 0)
(0.794719 -0.000249406 0)
(0.794709 -0.000239079 0)
(0.794702 -0.000229557 0)
(0.794695 -0.000220718 0)
(0.79469 -0.000212432 0)
(0.794686 -0.000204591 0)
(0.794683 -0.000197119 0)
(0.794681 -0.000189975 0)
(0.79468 -0.000183146 0)
(0.79468 -0.000176633 0)
(0.79468 -0.000170444 0)
(0.79468 -0.000164579 0)
(0.794682 -0.00015903 0)
(0.794683 -0.000153778 0)
(0.794685 -0.000148797 0)
(0.794688 -0.000144058 0)
(0.79469 -0.000139531 0)
(0.87569 -0.000567865 0)
(0.87555 -0.000532798 0)
(0.875421 -0.000498956 0)
(0.875302 -0.000467466 0)
(0.875192 -0.000438792 0)
(0.875091 -0.000412738 0)
(0.874998 -0.00038885 0)
(0.874911 -0.000366808 0)
(0.874831 -0.000346575 0)
(0.874756 -0.000328261 0)
(0.874687 -0.000311891 0)
(0.874622 -0.000297295 0)
(0.874562 -0.000284143 0)
(0.874506 -0.000272059 0)
(0.874453 -0.000260751 0)
(0.874403 -0.000250065 0)
(0.874357 -0.000239973 0)
(0.874314 -0.000230517 0)
(0.874273 -0.000221739 0)
(0.874235 -0.000213642 0)
(0.874199 -0.000206171 0)
(0.874165 -0.000199228 0)
(0.874133 -0.000192698 0)
(0.874103 -0.000186478 0)
(0.874074 -0.000180495 0)
(0.874047 -0.000174713 0)
(0.874022 -0.000169126 0)
(0.873998 -0.000163748 0)
(0.873975 -0.000158599 0)
(0.873954 -0.000153693 0)
(0.873934 -0.000149031 0)
(0.873914 -0.000144602 0)
(0.873896 -0.000140383 0)
(0.873879 -0.000136347 0)
(0.873862 -0.000132467 0)
(0.935801 -0.000412993 0)
(0.935648 -0.000388957 0)
(0.935505 -0.00036536 0)
(0.935372 -0.00034318 0)
(0.935247 -0.000322893 0)
(0.93513 -0.000304446 0)
(0.935021 -0.00028753 0)
(0.934917 -0.000271904 0)
(0.93482 -0.000257536 0)
(0.934729 -0.000244529 0)
(0.934642 -0.000232946 0)
(0.93456 -0.000222695 0)
(0.934482 -0.00021354 0)
(0.934408 -0.000205188 0)
(0.934337 -0.000197394 0)
(0.934269 -0.000190017 0)
(0.934204 -0.000183026 0)
(0.934142 -0.000176452 0)
(0.934083 -0.000170344 0)
(0.934027 -0.000164719 0)
(0.933972 -0.000159548 0)
(0.93392 -0.00015476 0)
(0.93387 -0.000150265 0)
(0.933822 -0.000145973 0)
(0.933776 -0.000141822 0)
(0.933731 -0.000137776 0)
(0.933688 -0.000133832 0)
(0.933647 -0.000130006 0)
(0.933607 -0.000126319 0)
(0.933569 -0.000122791 0)
(0.933532 -0.000119428 0)
(0.933496 -0.000116227 0)
(0.933462 -0.000113169 0)
(0.933429 -0.000110233 0)
(0.933396 -0.000107395 0)
(0.975871 -0.000250428 0)
(0.975712 -0.000236381 0)
(0.975562 -0.000222414 0)
(0.975422 -0.000209175 0)
(0.97529 -0.000197013 0)
(0.975165 -0.000185938 0)
(0.975048 -0.000175778 0)
(0.974937 -0.000166383 0)
(0.974832 -0.000157733 0)
(0.974732 -0.000149898 0)
(0.974638 -0.000142933 0)
(0.974548 -0.000136801 0)
(0.974462 -0.000131364 0)
(0.974379 -0.00012644 0)
(0.974299 -0.000121867 0)
(0.974223 -0.000117547 0)
(0.974149 -0.000113451 0)
(0.974078 -0.000109597 0)
(0.974009 -0.000106018 0)
(0.973943 -0.000102731 0)
(0.973879 -9.97243e-05 0)
(0.973818 -9.69555e-05 0)
(0.973758 -9.43666e-05 0)
(0.9737 -9.18989e-05 0)
(0.973643 -8.9507e-05 0)
(0.973588 -8.71657e-05 0)
(0.973535 -8.48705e-05 0)
(0.973483 -8.26315e-05 0)
(0.973433 -8.04654e-05 0)
(0.973384 -7.83867e-05 0)
(0.973337 -7.6403e-05 0)
(0.973291 -7.45124e-05 0)
(0.973246 -7.27047e-05 0)
(0.973203 -7.09648e-05 0)
(0.973161 -6.92765e-05 0)
(0.995905 -8.38772e-05 0)
(0.995743 -7.92678e-05 0)
(0.99559 -7.46507e-05 0)
(0.995446 -7.0245e-05 0)
(0.995311 -6.61786e-05 0)
(0.995183 -6.24699e-05 0)
(0.995063 -5.9073e-05 0)
(0.994948 -5.59393e-05 0)
(0.99484 -5.30546e-05 0)
(0.994738 -5.04369e-05 0)
(0.99464 -4.81044e-05 0)
(0.994547 -4.60487e-05 0)
(0.994457 -4.42298e-05 0)
(0.994371 -4.25901e-05 0)
(0.994288 -4.10753e-05 0)
(0.994208 -3.96501e-05 0)
(0.994131 -3.83018e-05 0)
(0.994057 -3.7034e-05 0)
(0.993984 -3.58563e-05 0)
(0.993915 -3.47743e-05 0)
(0.993847 -3.37845e-05 0)
(0.993781 -3.2874e-05 0)
(0.993717 -3.20239e-05 0)
(0.993655 -3.12148e-05 0)
(0.993594 -3.04312e-05 0)
(0.993535 -2.96641e-05 0)
(0.993477 -2.89114e-05 0)
(0.993421 -2.81758e-05 0)
(0.993366 -2.74626e-05 0)
(0.993312 -2.67766e-05 0)
(0.99326 -2.61203e-05 0)
(0.99321 -2.5493e-05 0)
(0.99316 -2.48913e-05 0)
(0.993112 -2.43102e-05 0)
(0.993065 -2.37442e-05 0)
(0.995905 8.39098e-05 0)
(0.995743 7.92699e-05 0)
(0.99559 7.46316e-05 0)
(0.995446 7.02378e-05 0)
(0.995311 6.62103e-05 0)
(0.995183 6.25374e-05 0)
(0.995063 5.91471e-05 0)
(0.994948 5.59892e-05 0)
(0.99484 5.30707e-05 0)
(0.994738 5.04334e-05 0)
(0.99464 4.81062e-05 0)
(0.994547 4.60761e-05 0)
(0.994457 4.42891e-05 0)
(0.994371 4.26748e-05 0)
(0.994288 4.11723e-05 0)
(0.994208 3.97464e-05 0)
(0.994131 3.83897e-05 0)
(0.994057 3.71126e-05 0)
(0.993984 3.59309e-05 0)
(0.993915 3.48536e-05 0)
(0.993847 3.38775e-05 0)
(0.993781 3.29875e-05 0)
(0.993717 3.21614e-05 0)
(0.993655 3.13761e-05 0)
(0.993594 3.06134e-05 0)
(0.993535 2.98633e-05 0)
(0.993477 2.91242e-05 0)
(0.993421 2.84004e-05 0)
(0.993366 2.76995e-05 0)
(0.993313 2.70281e-05 0)
(0.99326 2.63904e-05 0)
(0.99321 2.57864e-05 0)
(0.99316 2.52126e-05 0)
(0.993112 2.46634e-05 0)
(0.993065 2.41322e-05 0)
(0.975871 0.000250461 0)
(0.975712 0.00023639 0)
(0.975562 0.000222406 0)
(0.975422 0.000209178 0)
(0.97529 0.000197047 0)
(0.975165 0.000185998 0)
(0.975048 0.000175838 0)
(0.974937 0.000166422 0)
(0.974832 0.000157746 0)
(0.974732 0.0001499 0)
(0.974638 0.000142945 0)
(0.974548 0.000136836 0)
(0.974462 0.000131425 0)
(0.974379 0.00012652 0)
(0.974299 0.000121955 0)
(0.974223 0.000117633 0)
(0.974149 0.000113531 0)
(0.974078 0.000109673 0)
(0.974009 0.000106094 0)
(0.973943 0.000102815 0)
(0.97388 9.98216e-05 0)
(0.973818 9.70703e-05 0)
(0.973758 9.45007e-05 0)
(0.9737 9.20521e-05 0)
(0.973643 8.96776e-05 0)
(0.973588 8.73519e-05 0)
(0.973535 8.50709e-05 0)
(0.973483 8.28456e-05 0)
(0.973433 8.0694e-05 0)
(0.973385 7.8632e-05 0)
(0.973337 7.66678e-05 0)
(0.973291 7.48e-05 0)
(0.973247 7.30185e-05 0)
(0.973203 7.13077e-05 0)
(0.973161 6.9651e-05 0)
(0.935801 0.00041302 0)
(0.935648 0.000388968 0)
(0.935505 0.000365363 0)
(0.935372 0.000343192 0)
(0.935247 0.000322925 0)
(0.93513 0.000304491 0)
(0.935021 0.000287571 0)
(0.934917 0.00027193 0)
(0.93482 0.00025755 0)
(0.934729 0.000244546 0)
(0.934642 0.000232976 0)
(0.93456 0.000222742 0)
(0.934482 0.000213601 0)
(0.934408 0.000205255 0)
(0.934337 0.000197462 0)
(0.934269 0.000190085 0)
(0.934204 0.000183095 0)
(0.934142 0.000176526 0)
(0.934083 0.000170426 0)
(0.934027 0.000164812 0)
(0.933972 0.000159652 0)
(0.93392 0.000154875 0)
(0.93387 0.000150391 0)
(0.933822 0.000146111 0)
(0.933776 0.000141971 0)
(0.933731 0.000137939 0)
(0.933688 0.000134011 0)
(0.933647 0.000130201 0)
(0.933607 0.000126532 0)
(0.933569 0.000123023 0)
(0.933532 0.000119681 0)
(0.933496 0.000116501 0)
(0.933462 0.000113466 0)
(0.933429 0.000110554 0)
(0.933397 0.000107742 0)
(0.87569 0.000567887 0)
(0.87555 0.000532814 0)
(0.875421 0.000498972 0)
(0.875302 0.00046749 0)
(0.875192 0.000438821 0)
(0.875091 0.000412764 0)
(0.874998 0.000388867 0)
(0.874911 0.000366823 0)
(0.874831 0.000346599 0)
(0.874756 0.000328299 0)
(0.874687 0.000311942 0)
(0.874622 0.00029735 0)
(0.874562 0.000284194 0)
(0.874506 0.000272103 0)
(0.874453 0.000260793 0)
(0.874403 0.000250112 0)
(0.874357 0.000240032 0)
(0.874314 0.000230591 0)
(0.874273 0.000221829 0)
(0.874235 0.000213744 0)
(0.874199 0.000206279 0)
(0.874165 0.000199338 0)
(0.874133 0.000192809 0)
(0.874103 0.000186592 0)
(0.874074 0.000180617 0)
(0.874048 0.000174847 0)
(0.874022 0.000169277 0)
(0.873998 0.000163919 0)
(0.873976 0.000158791 0)
(0.873954 0.000153906 0)
(0.873934 0.000149264 0)
(0.873915 0.000144853 0)
(0.873897 0.000140652 0)
(0.873879 0.000136634 0)
(0.873863 0.000132772 0)
(0.795551 0.000707412 0)
(0.795439 0.000659335 0)
(0.79534 0.000613821 0)
(0.795253 0.000571932 0)
(0.795176 0.000533949 0)
(0.795109 0.000499481 0)
(0.79505 0.00046795 0)
(0.794998 0.000438993 0)
(0.794952 0.000412546 0)
(0.794912 0.000388655 0)
(0.794877 0.000367252 0)
(0.794846 0.000348065 0)
(0.794819 0.000330687 0)
(0.794796 0.000314705 0)
(0.794775 0.000299819 0)
(0.794758 0.000285873 0)
(0.794743 0.000272829 0)
(0.79473 0.000260703 0)
(0.794719 0.0002495 0)
(0.794709 0.000239181 0)
(0.794702 0.000229658 0)
(0.794695 0.000220813 0)
(0.79469 0.000212522 0)
(0.794686 0.00020468 0)
(0.794683 0.000197214 0)
(0.794681 0.000190082 0)
(0.79468 0.00018327 0)
(0.79468 0.000176778 0)
(0.79468 0.00017061 0)
(0.794681 0.000164764 0)
(0.794682 0.000159232 0)
(0.794684 0.000153994 0)
(0.794686 0.000149025 0)
(0.794688 0.000144297 0)
(0.794691 0.000139781 0)
(0.695482 0.000810114 0)
(0.695437 0.000745395 0)
(0.695406 0.000685655 0)
(0.695387 0.000631615 0)
(0.695378 0.000583179 0)
(0.695377 0.000539671 0)
(0.695382 0.000500339 0)
(0.695393 0.000464704 0)
(0.695407 0.000432573 0)
(0.695424 0.000403831 0)
(0.695444 0.000378242 0)
(0.695465 0.000355403 0)
(0.695488 0.000334826 0)
(0.695512 0.000316062 0)
(0.695537 0.000298792 0)
(0.695563 0.000282833 0)
(0.695589 0.000268105 0)
(0.695616 0.000254565 0)
(0.695642 0.000242161 0)
(0.695668 0.000230805 0)
(0.695695 0.00022038 0)
(0.695721 0.000210751 0)
(0.695746 0.000201792 0)
(0.695772 0.000193394 0)
(0.695797 0.000185482 0)
(0.695822 0.000178004 0)
(0.695847 0.000170931 0)
(0.695871 0.000164245 0)
(0.695895 0.000157936 0)
(0.695919 0.000151988 0)
(0.695942 0.000146387 0)
(0.695964 0.000141107 0)
(0.695986 0.000136125 0)
(0.696008 0.000131411 0)
(0.696029 0.000126938 0)
(0.575841 0.000820743 0)
(0.575926 0.000737734 0)
(0.576017 0.000664318 0)
(0.576113 0.000600177 0)
(0.576209 0.000544341 0)
(0.576304 0.000495517 0)
(0.576398 0.000452541 0)
(0.57649 0.000414601 0)
(0.576578 0.000381181 0)
(0.576663 0.000351858 0)
(0.576745 0.000326152 0)
(0.576823 0.000303508 0)
(0.576899 0.000283369 0)
(0.576972 0.000265264 0)
(0.577041 0.00024885 0)
(0.577108 0.000233913 0)
(0.577173 0.000220316 0)
(0.577235 0.00020796 0)
(0.577294 0.000196742 0)
(0.577351 0.000186551 0)
(0.577406 0.000177257 0)
(0.577459 0.000168735 0)
(0.57751 0.000160866 0)
(0.577559 0.000153552 0)
(0.577607 0.000146716 0)
(0.577653 0.000140307 0)
(0.577697 0.000134285 0)
(0.57774 0.000128626 0)
(0.577781 0.000123312 0)
(0.577821 0.000118326 0)
(0.57786 0.00011365 0)
(0.577897 0.000109265 0)
(0.577933 0.000105146 0)
(0.577968 0.000101269 0)
(0.578002 9.761e-05 0)
(0.437382 0.000651423 0)
(0.437624 0.000566654 0)
(0.437848 0.00049632 0)
(0.438056 0.000438005 0)
(0.438247 0.000389385 0)
(0.438423 0.000348413 0)
(0.438586 0.000313512 0)
(0.438737 0.000283584 0)
(0.438876 0.00025787 0)
(0.439005 0.000235765 0)
(0.439125 0.000216702 0)
(0.439238 0.000200139 0)
(0.439343 0.000185589 0)
(0.439441 0.000172665 0)
(0.439534 0.000161086 0)
(0.439622 0.000150663 0)
(0.439704 0.000141266 0)
(0.439782 0.000132794 0)
(0.439856 0.000125156 0)
(0.439926 0.000118258 0)
(0.439993 0.000112005 0)
(0.440056 0.000106303 0)
(0.440117 0.000101065 0)
(0.440175 9.62202e-05 0)
(0.44023 9.1711e-05 0)
(0.440283 8.74974e-05 0)
(0.440334 8.35505e-05 0)
(0.440383 7.98531e-05 0)
(0.440429 7.63914e-05 0)
(0.440474 7.31556e-05 0)
(0.440517 7.01327e-05 0)
(0.440559 6.73101e-05 0)
(0.440599 6.467e-05 0)
(0.440637 6.21957e-05 0)
(0.440674 5.9867e-05 0)
(0.280908 0.000319891 0)
(0.281201 0.000270144 0)
(0.281458 0.000231357 0)
(0.281683 0.000200684 0)
(0.281883 0.000175997 0)
(0.282062 0.000155743 0)
(0.282223 0.000138862 0)
(0.282368 0.000124658 0)
(0.282499 0.000112654 0)
(0.282619 0.000102477 0)
(0.282729 9.37938e-05 0)
(0.282831 8.63064e-05 0)
(0.282925 7.97658e-05 0)
(0.283012 7.39824e-05 0)
(0.283093 6.88248e-05 0)
(0.28317 6.42046e-05 0)
(0.283241 6.00616e-05 0)
(0.283308 5.63464e-05 0)
(0.283371 5.3014e-05 0)
(0.28343 5.0017e-05 0)
(0.283486 4.73084e-05 0)
(0.283539 4.48418e-05 0)
(0.28359 4.25773e-05 0)
(0.283638 4.04809e-05 0)
(0.283684 3.85293e-05 0)
(0.283728 3.67049e-05 0)
(0.28377 3.49987e-05 0)
(0.28381 3.34035e-05 0)
(0.283848 3.19157e-05 0)
(0.283884 3.05299e-05 0)
(0.283919 2.92412e-05 0)
(0.283953 2.80412e-05 0)
(0.283985 2.69222e-05 0)
(0.284016 2.58738e-05 0)
(0.284046 2.48879e-05 0)
(0.106562 3.56819e-05 0)
(0.106719 2.95532e-05 0)
(0.106852 2.49898e-05 0)
(0.106967 2.14976e-05 0)
(0.107067 1.87497e-05 0)
(0.107155 1.65343e-05 0)
(0.107233 1.47067e-05 0)
(0.107303 1.31717e-05 0)
(0.107365 1.18743e-05 0)
(0.107422 1.07825e-05 0)
(0.107474 9.86771e-06 0)
(0.107522 9.09576e-06 0)
(0.107566 8.42861e-06 0)
(0.107606 7.83392e-06 0)
(0.107644 7.29088e-06 0)
(0.107679 6.79214e-06 0)
(0.107712 6.33845e-06 0)
(0.107743 5.93351e-06 0)
(0.107771 5.57768e-06 0)
(0.107799 5.26706e-06 0)
(0.107824 4.99291e-06 0)
(0.107849 4.74545e-06 0)
(0.107872 4.5152e-06 0)
(0.107894 4.29627e-06 0)
(0.107914 4.08554e-06 0)
(0.107934 3.88362e-06 0)
(0.107953 3.69208e-06 0)
(0.107971 3.51368e-06 0)
(0.107988 3.34964e-06 0)
(0.108005 3.20077e-06 0)
(0.10802 3.06562e-06 0)
(0.108036 2.94266e-06 0)
(0.10805 2.8289e-06 0)
(0.108064 2.72238e-06 0)
(0.108077 2.62056e-06 0)
(0.10809 -2.51809e-06 0)
(0.108102 -2.42312e-06 0)
(0.108114 -2.33138e-06 0)
(0.108126 -2.24318e-06 0)
(0.108137 -2.15876e-06 0)
(0.108147 -2.0786e-06 0)
(0.108158 -2.00279e-06 0)
(0.108167 -1.93152e-06 0)
(0.108177 -1.86449e-06 0)
(0.108186 -1.80155e-06 0)
(0.284074 -2.39245e-05 0)
(0.284102 -2.30388e-05 0)
(0.284129 -2.21945e-05 0)
(0.284154 -2.13878e-05 0)
(0.284179 -2.06164e-05 0)
(0.284203 -1.98795e-05 0)
(0.284226 -1.91765e-05 0)
(0.284248 -1.85073e-05 0)
(0.28427 -1.78713e-05 0)
(0.284291 -1.72678e-05 0)
(0.44071 -5.759e-05 0)
(0.440744 -5.54988e-05 0)
(0.440777 -5.35071e-05 0)
(0.44081 -5.16053e-05 0)
(0.440841 -4.97868e-05 0)
(0.440871 -4.80478e-05 0)
(0.4409 -4.63862e-05 0)
(0.440928 -4.48007e-05 0)
(0.440955 -4.32899e-05 0)
(0.440982 -4.18519e-05 0)
(0.578034 -9.40105e-05 0)
(0.578066 -9.07083e-05 0)
(0.578097 -8.75585e-05 0)
(0.578127 -8.45475e-05 0)
(0.578156 -8.16657e-05 0)
(0.578184 -7.89069e-05 0)
(0.578212 -7.62671e-05 0)
(0.578238 -7.37433e-05 0)
(0.578264 -7.13328e-05 0)
(0.578289 -6.90319e-05 0)
(0.696049 -0.000122482 0)
(0.69607 -0.000118405 0)
(0.69609 -0.000114501 0)
(0.696109 -0.000110756 0)
(0.696128 -0.000107162 0)
(0.696147 -0.000103712 0)
(0.696165 -0.000100404 0)
(0.696183 -9.72329e-05 0)
(0.6962 -9.41957e-05 0)
(0.696217 -9.12876e-05 0)
(0.794693 -0.00013519 0)
(0.794696 -0.000131015 0)
(0.7947 -0.000126991 0)
(0.794704 -0.000123111 0)
(0.794707 -0.000119369 0)
(0.794711 -0.000115764 0)
(0.794715 -0.000112295 0)
(0.794719 -0.000108958 0)
(0.794723 -0.000105752 0)
(0.794728 -0.000102671 0)
(0.873847 -0.000128719 0)
(0.873832 -0.000125086 0)
(0.873818 -0.000121558 0)
(0.873804 -0.000118132 0)
(0.873791 -0.000114809 0)
(0.873779 -0.00011159 0)
(0.873767 -0.00010848 0)
(0.873756 -0.000105478 0)
(0.873745 -0.000102582 0)
(0.873735 -9.97889e-05 0)
(0.933365 -0.000104635 0)
(0.933335 -0.000101939 0)
(0.933306 -9.9301e-05 0)
(0.933278 -9.67213e-05 0)
(0.933251 -9.42033e-05 0)
(0.933225 -9.17523e-05 0)
(0.933199 -8.93731e-05 0)
(0.933175 -8.70682e-05 0)
(0.933151 -8.48376e-05 0)
(0.933128 -8.26785e-05 0)
(0.973119 -6.76262e-05 0)
(0.973079 -6.60049e-05 0)
(0.97304 -6.44088e-05 0)
(0.973002 -6.28386e-05 0)
(0.972965 -6.12983e-05 0)
(0.972929 -5.97925e-05 0)
(0.972894 -5.83257e-05 0)
(0.97286 -5.69003e-05 0)
(0.972826 -5.55169e-05 0)
(0.972794 -5.41736e-05 0)
(0.993019 -2.31886e-05 0)
(0.992973 -2.26407e-05 0)
(0.992929 -2.20994e-05 0)
(0.992886 -2.15653e-05 0)
(0.992845 -2.10399e-05 0)
(0.992804 -2.05249e-05 0)
(0.992764 -2.0022e-05 0)
(0.992725 -1.95318e-05 0)
(0.992686 -1.90544e-05 0)
(0.992649 -1.8589e-05 0)
(0.993019 2.36134e-05 0)
(0.992974 2.31029e-05 0)
(0.99293 2.2599e-05 0)
(0.992887 2.21017e-05 0)
(0.992845 2.16126e-05 0)
(0.992804 2.11338e-05 0)
(0.992764 2.06675e-05 0)
(0.992725 2.02152e-05 0)
(0.992687 1.97776e-05 0)
(0.992649 1.93548e-05 0)
(0.97312 6.80338e-05 0)
(0.97308 6.64467e-05 0)
(0.97304 6.48852e-05 0)
(0.973002 6.33499e-05 0)
(0.972965 6.18445e-05 0)
(0.972929 6.03743e-05 0)
(0.972894 5.89438e-05 0)
(0.97286 5.75562e-05 0)
(0.972827 5.62123e-05 0)
(0.972794 5.49109e-05 0)
(0.933366 0.000105008 0)
(0.933336 0.000102341 0)
(0.933307 9.97333e-05 0)
(0.933279 9.7185e-05 0)
(0.933252 9.46998e-05 0)
(0.933225 9.2283e-05 0)
(0.9332 8.99393e-05 0)
(0.933175 8.76714e-05 0)
(0.933152 8.54791e-05 0)
(0.933128 8.33598e-05 0)
(0.873847 0.000129043 0)
(0.873832 0.000125432 0)
(0.873818 0.000121929 0)
(0.873805 0.00011853 0)
(0.873792 0.000115237 0)
(0.87378 0.000112051 0)
(0.873768 0.000108974 0)
(0.873757 0.000106006 0)
(0.873746 0.000103146 0)
(0.873736 0.000100389 0)
(0.794694 0.000135454 0)
(0.794697 0.000131295 0)
(0.794701 0.000127291 0)
(0.794704 0.000123434 0)
(0.794708 0.000119718 0)
(0.794712 0.000116141 0)
(0.794716 0.000112701 0)
(0.79472 0.000109394 0)
(0.794725 0.000106218 0)
(0.794729 0.000103166 0)
(0.69605 0.00012268 0)
(0.69607 0.000118615 0)
(0.69609 0.000114725 0)
(0.69611 0.000110999 0)
(0.696129 0.000107425 0)
(0.696148 0.000103998 0)
(0.696166 0.000100712 0)
(0.696184 9.75644e-05 0)
(0.696202 9.45492e-05 0)
(0.696219 9.16632e-05 0)
(0.578035 9.41444e-05 0)
(0.578067 9.08503e-05 0)
(0.578098 8.77109e-05 0)
(0.578128 8.47116e-05 0)
(0.578157 8.18435e-05 0)
(0.578185 7.90988e-05 0)
(0.578213 7.64742e-05 0)
(0.578239 7.3965e-05 0)
(0.578265 7.15694e-05 0)
(0.57829 6.92824e-05 0)
(0.44071 5.76674e-05 0)
(0.440745 5.55798e-05 0)
(0.440778 5.3593e-05 0)
(0.44081 5.16959e-05 0)
(0.440842 4.98837e-05 0)
(0.440872 4.81511e-05 0)
(0.440901 4.64974e-05 0)
(0.440929 4.49195e-05 0)
(0.440957 4.34174e-05 0)
(0.440983 4.19874e-05 0)
(0.284075 2.3955e-05 0)
(0.284102 2.30695e-05 0)
(0.284129 2.2225e-05 0)
(0.284155 2.14193e-05 0)
(0.28418 2.06492e-05 0)
(0.284204 1.9915e-05 0)
(0.284227 1.92149e-05 0)
(0.284249 1.85498e-05 0)
(0.284271 1.79176e-05 0)
(0.284292 1.73184e-05 0)
(0.10809 2.52262e-06 0)
(0.108102 2.42738e-06 0)
(0.108114 2.33536e-06 0)
(0.108126 2.24636e-06 0)
(0.108137 2.16148e-06 0)
(0.108148 2.08066e-06 0)
(0.108158 2.00481e-06 0)
(0.108168 1.93342e-06 0)
(0.108177 1.86693e-06 0)
(0.108187 1.80436e-06 0)
(0.108195 -1.74211e-06 0)
(0.108204 -1.68588e-06 0)
(0.108212 -1.63219e-06 0)
(0.10822 -1.58083e-06 0)
(0.108228 -1.53129e-06 0)
(0.108236 -1.48351e-06 0)
(0.108243 -1.43719e-06 0)
(0.10825 -1.39243e-06 0)
(0.108257 -1.34906e-06 0)
(0.108264 -1.3073e-06 0)
(0.10827 -1.26698e-06 0)
(0.108276 -1.22834e-06 0)
(0.108283 -1.19119e-06 0)
(0.108288 -1.15569e-06 0)
(0.108294 -1.12161e-06 0)
(0.1083 -1.08905e-06 0)
(0.108305 -1.05774e-06 0)
(0.10831 -1.02774e-06 0)
(0.108316 -9.98768e-07 0)
(0.108321 -9.7091e-07 0)
(0.108325 -9.43885e-07 0)
(0.10833 -9.17816e-07 0)
(0.108335 -8.9246e-07 0)
(0.108339 -8.67976e-07 0)
(0.108343 -8.44143e-07 0)
(0.108348 -8.21166e-07 0)
(0.108352 -7.98828e-07 0)
(0.108356 -7.77342e-07 0)
(0.10836 -7.56486e-07 0)
(0.108363 -7.36485e-07 0)
(0.108367 -7.17093e-07 0)
(0.108371 -6.98537e-07 0)
(0.108374 -6.80565e-07 0)
(0.108377 -6.63432e-07 0)
(0.108381 -6.46921e-07 0)
(0.284311 -1.6695e-05 0)
(0.28433 -1.61511e-05 0)
(0.284349 -1.56334e-05 0)
(0.284368 -1.51395e-05 0)
(0.284385 -1.46666e-05 0)
(0.284402 -1.42126e-05 0)
(0.284419 -1.37755e-05 0)
(0.284435 -1.33541e-05 0)
(0.284451 -1.29471e-05 0)
(0.284466 -1.25542e-05 0)
(0.284481 -1.21749e-05 0)
(0.284495 -1.18092e-05 0)
(0.284509 -1.14568e-05 0)
(0.284522 -1.11177e-05 0)
(0.284535 -1.07915e-05 0)
(0.284548 -1.04779e-05 0)
(0.28456 -1.01762e-05 0)